Generated by trjconv : CNT in water t= 403.00000
33518
    1C        C    1   2.846   2.772   4.748
    1C        C    2   2.900   2.723   4.869
    1C        C    3   2.839   2.773   4.985
    1C        C    4   2.850   2.777   4.262
    1C        C    5   2.902   2.732   4.385
    1C        C    6   2.849   2.779   4.507
    1C        C    7   3.016   2.644   4.622
    1C        C    8   2.900   2.725   4.627
    1C        C    9   3.079   2.610   4.744
    1C        C   10   3.009   2.633   4.864
    1C        C   11   3.186   2.499   4.976
    1C        C   12   3.061   2.563   4.973
    1C        C   13   2.850   2.775   3.773
    1C        C   14   2.902   2.724   3.894
    1C        C   15   2.851   2.776   4.015
    1C        C   16   3.023   2.658   4.140
    1C        C   17   2.907   2.737   4.139
    1C        C   18   3.084   2.620   4.262
    1C        C   19   3.017   2.649   4.383
    1C        C   20   3.215   2.564   4.506
    1C        C   21   3.082   2.611   4.502
    1C        C   22   3.283   2.538   4.627
    1C        C   23   3.210   2.553   4.747
    1C        C   24   3.416   2.482   4.865
    1C        C   25   3.275   2.508   4.865
    1C        C   26   3.490   2.469   4.983
    1C        C   27   2.852   2.772   3.284
    1C        C   28   2.911   2.731   3.405
    1C        C   29   2.858   2.778   3.527
    1C        C   30   3.018   2.645   3.652
    1C        C   31   2.906   2.731   3.651
    1C        C   32   3.080   2.609   3.774
    1C        C   33   3.023   2.650   3.897
    1C        C   34   3.214   2.562   4.018
    1C        C   35   3.084   2.616   4.020
    1C        C   36   3.281   2.541   4.141
    1C        C   37   3.212   2.560   4.263
    1C        C   38   3.420   2.507   4.381
    1C        C   39   3.282   2.541   4.384
    1C        C   40   3.491   2.501   4.503
    1C        C   41   3.420   2.504   4.625
    1C        C   42   3.633   2.484   4.746
    1C        C   43   3.491   2.479   4.745
    1C        C   44   3.709   2.490   4.866
    1C        C   45   3.629   2.480   4.980
    1C        C   46   2.840   2.755   2.795
    1C        C   47   2.897   2.713   2.917
    1C        C   48   2.846   2.763   3.039
    1C        C   49   3.020   2.643   3.163
    1C        C   50   2.903   2.724   3.161
    1C        C   51   3.082   2.607   3.284
    1C        C   52   3.023   2.645   3.406
    1C        C   53   3.211   2.554   3.531
    1C        C   54   3.080   2.608   3.530
    1C        C   55   3.279   2.532   3.652
    1C        C   56   3.211   2.556   3.774
    1C        C   57   3.417   2.509   3.895
    1C        C   58   3.278   2.533   3.896
    1C        C   59   3.488   2.504   4.017
    1C        C   60   3.419   2.510   4.140
    1C        C   61   3.633   2.496   4.261
    1C        C   62   3.492   2.500   4.260
    1C        C   63   3.706   2.503   4.382
    1C        C   64   3.632   2.501   4.502
    1C        C   65   3.838   2.543   4.624
    1C        C   66   3.702   2.505   4.625
    1C        C   67   3.911   2.559   4.743
    1C        C   68   3.845   2.526   4.864
    1C        C   69   4.051   2.587   4.981
    1C        C   70   3.924   2.530   4.980
    1C        C   71   2.825   2.737   2.308
    1C        C   72   2.882   2.690   2.428
    1C        C   73   2.835   2.747   2.548
    1C        C   74   3.008   2.629   2.673
    1C        C   75   2.889   2.705   2.672
    1C        C   76   3.075   2.600   2.794
    1C        C   77   3.017   2.639   2.917
    1C        C   78   3.208   2.550   3.040
    1C        C   79   3.081   2.611   3.040
    1C        C   80   3.276   2.525   3.161
    1C        C   81   3.212   2.551   3.285
    1C        C   82   3.417   2.503   3.404
    1C        C   83   3.279   2.534   3.408
    1C        C   84   3.486   2.498   3.527
    1C        C   85   3.417   2.503   3.650
    1C        C   86   3.628   2.498   3.769
    1C        C   87   3.487   2.495   3.772
    1C        C   88   3.698   2.503   3.892
    1C        C   89   3.629   2.496   4.016
    1C        C   90   3.836   2.545   4.135
    1C        C   91   3.701   2.505   4.137
    1C        C   92   3.902   2.574   4.257
    1C        C   93   3.841   2.546   4.381
    1C        C   94   4.035   2.628   4.503
    1C        C   95   3.908   2.568   4.503
    1C        C   96   4.096   2.669   4.623
    1C        C   97   4.038   2.623   4.744
    1C        C   98   4.187   2.771   4.863
    1C        C   99   4.100   2.658   4.867
    1C        C  100   4.201   2.854   4.975
    1C        C  101   2.824   2.726   2.068
    1C        C  102   2.990   2.590   2.189
    1C        C  103   2.880   2.682   2.189
    1C        C  104   3.062   2.572   2.311
    1C        C  105   3.004   2.619   2.431
    1C        C  106   3.202   2.538   2.550
    1C        C  107   3.071   2.591   2.552
    1C        C  108   3.273   2.522   2.671
    1C        C  109   3.205   2.545   2.793
    1C        C  110   3.410   2.496   2.915
    1C        C  111   3.272   2.526   2.916
    1C        C  112   3.484   2.490   3.035
    1C        C  113   3.415   2.502   3.158
    1C        C  114   3.626   2.503   3.278
    1C        C  115   3.485   2.498   3.281
    1C        C  116   3.696   2.511   3.400
    1C        C  117   3.628   2.502   3.524
    1C        C  118   3.834   2.542   3.647
    1C        C  119   3.698   2.505   3.646
    1C        C  120   3.898   2.568   3.770
    1C        C  121   3.833   2.543   3.893
    1C        C  122   4.027   2.635   4.015
    1C        C  123   3.903   2.569   4.013
    1C        C  124   4.086   2.677   4.137
    1C        C  125   4.027   2.640   4.260
    1C        C  126   4.200   2.763   4.379
    1C        C  127   4.090   2.675   4.381
    1C        C  128   4.248   2.820   4.500
    1C        C  129   4.197   2.767   4.621
    1C        C  130   4.323   2.940   4.743
    1C        C  131   4.242   2.823   4.743
    1C        C  132   4.356   3.007   4.862
    1C        C  133   4.285   2.965   4.975
    1C        C  134   3.174   2.464   2.084
    1C        C  135   3.040   2.505   2.085
    1C        C  136   3.261   2.480   2.192
    1C        C  137   3.192   2.516   2.311
    1C        C  138   3.407   2.481   2.429
    1C        C  139   3.267   2.503   2.430
    1C        C  140   3.481   2.484   2.549
    1C        C  141   3.412   2.495   2.671
    1C        C  142   3.622   2.491   2.794
    1C        C  143   3.481   2.484   2.793
    1C        C  144   3.697   2.493   2.914
    1C        C  145   3.625   2.490   3.035
    1C        C  146   3.835   2.537   3.157
    1C        C  147   3.698   2.503   3.156
    1C        C  148   3.901   2.561   3.279
    1C        C  149   3.835   2.537   3.402
    1C        C  150   4.029   2.621   3.527
    1C        C  151   3.903   2.559   3.524
    1C        C  152   4.087   2.666   3.648
    1C        C  153   4.025   2.630   3.770
    1C        C  154   4.193   2.762   3.889
    1C        C  155   4.084   2.671   3.891
    1C        C  156   4.245   2.811   4.011
    1C        C  157   4.195   2.767   4.135
    1C        C  158   4.338   2.923   4.255
    1C        C  159   4.251   2.812   4.257
    1C        C  160   4.377   2.985   4.376
    1C        C  161   4.335   2.932   4.499
    1C        C  162   4.436   3.119   4.617
    1C        C  163   4.371   2.993   4.621
    1C        C  164   4.469   3.187   4.736
    1C        C  165   4.430   3.127   4.858
    1C        C  166   4.522   3.321   4.973
    1C        C  167   4.483   3.188   4.972
    1C        C  168   3.475   2.438   2.074
    1C        C  169   3.400   2.460   2.190
    1C        C  170   3.620   2.470   2.307
    1C        C  171   3.478   2.465   2.308
    1C        C  172   3.693   2.481   2.428
    1C        C  173   3.622   2.487   2.550
    1C        C  174   3.830   2.533   2.667
    1C        C  175   3.692   2.504   2.672
    1C        C  176   3.899   2.552   2.790
    1C        C  177   3.834   2.526   2.913
    1C        C  178   4.027   2.619   3.032
    1C        C  179   3.902   2.553   3.034
    1C        C  180   4.083   2.660   3.156
    1C        C  181   4.026   2.626   3.280
    1C        C  182   4.195   2.751   3.399
    1C        C  183   4.086   2.662   3.404
    1C        C  184   4.248   2.800   3.520
    1C        C  185   4.196   2.756   3.644
    1C        C  186   4.337   2.915   3.765
    1C        C  187   4.244   2.808   3.766
    1C        C  188   4.376   2.977   3.885
    1C        C  189   4.336   2.920   4.008
    1C        C  190   4.440   3.104   4.133
    1C        C  191   4.375   2.979   4.130
    1C        C  192   4.472   3.172   4.252
    1C        C  193   4.444   3.109   4.376
    1C        C  194   4.505   3.318   4.492
    1C        C  195   4.466   3.182   4.495
    1C        C  196   4.526   3.389   4.613
    1C        C  197   4.518   3.321   4.736
    1C        C  198   4.554   3.537   4.852
    1C        C  199   4.540   3.395   4.855
    1C        C  200   4.580   3.622   4.965
    1C        C  201   3.614   2.418   2.072
    1C        C  202   3.827   2.507   2.185
    1C        C  203   3.690   2.463   2.184
    1C        C  204   3.899   2.537   2.304
    1C        C  205   3.831   2.512   2.425
    1C        C  206   4.023   2.613   2.545
    1C        C  207   3.898   2.547   2.544
    1C        C  208   4.082   2.654   2.667
    1C        C  209   4.025   2.616   2.790
    1C        C  210   4.198   2.743   2.907
    1C        C  211   4.088   2.655   2.910
    1C        C  212   4.247   2.794   3.030
    1C        C  213   4.196   2.745   3.153
    1C        C  214   4.333   2.907   3.274
    1C        C  215   4.245   2.797   3.275
    1C        C  216   4.371   2.968   3.396
    1C        C  217   4.332   2.913   3.520
    1C        C  218   4.435   3.100   3.640
    1C        C  219   4.373   2.973   3.641
    1C        C  220   4.458   3.169   3.762
    1C        C  221   4.434   3.106   3.886
    1C        C  222   4.494   3.307   4.004
    1C        C  223   4.461   3.170   4.009
    1C        C  224   4.508   3.379   4.125
    1C        C  225   4.500   3.310   4.248
    1C        C  226   4.522   3.526   4.368
    1C        C  227   4.510   3.385   4.368
    1C        C  228   4.528   3.600   4.488
    1C        C  229   4.532   3.530   4.610
    1C        C  230   4.499   3.744   4.728
    1C        C  231   4.532   3.606   4.730
    1C        C  232   4.492   3.819   4.848
    1C        C  233   4.547   3.758   4.962
    1C        C  234   4.012   2.615   2.068
    1C        C  235   3.891   2.547   2.067
    1C        C  236   4.083   2.652   2.184
    1C        C  237   4.023   2.606   2.303
    1C        C  238   4.200   2.731   2.422
    1C        C  239   4.088   2.643   2.424
    1C        C  240   4.250   2.786   2.542
    1C        C  241   4.193   2.742   2.664
    1C        C  242   4.331   2.905   2.787
    1C        C  243   4.250   2.790   2.784
    1C        C  244   4.370   2.967   2.908
    1C        C  245   4.333   2.906   3.030
    1C        C  246   4.435   3.092   3.150
    1C        C  247   4.370   2.967   3.152
    1C        C  248   4.460   3.157   3.273
    1C        C  249   4.433   3.096   3.397
    1C        C  250   4.493   3.302   3.515
    1C        C  251   4.462   3.164   3.517
    1C        C  252   4.505   3.373   3.636
    1C        C  253   4.497   3.305   3.759
    1C        C  254   4.517   3.515   3.880
    1C        C  255   4.516   3.373   3.881
    1C        C  256   4.512   3.590   4.000
    1C        C  257   4.511   3.520   4.123
    1C        C  258   4.493   3.733   4.243
    1C        C  259   4.513   3.593   4.244
    1C        C  260   4.475   3.805   4.363
    1C        C  261   4.489   3.736   4.486
    1C        C  262   4.425   3.942   4.604
    1C        C  263   4.471   3.808   4.606
    1C        C  264   4.399   4.009   4.726
    1C        C  265   4.433   3.947   4.848
    1C        C  266   4.319   4.134   4.959
    1C        C  267   4.389   4.015   4.963
    1C        C  268   4.265   2.776   2.066
    1C        C  269   4.201   2.729   2.182
    1C        C  270   4.348   2.888   2.300
    1C        C  271   4.254   2.781   2.302
    1C        C  272   4.383   2.953   2.420
    1C        C  273   4.335   2.898   2.542
    1C        C  274   4.439   3.084   2.661
    1C        C  275   4.371   2.961   2.664
    1C        C  276   4.466   3.153   2.782
    1C        C  277   4.436   3.092   2.905
    1C        C  278   4.503   3.292   3.025
    1C        C  279   4.466   3.156   3.028
    1C        C  280   4.507   3.363   3.148
    1C        C  281   4.490   3.295   3.270
    1C        C  282   4.508   3.510   3.389
    1C        C  283   4.501   3.368   3.391
    1C        C  284   4.508   3.581   3.511
    1C        C  285   4.513   3.514   3.636
    1C        C  286   4.487   3.725   3.754
    1C        C  287   4.508   3.585   3.758
    1C        C  288   4.474   3.796   3.876
    1C        C  289   4.492   3.730   3.999
    1C        C  290   4.430   3.934   4.117
    1C        C  291   4.477   3.800   4.120
    1C        C  292   4.400   4.001   4.237
    1C        C  293   4.426   3.938   4.361
    1C        C  294   4.325   4.127   4.478
    1C        C  295   4.395   4.004   4.481
    1C        C  296   4.282   4.187   4.599
    1C        C  297   4.327   4.132   4.721
    1C        C  298   4.201   4.314   4.839
    1C        C  299   4.284   4.198   4.839
    1C        C  300   4.170   4.402   4.947
    1C        C  301   4.350   2.886   2.062
    1C        C  302   4.467   3.071   2.176
    1C        C  303   4.394   2.948   2.180
    1C        C  304   4.482   3.144   2.297
    1C        C  305   4.443   3.081   2.417
    1C        C  306   4.501   3.286   2.539
    1C        C  307   4.464   3.150   2.539
    1C        C  308   4.513   3.359   2.660
    1C        C  309   4.501   3.290   2.783
    1C        C  310   4.519   3.504   2.899
    1C        C  311   4.514   3.363   2.904
    1C        C  312   4.514   3.574   3.021
    1C        C  313   4.512   3.505   3.144
    1C        C  314   4.483   3.717   3.266
    1C        C  315   4.506   3.577   3.265
    1C        C  316   4.476   3.789   3.388
    1C        C  317   4.495   3.721   3.511
    1C        C  318   4.429   3.926   3.628
    1C        C  319   4.478   3.793   3.631
    1C        C  320   4.393   3.989   3.749
    1C        C  321   4.422   3.927   3.872
    1C        C  322   4.314   4.110   3.990
    1C        C  323   4.395   3.994   3.994
    1C        C  324   4.277   4.168   4.113
    1C        C  325   4.324   4.120   4.237
    1C        C  326   4.186   4.285   4.354
    1C        C  327   4.286   4.186   4.356
    1C        C  328   4.138   4.341   4.475
    1C        C  329   4.192   4.296   4.597
    1C        C  330   4.025   4.435   4.715
    1C        C  331   4.142   4.354   4.716
    1C        C  332   3.971   4.494   4.831
    1C        C  333   4.054   4.481   4.943
    1C        C  334   4.551   3.269   2.062
    1C        C  335   4.535   3.130   2.065
    1C        C  336   4.539   3.350   2.175
    1C        C  337   4.511   3.283   2.296
    1C        C  338   4.517   3.497   2.413
    1C        C  339   4.514   3.356   2.417
    1C        C  340   4.519   3.571   2.533
    1C        C  341   4.522   3.500   2.655
    1C        C  342   4.498   3.714   2.775
    1C        C  343   4.516   3.573   2.776
    1C        C  344   4.479   3.781   2.898
    1C        C  345   4.489   3.713   3.021
    1C        C  346   4.422   3.916   3.137
    1C        C  347   4.469   3.783   3.142
    1C        C  348   4.390   3.979   3.260
    1C        C  349   4.426   3.921   3.384
    1C        C  350   4.317   4.105   3.504
    1C        C  351   4.396   3.987   3.505
    1C        C  352   4.276   4.166   3.624
    1C        C  353   4.319   4.109   3.746
    1C        C  354   4.179   4.273   3.867
    1C        C  355   4.272   4.166   3.867
    1C        C  356   4.129   4.321   3.989
    1C        C  357   4.181   4.271   4.111
    1C        C  358   4.010   4.401   4.230
    1C        C  359   4.125   4.319   4.232
    1C        C  360   3.952   4.443   4.352
    1C        C  361   4.019   4.419   4.474
    1C        C  362   3.830   4.521   4.593
    1C        C  363   3.959   4.464   4.593
    1C        C  364   3.763   4.552   4.713
    1C        C  365   3.839   4.544   4.832
    1C        C  366   3.629   4.597   4.948
    1C        C  367   3.766   4.573   4.948
    1C        C  368   4.508   3.565   2.054
    1C        C  369   4.525   3.491   2.172
    1C        C  370   4.505   3.708   2.289
    1C        C  371   4.515   3.567   2.290
    1C        C  372   4.490   3.782   2.408
    1C        C  373   4.503   3.711   2.530
    1C        C  374   4.426   3.909   2.650
    1C        C  375   4.481   3.779   2.651
    1C        C  376   4.394   3.974   2.772
    1C        C  377   4.428   3.913   2.894
    1C        C  378   4.318   4.099   3.012
    1C        C  379   4.393   3.979   3.014
    1C        C  380   4.276   4.154   3.134
    1C        C  381   4.317   4.100   3.258
    1C        C  382   4.181   4.263   3.378
    1C        C  383   4.277   4.158   3.380
    1C        C  384   4.128   4.313   3.498
    1C        C  385   4.178   4.269   3.623
    1C        C  386   4.007   4.396   3.742
    1C        C  387   4.124   4.316   3.744
    1C        C  388   3.947   4.432   3.865
    1C        C  389   4.010   4.398   3.986
    1C        C  390   3.815   4.484   4.108
    1C        C  391   3.946   4.430   4.108
    1C        C  392   3.752   4.517   4.230
    1C        C  393   3.823   4.501   4.351
    1C        C  394   3.618   4.558   4.476
    1C        C  395   3.757   4.531   4.472
    1C        C  396   3.547   4.567   4.598
    1C        C  397   3.623   4.571   4.716
    1C        C  398   3.409   4.558   4.837
    1C        C  399   3.548   4.584   4.835
    1C        C  400   3.345   4.519   4.956
    1C        C  401   4.500   3.704   2.055
    1C        C  402   4.458   3.920   2.168
    1C        C  403   4.491   3.783   2.170
    1C        C  404   4.415   3.982   2.288
    1C        C  405   4.442   3.915   2.409
    1C        C  406   4.329   4.098   2.525
    1C        C  407   4.404   3.979   2.529
    1C        C  408   4.280   4.150   2.647
    1C        C  409   4.319   4.094   2.771
    1C        C  410   4.177   4.257   2.891
    1C        C  411   4.277   4.157   2.890
    1C        C  412   4.125   4.304   3.014
    1C        C  413   4.177   4.255   3.135
    1C        C  414   4.004   4.380   3.252
    1C        C  415   4.124   4.306   3.256
    1C        C  416   3.943   4.415   3.374
    1C        C  417   4.007   4.386   3.497
    1C        C  418   3.813   4.473   3.619
    1C        C  419   3.945   4.423   3.618
    1C        C  420   3.747   4.499   3.741
    1C        C  421   3.815   4.483   3.863
    1C        C  422   3.610   4.534   3.990
    1C        C  423   3.747   4.502   3.986
    1C        C  424   3.542   4.549   4.113
    1C        C  425   3.614   4.546   4.235
    1C        C  426   3.402   4.553   4.356
    1C        C  427   3.543   4.559   4.357
    1C        C  428   3.332   4.550   4.479
    1C        C  429   3.406   4.559   4.599
    1C        C  430   3.193   4.520   4.726
    1C        C  431   3.332   4.551   4.719
    1C        C  432   3.125   4.496   4.848
    1C        C  433   3.208   4.496   4.961
    1C        C  434   4.381   4.123   2.050
    1C        C  435   4.449   4.000   2.053
    1C        C  436   4.300   4.162   2.161
    1C        C  437   4.337   4.101   2.284
    1C        C  438   4.184   4.252   2.401
    1C        C  439   4.289   4.158   2.404
    1C        C  440   4.126   4.295   2.523
    1C        C  441   4.180   4.251   2.645
    1C        C  442   4.007   4.374   2.767
    1C        C  443   4.126   4.299   2.766
    1C        C  444   3.943   4.415   2.887
    1C        C  445   4.008   4.383   3.008
    1C        C  446   3.810   4.465   3.129
    1C        C  447   3.942   4.414   3.129
    1C        C  448   3.746   4.490   3.253
    1C        C  449   3.814   4.473   3.376
    1C        C  450   3.609   4.533   3.499
    1C        C  451   3.746   4.499   3.497
    1C        C  452   3.540   4.540   3.622
    1C        C  453   3.610   4.533   3.745
    1C        C  454   3.398   4.543   3.866
    1C        C  455   3.540   4.543   3.867
    1C        C  456   3.331   4.531   3.990
    1C        C  457   3.402   4.537   4.112
    1C        C  458   3.194   4.505   4.236
    1C        C  459   3.331   4.536   4.235
    1C        C  460   3.128   4.488   4.360
    1C        C  461   3.195   4.518   4.481
    1C        C  462   2.998   4.439   4.603
    1C        C  463   3.127   4.496   4.603
    1C        C  464   2.936   4.403   4.725
    1C        C  465   2.990   4.449   4.848
    1C        C  466   2.801   4.344   4.961
    1C        C  467   2.908   4.434   4.965
    1C        C  468   4.118   4.286   2.042
    1C        C  469   4.191   4.254   2.158
    1C        C  470   4.005   4.365   2.281
    1C        C  471   4.129   4.296   2.279
    1C        C  472   3.941   4.400   2.403
    1C        C  473   4.006   4.370   2.525
    1C        C  474   3.812   4.460   2.645
    1C        C  475   3.944   4.409   2.646
    1C        C  476   3.744   4.491   2.764
    1C        C  477   3.813   4.471   2.886
    1C        C  478   3.606   4.518   3.009
    1C        C  479   3.745   4.495   3.007
    1C        C  480   3.536   4.532   3.132
    1C        C  481   3.609   4.523   3.252
    1C        C  482   3.400   4.537   3.377
    1C        C  483   3.541   4.537   3.375
    1C        C  484   3.329   4.534   3.499
    1C        C  485   3.399   4.540   3.621
    1C        C  486   3.190   4.508   3.747
    1C        C  487   3.328   4.537   3.743
    1C        C  488   3.124   4.485   3.870
    1C        C  489   3.193   4.502   3.992
    1C        C  490   3.000   4.417   4.116
    1C        C  491   3.127   4.479   4.115
    1C        C  492   2.940   4.387   4.240
    1C        C  493   3.000   4.429   4.362
    1C        C  494   2.830   4.304   4.486
    1C        C  495   2.935   4.399   4.483
    1C        C  496   2.775   4.259   4.607
    1C        C  497   2.822   4.318   4.727
    1C        C  498   2.665   4.170   4.841
    1C        C  499   2.756   4.279   4.846
    1C        C  500   2.595   4.125   4.954
    1C        C  501   3.999   4.357   2.043
    1C        C  502   3.810   4.459   2.161
    1C        C  503   3.940   4.403   2.162
    1C        C  504   3.741   4.481   2.283
    1C        C  505   3.812   4.456   2.402
    1C        C  506   3.605   4.512   2.523
    1C        C  507   3.742   4.476   2.523
    1C        C  508   3.533   4.527   2.643
    1C        C  509   3.606   4.522   2.765
    1C        C  510   3.394   4.530   2.886
    1C        C  511   3.536   4.527   2.887
    1C        C  512   3.325   4.530   3.009
    1C        C  513   3.395   4.533   3.131
    1C        C  514   3.190   4.500   3.258
    1C        C  515   3.327   4.530   3.255
    1C        C  516   3.124   4.474   3.380
    1C        C  517   3.192   4.501   3.501
    1C        C  518   2.999   4.419   3.627
    1C        C  519   3.124   4.486   3.624
    1C        C  520   2.940   4.380   3.749
    1C        C  521   3.000   4.417   3.872
    1C        C  522   2.832   4.289   3.998
    1C        C  523   2.943   4.376   3.994
    1C        C  524   2.780   4.245   4.122
    1C        C  525   2.828   4.302   4.242
    1C        C  526   2.697   4.136   4.365
    1C        C  527   2.781   4.249   4.365
    1C        C  528   2.657   4.078   4.487
    1C        C  529   2.695   4.143   4.607
    1C        C  530   2.588   3.959   4.731
    1C        C  531   2.641   4.091   4.727
    1C        C  532   2.544   3.903   4.854
    1C        C  533   2.529   4.002   4.957
    1C        C  534   3.618   4.561   2.042
    1C        C  535   3.750   4.517   2.049
    1C        C  536   3.536   4.539   2.157
    1C        C  537   3.602   4.507   2.279
    1C        C  538   3.392   4.518   2.402
    1C        C  539   3.533   4.522   2.402
    1C        C  540   3.319   4.515   2.523
    1C        C  541   3.392   4.520   2.644
    1C        C  542   3.182   4.493   2.767
    1C        C  543   3.322   4.515   2.766
    1C        C  544   3.121   4.464   2.891
    1C        C  545   3.188   4.494   3.012
    1C        C  546   3.000   4.404   3.136
    1C        C  547   3.122   4.476   3.136
    1C        C  548   2.942   4.369   3.260
    1C        C  549   3.000   4.407   3.383
    1C        C  550   2.831   4.286   3.508
    1C        C  551   2.939   4.376   3.507
    1C        C  552   2.784   4.235   3.631
    1C        C  553   2.832   4.289   3.753
    1C        C  554   2.704   4.120   3.875
    1C        C  555   2.784   4.237   3.875
    1C        C  556   2.663   4.066   3.998
    1C        C  557   2.697   4.130   4.119
    1C        C  558   2.601   3.945   4.245
    1C        C  559   2.666   4.071   4.243
    1C        C  560   2.572   3.880   4.367
    1C        C  561   2.595   3.952   4.487
    1C        C  562   2.532   3.752   4.616
    1C        C  563   2.568   3.888   4.610
    1C        C  564   2.512   3.684   4.739
    1C        C  565   2.518   3.763   4.857
    1C        C  566   2.525   3.549   4.977
    1C        C  567   2.521   3.688   4.976
    1C        C  568   3.332   4.477   2.039
    1C        C  569   3.396   4.513   2.159
    1C        C  570   3.183   4.482   2.280
    1C        C  571   3.322   4.511   2.280
    1C        C  572   3.113   4.462   2.402
    1C        C  573   3.180   4.488   2.523
    1C        C  574   2.988   4.407   2.648
    1C        C  575   3.113   4.473   2.646
    1C        C  576   2.932   4.366   2.771
    1C        C  577   2.995   4.399   2.893
    1C        C  578   2.828   4.273   3.018
    1C        C  579   2.937   4.364   3.017
    1C        C  580   2.788   4.220   3.143
    1C        C  581   2.835   4.277   3.263
    1C        C  582   2.701   4.117   3.386
    1C        C  583   2.783   4.232   3.386
    1C        C  584   2.663   4.059   3.508
    1C        C  585   2.703   4.119   3.630
    1C        C  586   2.601   3.934   3.755
    1C        C  587   2.667   4.059   3.753
    1C        C  588   2.580   3.870   3.879
    1C        C  589   2.606   3.936   4.001
    1C        C  590   2.543   3.738   4.128
    1C        C  591   2.581   3.874   4.125
    1C        C  592   2.531   3.672   4.253
    1C        C  593   2.537   3.744   4.374
    1C        C  594   2.510   3.535   4.500
    1C        C  595   2.524   3.676   4.498
    1C        C  596   2.510   3.467   4.624
    1C        C  597   2.506   3.542   4.744
    1C        C  598   2.528   3.328   4.865
    1C        C  599   2.509   3.468   4.864
    1C        C  600   2.521   3.251   4.981
    1C        C  601   3.196   4.449   2.042
    1C        C  602   2.986   4.395   2.159
    1C        C  603   3.117   4.452   2.158
    1C        C  604   2.925   4.361   2.282
    1C        C  605   2.989   4.394   2.404
    1C        C  606   2.820   4.273   2.529
    1C        C  607   2.927   4.365   2.527
    1C        C  608   2.770   4.226   2.652
    1C        C  609   2.823   4.277   2.773
    1C        C  610   2.694   4.111   2.897
    1C        C  611   2.775   4.227   2.896
    1C        C  612   2.658   4.053   3.021
    1C        C  613   2.702   4.107   3.144
    1C        C  614   2.597   3.925   3.268
    1C        C  615   2.663   4.050   3.267
    1C        C  616   2.575   3.862   3.392
    1C        C  617   2.602   3.931   3.513
    1C        C  618   2.536   3.730   3.641
    1C        C  619   2.571   3.867   3.635
    1C        C  620   2.521   3.663   3.764
    1C        C  621   2.536   3.735   3.885
    1C        C  622   2.515   3.525   4.011
    1C        C  623   2.527   3.666   4.008
    1C        C  624   2.513   3.458   4.135
    1C        C  625   2.514   3.532   4.255
    1C        C  626   2.534   3.323   4.381
    1C        C  627   2.513   3.463   4.379
    1C        C  628   2.552   3.255   4.504
    1C        C  629   2.526   3.327   4.623
    1C        C  630   2.599   3.124   4.745
    1C        C  631   2.548   3.257   4.744
    1C        C  632   2.622   3.055   4.867
    1C        C  633   2.553   3.114   4.978
    1C        C  634   2.781   4.307   2.054
    1C        C  635   2.893   4.391   2.050
    1C        C  636   2.747   4.235   2.170
    1C        C  637   2.809   4.280   2.289
    1C        C  638   2.677   4.111   2.412
    1C        C  639   2.760   4.226   2.410
    1C        C  640   2.646   4.049   2.535
    1C        C  641   2.687   4.112   2.655
    1C        C  642   2.591   3.923   2.782
    1C        C  643   2.653   4.050   2.777
    1C        C  644   2.564   3.857   2.904
    1C        C  645   2.596   3.926   3.022
    1C        C  646   2.535   3.724   3.149
    1C        C  647   2.572   3.860   3.145
    1C        C  648   2.524   3.656   3.273
    1C        C  649   2.538   3.726   3.395
    1C        C  650   2.515   3.519   3.517
    1C        C  651   2.524   3.660   3.519
    1C        C  652   2.521   3.453   3.642
    1C        C  653   2.517   3.522   3.766
    1C        C  654   2.530   3.313   3.892
    1C        C  655   2.512   3.453   3.889
    1C        C  656   2.549   3.247   4.016
    1C        C  657   2.533   3.318   4.137
    1C        C  658   2.600   3.120   4.260
    1C        C  659   2.548   3.251   4.261
    1C        C  660   2.633   3.057   4.382
    1C        C  661   2.604   3.124   4.503
    1C        C  662   2.715   2.943   4.628
    1C        C  663   2.634   3.059   4.625
    1C        C  664   2.759   2.885   4.748
    1C        C  665   2.702   2.937   4.868
    1C        C  666   2.746   2.877   4.987
    1C        C  667   2.680   4.029   2.056
    1C        C  668   2.682   4.110   2.171
    1C        C  669   2.586   3.917   2.297
    1C        C  670   2.642   4.048   2.291
    1C        C  671   2.565   3.849   2.418
    1C        C  672   2.584   3.922   2.538
    1C        C  673   2.527   3.720   2.662
    1C        C  674   2.561   3.857   2.661
    1C        C  675   2.511   3.650   2.783
    1C        C  676   2.533   3.719   2.905
    1C        C  677   2.500   3.512   3.030
    1C        C  678   2.519   3.653   3.028
    1C        C  679   2.504   3.442   3.153
    1C        C  680   2.507   3.516   3.273
    1C        C  681   2.531   3.306   3.401
    1C        C  682   2.512   3.446   3.396
    1C        C  683   2.551   3.243   3.526
    1C        C  684   2.536   3.313   3.647
    1C        C  685   2.603   3.113   3.770
    1C        C  686   2.550   3.245   3.770
    1C        C  687   2.633   3.052   3.893
    1C        C  688   2.600   3.115   4.015
    1C        C  689   2.711   2.937   4.140
    1C        C  690   2.631   3.054   4.138
    1C        C  691   2.755   2.883   4.262
    1C        C  692   2.709   2.938   4.384
    1C        C  693   2.754   2.883   4.506
    1C        C  694   2.630   3.899   2.061
    1C        C  695   2.523   3.712   2.179
    1C        C  696   2.573   3.844   2.177
    1C        C  697   2.504   3.641   2.299
    1C        C  698   2.528   3.712   2.418
    1C        C  699   2.496   3.506   2.544
    1C        C  700   2.515   3.646   2.542
    1C        C  701   2.504   3.437   2.668
    1C        C  702   2.498   3.509   2.788
    1C        C  703   2.524   3.299   2.910
    1C        C  704   2.498   3.438   2.910
    1C        C  705   2.540   3.232   3.034
    1C        C  706   2.529   3.303   3.156
    1C        C  707   2.595   3.103   3.280
    1C        C  708   2.550   3.237   3.279
    1C        C  709   2.625   3.041   3.403
    1C        C  710   2.600   3.110   3.524
    1C        C  711   2.710   2.931   3.649
    1C        C  712   2.632   3.049   3.647
    1C        C  713   2.757   2.882   3.773
    1C        C  714   2.716   2.938   3.896
    1C        C  715   2.753   2.878   4.019
    1C        C  716   2.452   3.502   2.066
    1C        C  717   2.493   3.636   2.065
    1C        C  718   2.476   3.422   2.183
    1C        C  719   2.489   3.499   2.301
    1C        C  720   2.517   3.291   2.426
    1C        C  721   2.495   3.431   2.425
    1C        C  722   2.542   3.225   2.549
    1C        C  723   2.527   3.297   2.669
    1C        C  724   2.596   3.096   2.790
    1C        C  725   2.543   3.227   2.791
    1C        C  726   2.626   3.037   2.915
    1C        C  727   2.591   3.101   3.036
    1C        C  728   2.706   2.923   3.159
    1C        C  729   2.625   3.038   3.158
    1C        C  730   2.753   2.873   3.282
    1C        C  731   2.716   2.933   3.404
    1C        C  732   2.758   2.878   3.527
    1C        C  733   2.484   3.194   2.075
    1C        C  734   2.491   3.280   2.186
    1C        C  735   2.589   3.088   2.302
    1C        C  736   2.528   3.216   2.307
    1C        C  737   2.618   3.026   2.425
    1C        C  738   2.589   3.092   2.547
    1C        C  739   2.705   2.914   2.669
    1C        C  740   2.623   3.029   2.668
    1C        C  741   2.741   2.856   2.793
    1C        C  742   2.702   2.918   2.913
    1C        C  743   2.749   2.866   3.036
    1C        C  744   2.547   3.070   2.071
    1C        C  745   2.691   2.899   2.184
    1C        C  746   2.614   3.017   2.182
    1C        C  747   2.726   2.839   2.307
    1C        C  748   2.688   2.903   2.427
    1C        C  749   2.744   2.855   2.547
    1C        C  750   2.736   2.834   2.068
    1C        C  751   3.651   2.301   1.989
    1C        O  752   3.640   2.185   2.037
    1C        O  753   3.656   2.324   1.851
    1C        C  754   4.642   3.074   1.978
    1C        O  755   4.628   3.066   1.853
    1C        O  756   4.778   3.067   2.011
    1C        C  757   4.448   4.228   1.970
    1C        O  758   4.457   4.345   2.017
    1C        O  759   4.474   4.207   1.834
    1C        C  760   3.595   4.688   1.968
    1C        O  761   3.681   4.780   1.967
    1C        O  762   3.514   4.695   1.855
    1C        C  763   2.899   4.483   1.934
    1C        O  764   2.937   4.439   1.822
    1C        O  765   2.790   4.568   1.917
    1C        C  766   2.336   3.480   1.977
    1C        O  767   2.371   3.454   1.859
    1C        O  768   2.236   3.578   1.974
    1C        C  769   4.689   3.590   5.060
    1C        O  770   4.695   3.640   5.175
    1C        O  771   4.823   3.591   5.018
    1C        C  772   4.269   4.440   5.051
    1C        O  773   4.266   4.404   5.172
    1C        O  774   4.355   4.550   5.034
    1C        C  775   4.146   2.532   5.082
    1C        O  776   4.236   2.447   5.058
    1C        O  777   4.120   2.564   5.215
    1C        C  778   2.880   4.553   5.048
    1C        O  779   2.778   4.622   5.022
    1C        O  780   2.919   4.548   5.183
    1C        C  781   2.439   3.038   5.035
    1C        O  782   2.337   3.017   4.965
    1C        O  783   2.428   3.022   5.172
    1C        C  784   2.407   4.003   5.041
    1C        O  785   2.291   3.989   4.992
    1C        O  786   2.430   3.965   5.173
    1C        C  787   2.950   2.428   1.997
    1C        O  788   2.887   2.488   1.906
    1C        O  789   2.970   2.296   1.956
    1C        C  790   3.164   2.374   5.052
    1C        O  791   3.156   2.262   4.993
    1C        O  792   3.164   2.374   5.192
    1C        H  793   4.301   3.018   5.067
    1C        H  794   4.117   2.864   5.041
    1C        H  795   4.527   3.123   5.045
    1C        H  796   4.568   3.357   5.063
    1C        H  797   4.613   3.827   5.008
    1C        H  798   4.388   3.966   5.058
    1C        H  799   4.275   4.169   5.050
    1C        H  800   4.030   4.542   5.027
    1C        H  801   3.823   4.596   5.036
    1C        H  802   3.578   4.629   5.036
    1C        H  803   3.401   4.466   5.030
    1C        H  804   3.170   4.447   5.049
    1C        H  805   3.889   2.483   5.069
    1C        H  806   3.679   2.474   5.074
    1C        H  807   3.017   2.584   5.069
    1C        H  808   3.442   2.438   5.074
    1C        H  809   2.852   2.718   5.075
    1C        H  810   2.667   2.860   5.057
    1C        H  811   2.458   3.289   5.059
    1C        H  812   2.551   3.499   5.067
    1C        H  813   2.483   3.735   5.064
    1C        H  814   2.609   4.175   5.048
    1C        H  815   2.723   4.360   5.032
    1C        H  816   2.731   2.894   1.979
    1C        H  817   2.885   2.714   1.981
    1C        H  818   3.202   2.394   2.008
    1C        H  819   3.429   2.454   1.978
    1C        H  820   3.871   2.483   1.984
    1C        H  821   4.059   2.612   1.972
    1C        H  822   4.238   2.732   1.973
    1C        H  823   4.418   2.879   1.979
    1C        H  824   4.546   3.312   1.964
    1C        H  825   4.454   3.514   1.978
    1C        H  826   4.522   3.753   1.962
    1C        H  827   3.810   4.522   1.960
    1C        H  828   3.932   4.330   1.965
    1C        H  829   4.141   4.228   1.956
    1C        H  830   4.471   3.956   1.958
    1C        H  831   2.663   3.831   1.985
    1C        H  832   2.692   4.071   1.958
    1C        H  833   2.700   4.324   1.985
    1C        H  834   3.368   4.519   1.948
    1C        H  835   3.152   4.406   1.955
    1C        H  836   2.565   3.030   1.973
    1C        H  837   2.389   3.201   2.027
    1C        H  838   2.469   3.683   1.972
    2V3OU   H29  839   2.812   3.557   4.679
    2V3OU   C27  840   2.796   3.509   4.779
    2V3OU   H27  841   2.734   3.572   4.848
    2V3OU   H28  842   2.747   3.410   4.757
    2V3OU   O11  843   2.920   3.471   4.840
    2V3OU   C15  844   2.926   3.397   4.956
    2V3OU   C13  845   3.056   3.376   5.007
    2V3OU   C14  846   3.075   3.268   5.094
    2V3OU   C16  847   2.973   3.185   5.140
    2V3OU    H6  848   2.993   3.109   5.217
    2V3OU   C12  849   3.213   3.224   5.121
    2V3OU    O2  850   3.247   3.119   5.179
    2V3OU   C10  851   3.325   3.306   5.070
    2V3OU    C8  852   3.458   3.271   5.089
    2V3OU   O10  853   3.495   3.159   5.158
    2V3OU   H26  854   3.409   3.114   5.162
    2V3OU    C6  855   3.566   3.350   5.039
    2V3OU    C5  856   3.539   3.470   4.974
    2V3OU    C4  857   3.703   3.293   5.042
    2V3OU    H4  858   3.727   3.229   5.132
    2V3OU    H5  859   3.711   3.220   4.956
    2V3OU    C2  860   3.814   3.398   5.030
    2V3OU    O6  861   3.809   3.468   5.154
    2V3OU   H21  862   3.765   3.551   5.131
    2V3OU    C3  863   3.783   3.500   4.921
    2V3OU    H2  864   3.862   3.578   4.909
    2V3OU    H3  865   3.784   3.443   4.824
    2V3OU   C25  866   3.949   3.327   5.015
    2V3OU    O7  867   3.999   3.297   4.907
    2V3OU   C26  868   4.033   3.298   5.139
    2V3OU   H22  869   4.063   3.388   5.198
    2V3OU   H23  870   4.120   3.233   5.113
    2V3OU    O8  871   3.968   3.211   5.227
    2V3OU   H24  872   3.916   3.265   5.289
    2V3OU    C1  873   3.647   3.567   4.935
    2V3OU    H1  874   3.627   3.624   4.840
    2V3OU    O3  875   3.663   3.658   5.044
    2V3OU   C19  876   3.623   3.795   5.038
    2V3OU    H9  877   3.522   3.803   4.987
    2V3OU    O4  878   3.718   3.856   4.954
    2V3OU   C20  879   3.847   3.871   5.013
    2V3OU   H10  880   3.909   3.777   5.024
    2V3OU   C24  881   3.617   3.859   5.177
    2V3OU   H16  882   3.548   3.797   5.240
    2V3OU   H17  883   3.567   3.959   5.165
    2V3OU   C23  884   3.754   3.872   5.243
    2V3OU   H15  885   3.794   3.766   5.255
    2V3OU    N1  886   3.737   3.952   5.363
    2V3OU   H19  887   3.809   3.932   5.428
    2V3OU   H20  888   3.656   3.930   5.418
    2V3OU   C21  889   3.853   3.946   5.146
    2V3OU   H11  890   3.956   3.932   5.189
    2V3OU    O5  891   3.829   4.085   5.139
    2V3OU   H18  892   3.786   4.107   5.224
    2V3OU   C22  893   3.917   3.951   4.905
    2V3OU   H12  894   3.861   4.047   4.889
    2V3OU   H13  895   3.908   3.900   4.806
    2V3OU   H14  896   4.026   3.960   4.931
    2V3OU   C11  897   3.163   3.472   4.974
    2V3OU    O1  898   3.139   3.588   4.936
    2V3OU    C9  899   3.301   3.428   5.002
    2V3OU    C7  900   3.403   3.509   4.954
    2V3OU    O9  901   3.387   3.619   4.872
    2V3OU   H25  902   3.291   3.630   4.870
    2V3OU   C17  903   2.825   3.316   5.013
    2V3OU    H7  904   2.725   3.358   5.015
    2V3OU   C18  905   2.842   3.211   5.102
    2V3OU    H8  906   2.762   3.144   5.138
    3SOL     OW  907   3.393   4.097   4.985
    3SOL    HW1  908   3.483   4.139   4.972
    3SOL    HW2  909   3.377   4.082   5.083
    4SOL     OW  910   6.729   0.173   0.327
    4SOL    HW1  911   6.727   0.185   0.427
    4SOL    HW2  912   6.764   0.083   0.305
    5SOL     OW  913   4.327   0.955   1.336
    5SOL    HW1  914   4.343   1.046   1.372
    5SOL    HW2  915   4.318   0.890   1.411
    6SOL     OW  916   5.410   0.734   3.255
    6SOL    HW1  917   5.371   0.737   3.346
    6SOL    HW2  918   5.354   0.788   3.192
    7SOL     OW  919   1.045   4.288   4.853
    7SOL    HW1  920   1.071   4.284   4.757
    7SOL    HW2  921   0.967   4.227   4.869
    8SOL     OW  922   2.041   2.700   5.904
    8SOL    HW1  923   1.954   2.651   5.898
    8SOL    HW2  924   2.026   2.797   5.885
    9SOL     OW  925   6.084   1.644   6.436
    9SOL    HW1  926   6.142   1.566   6.457
    9SOL    HW2  927   5.991   1.612   6.417
   10SOL     OW  928   4.808   4.560   3.007
   10SOL    HW1  929   4.902   4.584   3.033
   10SOL    HW2  930   4.810   4.482   2.945
   11SOL     OW  931   2.416   1.259   0.303
   11SOL    HW1  932   2.415   1.213   0.392
   11SOL    HW2  933   2.405   1.357   0.316
   12SOL     OW  934   3.151   4.903   3.459
   12SOL    HW1  935   3.101   4.836   3.514
   12SOL    HW2  936   3.205   4.962   3.519
   13SOL     OW  937   4.410   5.993   2.408
   13SOL    HW1  938   4.320   6.035   2.394
   13SOL    HW2  939   4.408   5.938   2.491
   14SOL     OW  940   4.890   4.777   4.950
   14SOL    HW1  941   4.807   4.760   4.897
   14SOL    HW2  942   4.908   4.701   5.011
   15SOL     OW  943   0.519   5.499   5.718
   15SOL    HW1  944   0.470   5.417   5.747
   15SOL    HW2  945   0.569   5.480   5.634
   16SOL     OW  946   6.816   2.725   5.698
   16SOL    HW1  947   6.899   2.679   5.728
   16SOL    HW2  948   6.801   2.807   5.754
   17SOL     OW  949   6.123   0.352   5.659
   17SOL    HW1  950   6.026   0.347   5.636
   17SOL    HW2  951   6.178   0.335   5.577
   18SOL     OW  952   3.384   0.151   5.153
   18SOL    HW1  953   3.409   0.141   5.056
   18SOL    HW2  954   3.331   0.235   5.164
   19SOL     OW  955   0.872   1.389   3.040
   19SOL    HW1  956   0.879   1.433   3.130
   19SOL    HW2  957   0.877   1.458   2.968
   20SOL     OW  958   5.503   2.956   5.469
   20SOL    HW1  959   5.453   3.037   5.501
   20SOL    HW2  960   5.601   2.968   5.488
   21SOL     OW  961   4.269   6.876   2.811
   21SOL    HW1  962   4.223   6.844   2.728
   21SOL    HW2  963   4.367   6.886   2.792
   22SOL     OW  964   2.299   6.239   5.122
   22SOL    HW1  965   2.260   6.330   5.136
   22SOL    HW2  966   2.261   6.177   5.191
   23SOL     OW  967   5.574   4.406   2.171
   23SOL    HW1  968   5.640   4.396   2.096
   23SOL    HW2  969   5.490   4.357   2.148
   24SOL     OW  970   4.149   0.585   1.782
   24SOL    HW1  971   4.061   0.627   1.759
   24SOL    HW2  972   4.207   0.582   1.701
   25SOL     OW  973   2.818   6.771   3.193
   25SOL    HW1  974   2.852   6.725   3.275
   25SOL    HW2  975   2.789   6.864   3.216
   26SOL     OW  976   0.995   2.663   6.521
   26SOL    HW1  977   1.005   2.652   6.620
   26SOL    HW2  978   0.930   2.596   6.486
   27SOL     OW  979   6.333   1.444   1.999
   27SOL    HW1  980   6.425   1.462   2.034
   27SOL    HW2  981   6.300   1.525   1.950
   28SOL     OW  982   2.001   0.392   4.383
   28SOL    HW1  983   2.028   0.467   4.443
   28SOL    HW2  984   2.081   0.355   4.337
   29SOL     OW  985   6.958   0.848   0.436
   29SOL    HW1  986   6.911   0.809   0.516
   29SOL    HW2  987   6.904   0.830   0.354
   30SOL     OW  988   4.298   0.400   5.064
   30SOL    HW1  989   4.215   0.352   5.093
   30SOL    HW2  990   4.272   0.488   5.023
   31SOL     OW  991   0.741   2.905   5.521
   31SOL    HW1  992   0.728   2.842   5.445
   31SOL    HW2  993   0.689   2.989   5.505
   32SOL     OW  994   1.395   0.720   1.116
   32SOL    HW1  995   1.308   0.670   1.120
   32SOL    HW2  996   1.408   0.771   1.201
   33SOL     OW  997   0.612   3.845   6.744
   33SOL    HW1  998   0.595   3.823   6.840
   33SOL    HW2  999   0.563   3.779   6.686
   34SOL     OW 1000   1.524   5.182   5.030
   34SOL    HW1 1001   1.579   5.257   4.994
   34SOL    HW2 1002   1.428   5.211   5.037
   35SOL     OW 1003   3.928   3.215   6.979
   35SOL    HW1 1004   3.915   3.243   6.884
   35SOL    HW2 1005   3.944   3.296   0.010
   36SOL     OW 1006   4.928   0.803   3.840
   36SOL    HW1 1007   4.999   0.847   3.784
   36SOL    HW2 1008   4.838   0.820   3.800
   37SOL     OW 1009   2.033   1.098   3.795
   37SOL    HW1 1010   2.113   1.118   3.738
   37SOL    HW2 1011   2.061   1.041   3.872
   38SOL     OW 1012   1.219   5.196   2.265
   38SOL    HW1 1013   1.203   5.255   2.186
   38SOL    HW2 1014   1.195   5.102   2.242
   39SOL     OW 1015   5.746   5.054   6.598
   39SOL    HW1 1016   5.826   5.102   6.634
   39SOL    HW2 1017   5.775   4.988   6.529
   40SOL     OW 1018   3.120   0.893   6.154
   40SOL    HW1 1019   3.157   0.921   6.066
   40SOL    HW2 1020   3.080   0.972   6.201
   41SOL     OW 1021   6.097   4.346   1.967
   41SOL    HW1 1022   6.004   4.325   1.939
   41SOL    HW2 1023   6.157   4.270   1.941
   42SOL     OW 1024   2.581   5.887   4.937
   42SOL    HW1 1025   2.539   5.817   4.995
   42SOL    HW2 1026   2.663   5.849   4.893
   43SOL     OW 1027   5.022   6.599   4.953
   43SOL    HW1 1028   4.950   6.580   4.885
   43SOL    HW2 1029   5.057   6.512   4.989
   44SOL     OW 1030   5.650   2.598   5.186
   44SOL    HW1 1031   5.645   2.656   5.267
   44SOL    HW2 1032   5.640   2.502   5.213
   45SOL     OW 1033   3.914   5.300   0.478
   45SOL    HW1 1034   3.931   5.394   0.508
   45SOL    HW2 1035   3.930   5.293   0.379
   46SOL     OW 1036   0.570   3.073   4.562
   46SOL    HW1 1037   0.596   3.120   4.477
   46SOL    HW2 1038   0.471   3.058   4.563
   47SOL     OW 1039   5.538   3.335   1.833
   47SOL    HW1 1040   5.565   3.292   1.920
   47SOL    HW2 1041   5.576   3.428   1.829
   48SOL     OW 1042   6.452   3.992   6.886
   48SOL    HW1 1043   6.511   4.003   6.806
   48SOL    HW2 1044   6.411   3.900   6.885
   49SOL     OW 1045   4.982   3.089   0.187
   49SOL    HW1 1046   5.075   3.055   0.204
   49SOL    HW2 1047   4.916   3.022   0.222
   50SOL     OW 1048   6.356   2.397   6.571
   50SOL    HW1 1049   6.454   2.379   6.578
   50SOL    HW2 1050   6.307   2.312   6.557
   51SOL     OW 1051   1.890   4.905   3.274
   51SOL    HW1 1052   1.855   4.847   3.201
   51SOL    HW2 1053   1.948   4.976   3.235
   52SOL     OW 1054   5.681   3.126   1.696
   52SOL    HW1 1055   5.746   3.077   1.755
   52SOL    HW2 1056   5.633   3.194   1.750
   53SOL     OW 1057   4.620   0.873   2.991
   53SOL    HW1 1058   4.605   0.967   3.019
   53SOL    HW2 1059   4.537   0.819   3.005
   54SOL     OW 1060   5.342   6.060   0.083
   54SOL    HW1 1061   5.301   6.137   0.132
   54SOL    HW2 1062   5.417   6.093   0.025
   55SOL     OW 1063   2.039   2.673   6.353
   55SOL    HW1 1064   1.965   2.662   6.420
   55SOL    HW2 1065   2.126   2.685   6.402
   56SOL     OW 1066   1.513   2.197   6.900
   56SOL    HW1 1067   1.596   2.143   6.885
   56SOL    HW2 1068   1.520   2.283   6.850
   57SOL     OW 1069   4.113   0.828   0.556
   57SOL    HW1 1070   4.042   0.887   0.596
   57SOL    HW2 1071   4.180   0.885   0.507
   58SOL     OW 1072   0.921   0.922   6.387
   58SOL    HW1 1073   0.974   0.855   6.335
   58SOL    HW2 1074   0.896   0.998   6.327
   59SOL     OW 1075   6.074   3.570   6.184
   59SOL    HW1 1076   6.038   3.604   6.098
   59SOL    HW2 1077   6.002   3.523   6.235
   60SOL     OW 1078   5.416   0.790   2.841
   60SOL    HW1 1079   5.388   0.745   2.757
   60SOL    HW2 1080   5.513   0.813   2.836
   61SOL     OW 1081   0.348   0.826   5.213
   61SOL    HW1 1082   0.319   0.873   5.296
   61SOL    HW2 1083   0.322   0.880   5.133
   62SOL     OW 1084   6.948   2.078   2.442
   62SOL    HW1 1085   7.003   2.016   2.498
   62SOL    HW2 1086   6.984   2.171   2.451
   63SOL     OW 1087   4.037   6.682   4.864
   63SOL    HW1 1088   3.960   6.672   4.800
   63SOL    HW2 1089   4.118   6.714   4.814
   64SOL     OW 1090   1.401   4.061   6.536
   64SOL    HW1 1091   1.405   4.052   6.436
   64SOL    HW2 1092   1.447   3.983   6.578
   65SOL     OW 1093   0.483   0.385   5.462
   65SOL    HW1 1094   0.499   0.351   5.369
   65SOL    HW2 1095   0.541   0.465   5.479
   66SOL     OW 1096   4.023   0.069   2.211
   66SOL    HW1 1097   4.025   0.159   2.170
   66SOL    HW2 1098   4.028   7.025   2.140
   67SOL     OW 1099   0.455   2.613   1.234
   67SOL    HW1 1100   0.550   2.593   1.211
   67SOL    HW2 1101   0.405   2.527   1.249
   68SOL     OW 1102   6.913   2.282   5.472
   68SOL    HW1 1103   6.976   2.344   5.519
   68SOL    HW2 1104   6.889   2.320   5.382
   69SOL     OW 1105   0.898   5.170   5.587
   69SOL    HW1 1106   0.838   5.090   5.591
   69SOL    HW2 1107   0.968   5.162   5.659
   70SOL     OW 1108   5.586   3.679   5.077
   70SOL    HW1 1109   5.653   3.753   5.082
   70SOL    HW2 1110   5.619   3.600   5.130
   71SOL     OW 1111   4.686   2.128   4.611
   71SOL    HW1 1112   4.767   2.097   4.561
   71SOL    HW2 1113   4.714   2.197   4.679
   72SOL     OW 1114   6.614   0.354   3.819
   72SOL    HW1 1115   6.648   0.274   3.769
   72SOL    HW2 1116   6.645   0.437   3.774
   73SOL     OW 1117   2.743   0.684   0.977
   73SOL    HW1 1118   2.678   0.619   1.015
   73SOL    HW2 1119   2.802   0.719   1.050
   74SOL     OW 1120   1.993   1.886   6.834
   74SOL    HW1 1121   1.893   1.879   6.838
   74SOL    HW2 1122   2.030   1.803   6.792
   75SOL     OW 1123   4.446   1.562   1.072
   75SOL    HW1 1124   4.353   1.554   1.037
   75SOL    HW2 1125   4.444   1.563   1.172
   76SOL     OW 1126   3.055   4.402   5.364
   76SOL    HW1 1127   3.106   4.465   5.422
   76SOL    HW2 1128   2.994   4.454   5.304
   77SOL     OW 1129   1.912   5.091   4.569
   77SOL    HW1 1130   1.903   4.997   4.603
   77SOL    HW2 1131   2.008   5.119   4.571
   78SOL     OW 1132   4.229   1.223   1.548
   78SOL    HW1 1133   4.199   1.280   1.625
   78SOL    HW2 1134   4.170   1.240   1.469
   79SOL     OW 1135   2.109   5.178   2.004
   79SOL    HW1 1136   2.075   5.086   1.987
   79SOL    HW2 1137   2.204   5.185   1.974
   80SOL     OW 1138   4.911   1.948   5.342
   80SOL    HW1 1139   4.920   1.865   5.288
   80SOL    HW2 1140   4.815   1.971   5.353
   81SOL     OW 1141   2.989   5.998   1.600
   81SOL    HW1 1142   2.942   5.909   1.595
   81SOL    HW2 1143   3.082   5.989   1.566
   82SOL     OW 1144   1.098   5.967   1.394
   82SOL    HW1 1145   1.090   5.978   1.493
   82SOL    HW2 1146   1.066   5.876   1.368
   83SOL     OW 1147   5.668   2.043   5.499
   83SOL    HW1 1148   5.587   2.099   5.517
   83SOL    HW2 1149   5.671   2.017   5.403
   84SOL     OW 1150   6.139   2.979   3.507
   84SOL    HW1 1151   6.221   3.036   3.507
   84SOL    HW2 1152   6.155   2.899   3.565
   85SOL     OW 1153   2.068   0.184   4.007
   85SOL    HW1 1154   1.986   0.239   3.992
   85SOL    HW2 1155   2.048   0.113   4.075
   86SOL     OW 1156   5.562   1.532   6.302
   86SOL    HW1 1157   5.555   1.552   6.400
   86SOL    HW2 1158   5.493   1.465   6.277
   87SOL     OW 1159   3.811   4.246   6.463
   87SOL    HW1 1160   3.853   4.218   6.549
   87SOL    HW2 1161   3.714   4.268   6.479
   88SOL     OW 1162   3.208   3.220   6.843
   88SOL    HW1 1163   3.148   3.152   6.801
   88SOL    HW2 1164   3.153   3.290   6.889
   89SOL     OW 1165   2.965   3.313   3.032
   89SOL    HW1 1166   3.037   3.251   3.063
   89SOL    HW2 1167   2.951   3.301   2.934
   90SOL     OW 1168   4.894   3.477   2.614
   90SOL    HW1 1169   4.887   3.451   2.518
   90SOL    HW2 1170   4.957   3.555   2.622
   91SOL     OW 1171   5.312   4.972   5.709
   91SOL    HW1 1172   5.397   5.011   5.675
   91SOL    HW2 1173   5.271   4.914   5.639
   92SOL     OW 1174   5.316   4.480   6.974
   92SOL    HW1 1175   5.415   4.467   6.984
   92SOL    HW2 1176   5.272   4.472   0.037
   93SOL     OW 1177   2.436   2.998   1.130
   93SOL    HW1 1178   2.370   3.071   1.120
   93SOL    HW2 1179   2.431   2.960   1.222
   94SOL     OW 1180   3.150   0.642   5.715
   94SOL    HW1 1181   3.192   0.552   5.727
   94SOL    HW2 1182   3.162   0.671   5.620
   95SOL     OW 1183   0.131   0.483   4.076
   95SOL    HW1 1184   0.132   0.419   3.999
   95SOL    HW2 1185   0.037   0.495   4.108
   96SOL     OW 1186   4.716   4.717   7.025
   96SOL    HW1 1187   4.694   4.632   0.047
   96SOL    HW2 1188   4.741   4.787   0.066
   97SOL     OW 1189   2.159   5.428   5.488
   97SOL    HW1 1190   2.076   5.483   5.480
   97SOL    HW2 1191   2.142   5.336   5.455
   98SOL     OW 1192   1.274   2.909   2.366
   98SOL    HW1 1193   1.198   2.863   2.414
   98SOL    HW2 1194   1.300   2.854   2.287
   99SOL     OW 1195   3.639   2.855   4.038
   99SOL    HW1 1196   3.634   2.881   4.134
   99SOL    HW2 1197   3.679   2.764   4.030
  100SOL     OW 1198   6.943   6.898   4.016
  100SOL    HW1 1199   6.874   6.863   3.953
  100SOL    HW2 1200   6.961   6.831   4.087
  101SOL     OW 1201   0.754   4.001   2.912
  101SOL    HW1 1202   0.700   3.922   2.882
  101SOL    HW2 1203   0.754   4.005   3.012
  102SOL     OW 1204   2.662   6.511   1.409
  102SOL    HW1 1205   2.620   6.453   1.339
  102SOL    HW2 1206   2.649   6.469   1.499
  103SOL     OW 1207   1.885   0.855   2.321
  103SOL    HW1 1208   1.921   0.884   2.410
  103SOL    HW2 1209   1.939   0.898   2.248
  104SOL     OW 1210   1.279   4.424   1.888
  104SOL    HW1 1211   1.372   4.461   1.885
  104SOL    HW2 1212   1.274   4.342   1.832
  105SOL     OW 1213   4.742   1.644   6.434
  105SOL    HW1 1214   4.783   1.587   6.362
  105SOL    HW2 1215   4.721   1.586   6.513
  106SOL     OW 1216   5.411   5.305   2.315
  106SOL    HW1 1217   5.400   5.235   2.244
  106SOL    HW2 1218   5.499   5.350   2.305
  107SOL     OW 1219   5.907   1.174   0.506
  107SOL    HW1 1220   5.841   1.184   0.580
  107SOL    HW2 1221   5.947   1.083   0.509
  108SOL     OW 1222   1.481   0.730   5.137
  108SOL    HW1 1223   1.401   0.676   5.163
  108SOL    HW2 1224   1.547   0.731   5.212
  109SOL     OW 1225   3.004   1.077   3.243
  109SOL    HW1 1226   3.009   1.047   3.338
  109SOL    HW2 1227   2.975   1.173   3.239
  110SOL     OW 1228   2.746   4.702   5.660
  110SOL    HW1 1229   2.674   4.638   5.631
  110SOL    HW2 1230   2.822   4.698   5.595
  111SOL     OW 1231   6.101   1.534   2.441
  111SOL    HW1 1232   6.178   1.470   2.439
  111SOL    HW2 1233   6.039   1.514   2.364
  112SOL     OW 1234   4.096   0.091   6.776
  112SOL    HW1 1235   4.027   0.078   6.847
  112SOL    HW2 1236   4.069   0.042   6.694
  113SOL     OW 1237   6.282   5.792   2.819
  113SOL    HW1 1238   6.313   5.882   2.849
  113SOL    HW2 1239   6.352   5.724   2.838
  114SOL     OW 1240   1.506   4.118   4.075
  114SOL    HW1 1241   1.493   4.031   4.027
  114SOL    HW2 1242   1.588   4.164   4.039
  115SOL     OW 1243   5.857   1.004   3.260
  115SOL    HW1 1244   5.826   1.098   3.247
  115SOL    HW2 1245   5.778   0.943   3.260
  116SOL     OW 1246   0.997   5.507   0.751
  116SOL    HW1 1247   1.056   5.553   0.684
  116SOL    HW2 1248   1.051   5.480   0.831
  117SOL     OW 1249   2.427   1.459   6.968
  117SOL    HW1 1250   2.398   1.365   6.984
  117SOL    HW2 1251   2.347   1.519   6.971
  118SOL     OW 1252   1.058   1.857   4.450
  118SOL    HW1 1253   1.156   1.846   4.438
  118SOL    HW2 1254   1.037   1.952   4.470
  119SOL     OW 1255   6.997   6.906   6.116
  119SOL    HW1 1256   7.011   7.004   6.108
  119SOL    HW2 1257   6.899   6.886   6.115
  120SOL     OW 1258   4.456   1.505   4.555
  120SOL    HW1 1259   4.546   1.471   4.527
  120SOL    HW2 1260   4.466   1.597   4.593
  121SOL     OW 1261   1.279   3.403   6.257
  121SOL    HW1 1262   1.212   3.444   6.196
  121SOL    HW2 1263   1.362   3.382   6.205
  122SOL     OW 1264   0.921   4.385   0.043
  122SOL    HW1 1265   0.957   4.428   6.986
  122SOL    HW2 1266   0.927   4.449   0.119
  123SOL     OW 1267   1.076   1.605   1.682
  123SOL    HW1 1268   1.024   1.535   1.731
  123SOL    HW2 1269   1.094   1.682   1.743
  124SOL     OW 1270   3.014   2.371   0.990
  124SOL    HW1 1271   2.953   2.403   1.062
  124SOL    HW2 1272   3.101   2.420   0.996
  125SOL     OW 1273   3.478   2.315   6.903
  125SOL    HW1 1274   3.383   2.296   6.878
  125SOL    HW2 1275   3.539   2.272   6.836
  126SOL     OW 1276   4.101   3.253   4.077
  126SOL    HW1 1277   4.173   3.226   4.013
  126SOL    HW2 1278   4.069   3.172   4.128
  127SOL     OW 1279   0.375   5.920   6.182
  127SOL    HW1 1280   0.416   5.978   6.252
  127SOL    HW2 1281   0.295   5.966   6.144
  128SOL     OW 1282   4.735   3.548   1.029
  128SOL    HW1 1283   4.649   3.514   1.066
  128SOL    HW2 1284   4.757   3.636   1.071
  129SOL     OW 1285   2.177   6.142   1.018
  129SOL    HW1 1286   2.260   6.188   0.987
  129SOL    HW2 1287   2.170   6.052   0.974
  130SOL     OW 1288   5.530   2.404   4.365
  130SOL    HW1 1289   5.590   2.325   4.360
  130SOL    HW2 1290   5.439   2.380   4.331
  131SOL     OW 1291   7.009   2.345   3.735
  131SOL    HW1 1292   0.005   2.374   3.828
  131SOL    HW2 1293   0.058   2.290   3.698
  132SOL     OW 1294   3.603   4.116   1.869
  132SOL    HW1 1295   3.541   4.195   1.870
  132SOL    HW2 1296   3.685   4.140   1.818
  133SOL     OW 1297   5.219   6.998   5.082
  133SOL    HW1 1298   5.217   6.940   5.001
  133SOL    HW2 1299   5.280   0.049   5.067
  134SOL     OW 1300   5.435   1.058   2.109
  134SOL    HW1 1301   5.449   0.987   2.178
  134SOL    HW2 1302   5.337   1.070   2.093
  135SOL     OW 1303   5.183   3.420   4.352
  135SOL    HW1 1304   5.166   3.495   4.416
  135SOL    HW2 1305   5.097   3.383   4.320
  136SOL     OW 1306   3.204   6.689   5.251
  136SOL    HW1 1307   3.236   6.761   5.190
  136SOL    HW2 1308   3.158   6.731   5.330
  137SOL     OW 1309   3.541   1.950   4.858
  137SOL    HW1 1310   3.613   1.979   4.795
  137SOL    HW2 1311   3.487   2.030   4.885
  138SOL     OW 1312   0.559   5.545   4.929
  138SOL    HW1 1313   0.467   5.581   4.946
  138SOL    HW2 1314   0.554   5.466   4.868
  139SOL     OW 1315   2.033   6.320   6.371
  139SOL    HW1 1316   2.039   6.411   6.411
  139SOL    HW2 1317   1.971   6.263   6.425
  140SOL     OW 1318   1.934   1.025   3.169
  140SOL    HW1 1319   1.860   1.063   3.223
  140SOL    HW2 1320   1.979   1.098   3.117
  141SOL     OW 1321   6.920   4.287   0.231
  141SOL    HW1 1322   6.874   4.368   0.194
  141SOL    HW2 1323   6.869   4.205   0.205
  142SOL     OW 1324   1.376   4.156   1.777
  142SOL    HW1 1325   1.468   4.158   1.817
  142SOL    HW2 1326   1.338   4.064   1.786
  143SOL     OW 1327   5.196   6.731   1.708
  143SOL    HW1 1328   5.269   6.663   1.714
  143SOL    HW2 1329   5.227   6.818   1.747
  144SOL     OW 1330   3.199   5.048   2.908
  144SOL    HW1 1331   3.278   4.993   2.935
  144SOL    HW2 1332   3.173   5.108   2.984
  145SOL     OW 1333   6.741   4.771   2.966
  145SOL    HW1 1334   6.675   4.719   2.912
  145SOL    HW2 1335   6.829   4.774   2.918
  146SOL     OW 1336   6.202   1.805   5.793
  146SOL    HW1 1337   6.210   1.734   5.863
  146SOL    HW2 1338   6.105   1.822   5.775
  147SOL     OW 1339   4.664   1.175   5.688
  147SOL    HW1 1340   4.634   1.139   5.777
  147SOL    HW2 1341   4.739   1.120   5.653
  148SOL     OW 1342   1.316   4.825   1.314
  148SOL    HW1 1343   1.378   4.751   1.288
  148SOL    HW2 1344   1.271   4.860   1.231
  149SOL     OW 1345   2.193   2.272   5.764
  149SOL    HW1 1346   2.115   2.268   5.703
  149SOL    HW2 1347   2.184   2.352   5.824
  150SOL     OW 1348   4.406   1.254   4.986
  150SOL    HW1 1349   4.492   1.282   5.030
  150SOL    HW2 1350   4.406   1.155   4.972
  151SOL     OW 1351   3.904   1.994   0.751
  151SOL    HW1 1352   3.835   2.034   0.811
  151SOL    HW2 1353   3.995   2.027   0.778
  152SOL     OW 1354   1.152   0.800   0.002
  152SOL    HW1 1355   1.219   0.856   6.980
  152SOL    HW2 1356   1.161   0.705   7.000
  153SOL     OW 1357   2.573   1.090   3.930
  153SOL    HW1 1358   2.665   1.056   3.911
  153SOL    HW2 1359   2.569   1.188   3.910
  154SOL     OW 1360   5.944   2.141   1.290
  154SOL    HW1 1361   5.848   2.145   1.265
  154SOL    HW2 1362   6.000   2.126   1.208
  155SOL     OW 1363   0.637   6.799   1.541
  155SOL    HW1 1364   0.538   6.788   1.529
  155SOL    HW2 1365   0.656   6.893   1.571
  156SOL     OW 1366   4.578   1.409   0.494
  156SOL    HW1 1367   4.677   1.409   0.504
  156SOL    HW2 1368   4.536   1.440   0.579
  157SOL     OW 1369   5.309   4.435   1.090
  157SOL    HW1 1370   5.285   4.386   1.006
  157SOL    HW2 1371   5.280   4.530   1.082
  158SOL     OW 1372   0.688   2.754   3.288
  158SOL    HW1 1373   0.630   2.835   3.301
  158SOL    HW2 1374   0.743   2.739   3.370
  159SOL     OW 1375   5.510   5.580   0.408
  159SOL    HW1 1376   5.571   5.611   0.335
  159SOL    HW2 1377   5.531   5.630   0.493
  160SOL     OW 1378   6.075   6.848   0.710
  160SOL    HW1 1379   6.118   6.911   0.775
  160SOL    HW2 1380   6.027   6.901   0.640
  161SOL     OW 1381   0.775   0.340   0.531
  161SOL    HW1 1382   0.687   0.353   0.576
  161SOL    HW2 1383   0.798   0.242   0.531
  162SOL     OW 1384   3.099   6.318   0.361
  162SOL    HW1 1385   3.006   6.292   0.387
  162SOL    HW2 1386   3.159   6.238   0.367
  163SOL     OW 1387   0.109   3.774   3.905
  163SOL    HW1 1388   0.153   3.795   3.818
  163SOL    HW2 1389   0.012   3.756   3.890
  164SOL     OW 1390   1.906   1.803   3.035
  164SOL    HW1 1391   1.869   1.842   3.120
  164SOL    HW2 1392   1.904   1.704   3.040
  165SOL     OW 1393   0.740   5.306   2.483
  165SOL    HW1 1394   0.824   5.252   2.490
  165SOL    HW2 1395   0.690   5.301   2.570
  166SOL     OW 1396   6.649   4.085   2.629
  166SOL    HW1 1397   6.551   4.100   2.615
  166SOL    HW2 1398   6.677   3.999   2.587
  167SOL     OW 1399   5.028   1.930   0.324
  167SOL    HW1 1400   4.987   1.955   0.412
  167SOL    HW2 1401   5.123   1.960   0.322
  168SOL     OW 1402   5.082   4.217   1.962
  168SOL    HW1 1403   5.026   4.299   1.953
  168SOL    HW2 1404   5.107   4.183   1.871
  169SOL     OW 1405   5.845   2.508   1.223
  169SOL    HW1 1406   5.761   2.463   1.191
  169SOL    HW2 1407   5.904   2.442   1.269
  170SOL     OW 1408   0.658   5.144   2.105
  170SOL    HW1 1409   0.622   5.199   2.031
  170SOL    HW2 1410   0.599   5.152   2.185
  171SOL     OW 1411   2.633   4.155   0.725
  171SOL    HW1 1412   2.613   4.069   0.771
  171SOL    HW2 1413   2.606   4.232   0.783
  172SOL     OW 1414   6.131   2.235   1.738
  172SOL    HW1 1415   6.060   2.210   1.673
  172SOL    HW2 1416   6.220   2.232   1.692
  173SOL     OW 1417   6.700   1.169   5.667
  173SOL    HW1 1418   6.762   1.243   5.638
  173SOL    HW2 1419   6.746   1.112   5.736
  174SOL     OW 1420   5.516   5.348   5.237
  174SOL    HW1 1421   5.614   5.346   5.257
  174SOL    HW2 1422   5.498   5.298   5.152
  175SOL     OW 1423   1.107   0.376   0.355
  175SOL    HW1 1424   1.044   0.401   0.282
  175SOL    HW2 1425   1.079   0.421   0.440
  176SOL     OW 1426   5.311   4.948   2.892
  176SOL    HW1 1427   5.274   4.894   2.817
  176SOL    HW2 1428   5.286   4.905   2.979
  177SOL     OW 1429   5.737   2.224   4.410
  177SOL    HW1 1430   5.745   2.150   4.477
  177SOL    HW2 1431   5.777   2.195   4.324
  178SOL     OW 1432   1.902   6.557   5.351
  178SOL    HW1 1433   1.850   6.634   5.315
  178SOL    HW2 1434   1.850   6.514   5.425
  179SOL     OW 1435   4.266   5.405   0.694
  179SOL    HW1 1436   4.185   5.442   0.739
  179SOL    HW2 1437   4.248   5.310   0.666
  180SOL     OW 1438   4.191   0.938   1.106
  180SOL    HW1 1439   4.246   0.931   1.190
  180SOL    HW2 1440   4.192   1.032   1.073
  181SOL     OW 1441   3.501   2.773   5.297
  181SOL    HW1 1442   3.423   2.713   5.279
  181SOL    HW2 1443   3.578   2.719   5.329
  182SOL     OW 1444   5.041   2.539   6.566
  182SOL    HW1 1445   5.031   2.507   6.660
  182SOL    HW2 1446   5.097   2.473   6.515
  183SOL     OW 1447   3.432   1.434   3.934
  183SOL    HW1 1448   3.341   1.477   3.930
  183SOL    HW2 1449   3.428   1.354   3.994
  184SOL     OW 1450   0.115   6.310   3.079
  184SOL    HW1 1451   0.024   6.341   3.108
  184SOL    HW2 1452   0.184   6.373   3.114
  185SOL     OW 1453   0.326   1.471   3.924
  185SOL    HW1 1454   0.379   1.392   3.896
  185SOL    HW2 1455   0.264   1.446   3.998
  186SOL     OW 1456   4.357   5.266   4.429
  186SOL    HW1 1457   4.300   5.341   4.395
  186SOL    HW2 1458   4.351   5.262   4.529
  187SOL     OW 1459   4.092   5.831   2.412
  187SOL    HW1 1460   4.109   5.927   2.434
  187SOL    HW2 1461   4.010   5.800   2.458
  188SOL     OW 1462   2.606   2.454   2.634
  188SOL    HW1 1463   2.664   2.396   2.577
  188SOL    HW2 1464   2.627   2.436   2.730
  189SOL     OW 1465   6.431   5.763   6.546
  189SOL    HW1 1466   6.453   5.732   6.638
  189SOL    HW2 1467   6.515   5.788   6.498
  190SOL     OW 1468   5.681   6.127   0.231
  190SOL    HW1 1469   5.605   6.191   0.238
  190SOL    HW2 1470   5.696   6.083   0.320
  191SOL     OW 1471   5.740   0.975   6.024
  191SOL    HW1 1472   5.832   1.000   6.056
  191SOL    HW2 1473   5.698   0.912   6.090
  192SOL     OW 1474   0.053   5.528   1.095
  192SOL    HW1 1475   0.086   5.484   1.012
  192SOL    HW2 1476   0.115   5.601   1.122
  193SOL     OW 1477   3.411   5.123   6.399
  193SOL    HW1 1478   3.367   5.128   6.310
  193SOL    HW2 1479   3.435   5.028   6.419
  194SOL     OW 1480   4.020   6.754   2.133
  194SOL    HW1 1481   3.987   6.691   2.064
  194SOL    HW2 1482   4.094   6.810   2.095
  195SOL     OW 1483   3.151   0.901   1.432
  195SOL    HW1 1484   3.176   0.860   1.519
  195SOL    HW2 1485   3.180   0.840   1.357
  196SOL     OW 1486   2.273   0.822   6.270
  196SOL    HW1 1487   2.364   0.825   6.311
  196SOL    HW2 1488   2.215   0.891   6.313
  197SOL     OW 1489   2.741   5.360   0.342
  197SOL    HW1 1490   2.758   5.393   0.249
  197SOL    HW2 1491   2.825   5.321   0.379
  198SOL     OW 1492   4.110   6.446   0.246
  198SOL    HW1 1493   4.064   6.440   0.335
  198SOL    HW2 1494   4.207   6.427   0.258
  199SOL     OW 1495   5.903   6.747   2.589
  199SOL    HW1 1496   5.804   6.757   2.593
  199SOL    HW2 1497   5.928   6.652   2.608
  200SOL     OW 1498   1.296   3.964   2.927
  200SOL    HW1 1499   1.302   4.061   2.904
  200SOL    HW2 1500   1.205   3.930   2.905
  201SOL     OW 1501   2.874   0.835   6.972
  201SOL    HW1 1502   2.937   0.856   6.897
  201SOL    HW2 1503   2.806   0.907   6.981
  202SOL     OW 1504   3.944   6.984   3.873
  202SOL    HW1 1505   3.992   6.937   3.799
  202SOL    HW2 1506   4.006   0.021   3.919
  203SOL     OW 1507   5.400   3.502   6.428
  203SOL    HW1 1508   5.440   3.437   6.493
  203SOL    HW2 1509   5.393   3.459   6.338
  204SOL     OW 1510   1.874   0.059   0.207
  204SOL    HW1 1511   1.832   0.042   0.118
  204SOL    HW2 1512   1.972   0.075   0.195
  205SOL     OW 1513   5.634   1.726   1.295
  205SOL    HW1 1514   5.728   1.750   1.317
  205SOL    HW2 1515   5.572   1.777   1.355
  206SOL     OW 1516   0.381   4.820   1.554
  206SOL    HW1 1517   0.367   4.724   1.534
  206SOL    HW2 1518   0.480   4.839   1.559
  207SOL     OW 1519   4.600   0.610   5.695
  207SOL    HW1 1520   4.604   0.540   5.624
  207SOL    HW2 1521   4.692   0.630   5.728
  208SOL     OW 1522   5.137   4.993   6.106
  208SOL    HW1 1523   5.175   5.059   6.041
  208SOL    HW2 1524   5.046   4.966   6.075
  209SOL     OW 1525   0.099   6.141   5.809
  209SOL    HW1 1526   0.089   6.062   5.749
  209SOL    HW2 1527   0.108   6.224   5.755
  210SOL     OW 1528   3.934   1.843   1.761
  210SOL    HW1 1529   3.905   1.819   1.854
  210SOL    HW2 1530   3.862   1.898   1.718
  211SOL     OW 1531   0.990   1.389   1.272
  211SOL    HW1 1532   1.008   1.291   1.284
  211SOL    HW2 1533   1.066   1.441   1.310
  212SOL     OW 1534   0.827   4.970   3.165
  212SOL    HW1 1535   0.902   4.951   3.101
  212SOL    HW2 1536   0.853   5.047   3.223
  213SOL     OW 1537   5.168   1.260   0.217
  213SOL    HW1 1538   5.142   1.164   0.231
  213SOL    HW2 1539   5.131   1.316   0.291
  214SOL     OW 1540   0.705   6.395   2.392
  214SOL    HW1 1541   0.646   6.351   2.324
  214SOL    HW2 1542   0.663   6.481   2.422
  215SOL     OW 1543   3.901   3.004   1.982
  215SOL    HW1 1544   3.820   2.963   2.023
  215SOL    HW2 1545   3.873   3.069   1.911
  216SOL     OW 1546   0.890   0.359   5.040
  216SOL    HW1 1547   0.827   0.291   5.003
  216SOL    HW2 1548   0.931   0.411   4.965
  217SOL     OW 1549   1.759   2.676   3.862
  217SOL    HW1 1550   1.844   2.710   3.822
  217SOL    HW2 1551   1.753   2.577   3.847
  218SOL     OW 1552   1.108   2.824   4.941
  218SOL    HW1 1553   1.084   2.744   4.996
  218SOL    HW2 1554   1.118   2.903   5.001
  219SOL     OW 1555   4.124   3.937   0.458
  219SOL    HW1 1556   4.217   3.967   0.434
  219SOL    HW2 1557   4.096   3.863   0.398
  220SOL     OW 1558   2.842   5.446   0.096
  220SOL    HW1 1559   2.927   5.488   0.127
  220SOL    HW2 1560   2.862   5.375   0.028
  221SOL     OW 1561   5.398   3.301   3.848
  221SOL    HW1 1562   5.349   3.320   3.933
  221SOL    HW2 1563   5.387   3.379   3.786
  222SOL     OW 1564   1.195   5.927   5.570
  222SOL    HW1 1565   1.181   5.870   5.490
  222SOL    HW2 1566   1.120   5.993   5.577
  223SOL     OW 1567   0.087   3.448   2.337
  223SOL    HW1 1568   0.015   3.396   2.291
  223SOL    HW2 1569   0.122   3.518   2.274
  224SOL     OW 1570   2.722   2.196   2.007
  224SOL    HW1 1571   2.813   2.230   1.985
  224SOL    HW2 1572   2.695   2.126   1.942
  225SOL     OW 1573   5.795   0.562   6.965
  225SOL    HW1 1574   5.732   0.493   7.001
  225SOL    HW2 1575   5.755   0.653   6.975
  226SOL     OW 1576   0.657   6.266   0.320
  226SOL    HW1 1577   0.669   6.259   0.221
  226SOL    HW2 1578   0.717   6.337   0.356
  227SOL     OW 1579   2.093   3.860   3.730
  227SOL    HW1 1580   2.146   3.890   3.651
  227SOL    HW2 1581   2.099   3.761   3.739
  228SOL     OW 1582   3.988   6.688   4.246
  228SOL    HW1 1583   3.956   6.738   4.166
  228SOL    HW2 1584   4.084   6.663   4.234
  229SOL     OW 1585   5.989   5.909   1.845
  229SOL    HW1 1586   6.073   5.935   1.893
  229SOL    HW2 1587   6.009   5.839   1.777
  230SOL     OW 1588   2.189   3.941   4.730
  230SOL    HW1 1589   2.183   3.868   4.661
  230SOL    HW2 1590   2.236   3.907   4.811
  231SOL     OW 1591   6.999   3.307   6.890
  231SOL    HW1 1592   6.927   3.354   6.838
  231SOL    HW2 1593   6.975   3.307   6.987
  232SOL     OW 1594   1.225   3.591   6.564
  232SOL    HW1 1595   1.184   3.669   6.517
  232SOL    HW2 1596   1.310   3.566   6.519
  233SOL     OW 1597   2.497   1.481   5.644
  233SOL    HW1 1598   2.508   1.482   5.744
  233SOL    HW2 1599   2.493   1.575   5.610
  234SOL     OW 1600   2.865   5.132   7.005
  234SOL    HW1 1601   2.938   5.067   6.985
  234SOL    HW2 1602   2.871   5.209   6.942
  235SOL     OW 1603   3.243   2.926   4.030
  235SOL    HW1 1604   3.224   3.019   4.060
  235SOL    HW2 1605   3.160   2.871   4.036
  236SOL     OW 1606   6.933   2.738   5.439
  236SOL    HW1 1607   6.868   2.722   5.513
  236SOL    HW2 1608   6.888   2.790   5.366
  237SOL     OW 1609   0.182   6.916   1.338
  237SOL    HW1 1610   0.271   6.870   1.334
  237SOL    HW2 1611   0.188   6.995   1.399
  238SOL     OW 1612   6.096   3.581   1.806
  238SOL    HW1 1613   6.181   3.601   1.855
  238SOL    HW2 1614   6.101   3.619   1.714
  239SOL     OW 1615   6.876   5.622   6.768
  239SOL    HW1 1616   6.952   5.560   6.788
  239SOL    HW2 1617   6.881   5.650   6.672
  240SOL     OW 1618   0.659   3.623   6.387
  240SOL    HW1 1619   0.613   3.607   6.474
  240SOL    HW2 1620   0.625   3.708   6.347
  241SOL     OW 1621   0.448   1.040   3.592
  241SOL    HW1 1622   0.531   0.998   3.555
  241SOL    HW2 1623   0.456   1.049   3.691
  242SOL     OW 1624   1.477   3.814   4.890
  242SOL    HW1 1625   1.419   3.864   4.955
  242SOL    HW2 1626   1.442   3.720   4.880
  243SOL     OW 1627   5.653   0.332   5.576
  243SOL    HW1 1628   5.580   0.321   5.643
  243SOL    HW2 1629   5.742   0.324   5.622
  244SOL     OW 1630   5.684   2.315   5.214
  244SOL    HW1 1631   5.718   2.257   5.140
  244SOL    HW2 1632   5.728   2.289   5.299
  245SOL     OW 1633   6.328   2.467   4.763
  245SOL    HW1 1634   6.419   2.425   4.770
  245SOL    HW2 1635   6.267   2.426   4.831
  246SOL     OW 1636   4.855   3.755   3.383
  246SOL    HW1 1637   4.934   3.810   3.409
  246SOL    HW2 1638   4.877   3.701   3.302
  247SOL     OW 1639   1.843   1.359   4.129
  247SOL    HW1 1640   1.936   1.359   4.167
  247SOL    HW2 1641   1.801   1.448   4.145
  248SOL     OW 1642   4.997   2.002   4.066
  248SOL    HW1 1643   5.016   2.092   4.026
  248SOL    HW2 1644   5.072   1.940   4.042
  249SOL     OW 1645   3.175   6.688   4.702
  249SOL    HW1 1646   3.091   6.708   4.650
  249SOL    HW2 1647   3.193   6.590   4.701
  250SOL     OW 1648   5.303   3.756   5.415
  250SOL    HW1 1649   5.340   3.826   5.354
  250SOL    HW2 1650   5.343   3.667   5.394
  251SOL     OW 1651   4.554   2.985   6.741
  251SOL    HW1 1652   4.507   3.066   6.707
  251SOL    HW2 1653   4.576   2.997   6.838
  252SOL     OW 1654   6.357   1.051   6.101
  252SOL    HW1 1655   6.343   1.057   6.200
  252SOL    HW2 1656   6.406   1.133   6.069
  253SOL     OW 1657   2.792   3.186   0.542
  253SOL    HW1 1658   2.753   3.211   0.453
  253SOL    HW2 1659   2.882   3.145   0.528
  254SOL     OW 1660   6.710   3.353   4.485
  254SOL    HW1 1661   6.753   3.395   4.405
  254SOL    HW2 1662   6.752   3.390   4.568
  255SOL     OW 1663   2.788   2.351   3.258
  255SOL    HW1 1664   2.868   2.317   3.211
  255SOL    HW2 1665   2.772   2.298   3.341
  256SOL     OW 1666   6.088   5.468   6.990
  256SOL    HW1 1667   6.047   5.398   0.022
  256SOL    HW2 1668   6.164   5.511   0.012
  257SOL     OW 1669   3.165   5.426   6.054
  257SOL    HW1 1670   3.112   5.432   6.138
  257SOL    HW2 1671   3.201   5.517   6.031
  258SOL     OW 1672   5.769   3.907   4.249
  258SOL    HW1 1673   5.693   3.844   4.233
  258SOL    HW2 1674   5.752   3.958   4.333
  259SOL     OW 1675   1.470   3.013   2.527
  259SOL    HW1 1676   1.491   3.100   2.481
  259SOL    HW2 1677   1.402   2.963   2.474
  260SOL     OW 1678   5.541   0.383   6.132
  260SOL    HW1 1679   5.600   0.437   6.193
  260SOL    HW2 1680   5.556   0.286   6.149
  261SOL     OW 1681   0.946   3.874   1.845
  261SOL    HW1 1682   0.946   3.956   1.788
  261SOL    HW2 1683   0.894   3.802   1.799
  262SOL     OW 1684   1.134   3.284   1.967
  262SOL    HW1 1685   1.206   3.251   1.906
  262SOL    HW2 1686   1.070   3.341   1.915
  263SOL     OW 1687   0.624   2.224   5.116
  263SOL    HW1 1688   0.554   2.294   5.099
  263SOL    HW2 1689   0.585   2.134   5.098
  264SOL     OW 1690   1.569   4.360   6.014
  264SOL    HW1 1691   1.479   4.392   6.044
  264SOL    HW2 1692   1.563   4.265   5.983
  265SOL     OW 1693   4.798   4.603   3.894
  265SOL    HW1 1694   4.778   4.583   3.798
  265SOL    HW2 1695   4.771   4.698   3.914
  266SOL     OW 1696   3.955   1.361   0.898
  266SOL    HW1 1697   3.885   1.382   0.967
  266SOL    HW2 1698   3.911   1.340   0.811
  267SOL     OW 1699   1.702   2.251   6.293
  267SOL    HW1 1700   1.760   2.334   6.293
  267SOL    HW2 1701   1.724   2.197   6.212
  268SOL     OW 1702   4.110   4.805   4.392
  268SOL    HW1 1703   4.047   4.839   4.462
  268SOL    HW2 1704   4.202   4.798   4.432
  269SOL     OW 1705   0.893   2.179   6.346
  269SOL    HW1 1706   0.856   2.272   6.354
  269SOL    HW2 1707   0.894   2.136   6.437
  270SOL     OW 1708   4.905   0.844   1.943
  270SOL    HW1 1709   4.995   0.828   1.983
  270SOL    HW2 1710   4.859   0.917   1.993
  271SOL     OW 1711   1.478   0.209   0.136
  271SOL    HW1 1712   1.494   0.111   0.133
  271SOL    HW2 1713   1.495   0.243   0.228
  272SOL     OW 1714   3.331   5.701   3.287
  272SOL    HW1 1715   3.282   5.649   3.357
  272SOL    HW2 1716   3.338   5.646   3.203
  273SOL     OW 1717   1.838   5.868   4.839
  273SOL    HW1 1718   1.767   5.938   4.839
  273SOL    HW2 1719   1.895   5.878   4.921
  274SOL     OW 1720   6.129   2.622   2.818
  274SOL    HW1 1721   6.120   2.527   2.848
  274SOL    HW2 1722   6.083   2.683   2.883
  275SOL     OW 1723   6.600   6.412   5.492
  275SOL    HW1 1724   6.696   6.431   5.514
  275SOL    HW2 1725   6.580   6.448   5.401
  276SOL     OW 1726   6.277   5.868   4.016
  276SOL    HW1 1727   6.325   5.886   4.101
  276SOL    HW2 1728   6.325   5.913   3.940
  277SOL     OW 1729   3.402   1.699   5.209
  277SOL    HW1 1730   3.486   1.712   5.156
  277SOL    HW2 1731   3.326   1.745   5.163
  278SOL     OW 1732   5.620   3.564   2.487
  278SOL    HW1 1733   5.595   3.659   2.466
  278SOL    HW2 1734   5.693   3.535   2.427
  279SOL     OW 1735   6.933   2.578   3.259
  279SOL    HW1 1736   6.927   2.528   3.346
  279SOL    HW2 1737   6.975   2.520   3.190
  280SOL     OW 1738   4.813   0.288   4.140
  280SOL    HW1 1739   4.869   0.353   4.191
  280SOL    HW2 1740   4.717   0.316   4.147
  281SOL     OW 1741   4.901   6.132   4.318
  281SOL    HW1 1742   4.804   6.142   4.297
  281SOL    HW2 1743   4.914   6.135   4.417
  282SOL     OW 1744   4.497   2.051   6.647
  282SOL    HW1 1745   4.412   2.098   6.667
  282SOL    HW2 1746   4.484   1.952   6.657
  283SOL     OW 1747   6.378   0.982   4.659
  283SOL    HW1 1748   6.435   1.029   4.592
  283SOL    HW2 1749   6.282   1.003   4.642
  284SOL     OW 1750   6.412   4.862   4.519
  284SOL    HW1 1751   6.333   4.907   4.478
  284SOL    HW2 1752   6.420   4.889   4.614
  285SOL     OW 1753   4.151   0.637   6.725
  285SOL    HW1 1754   4.053   0.651   6.711
  285SOL    HW2 1755   4.202   0.689   6.656
  286SOL     OW 1756   3.737   4.932   4.691
  286SOL    HW1 1757   3.679   4.907   4.613
  286SOL    HW2 1758   3.828   4.894   4.679
  287SOL     OW 1759   3.124   6.361   6.001
  287SOL    HW1 1760   3.046   6.401   5.953
  287SOL    HW2 1761   3.208   6.378   5.949
  288SOL     OW 1762   3.573   0.803   0.978
  288SOL    HW1 1763   3.572   0.867   0.901
  288SOL    HW2 1764   3.498   0.737   0.968
  289SOL     OW 1765   0.442   6.405   4.399
  289SOL    HW1 1766   0.485   6.391   4.310
  289SOL    HW2 1767   0.343   6.409   4.388
  290SOL     OW 1768   3.888   0.905   3.721
  290SOL    HW1 1769   3.943   0.967   3.665
  290SOL    HW2 1770   3.804   0.952   3.749
  291SOL     OW 1771   4.985   0.538   3.959
  291SOL    HW1 1772   5.008   0.514   3.864
  291SOL    HW2 1773   4.944   0.629   3.961
  292SOL     OW 1774   3.670   0.095   3.512
  292SOL    HW1 1775   3.751   0.066   3.461
  292SOL    HW2 1776   3.681   0.070   3.608
  293SOL     OW 1777   5.944   6.700   2.899
  293SOL    HW1 1778   5.967   6.675   2.993
  293SOL    HW2 1779   5.992   6.639   2.836
  294SOL     OW 1780   5.749   1.187   5.440
  294SOL    HW1 1781   5.725   1.107   5.495
  294SOL    HW2 1782   5.824   1.165   5.378
  295SOL     OW 1783   1.075   1.749   5.357
  295SOL    HW1 1784   1.011   1.808   5.308
  295SOL    HW2 1785   1.168   1.781   5.342
  296SOL     OW 1786   6.456   1.322   1.687
  296SOL    HW1 1787   6.522   1.382   1.732
  296SOL    HW2 1788   6.396   1.280   1.755
  297SOL     OW 1789   5.567   4.194   3.520
  297SOL    HW1 1790   5.515   4.124   3.569
  297SOL    HW2 1791   5.514   4.227   3.442
  298SOL     OW 1792   4.209   0.244   0.515
  298SOL    HW1 1793   4.228   0.294   0.431
  298SOL    HW2 1794   4.174   0.307   0.584
  299SOL     OW 1795   3.049   1.440   6.640
  299SOL    HW1 1796   3.038   1.381   6.560
  299SOL    HW2 1797   2.988   1.408   6.713
  300SOL     OW 1798   3.365   1.123   2.591
  300SOL    HW1 1799   3.389   1.026   2.589
  300SOL    HW2 1800   3.434   1.173   2.644
  301SOL     OW 1801   5.759   6.073   1.844
  301SOL    HW1 1802   5.826   5.999   1.839
  301SOL    HW2 1803   5.773   6.125   1.928
  302SOL     OW 1804   6.910   6.412   1.671
  302SOL    HW1 1805   6.832   6.444   1.725
  302SOL    HW2 1806   6.909   6.312   1.666
  303SOL     OW 1807   6.595   5.834   2.642
  303SOL    HW1 1808   6.679   5.781   2.629
  303SOL    HW2 1809   6.617   5.921   2.686
  304SOL     OW 1810   1.159   0.247   5.040
  304SOL    HW1 1811   1.203   0.219   5.126
  304SOL    HW2 1812   1.068   0.283   5.059
  305SOL     OW 1813   1.823   2.493   1.921
  305SOL    HW1 1814   1.868   2.454   1.840
  305SOL    HW2 1815   1.883   2.562   1.962
  306SOL     OW 1816   6.438   0.684   3.514
  306SOL    HW1 1817   6.478   0.674   3.423
  306SOL    HW2 1818   6.401   0.776   3.525
  307SOL     OW 1819   3.004   3.599   1.936
  307SOL    HW1 1820   2.961   3.689   1.931
  307SOL    HW2 1821   2.968   3.549   2.015
  308SOL     OW 1822   5.316   0.832   4.119
  308SOL    HW1 1823   5.365   0.763   4.067
  308SOL    HW2 1824   5.372   0.859   4.198
  309SOL     OW 1825   0.884   6.517   6.335
  309SOL    HW1 1826   0.954   6.589   6.332
  309SOL    HW2 1827   0.798   6.553   6.298
  310SOL     OW 1828   5.048   5.315   4.690
  310SOL    HW1 1829   5.019   5.378   4.618
  310SOL    HW2 1830   5.122   5.356   4.743
  311SOL     OW 1831   1.389   5.577   2.965
  311SOL    HW1 1832   1.398   5.611   2.871
  311SOL    HW2 1833   1.426   5.645   3.029
  312SOL     OW 1834   4.645   2.181   3.141
  312SOL    HW1 1835   4.635   2.219   3.050
  312SOL    HW2 1836   4.561   2.194   3.193
  313SOL     OW 1837   3.794   3.770   2.914
  313SOL    HW1 1838   3.706   3.790   2.871
  313SOL    HW2 1839   3.779   3.724   3.002
  314SOL     OW 1840   1.625   6.574   5.009
  314SOL    HW1 1841   1.606   6.671   5.026
  314SOL    HW2 1842   1.717   6.552   5.043
  315SOL     OW 1843   6.361   0.937   3.473
  315SOL    HW1 1844   6.414   1.010   3.515
  315SOL    HW2 1845   6.317   0.971   3.390
  316SOL     OW 1846   4.181   1.393   5.089
  316SOL    HW1 1847   4.274   1.358   5.081
  316SOL    HW2 1848   4.126   1.330   5.144
  317SOL     OW 1849   1.485   1.410   1.651
  317SOL    HW1 1850   1.445   1.481   1.593
  317SOL    HW2 1851   1.560   1.365   1.602
  318SOL     OW 1852   6.699   0.518   5.728
  318SOL    HW1 1853   6.631   0.543   5.797
  318SOL    HW2 1854   6.665   0.442   5.673
  319SOL     OW 1855   1.196   2.361   2.851
  319SOL    HW1 1856   1.131   2.340   2.777
  319SOL    HW2 1857   1.248   2.442   2.827
  320SOL     OW 1858   5.385   2.149   6.812
  320SOL    HW1 1859   5.293   2.167   6.779
  320SOL    HW2 1860   5.426   2.234   6.845
  321SOL     OW 1861   3.935   3.251   0.852
  321SOL    HW1 1862   3.844   3.212   0.836
  321SOL    HW2 1863   3.937   3.346   0.822
  322SOL     OW 1864   4.508   3.526   0.014
  322SOL    HW1 1865   4.536   3.622   0.014
  322SOL    HW2 1866   4.589   3.468   0.028
  323SOL     OW 1867   0.189   3.003   3.417
  323SOL    HW1 1868   0.234   3.054   3.491
  323SOL    HW2 1869   0.171   2.910   3.447
  324SOL     OW 1870   1.440   0.261   3.004
  324SOL    HW1 1871   1.536   0.288   2.993
  324SOL    HW2 1872   1.384   0.343   3.017
  325SOL     OW 1873   1.129   3.498   2.321
  325SOL    HW1 1874   1.200   3.429   2.331
  325SOL    HW2 1875   1.155   3.563   2.250
  326SOL     OW 1876   2.233   5.574   6.162
  326SOL    HW1 1877   2.222   5.635   6.084
  326SOL    HW2 1878   2.193   5.484   6.141
  327SOL     OW 1879   3.512   5.908   3.146
  327SOL    HW1 1880   3.502   5.838   3.218
  327SOL    HW2 1881   3.429   5.964   3.143
  328SOL     OW 1882   2.066   4.411   1.764
  328SOL    HW1 1883   2.123   4.329   1.755
  328SOL    HW2 1884   1.970   4.386   1.759
  329SOL     OW 1885   3.224   4.068   1.904
  329SOL    HW1 1886   3.177   4.152   1.877
  329SOL    HW2 1887   3.259   4.023   1.822
  330SOL     OW 1888   3.900   4.918   0.259
  330SOL    HW1 1889   3.815   4.969   0.252
  330SOL    HW2 1890   3.968   4.957   0.197
  331SOL     OW 1891   4.857   5.119   0.832
  331SOL    HW1 1892   4.900   5.180   0.899
  331SOL    HW2 1893   4.766   5.153   0.809
  332SOL     OW 1894   5.525   2.274   3.582
  332SOL    HW1 1895   5.541   2.302   3.488
  332SOL    HW2 1896   5.612   2.260   3.629
  333SOL     OW 1897   3.679   0.838   5.328
  333SOL    HW1 1898   3.749   0.907   5.345
  333SOL    HW2 1899   3.622   0.866   5.251
  334SOL     OW 1900   4.081   3.245   2.967
  334SOL    HW1 1901   4.089   3.343   2.983
  334SOL    HW2 1902   4.073   3.198   3.056
  335SOL     OW 1903   3.496   6.948   0.058
  335SOL    HW1 1904   3.423   6.935   0.126
  335SOL    HW2 1905   3.485   0.011   0.015
  336SOL     OW 1906   2.363   1.103   3.537
  336SOL    HW1 1907   2.365   1.072   3.632
  336SOL    HW2 1908   2.414   1.038   3.480
  337SOL     OW 1909   1.594   1.685   5.964
  337SOL    HW1 1910   1.498   1.677   5.937
  337SOL    HW2 1911   1.652   1.683   5.882
  338SOL     OW 1912   4.269   2.980   1.567
  338SOL    HW1 1913   4.355   3.001   1.613
  338SOL    HW2 1914   4.287   2.921   1.488
  339SOL     OW 1915   4.025   4.888   4.691
  339SOL    HW1 1916   4.065   4.974   4.660
  339SOL    HW2 1917   4.092   4.837   4.745
  340SOL     OW 1918   4.828   2.464   5.069
  340SOL    HW1 1919   4.914   2.516   5.081
  340SOL    HW2 1920   4.763   2.521   5.019
  341SOL     OW 1921   5.684   6.287   3.922
  341SOL    HW1 1922   5.691   6.308   4.019
  341SOL    HW2 1923   5.776   6.277   3.884
  342SOL     OW 1924   4.894   3.479   0.826
  342SOL    HW1 1925   4.832   3.438   0.758
  342SOL    HW2 1926   4.841   3.515   0.902
  343SOL     OW 1927   1.027   5.363   2.812
  343SOL    HW1 1928   1.055   5.410   2.728
  343SOL    HW2 1929   0.934   5.393   2.836
  344SOL     OW 1930   1.324   1.638   1.550
  344SOL    HW1 1931   1.367   1.723   1.580
  344SOL    HW2 1932   1.230   1.634   1.583
  345SOL     OW 1933   6.929   2.342   4.508
  345SOL    HW1 1934   6.940   2.258   4.455
  345SOL    HW2 1935   6.832   2.360   4.523
  346SOL     OW 1936   1.789   0.172   2.796
  346SOL    HW1 1937   1.888   0.157   2.802
  346SOL    HW2 1938   1.752   0.182   2.888
  347SOL     OW 1939   2.735   5.818   0.395
  347SOL    HW1 1940   2.662   5.820   0.327
  347SOL    HW2 1941   2.819   5.854   0.354
  348SOL     OW 1942   4.796   5.119   2.402
  348SOL    HW1 1943   4.883   5.143   2.358
  348SOL    HW2 1944   4.806   5.124   2.501
  349SOL     OW 1945   6.923   4.123   1.321
  349SOL    HW1 1946   6.981   4.092   1.395
  349SOL    HW2 1947   6.978   4.172   1.253
  350SOL     OW 1948   4.003   3.093   0.191
  350SOL    HW1 1949   4.004   3.091   0.091
  350SOL    HW2 1950   4.058   3.018   0.226
  351SOL     OW 1951   3.230   3.877   0.682
  351SOL    HW1 1952   3.210   3.778   0.679
  351SOL    HW2 1953   3.155   3.927   0.639
  352SOL     OW 1954   4.334   5.888   3.757
  352SOL    HW1 1955   4.397   5.811   3.742
  352SOL    HW2 1956   4.315   5.897   3.855
  353SOL     OW 1957   2.735   6.711   6.025
  353SOL    HW1 1958   2.727   6.794   5.970
  353SOL    HW2 1959   2.778   6.732   6.112
  354SOL     OW 1960   5.745   2.805   0.929
  354SOL    HW1 1961   5.757   2.833   1.024
  354SOL    HW2 1962   5.766   2.707   0.919
  355SOL     OW 1963   2.051   3.381   2.633
  355SOL    HW1 1964   1.998   3.462   2.659
  355SOL    HW2 1965   2.072   3.385   2.535
  356SOL     OW 1966   1.757   0.471   5.292
  356SOL    HW1 1967   1.666   0.430   5.293
  356SOL    HW2 1968   1.804   0.450   5.378
  357SOL     OW 1969   6.119   6.796   4.524
  357SOL    HW1 1970   6.043   6.741   4.488
  357SOL    HW2 1971   6.117   6.887   4.483
  358SOL     OW 1972   5.294   5.745   0.704
  358SOL    HW1 1973   5.291   5.646   0.718
  358SOL    HW2 1974   5.202   5.778   0.683
  359SOL     OW 1975   3.158   1.388   2.213
  359SOL    HW1 1976   3.069   1.378   2.257
  359SOL    HW2 1977   3.151   1.454   2.138
  360SOL     OW 1978   0.770   5.164   4.426
  360SOL    HW1 1979   0.838   5.223   4.469
  360SOL    HW2 1980   0.814   5.079   4.396
  361SOL     OW 1981   6.617   6.051   3.079
  361SOL    HW1 1982   6.673   5.969   3.071
  361SOL    HW2 1983   6.676   6.132   3.074
  362SOL     OW 1984   3.797   4.032   0.711
  362SOL    HW1 1985   3.723   3.976   0.673
  362SOL    HW2 1986   3.788   4.126   0.679
  363SOL     OW 1987   6.410   4.713   2.705
  363SOL    HW1 1988   6.336   4.646   2.713
  363SOL    HW2 1989   6.408   4.754   2.614
  364SOL     OW 1990   0.207   4.494   6.665
  364SOL    HW1 1991   0.181   4.497   6.762
  364SOL    HW2 1992   0.142   4.438   6.614
  365SOL     OW 1993   3.523   0.775   2.079
  365SOL    HW1 1994   3.569   0.723   2.008
  365SOL    HW2 1995   3.467   0.713   2.135
  366SOL     OW 1996   6.031   3.391   6.903
  366SOL    HW1 1997   5.987   3.396   6.993
  366SOL    HW2 1998   5.996   3.465   6.845
  367SOL     OW 1999   5.142   2.356   5.718
  367SOL    HW1 2000   5.221   2.309   5.757
  367SOL    HW2 2001   5.163   2.454   5.707
  368SOL     OW 2002   6.564   1.913   6.216
  368SOL    HW1 2003   6.511   1.969   6.152
  368SOL    HW2 2004   6.583   1.824   6.174
  369SOL     OW 2005   6.202   4.219   2.912
  369SOL    HW1 2006   6.122   4.161   2.925
  369SOL    HW2 2007   6.235   4.209   2.818
  370SOL     OW 2008   1.798   2.418   4.093
  370SOL    HW1 2009   1.890   2.451   4.112
  370SOL    HW2 2010   1.769   2.356   4.166
  371SOL     OW 2011   2.111   4.008   6.826
  371SOL    HW1 2012   2.097   4.103   6.799
  371SOL    HW2 2013   2.189   3.970   6.775
  372SOL     OW 2014   2.023   6.705   5.050
  372SOL    HW1 2015   1.974   6.679   4.966
  372SOL    HW2 2016   1.968   6.769   5.102
  373SOL     OW 2017   6.054   6.361   5.004
  373SOL    HW1 2018   6.000   6.301   5.063
  373SOL    HW2 2019   6.138   6.388   5.051
  374SOL     OW 2020   1.751   1.770   2.739
  374SOL    HW1 2021   1.783   1.692   2.685
  374SOL    HW2 2022   1.768   1.753   2.836
  375SOL     OW 2023   0.483   5.523   5.409
  375SOL    HW1 2024   0.549   5.517   5.334
  375SOL    HW2 2025   0.450   5.431   5.432
  376SOL     OW 2026   2.462   1.241   4.656
  376SOL    HW1 2027   2.546   1.198   4.689
  376SOL    HW2 2028   2.462   1.244   4.556
  377SOL     OW 2029   1.685   2.316   0.231
  377SOL    HW1 2030   1.704   2.277   0.141
  377SOL    HW2 2031   1.726   2.407   0.237
  378SOL     OW 2032   3.386   1.376   6.557
  378SOL    HW1 2033   3.486   1.370   6.561
  378SOL    HW2 2034   3.359   1.437   6.483
  379SOL     OW 2035   5.527   2.361   6.914
  379SOL    HW1 2036   5.598   2.325   6.854
  379SOL    HW2 2037   5.567   2.380   7.004
  380SOL     OW 2038   3.007   1.136   1.369
  380SOL    HW1 2039   3.072   1.060   1.370
  380SOL    HW2 2040   3.003   1.177   1.460
  381SOL     OW 2041   2.019   4.540   4.517
  381SOL    HW1 2042   1.961   4.461   4.537
  381SOL    HW2 2043   2.112   4.510   4.498
  382SOL     OW 2044   6.271   0.030   0.421
  382SOL    HW1 2045   6.253   0.059   0.515
  382SOL    HW2 2046   6.232   0.097   0.357
  383SOL     OW 2047   4.466   2.980   0.444
  383SOL    HW1 2048   4.556   2.961   0.483
  383SOL    HW2 2049   4.395   2.938   0.500
  384SOL     OW 2050   0.389   3.619   4.008
  384SOL    HW1 2051   0.292   3.639   3.997
  384SOL    HW2 2052   0.424   3.578   3.924
  385SOL     OW 2053   4.040   5.306   6.321
  385SOL    HW1 2054   4.122   5.364   6.326
  385SOL    HW2 2055   4.014   5.294   6.225
  386SOL     OW 2056   4.224   0.464   3.735
  386SOL    HW1 2057   4.210   0.563   3.726
  386SOL    HW2 2058   4.155   0.416   3.681
  387SOL     OW 2059   1.657   4.878   2.686
  387SOL    HW1 2060   1.604   4.801   2.722
  387SOL    HW2 2061   1.672   4.945   2.759
  388SOL     OW 2062   2.291   2.166   6.715
  388SOL    HW1 2063   2.291   2.086   6.655
  388SOL    HW2 2064   2.371   2.164   6.774
  389SOL     OW 2065   3.553   3.622   2.814
  389SOL    HW1 2066   3.522   3.550   2.877
  389SOL    HW2 2067   3.569   3.583   2.724
  390SOL     OW 2068   2.714   0.839   3.690
  390SOL    HW1 2069   2.776   0.762   3.685
  390SOL    HW2 2070   2.628   0.816   3.644
  391SOL     OW 2071   1.834   3.156   6.405
  391SOL    HW1 2072   1.828   3.255   6.419
  391SOL    HW2 2073   1.788   3.131   6.320
  392SOL     OW 2074   2.013   5.009   1.654
  392SOL    HW1 2075   1.914   5.023   1.656
  392SOL    HW2 2076   2.054   5.058   1.731
  393SOL     OW 2077   6.195   4.540   5.692
  393SOL    HW1 2078   6.190   4.618   5.754
  393SOL    HW2 2079   6.243   4.566   5.608
  394SOL     OW 2080   0.827   0.004   0.294
  394SOL    HW1 2081   0.732   0.019   0.266
  394SOL    HW2 2082   0.882   7.004   0.215
  395SOL     OW 2083   5.053   4.136   2.318
  395SOL    HW1 2084   5.034   4.234   2.312
  395SOL    HW2 2085   4.967   4.085   2.311
  396SOL     OW 2086   3.901   3.941   2.737
  396SOL    HW1 2087   3.838   3.880   2.785
  396SOL    HW2 2088   3.971   3.886   2.690
  397SOL     OW 2089   4.229   3.069   5.890
  397SOL    HW1 2090   4.214   3.027   5.801
  397SOL    HW2 2091   4.209   3.167   5.885
  398SOL     OW 2092   1.317   5.554   2.004
  398SOL    HW1 2093   1.338   5.506   2.089
  398SOL    HW2 2094   1.328   5.490   1.927
  399SOL     OW 2095   5.477   5.989   2.928
  399SOL    HW1 2096   5.556   5.933   2.956
  399SOL    HW2 2097   5.492   6.083   2.958
  400SOL     OW 2098   0.437   0.168   6.144
  400SOL    HW1 2099   0.426   0.259   6.183
  400SOL    HW2 2100   0.447   0.175   6.044
  401SOL     OW 2101   4.953   0.705   6.074
  401SOL    HW1 2102   4.980   0.767   6.148
  401SOL    HW2 2103   4.863   0.667   6.094
  402SOL     OW 2104   6.042   6.577   3.180
  402SOL    HW1 2105   6.111   6.648   3.171
  402SOL    HW2 2106   6.077   6.491   3.145
  403SOL     OW 2107   4.388   2.699   6.063
  403SOL    HW1 2108   4.396   2.609   6.021
  403SOL    HW2 2109   4.322   2.696   6.138
  404SOL     OW 2110   1.621   6.657   3.523
  404SOL    HW1 2111   1.561   6.601   3.466
  404SOL    HW2 2112   1.617   6.624   3.617
  405SOL     OW 2113   1.975   1.862   1.312
  405SOL    HW1 2114   2.071   1.874   1.289
  405SOL    HW2 2115   1.942   1.775   1.275
  406SOL     OW 2116   1.330   2.588   4.015
  406SOL    HW1 2117   1.377   2.666   3.973
  406SOL    HW2 2118   1.396   2.530   4.062
  407SOL     OW 2119   2.467   0.245   3.931
  407SOL    HW1 2120   2.479   0.323   3.993
  407SOL    HW2 2121   2.434   0.166   3.983
  408SOL     OW 2122   1.352   0.803   3.195
  408SOL    HW1 2123   1.446   0.800   3.161
  408SOL    HW2 2124   1.328   0.897   3.217
  409SOL     OW 2125   5.924   2.861   2.312
  409SOL    HW1 2126   5.826   2.867   2.293
  409SOL    HW2 2127   5.975   2.908   2.240
  410SOL     OW 2128   2.384   0.106   7.017
  410SOL    HW1 2129   2.286   0.119   7.023
  410SOL    HW2 2130   2.403   0.021   6.966
  411SOL     OW 2131   5.956   6.367   6.714
  411SOL    HW1 2132   5.872   6.417   6.732
  411SOL    HW2 2133   6.026   6.431   6.681
  412SOL     OW 2134   4.601   0.016   3.205
  412SOL    HW1 2135   4.662   0.093   3.223
  412SOL    HW2 2136   4.544   0.036   3.125
  413SOL     OW 2137   4.068   4.379   1.288
  413SOL    HW1 2138   3.985   4.324   1.297
  413SOL    HW2 2139   4.129   4.360   1.365
  414SOL     OW 2140   4.174   5.231   2.853
  414SOL    HW1 2141   4.215   5.267   2.769
  414SOL    HW2 2142   4.229   5.154   2.885
  415SOL     OW 2143   1.234   6.113   0.524
  415SOL    HW1 2144   1.278   6.087   0.438
  415SOL    HW2 2145   1.293   6.176   0.574
  416SOL     OW 2146   4.285   5.853   5.153
  416SOL    HW1 2147   4.257   5.824   5.244
  416SOL    HW2 2148   4.206   5.893   5.106
  417SOL     OW 2149   2.861   6.638   0.730
  417SOL    HW1 2150   2.783   6.592   0.689
  417SOL    HW2 2151   2.847   6.646   0.829
  418SOL     OW 2152   4.800   6.095   0.508
  418SOL    HW1 2153   4.868   6.049   0.452
  418SOL    HW2 2154   4.781   6.185   0.469
  419SOL     OW 2155   1.138   0.341   1.161
  419SOL    HW1 2156   1.094   0.254   1.140
  419SOL    HW2 2157   1.115   0.369   1.254
  420SOL     OW 2158   6.273   3.480   1.291
  420SOL    HW1 2159   6.231   3.496   1.202
  420SOL    HW2 2160   6.222   3.527   1.363
  421SOL     OW 2161   0.847   4.950   6.179
  421SOL    HW1 2162   0.754   4.969   6.210
  421SOL    HW2 2163   0.844   4.894   6.096
  422SOL     OW 2164   6.259   5.882   0.675
  422SOL    HW1 2165   6.205   5.815   0.726
  422SOL    HW2 2166   6.265   5.854   0.579
  423SOL     OW 2167   6.777   3.286   0.211
  423SOL    HW1 2168   6.819   3.299   0.301
  423SOL    HW2 2169   6.768   3.375   0.166
  424SOL     OW 2170   2.965   3.563   1.276
  424SOL    HW1 2171   3.056   3.536   1.306
  424SOL    HW2 2172   2.939   3.509   1.196
  425SOL     OW 2173   5.196   1.095   1.951
  425SOL    HW1 2174   5.138   1.177   1.948
  425SOL    HW2 2175   5.171   1.034   1.876
  426SOL     OW 2176   5.636   2.320   4.815
  426SOL    HW1 2177   5.650   2.385   4.740
  426SOL    HW2 2178   5.706   2.333   4.884
  427SOL     OW 2179   5.571   5.295   2.626
  427SOL    HW1 2180   5.597   5.325   2.718
  427SOL    HW2 2181   5.482   5.333   2.603
  428SOL     OW 2182   4.475   0.027   5.105
  428SOL    HW1 2183   4.571   0.028   5.131
  428SOL    HW2 2184   4.463   0.074   5.017
  429SOL     OW 2185   2.813   4.790   1.413
  429SOL    HW1 2186   2.758   4.737   1.477
  429SOL    HW2 2187   2.799   4.757   1.320
  430SOL     OW 2188   0.511   6.710   3.972
  430SOL    HW1 2189   0.453   6.670   3.901
  430SOL    HW2 2190   0.495   6.808   3.976
  431SOL     OW 2191   3.818   0.618   0.315
  431SOL    HW1 2192   3.871   0.533   0.323
  431SOL    HW2 2193   3.725   0.596   0.285
  432SOL     OW 2194   6.820   2.336   1.324
  432SOL    HW1 2195   6.759   2.275   1.374
  432SOL    HW2 2196   6.780   2.358   1.235
  433SOL     OW 2197   2.851   6.765   3.763
  433SOL    HW1 2198   2.826   6.762   3.860
  433SOL    HW2 2199   2.769   6.771   3.707
  434SOL     OW 2200   4.893   5.291   1.650
  434SOL    HW1 2201   4.835   5.212   1.627
  434SOL    HW2 2202   4.986   5.275   1.618
  435SOL     OW 2203   3.709   2.623   5.372
  435SOL    HW1 2204   3.677   2.684   5.445
  435SOL    HW2 2205   3.798   2.656   5.338
  436SOL     OW 2206   2.649   6.765   1.330
  436SOL    HW1 2207   2.670   6.669   1.348
  436SOL    HW2 2208   2.552   6.781   1.347
  437SOL     OW 2209   0.863   6.954   6.462
  437SOL    HW1 2210   0.892   6.968   6.557
  437SOL    HW2 2211   0.767   6.927   6.460
  438SOL     OW 2212   2.092   3.180   2.386
  438SOL    HW1 2213   2.115   3.095   2.339
  438SOL    HW2 2214   2.070   3.160   2.482
  439SOL     OW 2215   6.183   4.101   3.445
  439SOL    HW1 2216   6.251   4.053   3.389
  439SOL    HW2 2217   6.226   4.131   3.530
  440SOL     OW 2218   1.000   1.980   4.802
  440SOL    HW1 2219   0.929   2.049   4.816
  440SOL    HW2 2220   1.079   2.003   4.859
  441SOL     OW 2221   0.652   2.305   3.146
  441SOL    HW1 2222   0.707   2.320   3.064
  441SOL    HW2 2223   0.662   2.210   3.175
  442SOL     OW 2224   1.990   5.176   7.007
  442SOL    HW1 2225   2.048   5.110   6.959
  442SOL    HW2 2226   1.999   5.266   6.964
  443SOL     OW 2227   1.086   3.886   4.728
  443SOL    HW1 2228   1.014   3.867   4.794
  443SOL    HW2 2229   1.156   3.943   4.770
  444SOL     OW 2230   5.323   2.389   5.978
  444SOL    HW1 2231   5.306   2.456   5.906
  444SOL    HW2 2232   5.271   2.415   6.060
  445SOL     OW 2233   1.613   5.705   3.202
  445SOL    HW1 2234   1.609   5.605   3.202
  445SOL    HW2 2235   1.703   5.734   3.167
  446SOL     OW 2236   3.845   5.037   3.227
  446SOL    HW1 2237   3.923   5.026   3.289
  446SOL    HW2 2238   3.872   5.013   3.134
  447SOL     OW 2239   0.345   3.588   0.183
  447SOL    HW1 2240   0.301   3.534   0.111
  447SOL    HW2 2241   0.406   3.529   0.237
  448SOL     OW 2242   3.176   0.378   4.941
  448SOL    HW1 2243   3.101   0.355   4.879
  448SOL    HW2 2244   3.261   0.387   4.888
  449SOL     OW 2245   4.516   1.020   5.200
  449SOL    HW1 2246   4.514   0.920   5.195
  449SOL    HW2 2247   4.609   1.050   5.221
  450SOL     OW 2248   0.989   5.940   3.322
  450SOL    HW1 2249   1.084   5.922   3.297
  450SOL    HW2 2250   0.942   5.854   3.341
  451SOL     OW 2251   1.952   1.969   3.298
  451SOL    HW1 2252   1.963   2.059   3.255
  451SOL    HW2 2253   1.857   1.957   3.325
  452SOL     OW 2254   6.349   5.873   1.208
  452SOL    HW1 2255   6.426   5.934   1.224
  452SOL    HW2 2256   6.307   5.896   1.120
  453SOL     OW 2257   3.170   0.051   4.967
  453SOL    HW1 2258   3.101   0.027   4.899
  453SOL    HW2 2259   3.251   0.088   4.922
  454SOL     OW 2260   0.430   5.154   6.200
  454SOL    HW1 2261   0.340   5.187   6.228
  454SOL    HW2 2262   0.487   5.231   6.171
  455SOL     OW 2263   7.020   0.808   4.111
  455SOL    HW1 2264   0.037   0.756   4.185
  455SOL    HW2 2265   6.952   0.871   4.149
  456SOL     OW 2266   4.457   5.576   4.076
  456SOL    HW1 2267   4.511   5.492   4.071
  456SOL    HW2 2268   4.507   5.651   4.031
  457SOL     OW 2269   2.172   3.295   3.612
  457SOL    HW1 2270   2.195   3.376   3.667
  457SOL    HW2 2271   2.184   3.317   3.515
  458SOL     OW 2272   4.928   6.115   4.581
  458SOL    HW1 2273   4.844   6.077   4.619
  458SOL    HW2 2274   5.002   6.050   4.592
  459SOL     OW 2275   1.662   0.166   4.005
  459SOL    HW1 2276   1.597   0.163   3.929
  459SOL    HW2 2277   1.615   0.141   4.089
  460SOL     OW 2278   1.391   0.841   2.526
  460SOL    HW1 2279   1.385   0.904   2.448
  460SOL    HW2 2280   1.486   0.834   2.556
  461SOL     OW 2281   5.735   6.242   4.849
  461SOL    HW1 2282   5.777   6.323   4.889
  461SOL    HW2 2283   5.649   6.268   4.804
  462SOL     OW 2284   4.070   2.357   5.854
  462SOL    HW1 2285   4.169   2.345   5.856
  462SOL    HW2 2286   4.025   2.274   5.887
  463SOL     OW 2287   6.093   6.111   3.487
  463SOL    HW1 2288   6.093   6.085   3.391
  463SOL    HW2 2289   6.085   6.029   3.544
  464SOL     OW 2290   2.892   1.918   6.208
  464SOL    HW1 2291   2.851   2.009   6.201
  464SOL    HW2 2292   2.891   1.888   6.303
  465SOL     OW 2293   1.389   2.324   4.740
  465SOL    HW1 2294   1.331   2.391   4.785
  465SOL    HW2 2295   1.340   2.285   4.661
  466SOL     OW 2296   0.947   5.353   3.251
  466SOL    HW1 2297   0.852   5.325   3.245
  466SOL    HW2 2298   1.006   5.274   3.235
  467SOL     OW 2299   1.072   0.787   6.199
  467SOL    HW1 2300   1.128   0.869   6.191
  467SOL    HW2 2301   0.999   0.790   6.131
  468SOL     OW 2302   3.099   6.312   6.820
  468SOL    HW1 2303   3.038   6.352   6.750
  468SOL    HW2 2304   3.075   6.348   6.910
  469SOL     OW 2305   2.603   4.566   0.693
  469SOL    HW1 2306   2.672   4.528   0.755
  469SOL    HW2 2307   2.623   4.663   0.676
  470SOL     OW 2308   4.000   0.557   2.379
  470SOL    HW1 2309   3.948   0.608   2.448
  470SOL    HW2 2310   3.953   0.470   2.360
  471SOL     OW 2311   1.806   2.261   4.368
  471SOL    HW1 2312   1.868   2.190   4.334
  471SOL    HW2 2313   1.823   2.275   4.466
  472SOL     OW 2314   4.789   3.870   6.777
  472SOL    HW1 2315   4.834   3.795   6.826
  472SOL    HW2 2316   4.840   3.891   6.693
  473SOL     OW 2317   0.559   3.408   1.806
  473SOL    HW1 2318   0.547   3.426   1.903
  473SOL    HW2 2319   0.476   3.436   1.757
  474SOL     OW 2320   4.498   5.191   3.664
  474SOL    HW1 2321   4.435   5.125   3.706
  474SOL    HW2 2322   4.508   5.171   3.567
  475SOL     OW 2323   6.011   1.690   5.977
  475SOL    HW1 2324   6.011   1.647   5.886
  475SOL    HW2 2325   5.936   1.653   6.031
  476SOL     OW 2326   0.502   4.020   2.066
  476SOL    HW1 2327   0.582   3.997   2.122
  476SOL    HW2 2328   0.456   3.937   2.037
  477SOL     OW 2329   2.409   4.782   5.169
  477SOL    HW1 2330   2.316   4.820   5.170
  477SOL    HW2 2331   2.476   4.856   5.171
  478SOL     OW 2332   2.988   6.666   2.584
  478SOL    HW1 2333   2.924   6.601   2.543
  478SOL    HW2 2334   2.952   6.699   2.671
  479SOL     OW 2335   4.553   2.017   0.076
  479SOL    HW1 2336   4.476   2.054   0.025
  479SOL    HW2 2337   4.544   1.918   0.083
  480SOL     OW 2338   2.306   0.869   7.015
  480SOL    HW1 2339   2.389   0.849   6.962
  480SOL    HW2 2340   2.227   0.869   6.955
  481SOL     OW 2341   2.149   0.264   6.652
  481SOL    HW1 2342   2.198   0.295   6.733
  481SOL    HW2 2343   2.079   0.331   6.627
  482SOL     OW 2344   4.303   4.716   2.869
  482SOL    HW1 2345   4.389   4.725   2.919
  482SOL    HW2 2346   4.321   4.716   2.770
  483SOL     OW 2347   6.739   1.665   2.243
  483SOL    HW1 2348   6.686   1.723   2.305
  483SOL    HW2 2349   6.788   1.722   2.177
  484SOL     OW 2350   0.767   2.773   5.247
  484SOL    HW1 2351   0.768   2.865   5.206
  484SOL    HW2 2352   0.838   2.717   5.204
  485SOL     OW 2353   4.393   5.651   2.314
  485SOL    HW1 2354   4.447   5.567   2.310
  485SOL    HW2 2355   4.440   5.724   2.265
  486SOL     OW 2356   6.860   1.411   1.458
  486SOL    HW1 2357   6.898   1.368   1.376
  486SOL    HW2 2358   6.822   1.340   1.518
  487SOL     OW 2359   0.949   2.017   0.614
  487SOL    HW1 2360   0.956   1.970   0.526
  487SOL    HW2 2361   0.924   2.112   0.600
  488SOL     OW 2362   0.401   1.716   1.206
  488SOL    HW1 2363   0.467   1.768   1.258
  488SOL    HW2 2364   0.434   1.622   1.194
  489SOL     OW 2365   3.628   6.516   6.286
  489SOL    HW1 2366   3.563   6.478   6.221
  489SOL    HW2 2367   3.711   6.544   6.238
  490SOL     OW 2368   6.875   5.815   3.687
  490SOL    HW1 2369   6.887   5.845   3.782
  490SOL    HW2 2370   6.965   5.801   3.645
  491SOL     OW 2371   0.289   3.223   2.182
  491SOL    HW1 2372   0.256   3.208   2.275
  491SOL    HW2 2373   0.298   3.321   2.166
  492SOL     OW 2374   3.085   0.630   4.458
  492SOL    HW1 2375   3.142   0.679   4.523
  492SOL    HW2 2376   3.018   0.575   4.507
  493SOL     OW 2377   5.512   6.298   5.270
  493SOL    HW1 2378   5.538   6.218   5.216
  493SOL    HW2 2379   5.429   6.278   5.322
  494SOL     OW 2380   0.195   0.223   6.852
  494SOL    HW1 2381   0.164   0.211   6.946
  494SOL    HW2 2382   0.273   0.285   6.851
  495SOL     OW 2383   4.772   6.161   2.968
  495SOL    HW1 2384   4.690   6.212   2.994
  495SOL    HW2 2385   4.853   6.216   2.989
  496SOL     OW 2386   5.133   3.676   2.701
  496SOL    HW1 2387   5.125   3.648   2.797
  496SOL    HW2 2388   5.168   3.769   2.696
  497SOL     OW 2389   3.472   1.117   4.731
  497SOL    HW1 2390   3.509   1.030   4.763
  497SOL    HW2 2391   3.465   1.115   4.631
  498SOL     OW 2392   1.543   3.906   1.659
  498SOL    HW1 2393   1.466   3.909   1.723
  498SOL    HW2 2394   1.588   3.817   1.666
  499SOL     OW 2395   3.186   0.007   4.094
  499SOL    HW1 2396   3.153   0.050   4.010
  499SOL    HW2 2397   3.164   6.935   4.092
  500SOL     OW 2398   1.303   3.385   2.484
  500SOL    HW1 2399   1.266   3.455   2.545
  500SOL    HW2 2400   1.386   3.346   2.525
  501SOL     OW 2401   2.937   6.683   0.389
  501SOL    HW1 2402   3.031   6.675   0.356
  501SOL    HW2 2403   2.934   6.661   0.486
  502SOL     OW 2404   6.841   4.524   6.489
  502SOL    HW1 2405   6.777   4.490   6.558
  502SOL    HW2 2406   6.875   4.614   6.516
  503SOL     OW 2407   5.590   5.903   5.760
  503SOL    HW1 2408   5.614   5.967   5.687
  503SOL    HW2 2409   5.515   5.844   5.729
  504SOL     OW 2410   2.201   5.342   3.069
  504SOL    HW1 2411   2.127   5.384   3.018
  504SOL    HW2 2412   2.246   5.412   3.125
  505SOL     OW 2413   3.546   6.405   5.382
  505SOL    HW1 2414   3.575   6.309   5.383
  505SOL    HW2 2415   3.451   6.411   5.352
  506SOL     OW 2416   1.241   5.135   4.808
  506SOL    HW1 2417   1.199   5.203   4.868
  506SOL    HW2 2418   1.340   5.147   4.809
  507SOL     OW 2419   3.080   0.722   3.431
  507SOL    HW1 2420   3.024   0.804   3.439
  507SOL    HW2 2421   3.110   0.694   3.523
  508SOL     OW 2422   6.506   3.666   2.349
  508SOL    HW1 2423   6.412   3.643   2.324
  508SOL    HW2 2424   6.529   3.621   2.435
  509SOL     OW 2425   2.738   1.043   1.205
  509SOL    HW1 2426   2.803   1.117   1.218
  509SOL    HW2 2427   2.702   1.046   1.112
  510SOL     OW 2428   6.642   4.958   6.103
  510SOL    HW1 2429   6.629   4.863   6.075
  510SOL    HW2 2430   6.729   4.966   6.152
  511SOL     OW 2431   6.986   6.925   6.645
  511SOL    HW1 2432   7.020   6.835   6.673
  511SOL    HW2 2433   0.028   6.969   6.586
  512SOL     OW 2434   0.388   3.174   0.364
  512SOL    HW1 2435   0.403   3.135   0.455
  512SOL    HW2 2436   0.294   3.154   0.335
  513SOL     OW 2437   5.654   6.250   2.961
  513SOL    HW1 2438   5.732   6.200   3.000
  513SOL    HW2 2439   5.585   6.265   3.032
  514SOL     OW 2440   6.977   2.693   3.570
  514SOL    HW1 2441   6.900   2.755   3.587
  514SOL    HW2 2442   6.943   2.600   3.556
  515SOL     OW 2443   2.144   1.017   6.429
  515SOL    HW1 2444   2.195   1.069   6.498
  515SOL    HW2 2445   2.051   1.052   6.424
  516SOL     OW 2446   2.730   4.422   1.665
  516SOL    HW1 2447   2.659   4.488   1.690
  516SOL    HW2 2448   2.810   4.434   1.723
  517SOL     OW 2449   4.921   5.880   1.941
  517SOL    HW1 2450   4.842   5.840   1.989
  517SOL    HW2 2451   4.892   5.959   1.888
  518SOL     OW 2452   3.031   2.149   2.422
  518SOL    HW1 2453   3.122   2.190   2.422
  518SOL    HW2 2454   3.004   2.128   2.328
  519SOL     OW 2455   0.752   1.096   4.337
  519SOL    HW1 2456   0.670   1.103   4.280
  519SOL    HW2 2457   0.726   1.083   4.432
  520SOL     OW 2458   6.194   4.858   0.037
  520SOL    HW1 2459   6.101   4.867   0.073
  520SOL    HW2 2460   6.250   4.805   0.101
  521SOL     OW 2461   6.332   3.435   6.520
  521SOL    HW1 2462   6.304   3.440   6.616
  521SOL    HW2 2463   6.266   3.380   6.469
  522SOL     OW 2464   3.529   3.548   5.530
  522SOL    HW1 2465   3.599   3.479   5.551
  522SOL    HW2 2466   3.490   3.529   5.440
  523SOL     OW 2467   0.694   4.702   2.380
  523SOL    HW1 2468   0.648   4.675   2.464
  523SOL    HW2 2469   0.634   4.763   2.328
  524SOL     OW 2470   1.733   0.811   6.826
  524SOL    HW1 2471   1.763   0.901   6.795
  524SOL    HW2 2472   1.675   0.770   6.756
  525SOL     OW 2473   2.745   4.092   6.985
  525SOL    HW1 2474   2.671   4.026   7.001
  525SOL    HW2 2475   2.786   4.074   6.896
  526SOL     OW 2476   3.480   6.947   3.990
  526SOL    HW1 2477   3.386   6.960   4.021
  526SOL    HW2 2478   3.486   6.966   3.892
  527SOL     OW 2479   6.119   3.076   5.965
  527SOL    HW1 2480   6.139   3.024   6.048
  527SOL    HW2 2481   6.020   3.077   5.949
  528SOL     OW 2482   0.892   2.116   4.339
  528SOL    HW1 2483   0.918   2.029   4.298
  528SOL    HW2 2484   0.944   2.190   4.297
  529SOL     OW 2485   0.908   6.088   4.493
  529SOL    HW1 2486   0.980   6.040   4.544
  529SOL    HW2 2487   0.836   6.024   4.468
  530SOL     OW 2488   2.635   3.033   5.336
  530SOL    HW1 2489   2.561   3.005   5.276
  530SOL    HW2 2490   2.688   2.952   5.364
  531SOL     OW 2491   0.170   0.521   1.601
  531SOL    HW1 2492   0.143   0.442   1.545
  531SOL    HW2 2493   0.097   0.589   1.599
  532SOL     OW 2494   1.126   2.249   6.946
  532SOL    HW1 2495   1.170   2.171   6.901
  532SOL    HW2 2496   1.152   2.333   6.899
  533SOL     OW 2497   3.888   6.231   4.058
  533SOL    HW1 2498   3.884   6.275   3.968
  533SOL    HW2 2499   3.859   6.136   4.050
  534SOL     OW 2500   5.221   5.064   3.292
  534SOL    HW1 2501   5.229   5.007   3.211
  534SOL    HW2 2502   5.200   5.007   3.371
  535SOL     OW 2503   0.777   3.595   4.595
  535SOL    HW1 2504   0.777   3.531   4.519
  535SOL    HW2 2505   0.841   3.670   4.576
  536SOL     OW 2506   0.380   4.605   2.199
  536SOL    HW1 2507   0.432   4.520   2.207
  536SOL    HW2 2508   0.431   4.670   2.143
  537SOL     OW 2509   1.695   6.208   3.511
  537SOL    HW1 2510   1.609   6.195   3.561
  537SOL    HW2 2511   1.772   6.206   3.575
  538SOL     OW 2512   2.009   4.712   3.707
  538SOL    HW1 2513   2.085   4.678   3.762
  538SOL    HW2 2514   1.999   4.811   3.720
  539SOL     OW 2515   0.542   6.009   0.340
  539SOL    HW1 2516   0.585   6.089   0.383
  539SOL    HW2 2517   0.593   5.986   0.257
  540SOL     OW 2518   6.884   0.925   1.978
  540SOL    HW1 2519   6.839   0.839   1.999
  540SOL    HW2 2520   6.951   0.946   2.049
  541SOL     OW 2521   2.774   6.576   4.764
  541SOL    HW1 2522   2.764   6.477   4.775
  541SOL    HW2 2523   2.694   6.622   4.802
  542SOL     OW 2524   6.640   0.316   0.045
  542SOL    HW1 2525   6.693   0.262   0.111
  542SOL    HW2 2526   6.543   0.296   0.057
  543SOL     OW 2527   1.007   5.656   5.117
  543SOL    HW1 2528   0.974   5.734   5.170
  543SOL    HW2 2529   0.960   5.573   5.146
  544SOL     OW 2530   1.943   4.148   1.012
  544SOL    HW1 2531   1.939   4.202   1.096
  544SOL    HW2 2532   2.038   4.131   0.988
  545SOL     OW 2533   3.302   1.313   3.428
  545SOL    HW1 2534   3.398   1.335   3.445
  545SOL    HW2 2535   3.254   1.394   3.393
  546SOL     OW 2536   1.675   3.421   0.318
  546SOL    HW1 2537   1.715   3.355   0.380
  546SOL    HW2 2538   1.587   3.452   0.353
  547SOL     OW 2539   3.027   1.275   6.439
  547SOL    HW1 2540   3.012   1.176   6.432
  547SOL    HW2 2541   3.098   1.303   6.374
  548SOL     OW 2542   3.965   3.062   2.798
  548SOL    HW1 2543   4.036   2.992   2.794
  548SOL    HW2 2544   4.002   3.144   2.843
  549SOL     OW 2545   4.594   3.267   1.447
  549SOL    HW1 2546   4.563   3.224   1.362
  549SOL    HW2 2547   4.596   3.366   1.435
  550SOL     OW 2548   6.899   4.401   3.379
  550SOL    HW1 2549   6.953   4.382   3.297
  550SOL    HW2 2550   6.830   4.470   3.358
  551SOL     OW 2551   6.904   1.097   1.066
  551SOL    HW1 2552   6.974   1.144   1.012
  551SOL    HW2 2553   6.908   1.127   1.161
  552SOL     OW 2554   4.630   5.209   0.751
  552SOL    HW1 2555   4.601   5.303   0.768
  552SOL    HW2 2556   4.616   5.187   0.654
  553SOL     OW 2557   2.209   0.170   1.944
  553SOL    HW1 2558   2.167   0.132   2.027
  553SOL    HW2 2559   2.279   0.106   1.911
  554SOL     OW 2560   5.062   6.443   6.149
  554SOL    HW1 2561   4.989   6.511   6.155
  554SOL    HW2 2562   5.062   6.386   6.232
  555SOL     OW 2563   2.265   5.439   4.238
  555SOL    HW1 2564   2.259   5.475   4.331
  555SOL    HW2 2565   2.249   5.340   4.240
  556SOL     OW 2566   6.085   2.404   4.251
  556SOL    HW1 2567   6.033   2.417   4.166
  556SOL    HW2 2568   6.161   2.469   4.254
  557SOL     OW 2569   0.688   5.237   6.653
  557SOL    HW1 2570   0.661   5.290   6.573
  557SOL    HW2 2571   0.710   5.299   6.729
  558SOL     OW 2572   3.319   4.131   4.207
  558SOL    HW1 2573   3.355   4.103   4.297
  558SOL    HW2 2574   3.394   4.169   4.152
  559SOL     OW 2575   6.284   6.486   6.837
  559SOL    HW1 2576   6.215   6.432   6.788
  559SOL    HW2 2577   6.351   6.424   6.878
  560SOL     OW 2578   3.988   6.411   0.484
  560SOL    HW1 2579   3.996   6.492   0.542
  560SOL    HW2 2580   3.978   6.330   0.541
  561SOL     OW 2581   6.669   0.185   6.651
  561SOL    HW1 2582   6.624   0.258   6.600
  561SOL    HW2 2583   6.729   0.224   6.721
  562SOL     OW 2584   4.759   0.368   6.668
  562SOL    HW1 2585   4.756   0.431   6.590
  562SOL    HW2 2586   4.851   0.331   6.678
  563SOL     OW 2587   2.766   0.519   3.397
  563SOL    HW1 2588   2.693   0.451   3.405
  563SOL    HW2 2589   2.768   0.555   3.304
  564SOL     OW 2590   2.777   2.341   6.233
  564SOL    HW1 2591   2.723   2.425   6.231
  564SOL    HW2 2592   2.719   2.262   6.213
  565SOL     OW 2593   4.283   3.239   5.474
  565SOL    HW1 2594   4.206   3.242   5.537
  565SOL    HW2 2595   4.275   3.313   5.407
  566SOL     OW 2596   5.066   3.934   3.443
  566SOL    HW1 2597   5.020   4.016   3.478
  566SOL    HW2 2598   5.111   3.955   3.356
  567SOL     OW 2599   2.961   3.509   3.233
  567SOL    HW1 2600   2.956   3.455   3.317
  567SOL    HW2 2601   2.963   3.448   3.154
  568SOL     OW 2602   3.417   2.746   1.096
  568SOL    HW1 2603   3.397   2.766   1.192
  568SOL    HW2 2604   3.505   2.699   1.090
  569SOL     OW 2605   1.904   3.038   0.209
  569SOL    HW1 2606   1.848   3.081   0.138
  569SOL    HW2 2607   1.981   2.992   0.166
  570SOL     OW 2608   2.014   6.376   5.915
  570SOL    HW1 2609   2.021   6.474   5.933
  570SOL    HW2 2610   1.965   6.361   5.829
  571SOL     OW 2611   3.669   6.897   2.769
  571SOL    HW1 2612   3.637   6.805   2.748
  571SOL    HW2 2613   3.704   6.901   2.862
  572SOL     OW 2614   2.858   5.033   5.875
  572SOL    HW1 2615   2.816   5.117   5.909
  572SOL    HW2 2616   2.932   5.055   5.812
  573SOL     OW 2617   4.044   2.142   5.157
  573SOL    HW1 2618   4.003   2.223   5.198
  573SOL    HW2 2619   4.087   2.167   5.071
  574SOL     OW 2620   2.229   2.050   3.746
  574SOL    HW1 2621   2.225   2.112   3.825
  574SOL    HW2 2622   2.221   2.103   3.662
  575SOL     OW 2623   6.073   3.923   6.060
  575SOL    HW1 2624   6.089   3.977   5.978
  575SOL    HW2 2625   6.032   3.835   6.035
  576SOL     OW 2626   1.451   2.243   1.874
  576SOL    HW1 2627   1.449   2.295   1.959
  576SOL    HW2 2628   1.426   2.148   1.892
  577SOL     OW 2629   2.051   1.406   3.657
  577SOL    HW1 2630   2.127   1.469   3.641
  577SOL    HW2 2631   2.035   1.397   3.756
  578SOL     OW 2632   6.821   3.172   3.663
  578SOL    HW1 2633   6.878   3.098   3.697
  578SOL    HW2 2634   6.726   3.141   3.660
  579SOL     OW 2635   3.452   2.281   1.189
  579SOL    HW1 2636   3.415   2.194   1.221
  579SOL    HW2 2637   3.498   2.268   1.101
  580SOL     OW 2638   0.915   4.514   6.428
  580SOL    HW1 2639   0.850   4.515   6.352
  580SOL    HW2 2640   0.922   4.421   6.464
  581SOL     OW 2641   3.264   3.443   2.965
  581SOL    HW1 2642   3.269   3.531   3.012
  581SOL    HW2 2643   3.173   3.404   2.979
  582SOL     OW 2644   5.281   5.105   2.645
  582SOL    HW1 2645   5.308   5.038   2.576
  582SOL    HW2 2646   5.363   5.151   2.680
  583SOL     OW 2647   2.841   4.944   6.593
  583SOL    HW1 2648   2.901   4.882   6.543
  583SOL    HW2 2649   2.889   5.029   6.613
  584SOL     OW 2650   0.984   5.545   5.544
  584SOL    HW1 2651   1.016   5.589   5.628
  584SOL    HW2 2652   0.884   5.543   5.543
  585SOL     OW 2653   6.640   2.811   6.307
  585SOL    HW1 2654   6.721   2.862   6.333
  585SOL    HW2 2655   6.626   2.819   6.208
  586SOL     OW 2656   3.648   0.216   0.299
  586SOL    HW1 2657   3.744   0.244   0.303
  586SOL    HW2 2658   3.595   0.285   0.251
  587SOL     OW 2659   1.996   2.281   5.580
  587SOL    HW1 2660   1.945   2.364   5.560
  587SOL    HW2 2661   2.056   2.259   5.503
  588SOL     OW 2662   3.063   6.457   1.038
  588SOL    HW1 2663   2.973   6.490   1.010
  588SOL    HW2 2664   3.062   6.432   1.134
  589SOL     OW 2665   3.777   5.106   2.063
  589SOL    HW1 2666   3.788   5.197   2.103
  589SOL    HW2 2667   3.694   5.063   2.099
  590SOL     OW 2668   6.732   2.996   1.803
  590SOL    HW1 2669   6.665   2.948   1.860
  590SOL    HW2 2670   6.691   3.081   1.769
  591SOL     OW 2671   3.712   6.979   3.755
  591SOL    HW1 2672   3.792   6.975   3.815
  591SOL    HW2 2673   3.698   6.891   3.711
  592SOL     OW 2674   4.118   0.652   0.769
  592SOL    HW1 2675   4.139   0.557   0.748
  592SOL    HW2 2676   4.098   0.701   0.684
  593SOL     OW 2677   4.654   1.994   3.815
  593SOL    HW1 2678   4.684   2.036   3.901
  593SOL    HW2 2679   4.716   1.920   3.790
  594SOL     OW 2680   4.220   3.136   6.858
  594SOL    HW1 2681   4.302   3.146   6.800
  594SOL    HW2 2682   4.245   3.087   6.942
  595SOL     OW 2683   4.774   6.520   4.200
  595SOL    HW1 2684   4.870   6.518   4.229
  595SOL    HW2 2685   4.760   6.597   4.136
  596SOL     OW 2686   1.178   4.215   1.386
  596SOL    HW1 2687   1.186   4.221   1.287
  596SOL    HW2 2688   1.260   4.171   1.423
  597SOL     OW 2689   4.506   6.888   5.822
  597SOL    HW1 2690   4.486   6.954   5.895
  597SOL    HW2 2691   4.565   6.930   5.754
  598SOL     OW 2692   3.488   4.085   0.452
  598SOL    HW1 2693   3.400   4.133   0.456
  598SOL    HW2 2694   3.520   4.067   0.545
  599SOL     OW 2695   0.489   0.782   2.998
  599SOL    HW1 2696   0.565   0.791   2.934
  599SOL    HW2 2697   0.412   0.736   2.953
  600SOL     OW 2698   0.601   7.004   0.836
  600SOL    HW1 2699   0.565   0.020   0.919
  600SOL    HW2 2700   0.698   0.002   0.825
  601SOL     OW 2701   3.276   6.030   3.043
  601SOL    HW1 2702   3.268   6.095   3.119
  601SOL    HW2 2703   3.248   5.939   3.074
  602SOL     OW 2704   0.714   1.067   0.300
  602SOL    HW1 2705   0.811   1.091   0.293
  602SOL    HW2 2706   0.700   0.975   0.263
  603SOL     OW 2707   4.011   1.906   4.001
  603SOL    HW1 2708   4.102   1.865   3.993
  603SOL    HW2 2709   4.008   1.967   4.080
  604SOL     OW 2710   0.741   3.055   0.633
  604SOL    HW1 2711   0.740   3.107   0.548
  604SOL    HW2 2712   0.648   3.050   0.670
  605SOL     OW 2713   6.784   5.576   3.147
  605SOL    HW1 2714   6.760   5.542   3.056
  605SOL    HW2 2715   6.850   5.513   3.189
  606SOL     OW 2716   4.860   0.720   5.762
  606SOL    HW1 2717   4.887   0.777   5.840
  606SOL    HW2 2718   4.919   0.640   5.757
  607SOL     OW 2719   5.496   0.857   4.326
  607SOL    HW1 2720   5.519   0.915   4.405
  607SOL    HW2 2721   5.581   0.828   4.282
  608SOL     OW 2722   3.426   6.812   0.497
  608SOL    HW1 2723   3.456   6.906   0.482
  608SOL    HW2 2724   3.506   6.751   0.498
  609SOL     OW 2725   3.790   3.383   4.546
  609SOL    HW1 2726   3.829   3.353   4.633
  609SOL    HW2 2727   3.863   3.420   4.488
  610SOL     OW 2728   5.492   2.161   2.982
  610SOL    HW1 2729   5.586   2.177   3.015
  610SOL    HW2 2730   5.445   2.249   2.973
  611SOL     OW 2731   0.734   0.383   6.991
  611SOL    HW1 2732   0.751   0.459   6.928
  611SOL    HW2 2733   0.636   0.363   6.994
  612SOL     OW 2734   3.230   5.702   6.014
  612SOL    HW1 2735   3.293   5.681   5.939
  612SOL    HW2 2736   3.214   5.801   6.017
  613SOL     OW 2737   4.358   1.028   5.417
  613SOL    HW1 2738   4.382   1.093   5.490
  613SOL    HW2 2739   4.418   1.043   5.339
  614SOL     OW 2740   5.787   5.050   1.247
  614SOL    HW1 2741   5.826   5.015   1.162
  614SOL    HW2 2742   5.804   5.148   1.253
  615SOL     OW 2743   0.963   0.652   6.628
  615SOL    HW1 2744   0.963   0.730   6.692
  615SOL    HW2 2745   0.880   0.655   6.572
  616SOL     OW 2746   6.068   1.852   3.953
  616SOL    HW1 2747   6.064   1.760   3.912
  616SOL    HW2 2748   6.011   1.915   3.900
  617SOL     OW 2749   0.445   4.354   6.809
  617SOL    HW1 2750   0.460   4.283   6.741
  617SOL    HW2 2751   0.347   4.365   6.826
  618SOL     OW 2752   5.858   3.515   1.110
  618SOL    HW1 2753   5.780   3.499   1.049
  618SOL    HW2 2754   5.877   3.431   1.162
  619SOL     OW 2755   3.467   7.011   6.696
  619SOL    HW1 2756   3.559   6.976   6.675
  619SOL    HW2 2757   3.400   6.939   6.682
  620SOL     OW 2758   5.901   3.427   1.450
  620SOL    HW1 2759   5.858   3.443   1.539
  620SOL    HW2 2760   5.941   3.512   1.417
  621SOL     OW 2761   2.719   0.162   5.148
  621SOL    HW1 2762   2.786   0.232   5.170
  621SOL    HW2 2763   2.680   0.125   5.232
  622SOL     OW 2764   0.856   2.472   5.477
  622SOL    HW1 2765   0.791   2.546   5.462
  622SOL    HW2 2766   0.887   2.436   5.389
  623SOL     OW 2767   6.236   6.663   5.217
  623SOL    HW1 2768   6.243   6.702   5.125
  623SOL    HW2 2769   6.193   6.730   5.278
  624SOL     OW 2770   6.586   1.401   6.997
  624SOL    HW1 2771   6.596   1.302   6.999
  624SOL    HW2 2772   6.552   1.433   0.059
  625SOL     OW 2773   1.892   0.882   0.088
  625SOL    HW1 2774   1.866   0.879   0.185
  625SOL    HW2 2775   1.857   0.966   0.047
  626SOL     OW 2776   1.234   5.352   2.999
  626SOL    HW1 2777   1.287   5.436   2.989
  626SOL    HW2 2778   1.153   5.355   2.940
  627SOL     OW 2779   6.574   6.063   0.114
  627SOL    HW1 2780   6.521   6.028   0.037
  627SOL    HW2 2781   6.669   6.078   0.086
  628SOL     OW 2782   5.607   3.782   4.742
  628SOL    HW1 2783   5.551   3.745   4.817
  628SOL    HW2 2784   5.569   3.753   4.655
  629SOL     OW 2785   0.231   1.172   0.234
  629SOL    HW1 2786   0.257   1.117   0.313
  629SOL    HW2 2787   0.312   1.206   0.188
  630SOL     OW 2788   6.284   1.284   0.818
  630SOL    HW1 2789   6.284   1.186   0.836
  630SOL    HW2 2790   6.234   1.303   0.734
  631SOL     OW 2791   2.817   2.123   4.627
  631SOL    HW1 2792   2.896   2.125   4.688
  631SOL    HW2 2793   2.846   2.100   4.535
  632SOL     OW 2794   4.772   2.880   0.274
  632SOL    HW1 2795   4.690   2.843   0.232
  632SOL    HW2 2796   4.794   2.829   0.357
  633SOL     OW 2797   2.343   4.986   1.181
  633SOL    HW1 2798   2.296   4.941   1.257
  633SOL    HW2 2799   2.303   5.077   1.167
  634SOL     OW 2800   3.443   3.270   3.159
  634SOL    HW1 2801   3.503   3.303   3.086
  634SOL    HW2 2802   3.498   3.250   3.241
  635SOL     OW 2803   4.664   0.270   6.974
  635SOL    HW1 2804   4.567   0.253   6.957
  635SOL    HW2 2805   4.674   0.336   0.023
  636SOL     OW 2806   3.669   0.423   5.010
  636SOL    HW1 2807   3.655   0.522   5.011
  636SOL    HW2 2808   3.645   0.386   4.920
  637SOL     OW 2809   5.877   1.773   2.747
  637SOL    HW1 2810   5.830   1.766   2.659
  637SOL    HW2 2811   5.862   1.690   2.800
  638SOL     OW 2812   5.949   3.474   3.800
  638SOL    HW1 2813   6.043   3.487   3.832
  638SOL    HW2 2814   5.914   3.386   3.834
  639SOL     OW 2815   5.642   4.688   3.488
  639SOL    HW1 2816   5.572   4.705   3.557
  639SOL    HW2 2817   5.607   4.713   3.398
  640SOL     OW 2818   0.346   3.527   3.531
  640SOL    HW1 2819   0.267   3.588   3.537
  640SOL    HW2 2820   0.370   3.512   3.435
  641SOL     OW 2821   1.474   4.861   5.349
  641SOL    HW1 2822   1.431   4.830   5.434
  641SOL    HW2 2823   1.571   4.837   5.351
  642SOL     OW 2824   1.321   3.060   4.563
  642SOL    HW1 2825   1.413   3.021   4.571
  642SOL    HW2 2826   1.323   3.138   4.501
  643SOL     OW 2827   6.910   6.687   6.845
  643SOL    HW1 2828   6.987   6.748   6.864
  643SOL    HW2 2829   6.945   6.599   6.813
  644SOL     OW 2830   0.869   0.678   4.466
  644SOL    HW1 2831   0.871   0.671   4.366
  644SOL    HW2 2832   0.781   0.645   4.500
  645SOL     OW 2833   3.395   4.914   3.057
  645SOL    HW1 2834   3.401   4.822   3.096
  645SOL    HW2 2835   3.395   4.981   3.131
  646SOL     OW 2836   4.015   0.872   4.578
  646SOL    HW1 2837   3.952   0.893   4.653
  646SOL    HW2 2838   4.075   0.950   4.562
  647SOL     OW 2839   5.031   1.859   4.967
  647SOL    HW1 2840   4.943   1.902   4.988
  647SOL    HW2 2841   5.050   1.867   4.870
  648SOL     OW 2842   6.373   2.866   3.349
  648SOL    HW1 2843   6.407   2.835   3.260
  648SOL    HW2 2844   6.340   2.960   3.341
  649SOL     OW 2845   2.047   4.772   0.002
  649SOL    HW1 2846   2.053   4.672   7.018
  649SOL    HW2 2847   1.957   4.796   0.039
  650SOL     OW 2848   6.853   5.606   0.430
  650SOL    HW1 2849   6.827   5.685   0.485
  650SOL    HW2 2850   6.940   5.569   0.464
  651SOL     OW 2851   1.967   0.669   6.018
  651SOL    HW1 2852   2.035   0.632   6.082
  651SOL    HW2 2853   1.892   0.710   6.070
  652SOL     OW 2854   3.903   6.597   1.956
  652SOL    HW1 2855   3.828   6.638   1.903
  652SOL    HW2 2856   3.940   6.519   1.905
  653SOL     OW 2857   0.590   6.687   0.531
  653SOL    HW1 2858   0.633   6.682   0.441
  653SOL    HW2 2859   0.514   6.622   0.535
  654SOL     OW 2860   0.016   6.559   5.956
  654SOL    HW1 2861   6.967   6.616   5.923
  654SOL    HW2 2862   7.020   6.463   5.940
  655SOL     OW 2863   6.997   5.437   1.886
  655SOL    HW1 2864   0.006   5.351   1.850
  655SOL    HW2 2865   0.047   5.499   1.905
  656SOL     OW 2866   2.444   6.225   0.900
  656SOL    HW1 2867   2.502   6.182   0.969
  656SOL    HW2 2868   2.391   6.298   0.943
  657SOL     OW 2869   2.924   3.400   1.524
  657SOL    HW1 2870   2.989   3.416   1.599
  657SOL    HW2 2871   2.920   3.481   1.466
  658SOL     OW 2872   1.548   4.253   4.769
  658SOL    HW1 2873   1.586   4.267   4.861
  658SOL    HW2 2874   1.489   4.330   4.746
  659SOL     OW 2875   3.203   5.717   4.890
  659SOL    HW1 2876   3.177   5.760   4.977
  659SOL    HW2 2877   3.195   5.783   4.816
  660SOL     OW 2878   4.908   5.391   2.294
  660SOL    HW1 2879   4.847   5.409   2.371
  660SOL    HW2 2880   5.003   5.392   2.327
  661SOL     OW 2881   4.841   4.002   4.650
  661SOL    HW1 2882   4.941   4.004   4.651
  661SOL    HW2 2883   4.810   3.966   4.562
  662SOL     OW 2884   4.112   2.220   6.520
  662SOL    HW1 2885   4.077   2.194   6.430
  662SOL    HW2 2886   4.082   2.153   6.588
  663SOL     OW 2887   0.563   4.831   6.931
  663SOL    HW1 2888   0.560   4.883   6.845
  663SOL    HW2 2889   0.653   4.789   6.942
  664SOL     OW 2890   1.686   5.424   0.112
  664SOL    HW1 2891   1.715   5.482   0.036
  664SOL    HW2 2892   1.593   5.446   0.139
  665SOL     OW 2893   4.486   5.603   1.479
  665SOL    HW1 2894   4.430   5.686   1.475
  665SOL    HW2 2895   4.576   5.622   1.440
  666SOL     OW 2896   3.324   1.454   0.341
  666SOL    HW1 2897   3.330   1.552   0.324
  666SOL    HW2 2898   3.238   1.434   0.389
  667SOL     OW 2899   0.606   2.798   4.263
  667SOL    HW1 2900   0.587   2.731   4.191
  667SOL    HW2 2901   0.529   2.801   4.327
  668SOL     OW 2902   4.426   5.943   6.896
  668SOL    HW1 2903   4.403   5.902   6.984
  668SOL    HW2 2904   4.346   5.991   6.860
  669SOL     OW 2905   1.717   6.643   3.202
  669SOL    HW1 2906   1.738   6.578   3.275
  669SOL    HW2 2907   1.768   6.618   3.120
  670SOL     OW 2908   2.947   3.614   2.975
  670SOL    HW1 2909   2.914   3.546   2.909
  670SOL    HW2 2910   2.947   3.573   3.067
  671SOL     OW 2911   2.559   5.935   5.936
  671SOL    HW1 2912   2.580   5.977   5.848
  671SOL    HW2 2913   2.588   5.839   5.935
  672SOL     OW 2914   1.268   3.619   3.818
  672SOL    HW1 2915   1.207   3.571   3.756
  672SOL    HW2 2916   1.360   3.581   3.810
  673SOL     OW 2917   4.497   6.914   6.681
  673SOL    HW1 2918   4.538   7.002   6.660
  673SOL    HW2 2919   4.532   6.845   6.617
  674SOL     OW 2920   0.764   3.035   4.218
  674SOL    HW1 2921   0.858   3.006   4.200
  674SOL    HW2 2922   0.706   2.955   4.234
  675SOL     OW 2923   1.158   2.077   4.991
  675SOL    HW1 2924   1.184   2.031   5.076
  675SOL    HW2 2925   1.210   2.162   4.982
  676SOL     OW 2926   3.198   4.910   4.300
  676SOL    HW1 2927   3.236   4.923   4.208
  676SOL    HW2 2928   3.108   4.867   4.293
  677SOL     OW 2929   5.963   0.550   0.170
  677SOL    HW1 2930   5.924   0.548   0.078
  677SOL    HW2 2931   5.913   0.615   0.226
  678SOL     OW 2932   2.849   1.627   5.141
  678SOL    HW1 2933   2.751   1.620   5.157
  678SOL    HW2 2934   2.898   1.611   5.227
  679SOL     OW 2935   4.249   1.558   4.370
  679SOL    HW1 2936   4.188   1.628   4.407
  679SOL    HW2 2937   4.316   1.531   4.440
  680SOL     OW 2938   5.756   4.624   5.784
  680SOL    HW1 2939   5.823   4.599   5.853
  680SOL    HW2 2940   5.664   4.603   5.817
  681SOL     OW 2941   6.534   6.613   0.847
  681SOL    HW1 2942   6.620   6.617   0.898
  681SOL    HW2 2943   6.553   6.618   0.749
  682SOL     OW 2944   2.477   6.793   6.309
  682SOL    HW1 2945   2.487   6.696   6.288
  682SOL    HW2 2946   2.455   6.805   6.406
  683SOL     OW 2947   3.464   0.256   5.834
  683SOL    HW1 2948   3.459   0.169   5.884
  683SOL    HW2 2949   3.478   0.237   5.737
  684SOL     OW 2950   6.657   1.247   6.291
  684SOL    HW1 2951   6.739   1.304   6.282
  684SOL    HW2 2952   6.634   1.207   6.202
  685SOL     OW 2953   4.781   0.918   5.557
  685SOL    HW1 2954   4.823   0.839   5.600
  685SOL    HW2 2955   4.681   0.913   5.568
  686SOL     OW 2956   5.931   3.444   3.515
  686SOL    HW1 2957   5.914   3.349   3.542
  686SOL    HW2 2958   5.930   3.502   3.597
  687SOL     OW 2959   6.720   3.368   6.516
  687SOL    HW1 2960   6.761   3.277   6.527
  687SOL    HW2 2961   6.717   3.414   6.605
  688SOL     OW 2962   2.076   3.603   0.107
  688SOL    HW1 2963   2.175   3.594   0.120
  688SOL    HW2 2964   2.040   3.518   0.068
  689SOL     OW 2965   1.397   4.444   5.408
  689SOL    HW1 2966   1.364   4.534   5.380
  689SOL    HW2 2967   1.349   4.373   5.357
  690SOL     OW 2968   0.962   3.199   2.977
  690SOL    HW1 2969   1.040   3.153   3.021
  690SOL    HW2 2970   0.958   3.173   2.881
  691SOL     OW 2971   2.099   2.277   6.406
  691SOL    HW1 2972   2.100   2.228   6.493
  691SOL    HW2 2973   2.181   2.334   6.400
  692SOL     OW 2974   3.115   7.018   3.419
  692SOL    HW1 2975   3.106   0.005   3.518
  692SOL    HW2 2976   3.090   0.076   3.372
  693SOL     OW 2977   6.718   1.491   3.610
  693SOL    HW1 2978   6.701   1.491   3.512
  693SOL    HW2 2979   6.814   1.513   3.627
  694SOL     OW 2980   3.922   5.733   1.882
  694SOL    HW1 2981   3.980   5.743   1.801
  694SOL    HW2 2982   3.979   5.727   1.964
  695SOL     OW 2983   4.436   5.141   4.876
  695SOL    HW1 2984   4.532   5.112   4.882
  695SOL    HW2 2985   4.399   5.155   4.968
  696SOL     OW 2986   2.939   5.102   2.217
  696SOL    HW1 2987   2.989   5.061   2.293
  696SOL    HW2 2988   3.004   5.142   2.152
  697SOL     OW 2989   1.382   2.877   5.998
  697SOL    HW1 2990   1.431   2.949   5.949
  697SOL    HW2 2991   1.288   2.873   5.964
  698SOL     OW 2992   5.604   0.197   4.594
  698SOL    HW1 2993   5.581   0.103   4.622
  698SOL    HW2 2994   5.592   0.205   4.495
  699SOL     OW 2995   1.550   4.568   0.526
  699SOL    HW1 2996   1.636   4.530   0.489
  699SOL    HW2 2997   1.483   4.495   0.535
  700SOL     OW 2998   2.928   2.007   3.468
  700SOL    HW1 2999   2.925   2.107   3.465
  700SOL    HW2 3000   2.856   1.973   3.528
  701SOL     OW 3001   1.449   4.782   6.775
  701SOL    HW1 3002   1.485   4.714   6.712
  701SOL    HW2 3003   1.349   4.780   6.774
  702SOL     OW 3004   5.613   6.279   5.816
  702SOL    HW1 3005   5.520   6.312   5.805
  702SOL    HW2 3006   5.631   6.259   5.912
  703SOL     OW 3007   4.315   3.464   0.200
  703SOL    HW1 3008   4.343   3.500   0.290
  703SOL    HW2 3009   4.391   3.474   0.136
  704SOL     OW 3010   1.534   1.168   6.050
  704SOL    HW1 3011   1.582   1.104   6.111
  704SOL    HW2 3012   1.522   1.255   6.097
  705SOL     OW 3013   4.687   0.164   3.769
  705SOL    HW1 3014   4.773   0.195   3.729
  705SOL    HW2 3015   4.655   0.232   3.834
  706SOL     OW 3016   4.256   1.714   3.599
  706SOL    HW1 3017   4.319   1.675   3.532
  706SOL    HW2 3018   4.275   1.676   3.689
  707SOL     OW 3019   4.421   6.985   2.220
  707SOL    HW1 3020   4.418   6.947   2.313
  707SOL    HW2 3021   4.499   6.948   2.171
  708SOL     OW 3022   4.482   0.031   1.071
  708SOL    HW1 3023   4.543   0.064   0.999
  708SOL    HW2 3024   4.389   0.061   1.051
  709SOL     OW 3025   1.398   5.351   0.878
  709SOL    HW1 3026   1.416   5.343   0.780
  709SOL    HW2 3027   1.321   5.413   0.893
  710SOL     OW 3028   3.504   4.001   2.907
  710SOL    HW1 3029   3.542   4.057   2.834
  710SOL    HW2 3030   3.488   4.057   2.988
  711SOL     OW 3031   0.176   2.358   6.242
  711SOL    HW1 3032   0.107   2.335   6.174
  711SOL    HW2 3033   0.266   2.325   6.212
  712SOL     OW 3034   1.462   4.123   1.010
  712SOL    HW1 3035   1.396   4.055   0.977
  712SOL    HW2 3036   1.555   4.095   0.985
  713SOL     OW 3037   3.277   4.065   1.187
  713SOL    HW1 3038   3.282   4.110   1.276
  713SOL    HW2 3039   3.311   3.971   1.195
  714SOL     OW 3040   5.828   4.199   5.561
  714SOL    HW1 3041   5.736   4.191   5.599
  714SOL    HW2 3042   5.878   4.271   5.610
  715SOL     OW 3043   5.071   5.905   0.078
  715SOL    HW1 3044   5.167   5.882   0.093
  715SOL    HW2 3045   5.063   5.998   0.044
  716SOL     OW 3046   1.015   5.459   1.197
  716SOL    HW1 3047   0.932   5.510   1.176
  716SOL    HW2 3048   0.990   5.371   1.237
  717SOL     OW 3049   6.119   4.718   6.262
  717SOL    HW1 3050   6.151   4.657   6.335
  717SOL    HW2 3051   6.155   4.687   6.174
  718SOL     OW 3052   3.945   2.437   6.325
  718SOL    HW1 3053   3.985   2.346   6.335
  718SOL    HW2 3054   3.975   2.477   6.238
  719SOL     OW 3055   6.564   2.454   1.856
  719SOL    HW1 3056   6.538   2.467   1.760
  719SOL    HW2 3057   6.598   2.360   1.869
  720SOL     OW 3058   2.441   1.755   5.539
  720SOL    HW1 3059   2.428   1.850   5.566
  720SOL    HW2 3060   2.376   1.732   5.467
  721SOL     OW 3061   1.653   0.882   4.678
  721SOL    HW1 3062   1.697   0.935   4.750
  721SOL    HW2 3063   1.665   0.784   4.695
  722SOL     OW 3064   4.230   6.738   5.093
  722SOL    HW1 3065   4.272   6.781   5.173
  722SOL    HW2 3066   4.295   6.736   5.017
  723SOL     OW 3067   2.015   2.703   2.050
  723SOL    HW1 3068   2.088   2.759   2.011
  723SOL    HW2 3069   2.052   2.642   2.119
  724SOL     OW 3070   1.671   1.551   5.488
  724SOL    HW1 3071   1.574   1.529   5.495
  724SOL    HW2 3072   1.687   1.604   5.404
  725SOL     OW 3073   2.518   4.922   2.061
  725SOL    HW1 3074   2.484   4.964   2.145
  725SOL    HW2 3075   2.446   4.864   2.022
  726SOL     OW 3076   3.813   4.565   0.358
  726SOL    HW1 3077   3.800   4.648   0.304
  726SOL    HW2 3078   3.865   4.586   0.440
  727SOL     OW 3079   3.924   6.157   4.421
  727SOL    HW1 3080   3.959   6.078   4.370
  727SOL    HW2 3081   3.846   6.196   4.373
  728SOL     OW 3082   6.970   3.996   5.204
  728SOL    HW1 3083   6.982   3.977   5.106
  728SOL    HW2 3084   0.033   3.988   5.250
  729SOL     OW 3085   2.289   0.471   0.516
  729SOL    HW1 3086   2.371   0.480   0.459
  729SOL    HW2 3087   2.208   0.472   0.457
  730SOL     OW 3088   5.817   0.671   3.483
  730SOL    HW1 3089   5.800   0.655   3.385
  730SOL    HW2 3090   5.753   0.739   3.518
  731SOL     OW 3091   5.606   3.235   6.022
  731SOL    HW1 3092   5.596   3.307   6.090
  731SOL    HW2 3093   5.526   3.175   6.024
  732SOL     OW 3094   0.601   3.799   1.033
  732SOL    HW1 3095   0.560   3.707   1.033
  732SOL    HW2 3096   0.690   3.796   0.987
  733SOL     OW 3097   5.958   4.252   4.377
  733SOL    HW1 3098   6.027   4.197   4.424
  733SOL    HW2 3099   6.003   4.311   4.310
  734SOL     OW 3100   7.000   5.092   2.436
  734SOL    HW1 3101   6.912   5.137   2.424
  734SOL    HW2 3102   6.988   4.993   2.432
  735SOL     OW 3103   2.966   2.797   0.802
  735SOL    HW1 3104   2.882   2.848   0.784
  735SOL    HW2 3105   2.962   2.710   0.753
  736SOL     OW 3106   6.776   6.918   2.898
  736SOL    HW1 3107   6.816   7.008   2.918
  736SOL    HW2 3108   6.814   6.884   2.811
  737SOL     OW 3109   5.004   3.360   1.348
  737SOL    HW1 3110   4.976   3.440   1.401
  737SOL    HW2 3111   5.087   3.381   1.296
  738SOL     OW 3112   1.762   4.987   4.081
  738SOL    HW1 3113   1.852   5.028   4.096
  738SOL    HW2 3114   1.763   4.937   3.994
  739SOL     OW 3115   4.808   6.436   5.822
  739SOL    HW1 3116   4.841   6.475   5.907
  739SOL    HW2 3117   4.755   6.504   5.771
  740SOL     OW 3118   5.398   0.438   0.653
  740SOL    HW1 3119   5.362   0.346   0.643
  740SOL    HW2 3120   5.354   0.483   0.731
  741SOL     OW 3121   1.945   6.382   3.266
  741SOL    HW1 3122   2.014   6.325   3.311
  741SOL    HW2 3123   1.858   6.372   3.314
  742SOL     OW 3124   2.304   0.100   2.268
  742SOL    HW1 3125   2.320   0.186   2.220
  742SOL    HW2 3126   2.253   0.038   2.208
  743SOL     OW 3127   1.867   4.329   4.558
  743SOL    HW1 3128   1.871   4.235   4.525
  743SOL    HW2 3129   1.783   4.373   4.525
  744SOL     OW 3130   6.825   6.656   6.504
  744SOL    HW1 3131   6.750   6.650   6.437
  744SOL    HW2 3132   6.871   6.744   6.494
  745SOL     OW 3133   1.361   6.543   3.934
  745SOL    HW1 3134   1.433   6.576   3.873
  745SOL    HW2 3135   1.395   6.541   4.028
  746SOL     OW 3136   0.109   6.770   5.185
  746SOL    HW1 3137   0.125   6.868   5.169
  746SOL    HW2 3138   0.015   6.757   5.218
  747SOL     OW 3139   4.250   5.116   4.130
  747SOL    HW1 3140   4.307   5.163   4.197
  747SOL    HW2 3141   4.153   5.130   4.153
  748SOL     OW 3142   4.248   4.983   2.546
  748SOL    HW1 3143   4.180   4.913   2.525
  748SOL    HW2 3144   4.263   4.986   2.645
  749SOL     OW 3145   6.974   3.255   5.034
  749SOL    HW1 3146   7.016   3.324   4.975
  749SOL    HW2 3147   7.024   3.250   5.121
  750SOL     OW 3148   2.217   3.195   0.542
  750SOL    HW1 3149   2.221   3.235   0.451
  750SOL    HW2 3150   2.306   3.203   0.586
  751SOL     OW 3151   4.036   1.848   5.904
  751SOL    HW1 3152   3.981   1.882   5.828
  751SOL    HW2 3153   3.984   1.780   5.956
  752SOL     OW 3154   4.659   2.398   2.087
  752SOL    HW1 3155   4.628   2.419   1.994
  752SOL    HW2 3156   4.638   2.475   2.147
  753SOL     OW 3157   2.043   3.269   4.301
  753SOL    HW1 3158   2.120   3.264   4.238
  753SOL    HW2 3159   2.006   3.362   4.302
  754SOL     OW 3160   5.665   3.556   6.790
  754SOL    HW1 3161   5.658   3.470   6.842
  754SOL    HW2 3162   5.574   3.581   6.756
  755SOL     OW 3163   1.147   5.710   6.789
  755SOL    HW1 3164   1.089   5.680   6.714
  755SOL    HW2 3165   1.243   5.700   6.763
  756SOL     OW 3166   4.975   7.010   1.074
  756SOL    HW1 3167   5.025   0.023   1.151
  756SOL    HW2 3168   4.962   0.054   1.004
  757SOL     OW 3169   0.855   6.203   3.313
  757SOL    HW1 3170   0.901   6.165   3.393
  757SOL    HW2 3171   0.764   6.163   3.304
  758SOL     OW 3172   4.053   1.008   1.657
  758SOL    HW1 3173   4.146   0.974   1.643
  758SOL    HW2 3174   3.997   0.985   1.577
  759SOL     OW 3175   6.717   1.204   0.469
  759SOL    HW1 3176   6.622   1.177   0.483
  759SOL    HW2 3177   6.724   1.304   0.467
  760SOL     OW 3178   4.282   1.474   6.532
  760SOL    HW1 3179   4.241   1.519   6.452
  760SOL    HW2 3180   4.276   1.536   6.610
  761SOL     OW 3181   5.100   3.631   6.864
  761SOL    HW1 3182   5.083   3.691   6.943
  761SOL    HW2 3183   5.131   3.687   6.787
  762SOL     OW 3184   2.081   5.908   3.415
  762SOL    HW1 3185   2.099   5.850   3.335
  762SOL    HW2 3186   1.982   5.910   3.433
  763SOL     OW 3187   4.106   5.303   6.780
  763SOL    HW1 3188   4.182   5.344   6.730
  763SOL    HW2 3189   4.047   5.376   6.816
  764SOL     OW 3190   4.284   6.961   4.338
  764SOL    HW1 3191   4.222   6.942   4.414
  764SOL    HW2 3192   4.378   6.945   4.368
  765SOL     OW 3193   1.492   6.216   1.202
  765SOL    HW1 3194   1.474   6.202   1.300
  765SOL    HW2 3195   1.469   6.132   1.152
  766SOL     OW 3196   6.924   1.913   6.868
  766SOL    HW1 3197   6.862   1.860   6.810
  766SOL    HW2 3198   6.870   1.968   6.931
  767SOL     OW 3199   1.342   6.483   2.052
  767SOL    HW1 3200   1.264   6.440   2.007
  767SOL    HW2 3201   1.424   6.469   1.997
  768SOL     OW 3202   1.991   0.691   2.659
  768SOL    HW1 3203   1.936   0.770   2.685
  768SOL    HW2 3204   1.937   0.631   2.601
  769SOL     OW 3205   3.073   6.570   4.326
  769SOL    HW1 3206   3.159   6.616   4.301
  769SOL    HW2 3207   3.004   6.639   4.348
  770SOL     OW 3208   2.025   4.494   3.289
  770SOL    HW1 3209   1.980   4.575   3.327
  770SOL    HW2 3210   2.113   4.480   3.335
  771SOL     OW 3211   2.195   5.491   2.775
  771SOL    HW1 3212   2.102   5.458   2.795
  771SOL    HW2 3213   2.253   5.413   2.750
  772SOL     OW 3214   6.410   5.264   0.736
  772SOL    HW1 3215   6.430   5.336   0.802
  772SOL    HW2 3216   6.316   5.276   0.703
  773SOL     OW 3217   0.642   3.368   3.592
  773SOL    HW1 3218   0.653   3.378   3.493
  773SOL    HW2 3219   0.651   3.272   3.617
  774SOL     OW 3220   1.166   1.828   1.817
  774SOL    HW1 3221   1.130   1.894   1.751
  774SOL    HW2 3222   1.244   1.868   1.865
  775SOL     OW 3223   1.261   2.349   3.759
  775SOL    HW1 3224   1.275   2.318   3.853
  775SOL    HW2 3225   1.349   2.371   3.717
  776SOL     OW 3226   6.901   0.636   6.440
  776SOL    HW1 3227   6.977   0.701   6.430
  776SOL    HW2 3228   6.877   0.626   6.536
  777SOL     OW 3229   3.701   0.198   0.940
  777SOL    HW1 3230   3.637   0.197   1.016
  777SOL    HW2 3231   3.659   0.154   0.860
  778SOL     OW 3232   3.587   1.411   3.423
  778SOL    HW1 3233   3.681   1.380   3.408
  778SOL    HW2 3234   3.586   1.511   3.427
  779SOL     OW 3235   0.615   1.702   2.799
  779SOL    HW1 3236   0.709   1.716   2.768
  779SOL    HW2 3237   0.610   1.616   2.850
  780SOL     OW 3238   6.058   3.380   4.781
  780SOL    HW1 3239   6.079   3.395   4.877
  780SOL    HW2 3240   6.003   3.457   4.746
  781SOL     OW 3241   5.938   1.290   6.059
  781SOL    HW1 3242   6.026   1.260   6.022
  781SOL    HW2 3243   5.875   1.306   5.983
  782SOL     OW 3244   1.571   4.246   0.281
  782SOL    HW1 3245   1.645   4.193   0.241
  782SOL    HW2 3246   1.490   4.242   0.222
  783SOL     OW 3247   3.789   4.295   0.637
  783SOL    HW1 3248   3.737   4.306   0.552
  783SOL    HW2 3249   3.841   4.378   0.656
  784SOL     OW 3250   5.229   0.261   5.576
  784SOL    HW1 3251   5.153   0.235   5.635
  784SOL    HW2 3252   5.206   0.346   5.528
  785SOL     OW 3253   6.589   2.016   3.066
  785SOL    HW1 3254   6.686   2.022   3.089
  785SOL    HW2 3255   6.578   1.971   2.977
  786SOL     OW 3256   0.592   0.590   0.685
  786SOL    HW1 3257   0.554   0.500   0.668
  786SOL    HW2 3258   0.531   0.660   0.648
  787SOL     OW 3259   3.118   1.201   6.069
  787SOL    HW1 3260   3.028   1.225   6.034
  787SOL    HW2 3261   3.168   1.149   6.000
  788SOL     OW 3262   2.494   2.616   4.904
  788SOL    HW1 3263   2.528   2.609   4.810
  788SOL    HW2 3264   2.568   2.593   4.968
  789SOL     OW 3265   5.844   4.261   1.564
  789SOL    HW1 3266   5.823   4.322   1.488
  789SOL    HW2 3267   5.776   4.188   1.569
  790SOL     OW 3268   2.276   1.426   4.413
  790SOL    HW1 3269   2.210   1.355   4.388
  790SOL    HW2 3270   2.252   1.463   4.503
  791SOL     OW 3271   3.521   0.235   3.833
  791SOL    HW1 3272   3.538   0.305   3.764
  791SOL    HW2 3273   3.607   0.187   3.854
  792SOL     OW 3274   6.873   0.057   1.288
  792SOL    HW1 3275   6.883   6.991   1.248
  792SOL    HW2 3276   6.941   0.118   1.247
  793SOL     OW 3277   4.568   6.487   2.198
  793SOL    HW1 3278   4.502   6.418   2.226
  793SOL    HW2 3279   4.550   6.515   2.104
  794SOL     OW 3280   2.454   3.776   5.359
  794SOL    HW1 3281   2.495   3.821   5.438
  794SOL    HW2 3282   2.448   3.842   5.284
  795SOL     OW 3283   2.809   5.338   4.989
  795SOL    HW1 3284   2.886   5.356   4.927
  795SOL    HW2 3285   2.786   5.241   4.986
  796SOL     OW 3286   0.557   2.568   6.401
  796SOL    HW1 3287   0.591   2.515   6.323
  796SOL    HW2 3288   0.474   2.524   6.437
  797SOL     OW 3289   5.378   2.729   2.234
  797SOL    HW1 3290   5.405   2.798   2.302
  797SOL    HW2 3291   5.312   2.769   2.170
  798SOL     OW 3292   4.972   0.199   0.901
  798SOL    HW1 3293   4.890   0.255   0.907
  798SOL    HW2 3294   4.974   0.152   0.812
  799SOL     OW 3295   6.732   1.039   3.719
  799SOL    HW1 3296   6.813   1.058   3.774
  799SOL    HW2 3297   6.760   1.000   3.631
  800SOL     OW 3298   5.464   0.640   2.148
  800SOL    HW1 3299   5.513   0.568   2.195
  800SOL    HW2 3300   5.490   0.729   2.186
  801SOL     OW 3301   1.386   3.668   2.969
  801SOL    HW1 3302   1.300   3.710   2.941
  801SOL    HW2 3303   1.438   3.639   2.889
  802SOL     OW 3304   4.290   1.125   0.618
  802SOL    HW1 3305   4.257   1.047   0.671
  802SOL    HW2 3306   4.314   1.200   0.679
  803SOL     OW 3307   0.035   5.802   5.170
  803SOL    HW1 3308   7.007   5.719   5.155
  803SOL    HW2 3309   0.070   5.803   5.263
  804SOL     OW 3310   6.351   6.158   6.780
  804SOL    HW1 3311   6.361   6.162   6.880
  804SOL    HW2 3312   6.313   6.069   6.755
  805SOL     OW 3313   4.314   2.237   5.886
  805SOL    HW1 3314   4.324   2.202   5.793
  805SOL    HW2 3315   4.340   2.166   5.951
  806SOL     OW 3316   4.151   1.931   4.946
  806SOL    HW1 3317   4.130   2.029   4.946
  806SOL    HW2 3318   4.129   1.892   5.036
  807SOL     OW 3319   0.550   2.414   3.590
  807SOL    HW1 3320   0.549   2.463   3.502
  807SOL    HW2 3321   0.624   2.347   3.590
  808SOL     OW 3322   5.090   3.302   6.481
  808SOL    HW1 3323   5.104   3.400   6.496
  808SOL    HW2 3324   5.156   3.270   6.412
  809SOL     OW 3325   1.341   4.963   1.561
  809SOL    HW1 3326   1.247   4.991   1.579
  809SOL    HW2 3327   1.343   4.899   1.484
  810SOL     OW 3328   4.375   2.707   0.656
  810SOL    HW1 3329   4.298   2.707   0.592
  810SOL    HW2 3330   4.450   2.654   0.616
  811SOL     OW 3331   4.511   5.153   3.397
  811SOL    HW1 3332   4.419   5.170   3.359
  811SOL    HW2 3333   4.579   5.194   3.337
  812SOL     OW 3334   0.100   0.730   1.861
  812SOL    HW1 3335   0.037   0.764   1.791
  812SOL    HW2 3336   0.053   0.662   1.917
  813SOL     OW 3337   3.868   5.198   3.895
  813SOL    HW1 3338   3.927   5.276   3.876
  813SOL    HW2 3339   3.802   5.222   3.966
  814SOL     OW 3340   4.886   6.520   3.924
  814SOL    HW1 3341   4.959   6.476   3.976
  814SOL    HW2 3342   4.910   6.521   3.827
  815SOL     OW 3343   6.578   3.133   2.099
  815SOL    HW1 3344   6.556   3.145   2.196
  815SOL    HW2 3345   6.497   3.152   2.044
  816SOL     OW 3346   0.326   6.632   6.990
  816SOL    HW1 3347   0.342   6.533   6.987
  816SOL    HW2 3348   0.332   6.663   0.058
  817SOL     OW 3349   1.711   4.015   2.359
  817SOL    HW1 3350   1.776   4.068   2.304
  817SOL    HW2 3351   1.751   3.997   2.449
  818SOL     OW 3352   6.641   2.901   0.669
  818SOL    HW1 3353   6.698   2.819   0.670
  818SOL    HW2 3354   6.600   2.914   0.759
  819SOL     OW 3355   6.226   3.200   4.043
  819SOL    HW1 3356   6.267   3.117   4.081
  819SOL    HW2 3357   6.184   3.179   3.954
  820SOL     OW 3358   1.524   2.689   6.127
  820SOL    HW1 3359   1.468   2.614   6.162
  820SOL    HW2 3360   1.465   2.759   6.088
  821SOL     OW 3361   2.692   4.438   0.064
  821SOL    HW1 3362   2.667   4.533   0.080
  821SOL    HW2 3363   2.628   4.396   0.000
  822SOL     OW 3364   0.604   5.624   4.533
  822SOL    HW1 3365   0.625   5.670   4.619
  822SOL    HW2 3366   0.544   5.682   4.478
  823SOL     OW 3367   4.206   4.320   6.982
  823SOL    HW1 3368   4.117   4.277   6.966
  823SOL    HW2 3369   4.277   4.250   6.983
  824SOL     OW 3370   5.089   1.406   5.667
  824SOL    HW1 3371   5.168   1.363   5.710
  824SOL    HW2 3372   5.111   1.501   5.645
  825SOL     OW 3373   2.135   3.132   1.876
  825SOL    HW1 3374   2.185   3.209   1.836
  825SOL    HW2 3375   2.038   3.154   1.880
  826SOL     OW 3376   5.930   4.403   0.722
  826SOL    HW1 3377   5.887   4.330   0.775
  826SOL    HW2 3378   5.861   4.449   0.666
  827SOL     OW 3379   3.193   5.470   5.466
  827SOL    HW1 3380   3.238   5.525   5.396
  827SOL    HW2 3381   3.099   5.452   5.439
  828SOL     OW 3382   6.458   0.421   5.172
  828SOL    HW1 3383   6.496   0.457   5.087
  828SOL    HW2 3384   6.492   0.328   5.187
  829SOL     OW 3385   3.109   3.608   4.524
  829SOL    HW1 3386   3.058   3.577   4.444
  829SOL    HW2 3387   3.062   3.686   4.566
  830SOL     OW 3388   4.717   4.405   6.132
  830SOL    HW1 3389   4.709   4.503   6.115
  830SOL    HW2 3390   4.726   4.357   6.044
  831SOL     OW 3391   0.221   0.116   4.835
  831SOL    HW1 3392   0.212   0.038   4.773
  831SOL    HW2 3393   0.315   0.150   4.832
  832SOL     OW 3394   2.001   1.183   0.192
  832SOL    HW1 3395   2.004   1.250   0.266
  832SOL    HW2 3396   2.082   1.125   0.195
  833SOL     OW 3397   0.719   5.319   5.852
  833SOL    HW1 3398   0.660   5.238   5.841
  833SOL    HW2 3399   0.675   5.398   5.808
  834SOL     OW 3400   3.835   3.660   1.857
  834SOL    HW1 3401   3.741   3.685   1.832
  834SOL    HW2 3402   3.897   3.684   1.783
  835SOL     OW 3403   3.814   6.468   4.514
  835SOL    HW1 3404   3.910   6.439   4.520
  835SOL    HW2 3405   3.810   6.560   4.474
  836SOL     OW 3406   3.126   6.026   6.575
  836SOL    HW1 3407   3.117   6.028   6.675
  836SOL    HW2 3408   3.219   5.997   6.551
  837SOL     OW 3409   4.933   0.233   6.841
  837SOL    HW1 3410   4.843   0.248   6.883
  837SOL    HW2 3411   5.004   0.259   6.906
  838SOL     OW 3412   0.733   0.156   4.973
  838SOL    HW1 3413   0.777   0.090   4.912
  838SOL    HW2 3414   0.636   0.133   4.982
  839SOL     OW 3415   2.737   1.428   2.174
  839SOL    HW1 3416   2.743   1.391   2.081
  839SOL    HW2 3417   2.829   1.428   2.214
  840SOL     OW 3418   6.209   1.116   5.236
  840SOL    HW1 3419   6.192   1.021   5.207
  840SOL    HW2 3420   6.299   1.144   5.203
  841SOL     OW 3421   5.996   4.599   0.329
  841SOL    HW1 3422   5.900   4.629   0.334
  841SOL    HW2 3423   6.054   4.665   0.377
  842SOL     OW 3424   4.046   5.122   3.389
  842SOL    HW1 3425   4.108   5.156   3.318
  842SOL    HW2 3426   4.022   5.197   3.450
  843SOL     OW 3427   5.324   1.956   0.296
  843SOL    HW1 3428   5.325   1.856   0.290
  843SOL    HW2 3429   5.320   1.995   0.204
  844SOL     OW 3430   4.579   6.508   0.504
  844SOL    HW1 3431   4.578   6.480   0.600
  844SOL    HW2 3432   4.488   6.492   0.465
  845SOL     OW 3433   6.036   3.162   4.261
  845SOL    HW1 3434   6.070   3.071   4.286
  845SOL    HW2 3435   6.078   3.191   4.175
  846SOL     OW 3436   5.261   1.406   6.417
  846SOL    HW1 3437   5.177   1.362   6.449
  846SOL    HW2 3438   5.249   1.505   6.417
  847SOL     OW 3439   6.220   3.473   0.984
  847SOL    HW1 3440   6.165   3.556   0.971
  847SOL    HW2 3441   6.162   3.393   0.970
  848SOL     OW 3442   5.651   1.226   6.561
  848SOL    HW1 3443   5.664   1.267   6.471
  848SOL    HW2 3444   5.705   1.276   6.629
  849SOL     OW 3445   0.297   5.660   5.555
  849SOL    HW1 3446   0.370   5.616   5.502
  849SOL    HW2 3447   0.241   5.589   5.599
  850SOL     OW 3448   4.480   0.836   3.304
  850SOL    HW1 3449   4.509   0.785   3.385
  850SOL    HW2 3450   4.411   0.784   3.254
  851SOL     OW 3451   0.243   1.297   0.678
  851SOL    HW1 3452   0.284   1.206   0.668
  851SOL    HW2 3453   0.207   1.328   0.590
  852SOL     OW 3454   2.501   2.514   7.016
  852SOL    HW1 3455   2.479   2.604   6.977
  852SOL    HW2 3456   2.566   2.467   6.956
  853SOL     OW 3457   0.889   3.674   3.587
  853SOL    HW1 3458   0.939   3.753   3.551
  853SOL    HW2 3459   0.847   3.698   3.674
  854SOL     OW 3460   5.346   6.168   2.293
  854SOL    HW1 3461   5.338   6.267   2.294
  854SOL    HW2 3462   5.256   6.127   2.310
  855SOL     OW 3463   5.984   7.013   1.025
  855SOL    HW1 3464   5.918   6.979   1.092
  855SOL    HW2 3465   5.952   0.075   0.989
  856SOL     OW 3466   1.765   0.587   4.701
  856SOL    HW1 3467   1.682   0.591   4.757
  856SOL    HW2 3468   1.770   0.498   4.655
  857SOL     OW 3469   5.738   5.193   1.764
  857SOL    HW1 3470   5.729   5.202   1.665
  857SOL    HW2 3471   5.827   5.228   1.793
  858SOL     OW 3472   2.527   4.587   1.948
  858SOL    HW1 3473   2.488   4.548   2.032
  858SOL    HW2 3474   2.624   4.562   1.942
  859SOL     OW 3475   5.736   5.483   6.539
  859SOL    HW1 3476   5.796   5.405   6.523
  859SOL    HW2 3477   5.791   5.567   6.543
  860SOL     OW 3478   4.982   4.067   0.158
  860SOL    HW1 3479   4.897   4.111   0.185
  860SOL    HW2 3480   5.035   4.042   0.239
  861SOL     OW 3481   2.182   6.944   4.594
  861SOL    HW1 3482   2.187   6.915   4.689
  861SOL    HW2 3483   2.186   0.018   4.588
  862SOL     OW 3484   6.112   4.188   5.090
  862SOL    HW1 3485   6.194   4.187   5.148
  862SOL    HW2 3486   6.059   4.270   5.109
  863SOL     OW 3487   1.165   6.892   0.516
  863SOL    HW1 3488   1.245   6.835   0.496
  863SOL    HW2 3489   1.184   6.987   0.493
  864SOL     OW 3490   5.325   4.512   3.569
  864SOL    HW1 3491   5.388   4.499   3.493
  864SOL    HW2 3492   5.232   4.490   3.539
  865SOL     OW 3493   0.409   6.896   4.535
  865SOL    HW1 3494   0.465   6.879   4.615
  865SOL    HW2 3495   0.426   6.826   4.466
  866SOL     OW 3496   2.148   1.496   2.238
  866SOL    HW1 3497   2.050   1.480   2.254
  866SOL    HW2 3498   2.168   1.483   2.140
  867SOL     OW 3499   3.224   2.595   0.937
  867SOL    HW1 3500   3.309   2.638   0.965
  867SOL    HW2 3501   3.156   2.604   1.011
  868SOL     OW 3502   6.144   6.850   1.558
  868SOL    HW1 3503   6.243   6.868   1.558
  868SOL    HW2 3504   6.095   6.936   1.543
  869SOL     OW 3505   6.276   5.349   2.973
  869SOL    HW1 3506   6.184   5.329   3.007
  869SOL    HW2 3507   6.316   5.423   3.027
  870SOL     OW 3508   6.292   4.168   1.631
  870SOL    HW1 3509   6.302   4.201   1.725
  870SOL    HW2 3510   6.377   4.126   1.601
  871SOL     OW 3511   0.288   3.427   1.885
  871SOL    HW1 3512   0.225   3.459   1.815
  871SOL    HW2 3513   0.292   3.327   1.883
  872SOL     OW 3514   6.396   3.373   4.252
  872SOL    HW1 3515   6.327   3.334   4.190
  872SOL    HW2 3516   6.351   3.401   4.337
  873SOL     OW 3517   4.422   0.957   2.714
  873SOL    HW1 3518   4.498   0.922   2.659
  873SOL    HW2 3519   4.448   1.043   2.757
  874SOL     OW 3520   1.677   4.385   5.294
  874SOL    HW1 3521   1.750   4.327   5.331
  874SOL    HW2 3522   1.588   4.343   5.312
  875SOL     OW 3523   5.113   4.400   0.696
  875SOL    HW1 3524   5.098   4.498   0.681
  875SOL    HW2 3525   5.108   4.351   0.609
  876SOL     OW 3526   6.587   4.224   3.429
  876SOL    HW1 3527   6.592   4.199   3.333
  876SOL    HW2 3528   6.662   4.288   3.451
  877SOL     OW 3529   4.548   5.023   0.190
  877SOL    HW1 3530   4.625   4.960   0.190
  877SOL    HW2 3531   4.581   5.116   0.208
  878SOL     OW 3532   3.409   5.197   0.167
  878SOL    HW1 3533   3.470   5.262   0.123
  878SOL    HW2 3534   3.327   5.185   0.110
  879SOL     OW 3535   4.401   1.957   2.448
  879SOL    HW1 3536   4.497   1.971   2.424
  879SOL    HW2 3537   4.376   2.017   2.524
  880SOL     OW 3538   3.331   4.232   0.062
  880SOL    HW1 3539   3.271   4.297   0.016
  880SOL    HW2 3540   3.333   4.252   0.160
  881SOL     OW 3541   4.250   4.818   4.844
  881SOL    HW1 3542   4.250   4.900   4.902
  881SOL    HW2 3543   4.218   4.740   4.899
  882SOL     OW 3544   1.978   1.736   4.587
  882SOL    HW1 3545   1.959   1.782   4.674
  882SOL    HW2 3546   1.974   1.637   4.600
  883SOL     OW 3547   4.290   5.051   5.523
  883SOL    HW1 3548   4.215   5.018   5.580
  883SOL    HW2 3549   4.355   5.101   5.579
  884SOL     OW 3550   6.905   3.320   2.180
  884SOL    HW1 3551   6.812   3.317   2.143
  884SOL    HW2 3552   6.965   3.262   2.124
  885SOL     OW 3553   5.701   6.669   0.112
  885SOL    HW1 3554   5.735   6.640   0.202
  885SOL    HW2 3555   5.748   6.753   0.085
  886SOL     OW 3556   4.149   1.169   0.316
  886SOL    HW1 3557   4.221   1.103   0.334
  886SOL    HW2 3558   4.062   1.121   0.302
  887SOL     OW 3559   4.094   6.390   6.117
  887SOL    HW1 3560   4.088   6.377   6.216
  887SOL    HW2 3561   4.158   6.464   6.096
  888SOL     OW 3562   6.793   6.247   3.565
  888SOL    HW1 3563   6.820   6.299   3.646
  888SOL    HW2 3564   6.716   6.293   3.521
  889SOL     OW 3565   0.220   6.753   5.802
  889SOL    HW1 3566   0.170   6.838   5.821
  889SOL    HW2 3567   0.158   6.675   5.809
  890SOL     OW 3568   2.751   4.727   2.138
  890SOL    HW1 3569   2.704   4.806   2.098
  890SOL    HW2 3570   2.785   4.668   2.064
  891SOL     OW 3571   5.642   3.822   1.490
  891SOL    HW1 3572   5.554   3.776   1.500
  891SOL    HW2 3573   5.634   3.917   1.521
  892SOL     OW 3574   3.626   3.746   0.292
  892SOL    HW1 3575   3.606   3.793   0.206
  892SOL    HW2 3576   3.549   3.687   0.316
  893SOL     OW 3577   1.642   0.556   0.345
  893SOL    HW1 3578   1.711   0.584   0.412
  893SOL    HW2 3579   1.585   0.483   0.385
  894SOL     OW 3580   1.632   4.839   4.283
  894SOL    HW1 3581   1.672   4.900   4.215
  894SOL    HW2 3582   1.701   4.772   4.312
  895SOL     OW 3583   2.317   6.756   4.444
  895SOL    HW1 3584   2.414   6.735   4.452
  895SOL    HW2 3585   2.288   6.815   4.519
  896SOL     OW 3586   5.776   6.329   4.269
  896SOL    HW1 3587   5.816   6.301   4.356
  896SOL    HW2 3588   5.840   6.306   4.195
  897SOL     OW 3589   4.908   1.369   0.496
  897SOL    HW1 3590   4.986   1.406   0.445
  897SOL    HW2 3591   4.935   1.286   0.544
  898SOL     OW 3592   5.233   6.047   3.861
  898SOL    HW1 3593   5.333   6.035   3.855
  898SOL    HW2 3594   5.209   6.084   3.950
  899SOL     OW 3595   0.238   5.187   0.271
  899SOL    HW1 3596   0.312   5.231   0.321
  899SOL    HW2 3597   0.185   5.130   0.333
  900SOL     OW 3598   6.320   5.963   1.910
  900SOL    HW1 3599   6.348   5.999   1.999
  900SOL    HW2 3600   6.398   5.961   1.848
  901SOL     OW 3601   6.962   1.435   4.035
  901SOL    HW1 3602   6.896   1.408   4.105
  901SOL    HW2 3603   0.029   1.423   4.071
  902SOL     OW 3604   7.010   0.491   6.803
  902SOL    HW1 3605   0.033   0.472   6.717
  902SOL    HW2 3606   6.932   0.430   6.811
  903SOL     OW 3607   6.295   4.852   0.680
  903SOL    HW1 3608   6.383   4.831   0.638
  903SOL    HW2 3609   6.265   4.776   0.737
  904SOL     OW 3610   1.458   1.912   3.771
  904SOL    HW1 3611   1.477   1.858   3.689
  904SOL    HW2 3612   1.365   1.948   3.765
  905SOL     OW 3613   5.145   2.223   6.752
  905SOL    HW1 3614   5.097   2.300   6.793
  905SOL    HW2 3615   5.078   2.152   6.727
  906SOL     OW 3616   0.232   4.761   0.232
  906SOL    HW1 3617   0.132   4.767   0.223
  906SOL    HW2 3618   0.261   4.669   0.208
  907SOL     OW 3619   5.848   1.950   2.977
  907SOL    HW1 3620   5.847   1.906   2.887
  907SOL    HW2 3621   5.790   2.031   2.974
  908SOL     OW 3622   0.873   6.943   4.058
  908SOL    HW1 3623   0.893   6.993   3.974
  908SOL    HW2 3624   0.852   7.007   4.132
  909SOL     OW 3625   2.537   1.050   0.187
  909SOL    HW1 3626   2.533   0.980   0.258
  909SOL    HW2 3627   2.517   1.139   0.228
  910SOL     OW 3628   1.807   0.384   0.694
  910SOL    HW1 3629   1.903   0.397   0.723
  910SOL    HW2 3630   1.781   0.288   0.705
  911SOL     OW 3631   6.989   5.095   1.296
  911SOL    HW1 3632   0.049   5.064   1.254
  911SOL    HW2 3633   7.008   5.131   1.388
  912SOL     OW 3634   6.973   1.507   5.473
  912SOL    HW1 3635   6.895   1.552   5.431
  912SOL    HW2 3636   6.962   1.408   5.469
  913SOL     OW 3637   2.164   0.471   3.812
  913SOL    HW1 3638   2.153   0.376   3.782
  913SOL    HW2 3639   2.092   0.527   3.772
  914SOL     OW 3640   2.545   5.864   4.578
  914SOL    HW1 3641   2.555   5.849   4.480
  914SOL    HW2 3642   2.571   5.782   4.628
  915SOL     OW 3643   0.483   3.431   0.359
  915SOL    HW1 3644   0.573   3.414   0.400
  915SOL    HW2 3645   0.436   3.344   0.347
  916SOL     OW 3646   2.107   2.038   2.506
  916SOL    HW1 3647   2.166   2.005   2.579
  916SOL    HW2 3648   2.089   2.135   2.519
  917SOL     OW 3649   3.957   0.732   1.416
  917SOL    HW1 3650   3.879   0.770   1.366
  917SOL    HW2 3651   4.027   0.802   1.428
  918SOL     OW 3652   2.975   6.208   6.429
  918SOL    HW1 3653   3.041   6.143   6.464
  918SOL    HW2 3654   2.961   6.281   6.497
  919SOL     OW 3655   1.633   5.881   2.130
  919SOL    HW1 3656   1.561   5.938   2.171
  919SOL    HW2 3657   1.597   5.837   2.048
  920SOL     OW 3658   2.558   0.513   2.894
  920SOL    HW1 3659   2.524   0.427   2.857
  920SOL    HW2 3660   2.528   0.588   2.835
  921SOL     OW 3661   5.828   4.618   4.470
  921SOL    HW1 3662   5.895   4.606   4.397
  921SOL    HW2 3663   5.860   4.570   4.552
  922SOL     OW 3664   3.120   3.931   0.275
  922SOL    HW1 3665   3.215   3.956   0.256
  922SOL    HW2 3666   3.061   4.009   0.256
  923SOL     OW 3667   2.891   5.614   0.489
  923SOL    HW1 3668   2.847   5.525   0.500
  923SOL    HW2 3669   2.822   5.686   0.486
  924SOL     OW 3670   5.454   2.946   2.393
  924SOL    HW1 3671   5.393   2.933   2.471
  924SOL    HW2 3672   5.445   3.039   2.359
  925SOL     OW 3673   6.968   1.788   6.161
  925SOL    HW1 3674   6.923   1.836   6.236
  925SOL    HW2 3675   0.020   1.737   6.196
  926SOL     OW 3676   5.740   6.751   0.725
  926SOL    HW1 3677   5.654   6.779   0.767
  926SOL    HW2 3678   5.809   6.737   0.796
  927SOL     OW 3679   4.731   4.182   3.990
  927SOL    HW1 3680   4.753   4.141   3.901
  927SOL    HW2 3681   4.798   4.153   4.058
  928SOL     OW 3682   1.563   6.843   0.642
  928SOL    HW1 3683   1.545   6.925   0.588
  928SOL    HW2 3684   1.545   6.762   0.586
  929SOL     OW 3685   0.381   2.959   2.205
  929SOL    HW1 3686   0.345   3.050   2.189
  929SOL    HW2 3687   0.412   2.951   2.300
  930SOL     OW 3688   5.756   5.018   3.902
  930SOL    HW1 3689   5.674   5.070   3.880
  930SOL    HW2 3690   5.784   4.963   3.823
  931SOL     OW 3691   0.715   3.044   2.924
  931SOL    HW1 3692   0.731   3.022   2.828
  931SOL    HW2 3693   0.795   3.090   2.962
  932SOL     OW 3694   3.801   6.229   1.951
  932SOL    HW1 3695   3.815   6.130   1.940
  932SOL    HW2 3696   3.859   6.278   1.887
  933SOL     OW 3697   1.088   4.201   3.140
  933SOL    HW1 3698   1.065   4.209   3.237
  933SOL    HW2 3699   1.104   4.292   3.102
  934SOL     OW 3700   2.841   0.793   4.679
  934SOL    HW1 3701   2.889   0.707   4.660
  934SOL    HW2 3702   2.882   0.867   4.626
  935SOL     OW 3703   4.684   3.667   6.347
  935SOL    HW1 3704   4.712   3.721   6.267
  935SOL    HW2 3705   4.765   3.623   6.387
  936SOL     OW 3706   0.695   6.819   1.248
  936SOL    HW1 3707   0.701   6.807   1.347
  936SOL    HW2 3708   0.766   6.765   1.203
  937SOL     OW 3709   5.131   1.731   4.295
  937SOL    HW1 3710   5.217   1.775   4.272
  937SOL    HW2 3711   5.127   1.712   4.393
  938SOL     OW 3712   0.353   4.186   6.118
  938SOL    HW1 3713   0.384   4.250   6.188
  938SOL    HW2 3714   0.346   4.094   6.157
  939SOL     OW 3715   4.801   1.243   6.264
  939SOL    HW1 3716   4.722   1.247   6.202
  939SOL    HW2 3717   4.771   1.208   6.353
  940SOL     OW 3718   0.358   1.262   2.666
  940SOL    HW1 3719   0.307   1.347   2.652
  940SOL    HW2 3720   0.454   1.284   2.684
  941SOL     OW 3721   5.485   1.038   3.428
  941SOL    HW1 3722   5.400   1.026   3.377
  941SOL    HW2 3723   5.556   1.076   3.368
  942SOL     OW 3724   4.986   0.183   5.148
  942SOL    HW1 3725   4.931   0.140   5.076
  942SOL    HW2 3726   5.074   0.136   5.155
  943SOL     OW 3727   6.540   3.475   2.581
  943SOL    HW1 3728   6.451   3.518   2.590
  943SOL    HW2 3729   6.582   3.466   2.672
  944SOL     OW 3730   6.295   3.355   4.642
  944SOL    HW1 3731   6.266   3.338   4.548
  944SOL    HW2 3732   6.217   3.341   4.703
  945SOL     OW 3733   4.413   4.631   4.184
  945SOL    HW1 3734   4.437   4.632   4.280
  945SOL    HW2 3735   4.472   4.566   4.135
  946SOL     OW 3736   5.780   2.312   6.525
  946SOL    HW1 3737   5.873   2.319   6.488
  946SOL    HW2 3738   5.714   2.340   6.456
  947SOL     OW 3739   2.948   3.632   6.343
  947SOL    HW1 3740   2.963   3.703   6.274
  947SOL    HW2 3741   3.021   3.565   6.339
  948SOL     OW 3742   3.374   0.998   0.262
  948SOL    HW1 3743   3.284   0.956   0.259
  948SOL    HW2 3744   3.366   1.096   0.245
  949SOL     OW 3745   6.435   5.506   6.186
  949SOL    HW1 3746   6.520   5.523   6.237
  949SOL    HW2 3747   6.405   5.590   6.142
  950SOL     OW 3748   3.996   5.182   2.309
  950SOL    HW1 3749   3.951   5.112   2.365
  950SOL    HW2 3750   3.931   5.254   2.286
  951SOL     OW 3751   0.474   0.613   1.401
  951SOL    HW1 3752   0.570   0.595   1.381
  951SOL    HW2 3753   0.435   0.533   1.448
  952SOL     OW 3754   5.340   1.250   2.560
  952SOL    HW1 3755   5.403   1.173   2.568
  952SOL    HW2 3756   5.303   1.253   2.468
  953SOL     OW 3757   4.213   5.822   5.431
  953SOL    HW1 3758   4.281   5.782   5.493
  953SOL    HW2 3759   4.176   5.905   5.471
  954SOL     OW 3760   6.119   0.159   1.379
  954SOL    HW1 3761   6.040   0.099   1.376
  954SOL    HW2 3762   6.202   0.106   1.365
  955SOL     OW 3763   1.136   5.033   3.838
  955SOL    HW1 3764   1.062   5.101   3.835
  955SOL    HW2 3765   1.223   5.080   3.851
  956SOL     OW 3766   1.223   1.305   1.708
  956SOL    HW1 3767   1.170   1.355   1.776
  956SOL    HW2 3768   1.316   1.342   1.703
  957SOL     OW 3769   1.640   5.264   5.634
  957SOL    HW1 3770   1.574   5.224   5.698
  957SOL    HW2 3771   1.696   5.191   5.594
  958SOL     OW 3772   4.783   2.149   0.906
  958SOL    HW1 3773   4.708   2.130   0.970
  958SOL    HW2 3774   4.770   2.239   0.866
  959SOL     OW 3775   2.972   4.918   3.008
  959SOL    HW1 3776   2.951   4.930   3.105
  959SOL    HW2 3777   3.060   4.961   2.988
  960SOL     OW 3778   1.432   6.230   3.938
  960SOL    HW1 3779   1.348   6.257   3.985
  960SOL    HW2 3780   1.477   6.312   3.901
  961SOL     OW 3781   4.320   6.962   2.507
  961SOL    HW1 3782   4.404   6.930   2.552
  961SOL    HW2 3783   4.258   6.885   2.493
  962SOL     OW 3784   1.659   0.898   3.381
  962SOL    HW1 3785   1.693   0.992   3.386
  962SOL    HW2 3786   1.570   0.892   3.427
  963SOL     OW 3787   6.182   0.130   0.646
  963SOL    HW1 3788   6.212   0.224   0.625
  963SOL    HW2 3789   6.210   0.106   0.739
  964SOL     OW 3790   5.490   3.048   0.863
  964SOL    HW1 3791   5.530   2.974   0.916
  964SOL    HW2 3792   5.542   3.132   0.878
  965SOL     OW 3793   6.138   1.503   1.304
  965SOL    HW1 3794   6.094   1.479   1.218
  965SOL    HW2 3795   6.183   1.423   1.343
  966SOL     OW 3796   6.265   1.781   3.023
  966SOL    HW1 3797   6.219   1.694   3.008
  966SOL    HW2 3798   6.297   1.818   2.936
  967SOL     OW 3799   1.218   5.617   0.570
  967SOL    HW1 3800   1.279   5.658   0.639
  967SOL    HW2 3801   1.262   5.536   0.532
  968SOL     OW 3802   5.153   2.808   2.629
  968SOL    HW1 3803   5.070   2.839   2.676
  968SOL    HW2 3804   5.231   2.861   2.663
  969SOL     OW 3805   3.500   6.175   5.965
  969SOL    HW1 3806   3.549   6.116   5.901
  969SOL    HW2 3807   3.561   6.249   5.996
  970SOL     OW 3808   4.233   2.106   5.371
  970SOL    HW1 3809   4.174   2.032   5.405
  970SOL    HW2 3810   4.196   2.141   5.285
  971SOL     OW 3811   6.986   1.086   2.700
  971SOL    HW1 3812   6.947   1.028   2.629
  971SOL    HW2 3813   6.915   1.145   2.738
  972SOL     OW 3814   6.153   5.153   0.790
  972SOL    HW1 3815   6.096   5.185   0.714
  972SOL    HW2 3816   6.225   5.093   0.755
  973SOL     OW 3817   0.673   4.374   6.179
  973SOL    HW1 3818   0.708   4.466   6.196
  973SOL    HW2 3819   0.575   4.371   6.201
  974SOL     OW 3820   3.420   0.697   2.565
  974SOL    HW1 3821   3.450   0.780   2.612
  974SOL    HW2 3822   3.465   0.617   2.606
  975SOL     OW 3823   3.192   6.430   6.438
  975SOL    HW1 3824   3.231   6.341   6.417
  975SOL    HW2 3825   3.264   6.489   6.476
  976SOL     OW 3826   0.022   3.126   2.385
  976SOL    HW1 3827   6.990   3.055   2.345
  976SOL    HW2 3828   7.014   3.150   2.476
  977SOL     OW 3829   1.894   1.032   4.128
  977SOL    HW1 3830   1.852   1.095   4.063
  977SOL    HW2 3831   1.843   1.035   4.214
  978SOL     OW 3832   5.286   4.160   4.676
  978SOL    HW1 3833   5.206   4.100   4.674
  978SOL    HW2 3834   5.359   4.119   4.621
  979SOL     OW 3835   6.435   1.453   3.626
  979SOL    HW1 3836   6.403   1.514   3.553
  979SOL    HW2 3837   6.535   1.451   3.626
  980SOL     OW 3838   5.345   2.391   3.744
  980SOL    HW1 3839   5.359   2.480   3.700
  980SOL    HW2 3840   5.416   2.327   3.713
  981SOL     OW 3841   1.296   1.840   4.913
  981SOL    HW1 3842   1.361   1.901   4.956
  981SOL    HW2 3843   1.342   1.785   4.843
  982SOL     OW 3844   1.837   2.971   2.116
  982SOL    HW1 3845   1.767   3.030   2.156
  982SOL    HW2 3846   1.915   2.964   2.178
  983SOL     OW 3847   5.821   2.369   3.602
  983SOL    HW1 3848   5.865   2.356   3.513
  983SOL    HW2 3849   5.761   2.449   3.599
  984SOL     OW 3850   3.839   0.647   5.259
  984SOL    HW1 3851   3.899   0.683   5.187
  984SOL    HW2 3852   3.749   0.690   5.253
  985SOL     OW 3853   4.302   4.936   0.170
  985SOL    HW1 3854   4.397   4.966   0.176
  985SOL    HW2 3855   4.272   4.903   0.259
  986SOL     OW 3856   5.419   5.596   6.206
  986SOL    HW1 3857   5.476   5.642   6.275
  986SOL    HW2 3858   5.407   5.500   6.233
  987SOL     OW 3859   3.468   6.704   1.601
  987SOL    HW1 3860   3.473   6.608   1.629
  987SOL    HW2 3861   3.448   6.761   1.680
  988SOL     OW 3862   3.884   2.286   0.677
  988SOL    HW1 3863   3.899   2.379   0.643
  988SOL    HW2 3864   3.791   2.257   0.653
  989SOL     OW 3865   0.341   0.962   6.076
  989SOL    HW1 3866   0.296   1.038   6.122
  989SOL    HW2 3867   0.439   0.966   6.093
  990SOL     OW 3868   4.731   6.928   3.849
  990SOL    HW1 3869   4.813   6.902   3.798
  990SOL    HW2 3870   4.704   7.021   3.823
  991SOL     OW 3871   1.841   1.880   5.133
  991SOL    HW1 3872   1.870   1.939   5.058
  991SOL    HW2 3873   1.863   1.785   5.112
  992SOL     OW 3874   0.270   2.859   6.803
  992SOL    HW1 3875   0.197   2.924   6.781
  992SOL    HW2 3876   0.230   2.768   6.814
  993SOL     OW 3877   2.309   5.551   2.376
  993SOL    HW1 3878   2.301   5.451   2.374
  993SOL    HW2 3879   2.239   5.588   2.438
  994SOL     OW 3880   3.792   4.068   2.520
  994SOL    HW1 3881   3.771   3.976   2.485
  994SOL    HW2 3882   3.865   4.062   2.588
  995SOL     OW 3883   1.880   2.444   6.269
  995SOL    HW1 3884   1.955   2.393   6.312
  995SOL    HW2 3885   1.904   2.541   6.266
  996SOL     OW 3886   1.702   3.454   4.016
  996SOL    HW1 3887   1.715   3.395   3.936
  996SOL    HW2 3888   1.785   3.452   4.073
  997SOL     OW 3889   0.481   0.024   1.387
  997SOL    HW1 3890   0.521   0.020   1.295
  997SOL    HW2 3891   0.551   0.001   1.454
  998SOL     OW 3892   4.479   0.170   2.998
  998SOL    HW1 3893   4.390   0.150   2.957
  998SOL    HW2 3894   4.540   0.210   2.930
  999SOL     OW 3895   5.330   5.976   1.267
  999SOL    HW1 3896   5.348   5.878   1.276
  999SOL    HW2 3897   5.285   6.010   1.350
 1000SOL     OW 3898   1.054   2.072   2.464
 1000SOL    HW1 3899   1.115   2.045   2.539
 1000SOL    HW2 3900   0.991   1.997   2.444
 1001SOL     OW 3901   4.125   6.252   6.360
 1001SOL    HW1 3902   4.027   6.239   6.342
 1001SOL    HW2 3903   4.141   6.249   6.459
 1002SOL     OW 3904   5.505   1.526   6.561
 1002SOL    HW1 3905   5.433   1.458   6.543
 1002SOL    HW2 3906   5.496   1.560   6.654
 1003SOL     OW 3907   2.499   6.774   1.751
 1003SOL    HW1 3908   2.556   6.752   1.671
 1003SOL    HW2 3909   2.557   6.777   1.833
 1004SOL     OW 3910   6.530   0.616   0.302
 1004SOL    HW1 3911   6.466   0.561   0.250
 1004SOL    HW2 3912   6.536   0.708   0.261
 1005SOL     OW 3913   0.214   0.829   2.929
 1005SOL    HW1 3914   0.121   0.864   2.945
 1005SOL    HW2 3915   0.269   0.900   2.885
 1006SOL     OW 3916   2.590   5.834   1.687
 1006SOL    HW1 3917   2.573   5.828   1.588
 1006SOL    HW2 3918   2.506   5.814   1.737
 1007SOL     OW 3919   6.030   0.125   3.327
 1007SOL    HW1 3920   6.077   0.119   3.415
 1007SOL    HW2 3921   5.981   0.040   3.308
 1008SOL     OW 3922   1.243   2.729   4.382
 1008SOL    HW1 3923   1.236   2.758   4.478
 1008SOL    HW2 3924   1.281   2.636   4.378
 1009SOL     OW 3925   6.305   5.181   3.676
 1009SOL    HW1 3926   6.230   5.138   3.727
 1009SOL    HW2 3927   6.392   5.157   3.718
 1010SOL     OW 3928   4.178   2.043   0.163
 1010SOL    HW1 3929   4.223   1.974   0.220
 1010SOL    HW2 3930   4.184   2.016   0.067
 1011SOL     OW 3931   3.058   5.454   3.231
 1011SOL    HW1 3932   2.964   5.458   3.263
 1011SOL    HW2 3933   3.120   5.465   3.309
 1012SOL     OW 3934   6.168   5.637   0.188
 1012SOL    HW1 3935   6.184   5.706   0.118
 1012SOL    HW2 3936   6.087   5.663   0.242
 1013SOL     OW 3937   0.550   1.357   6.787
 1013SOL    HW1 3938   0.632   1.332   6.838
 1013SOL    HW2 3939   0.537   1.456   6.791
 1014SOL     OW 3940   5.438   5.317   6.265
 1014SOL    HW1 3941   5.439   5.247   6.193
 1014SOL    HW2 3942   5.437   5.272   6.355
 1015SOL     OW 3943   3.736   6.783   5.038
 1015SOL    HW1 3944   3.647   6.749   5.069
 1015SOL    HW2 3945   3.772   6.722   4.968
 1016SOL     OW 3946   2.367   2.804   0.962
 1016SOL    HW1 3947   2.406   2.876   1.019
 1016SOL    HW2 3948   2.285   2.768   1.006
 1017SOL     OW 3949   4.951   2.810   0.907
 1017SOL    HW1 3950   4.964   2.793   1.005
 1017SOL    HW2 3951   4.859   2.847   0.891
 1018SOL     OW 3952   1.713   3.372   4.445
 1018SOL    HW1 3953   1.703   3.295   4.382
 1018SOL    HW2 3954   1.657   3.356   4.526
 1019SOL     OW 3955   0.398   1.071   0.710
 1019SOL    HW1 3956   0.484   1.056   0.661
 1019SOL    HW2 3957   0.332   1.001   0.683
 1020SOL     OW 3958   0.937   6.728   0.878
 1020SOL    HW1 3959   0.915   6.753   0.784
 1020SOL    HW2 3960   1.008   6.789   0.913
 1021SOL     OW 3961   5.671   1.227   1.664
 1021SOL    HW1 3962   5.759   1.270   1.683
 1021SOL    HW2 3963   5.626   1.203   1.750
 1022SOL     OW 3964   4.080   4.865   6.595
 1022SOL    HW1 3965   4.062   4.959   6.624
 1022SOL    HW2 3966   4.141   4.822   6.662
 1023SOL     OW 3967   6.819   0.429   2.525
 1023SOL    HW1 3968   6.811   0.522   2.563
 1023SOL    HW2 3969   6.771   0.365   2.585
 1024SOL     OW 3970   6.772   2.822   4.233
 1024SOL    HW1 3971   6.755   2.726   4.209
 1024SOL    HW2 3972   6.854   2.854   4.185
 1025SOL     OW 3973   3.639   4.362   0.399
 1025SOL    HW1 3974   3.622   4.300   0.323
 1025SOL    HW2 3975   3.695   4.439   0.369
 1026SOL     OW 3976   1.045   0.809   0.643
 1026SOL    HW1 3977   1.095   0.816   0.729
 1026SOL    HW2 3978   0.965   0.870   0.646
 1027SOL     OW 3979   3.163   5.675   1.654
 1027SOL    HW1 3980   3.198   5.746   1.716
 1027SOL    HW2 3981   3.063   5.675   1.657
 1028SOL     OW 3982   3.006   5.996   0.501
 1028SOL    HW1 3983   3.069   6.066   0.534
 1028SOL    HW2 3984   3.038   5.906   0.530
 1029SOL     OW 3985   2.026   0.502   0.335
 1029SOL    HW1 3986   2.041   0.571   0.264
 1029SOL    HW2 3987   1.951   0.533   0.395
 1030SOL     OW 3988   3.700   3.011   3.236
 1030SOL    HW1 3989   3.756   2.955   3.296
 1030SOL    HW2 3990   3.604   3.001   3.261
 1031SOL     OW 3991   4.716   5.610   1.248
 1031SOL    HW1 3992   4.653   5.586   1.174
 1031SOL    HW2 3993   4.722   5.535   1.313
 1032SOL     OW 3994   2.167   1.469   5.259
 1032SOL    HW1 3995   2.070   1.468   5.283
 1032SOL    HW2 3996   2.178   1.443   5.163
 1033SOL     OW 3997   1.941   6.731   1.388
 1033SOL    HW1 3998   1.957   6.828   1.371
 1033SOL    HW2 3999   1.992   6.702   1.469
 1034SOL     OW 4000   1.710   5.999   4.545
 1034SOL    HW1 4001   1.749   6.068   4.606
 1034SOL    HW2 4002   1.776   5.925   4.532
 1035SOL     OW 4003   2.433   1.617   3.760
 1035SOL    HW1 4004   2.475   1.526   3.766
 1035SOL    HW2 4005   2.401   1.633   3.666
 1036SOL     OW 4006   3.831   0.496   1.058
 1036SOL    HW1 4007   3.914   0.441   1.069
 1036SOL    HW2 4008   3.830   0.538   0.968
 1037SOL     OW 4009   1.122   1.007   1.390
 1037SOL    HW1 4010   1.135   1.009   1.291
 1037SOL    HW2 4011   1.043   0.950   1.413
 1038SOL     OW 4012   0.546   1.220   5.555
 1038SOL    HW1 4013   0.556   1.282   5.633
 1038SOL    HW2 4014   0.455   1.231   5.516
 1039SOL     OW 4015   4.575   1.732   5.516
 1039SOL    HW1 4016   4.618   1.665   5.577
 1039SOL    HW2 4017   4.601   1.713   5.422
 1040SOL     OW 4018   5.516   3.299   3.069
 1040SOL    HW1 4019   5.579   3.362   3.115
 1040SOL    HW2 4020   5.566   3.217   3.041
 1041SOL     OW 4021   6.462   0.186   4.371
 1041SOL    HW1 4022   6.416   0.212   4.286
 1041SOL    HW2 4023   6.413   0.227   4.449
 1042SOL     OW 4024   3.874   4.994   2.488
 1042SOL    HW1 4025   3.923   4.935   2.552
 1042SOL    HW2 4026   3.845   4.940   2.409
 1043SOL     OW 4027   3.941   1.210   6.338
 1043SOL    HW1 4028   4.002   1.195   6.416
 1043SOL    HW2 4029   3.872   1.138   6.335
 1044SOL     OW 4030   3.710   2.595   1.457
 1044SOL    HW1 4031   3.637   2.642   1.407
 1044SOL    HW2 4032   3.676   2.567   1.547
 1045SOL     OW 4033   3.350   0.463   2.011
 1045SOL    HW1 4034   3.255   0.494   2.003
 1045SOL    HW2 4035   3.401   0.487   1.928
 1046SOL     OW 4036   2.497   7.008   6.133
 1046SOL    HW1 4037   2.487   6.930   6.195
 1046SOL    HW2 4038   2.429   0.051   6.155
 1047SOL     OW 4039   1.356   5.614   2.657
 1047SOL    HW1 4040   1.291   5.558   2.606
 1047SOL    HW2 4041   1.422   5.655   2.594
 1048SOL     OW 4042   4.967   5.535   5.429
 1048SOL    HW1 4043   4.904   5.604   5.394
 1048SOL    HW2 4044   5.053   5.579   5.455
 1049SOL     OW 4045   0.527   3.856   4.645
 1049SOL    HW1 4046   0.540   3.788   4.718
 1049SOL    HW2 4047   0.616   3.887   4.612
 1050SOL     OW 4048   3.607   5.813   0.410
 1050SOL    HW1 4049   3.510   5.832   0.427
 1050SOL    HW2 4050   3.634   5.730   0.458
 1051SOL     OW 4051   4.017   4.382   0.244
 1051SOL    HW1 4052   3.998   4.284   0.230
 1051SOL    HW2 4053   3.932   4.428   0.270
 1052SOL     OW 4054   4.173   0.916   4.114
 1052SOL    HW1 4055   4.087   0.964   4.096
 1052SOL    HW2 4056   4.199   0.863   4.033
 1053SOL     OW 4057   5.951   5.836   3.513
 1053SOL    HW1 4058   6.000   5.769   3.457
 1053SOL    HW2 4059   5.993   5.841   3.603
 1054SOL     OW 4060   2.337   5.132   5.446
 1054SOL    HW1 4061   2.295   5.170   5.364
 1054SOL    HW2 4062   2.298   5.042   5.466
 1055SOL     OW 4063   5.666   5.961   4.649
 1055SOL    HW1 4064   5.733   6.031   4.674
 1055SOL    HW2 4065   5.714   5.876   4.626
 1056SOL     OW 4066   1.514   6.611   5.403
 1056SOL    HW1 4067   1.531   6.670   5.482
 1056SOL    HW2 4068   1.420   6.576   5.407
 1057SOL     OW 4069   3.316   3.756   3.348
 1057SOL    HW1 4070   3.220   3.747   3.322
 1057SOL    HW2 4071   3.375   3.738   3.270
 1058SOL     OW 4072   4.912   1.452   2.236
 1058SOL    HW1 4073   4.903   1.380   2.304
 1058SOL    HW2 4074   5.002   1.496   2.244
 1059SOL     OW 4075   3.640   0.674   1.847
 1059SOL    HW1 4076   3.604   0.733   1.774
 1059SOL    HW2 4077   3.725   0.713   1.883
 1060SOL     OW 4078   6.776   3.406   5.898
 1060SOL    HW1 4079   6.773   3.327   5.959
 1060SOL    HW2 4080   6.712   3.476   5.931
 1061SOL     OW 4081   4.051   4.370   0.991
 1061SOL    HW1 4082   4.068   4.366   1.090
 1061SOL    HW2 4083   3.959   4.336   0.971
 1062SOL     OW 4084   6.625   5.970   5.792
 1062SOL    HW1 4085   6.566   6.039   5.834
 1062SOL    HW2 4086   6.700   5.948   5.853
 1063SOL     OW 4087   1.455   4.300   0.521
 1063SOL    HW1 4088   1.501   4.247   0.594
 1063SOL    HW2 4089   1.468   4.253   0.434
 1064SOL     OW 4090   1.061   3.666   2.582
 1064SOL    HW1 4091   1.106   3.755   2.579
 1064SOL    HW2 4092   1.061   3.626   2.490
 1065SOL     OW 4093   5.047   0.478   3.705
 1065SOL    HW1 4094   5.086   0.399   3.657
 1065SOL    HW2 4095   5.002   0.538   3.639
 1066SOL     OW 4096   5.239   0.488   4.079
 1066SOL    HW1 4097   5.212   0.473   4.174
 1066SOL    HW2 4098   5.159   0.482   4.020
 1067SOL     OW 4099   1.008   2.690   0.553
 1067SOL    HW1 4100   1.071   2.675   0.477
 1067SOL    HW2 4101   0.916   2.704   0.518
 1068SOL     OW 4102   6.989   3.870   1.938
 1068SOL    HW1 4103   6.906   3.843   1.986
 1068SOL    HW2 4104   0.043   3.835   1.986
 1069SOL     OW 4105   4.654   4.323   1.427
 1069SOL    HW1 4106   4.664   4.254   1.499
 1069SOL    HW2 4107   4.741   4.335   1.380
 1070SOL     OW 4108   1.800   1.017   6.683
 1070SOL    HW1 4109   1.806   0.986   6.588
 1070SOL    HW2 4110   1.890   1.051   6.712
 1071SOL     OW 4111   3.816   0.479   3.298
 1071SOL    HW1 4112   3.825   0.384   3.267
 1071SOL    HW2 4113   3.723   0.511   3.283
 1072SOL     OW 4114   2.099   5.968   2.145
 1072SOL    HW1 4115   2.032   6.024   2.194
 1072SOL    HW2 4116   2.154   5.916   2.210
 1073SOL     OW 4117   3.758   5.750   2.408
 1073SOL    HW1 4118   3.735   5.814   2.334
 1073SOL    HW2 4119   3.707   5.773   2.490
 1074SOL     OW 4120   1.907   5.732   1.764
 1074SOL    HW1 4121   1.984   5.739   1.827
 1074SOL    HW2 4122   1.935   5.677   1.685
 1075SOL     OW 4123   4.722   5.010   3.246
 1075SOL    HW1 4124   4.698   4.966   3.332
 1075SOL    HW2 4125   4.803   4.967   3.207
 1076SOL     OW 4126   0.631   4.307   4.888
 1076SOL    HW1 4127   0.630   4.394   4.838
 1076SOL    HW2 4128   0.675   4.321   4.977
 1077SOL     OW 4129   6.004   0.023   0.031
 1077SOL    HW1 4130   5.999   7.001   0.119
 1077SOL    HW2 4131   5.945   7.003   6.991
 1078SOL     OW 4132   1.521   1.677   2.090
 1078SOL    HW1 4133   1.531   1.595   2.034
 1078SOL    HW2 4134   1.587   1.673   2.166
 1079SOL     OW 4135   2.187   4.994   3.422
 1079SOL    HW1 4136   2.206   4.910   3.371
 1079SOL    HW2 4137   2.126   5.052   3.368
 1080SOL     OW 4138   2.355   5.118   3.128
 1080SOL    HW1 4139   2.306   5.204   3.112
 1080SOL    HW2 4140   2.426   5.132   3.197
 1081SOL     OW 4141   0.780   1.516   5.567
 1081SOL    HW1 4142   0.786   1.426   5.524
 1081SOL    HW2 4143   0.735   1.508   5.656
 1082SOL     OW 4144   1.520   0.255   5.635
 1082SOL    HW1 4145   1.448   0.210   5.688
 1082SOL    HW2 4146   1.479   0.318   5.569
 1083SOL     OW 4147   4.053   3.438   2.270
 1083SOL    HW1 4148   4.042   3.410   2.365
 1083SOL    HW2 4149   4.036   3.536   2.262
 1084SOL     OW 4150   6.504   5.679   1.342
 1084SOL    HW1 4151   6.429   5.742   1.322
 1084SOL    HW2 4152   6.475   5.585   1.322
 1085SOL     OW 4153   2.194   4.662   3.907
 1085SOL    HW1 4154   2.155   4.628   3.992
 1085SOL    HW2 4155   2.290   4.686   3.921
 1086SOL     OW 4156   6.086   5.596   3.451
 1086SOL    HW1 4157   6.102   5.573   3.355
 1086SOL    HW2 4158   6.171   5.584   3.503
 1087SOL     OW 4159   4.771   3.049   5.724
 1087SOL    HW1 4160   4.810   3.114   5.790
 1087SOL    HW2 4161   4.674   3.037   5.743
 1088SOL     OW 4162   5.735   4.439   3.547
 1088SOL    HW1 4163   5.689   4.528   3.551
 1088SOL    HW2 4164   5.666   4.366   3.544
 1089SOL     OW 4165   0.295   0.578   4.282
 1089SOL    HW1 4166   0.379   0.556   4.233
 1089SOL    HW2 4167   0.217   0.540   4.233
 1090SOL     OW 4168   2.992   0.991   4.516
 1090SOL    HW1 4169   3.009   0.996   4.418
 1090SOL    HW2 4170   3.002   1.081   4.557
 1091SOL     OW 4171   1.537   2.046   4.016
 1091SOL    HW1 4172   1.624   2.078   4.055
 1091SOL    HW2 4173   1.548   2.033   3.917
 1092SOL     OW 4174   2.180   3.804   1.426
 1092SOL    HW1 4175   2.274   3.805   1.391
 1092SOL    HW2 4176   2.162   3.716   1.469
 1093SOL     OW 4177   1.410   1.389   2.477
 1093SOL    HW1 4178   1.371   1.356   2.391
 1093SOL    HW2 4179   1.494   1.339   2.498
 1094SOL     OW 4180   0.109   6.531   1.552
 1094SOL    HW1 4181   0.019   6.507   1.588
 1094SOL    HW2 4182   0.158   6.586   1.619
 1095SOL     OW 4183   6.376   2.367   6.179
 1095SOL    HW1 4184   6.294   2.310   6.174
 1095SOL    HW2 4185   6.359   2.447   6.236
 1096SOL     OW 4186   3.895   5.142   1.577
 1096SOL    HW1 4187   3.987   5.181   1.584
 1096SOL    HW2 4188   3.899   5.043   1.590
 1097SOL     OW 4189   1.097   5.098   5.145
 1097SOL    HW1 4190   1.088   5.156   5.226
 1097SOL    HW2 4191   1.018   5.111   5.086
 1098SOL     OW 4192   5.368   2.340   1.090
 1098SOL    HW1 4193   5.296   2.374   1.029
 1098SOL    HW2 4194   5.351   2.244   1.113
 1099SOL     OW 4195   4.300   1.890   4.378
 1099SOL    HW1 4196   4.375   1.956   4.389
 1099SOL    HW2 4197   4.333   1.810   4.327
 1100SOL     OW 4198   0.624   1.198   6.579
 1100SOL    HW1 4199   0.571   1.113   6.575
 1100SOL    HW2 4200   0.582   1.261   6.644
 1101SOL     OW 4201   5.556   3.541   1.454
 1101SOL    HW1 4202   5.617   3.608   1.411
 1101SOL    HW2 4203   5.608   3.488   1.522
 1102SOL     OW 4204   0.921   4.950   4.334
 1102SOL    HW1 4205   1.015   4.932   4.365
 1102SOL    HW2 4206   0.893   4.879   4.270
 1103SOL     OW 4207   1.974   1.766   1.739
 1103SOL    HW1 4208   2.040   1.829   1.778
 1103SOL    HW2 4209   1.897   1.818   1.701
 1104SOL     OW 4210   1.656   3.725   5.672
 1104SOL    HW1 4211   1.738   3.693   5.624
 1104SOL    HW2 4212   1.584   3.656   5.665
 1105SOL     OW 4213   4.827   4.170   6.889
 1105SOL    HW1 4214   4.796   4.243   6.828
 1105SOL    HW2 4215   4.818   4.082   6.842
 1106SOL     OW 4216   0.566   1.893   6.442
 1106SOL    HW1 4217   0.592   1.802   6.472
 1106SOL    HW2 4218   0.552   1.893   6.343
 1107SOL     OW 4219   0.877   0.185   6.825
 1107SOL    HW1 4220   0.789   0.226   6.849
 1107SOL    HW2 4221   0.922   0.241   6.755
 1108SOL     OW 4222   2.453   0.550   4.925
 1108SOL    HW1 4223   2.406   0.566   5.012
 1108SOL    HW2 4224   2.407   0.600   4.852
 1109SOL     OW 4225   3.831   5.607   4.707
 1109SOL    HW1 4226   3.866   5.515   4.728
 1109SOL    HW2 4227   3.736   5.614   4.736
 1110SOL     OW 4228   2.973   1.997   1.449
 1110SOL    HW1 4229   2.900   2.014   1.515
 1110SOL    HW2 4230   3.061   2.023   1.488
 1111SOL     OW 4231   5.094   6.619   6.383
 1111SOL    HW1 4232   5.007   6.668   6.380
 1111SOL    HW2 4233   5.168   6.684   6.399
 1112SOL     OW 4234   6.066   0.886   2.896
 1112SOL    HW1 4235   5.993   0.869   2.830
 1112SOL    HW2 4236   6.073   0.985   2.913
 1113SOL     OW 4237   6.224   3.153   2.376
 1113SOL    HW1 4238   6.284   3.228   2.347
 1113SOL    HW2 4239   6.188   3.173   2.467
 1114SOL     OW 4240   5.283   0.365   6.176
 1114SOL    HW1 4241   5.274   0.368   6.275
 1114SOL    HW2 4242   5.377   0.388   6.151
 1115SOL     OW 4243   3.958   2.228   0.177
 1115SOL    HW1 4244   4.018   2.306   0.160
 1115SOL    HW2 4245   4.014   2.148   0.203
 1116SOL     OW 4246   5.180   5.278   3.925
 1116SOL    HW1 4247   5.105   5.297   3.988
 1116SOL    HW2 4248   5.155   5.312   3.834
 1117SOL     OW 4249   2.635   2.769   1.393
 1117SOL    HW1 4250   2.732   2.784   1.412
 1117SOL    HW2 4251   2.624   2.713   1.311
 1118SOL     OW 4252   1.412   4.802   3.016
 1118SOL    HW1 4253   1.354   4.811   2.935
 1118SOL    HW2 4254   1.375   4.857   3.090
 1119SOL     OW 4255   4.093   4.182   1.674
 1119SOL    HW1 4256   4.155   4.260   1.679
 1119SOL    HW2 4257   4.092   4.146   1.581
 1120SOL     OW 4258   5.377   6.763   6.077
 1120SOL    HW1 4259   5.430   6.844   6.103
 1120SOL    HW2 4260   5.378   6.754   5.978
 1121SOL     OW 4261   5.159   2.808   2.048
 1121SOL    HW1 4262   5.139   2.812   2.146
 1121SOL    HW2 4263   5.150   2.713   2.016
 1122SOL     OW 4264   5.464   2.835   6.674
 1122SOL    HW1 4265   5.388   2.886   6.632
 1122SOL    HW2 4266   5.445   2.737   6.668
 1123SOL     OW 4267   4.882   1.435   1.635
 1123SOL    HW1 4268   4.930   1.454   1.549
 1123SOL    HW2 4269   4.814   1.363   1.619
 1124SOL     OW 4270   6.645   3.583   4.800
 1124SOL    HW1 4271   6.651   3.581   4.900
 1124SOL    HW2 4272   6.719   3.527   4.761
 1125SOL     OW 4273   3.063   2.058   5.169
 1125SOL    HW1 4274   3.083   2.137   5.112
 1125SOL    HW2 4275   3.038   2.088   5.261
 1126SOL     OW 4276   4.643   6.841   6.397
 1126SOL    HW1 4277   4.713   6.772   6.415
 1126SOL    HW2 4278   4.610   6.831   6.303
 1127SOL     OW 4279   2.917   4.338   5.972
 1127SOL    HW1 4280   2.847   4.313   5.906
 1127SOL    HW2 4281   2.906   4.434   5.998
 1128SOL     OW 4282   4.375   2.373   4.431
 1128SOL    HW1 4283   4.423   2.453   4.464
 1128SOL    HW2 4284   4.336   2.392   4.340
 1129SOL     OW 4285   4.010   0.129   0.165
 1129SOL    HW1 4286   3.941   0.090   0.104
 1129SOL    HW2 4287   3.977   0.124   0.260
 1130SOL     OW 4288   1.704   4.336   1.316
 1130SOL    HW1 4289   1.714   4.262   1.383
 1130SOL    HW2 4290   1.630   4.397   1.345
 1131SOL     OW 4291   0.523   6.009   5.976
 1131SOL    HW1 4292   0.449   5.991   5.911
 1131SOL    HW2 4293   0.492   5.986   6.069
 1132SOL     OW 4294   5.103   0.074   6.046
 1132SOL    HW1 4295   5.094   0.160   5.996
 1132SOL    HW2 4296   5.025   0.062   6.106
 1133SOL     OW 4297   0.116   2.383   1.814
 1133SOL    HW1 4298   0.142   2.397   1.718
 1133SOL    HW2 4299   0.016   2.379   1.820
 1134SOL     OW 4300   5.728   2.260   6.791
 1134SOL    HW1 4301   5.710   2.163   6.806
 1134SOL    HW2 4302   5.764   2.273   6.698
 1135SOL     OW 4303   3.010   2.200   3.163
 1135SOL    HW1 4304   3.030   2.102   3.162
 1135SOL    HW2 4305   3.021   2.238   3.071
 1136SOL     OW 4306   2.513   5.068   4.115
 1136SOL    HW1 4307   2.421   5.030   4.111
 1136SOL    HW2 4308   2.509   5.167   4.100
 1137SOL     OW 4309   0.943   2.122   6.760
 1137SOL    HW1 4310   1.010   2.048   6.749
 1137SOL    HW2 4311   0.990   2.205   6.791
 1138SOL     OW 4312   2.174   3.178   5.942
 1138SOL    HW1 4313   2.162   3.271   5.908
 1138SOL    HW2 4314   2.140   3.172   6.036
 1139SOL     OW 4315   1.876   6.104   3.037
 1139SOL    HW1 4316   1.819   6.089   3.118
 1139SOL    HW2 4317   1.927   6.021   3.016
 1140SOL     OW 4318   4.012   2.162   3.035
 1140SOL    HW1 4319   4.026   2.200   3.127
 1140SOL    HW2 4320   4.060   2.217   2.968
 1141SOL     OW 4321   5.418   5.720   5.675
 1141SOL    HW1 4322   5.396   5.669   5.758
 1141SOL    HW2 4323   5.344   5.708   5.608
 1142SOL     OW 4324   5.284   0.301   4.669
 1142SOL    HW1 4325   5.320   0.291   4.577
 1142SOL    HW2 4326   5.215   0.231   4.687
 1143SOL     OW 4327   4.069   2.202   2.203
 1143SOL    HW1 4328   4.135   2.127   2.197
 1143SOL    HW2 4329   4.019   2.209   2.117
 1144SOL     OW 4330   0.223   4.312   4.195
 1144SOL    HW1 4331   0.212   4.292   4.293
 1144SOL    HW2 4332   0.137   4.344   4.157
 1145SOL     OW 4333   6.890   5.396   3.320
 1145SOL    HW1 4334   6.807   5.385   3.373
 1145SOL    HW2 4335   6.963   5.341   3.361
 1146SOL     OW 4336   5.450   1.583   1.132
 1146SOL    HW1 4337   5.351   1.596   1.143
 1146SOL    HW2 4338   5.497   1.616   1.213
 1147SOL     OW 4339   1.078   3.748   1.605
 1147SOL    HW1 4340   1.089   3.840   1.643
 1147SOL    HW2 4341   0.982   3.721   1.613
 1148SOL     OW 4342   3.402   5.693   6.277
 1148SOL    HW1 4343   3.468   5.617   6.273
 1148SOL    HW2 4344   3.327   5.675   6.213
 1149SOL     OW 4345   6.111   3.513   2.810
 1149SOL    HW1 4346   6.048   3.495   2.735
 1149SOL    HW2 4347   6.183   3.443   2.811
 1150SOL     OW 4348   2.446   4.631   1.143
 1150SOL    HW1 4349   2.454   4.683   1.058
 1150SOL    HW2 4350   2.353   4.640   1.178
 1151SOL     OW 4351   5.794   5.815   6.257
 1151SOL    HW1 4352   5.771   5.855   6.169
 1151SOL    HW2 4353   5.710   5.797   6.308
 1152SOL     OW 4354   1.195   6.926   4.537
 1152SOL    HW1 4355   1.253   6.851   4.567
 1152SOL    HW2 4356   1.114   6.931   4.596
 1153SOL     OW 4357   2.244   6.532   3.126
 1153SOL    HW1 4358   2.149   6.502   3.131
 1153SOL    HW2 4359   2.248   6.632   3.128
 1154SOL     OW 4360   0.255   3.696   1.474
 1154SOL    HW1 4361   0.323   3.768   1.456
 1154SOL    HW2 4362   0.173   3.714   1.420
 1155SOL     OW 4363   3.327   6.018   0.123
 1155SOL    HW1 4364   3.318   5.931   0.172
 1155SOL    HW2 4365   3.381   6.003   0.040
 1156SOL     OW 4366   2.061   0.196   3.677
 1156SOL    HW1 4367   2.027   0.120   3.622
 1156SOL    HW2 4368   2.015   0.196   3.766
 1157SOL     OW 4369   0.064   2.018   5.091
 1157SOL    HW1 4370   0.146   2.062   5.129
 1157SOL    HW2 4371   0.038   2.065   5.006
 1158SOL     OW 4372   5.914   4.796   5.618
 1158SOL    HW1 4373   5.906   4.766   5.523
 1158SOL    HW2 4374   5.860   4.737   5.677
 1159SOL     OW 4375   3.984   0.137   2.730
 1159SOL    HW1 4376   3.922   0.129   2.652
 1159SOL    HW2 4377   4.077   0.154   2.698
 1160SOL     OW 4378   4.014   3.962   2.062
 1160SOL    HW1 4379   4.024   3.932   1.967
 1160SOL    HW2 4380   4.066   4.047   2.076
 1161SOL     OW 4381   5.312   0.276   5.212
 1161SOL    HW1 4382   5.263   0.350   5.166
 1161SOL    HW2 4383   5.351   0.310   5.297
 1162SOL     OW 4384   3.397   2.988   0.980
 1162SOL    HW1 4385   3.422   2.926   1.055
 1162SOL    HW2 4386   3.298   2.987   0.967
 1163SOL     OW 4387   5.183   2.225   1.925
 1163SOL    HW1 4388   5.203   2.164   2.002
 1163SOL    HW2 4389   5.167   2.170   1.843
 1164SOL     OW 4390   5.326   2.613   3.177
 1164SOL    HW1 4391   5.370   2.698   3.207
 1164SOL    HW2 4392   5.379   2.571   3.104
 1165SOL     OW 4393   1.174   3.503   4.079
 1165SOL    HW1 4394   1.172   3.551   3.991
 1165SOL    HW2 4395   1.262   3.457   4.090
 1166SOL     OW 4396   4.338   1.760   6.350
 1166SOL    HW1 4397   4.243   1.790   6.355
 1166SOL    HW2 4398   4.391   1.827   6.297
 1167SOL     OW 4399   3.520   0.605   5.740
 1167SOL    HW1 4400   3.582   0.527   5.748
 1167SOL    HW2 4401   3.426   0.572   5.734
 1168SOL     OW 4402   6.232   6.661   2.766
 1168SOL    HW1 4403   6.272   6.742   2.724
 1168SOL    HW2 4404   6.208   6.595   2.695
 1169SOL     OW 4405   0.284   3.092   0.622
 1169SOL    HW1 4406   0.231   3.174   0.602
 1169SOL    HW2 4407   0.222   3.018   0.649
 1170SOL     OW 4408   3.671   1.005   2.151
 1170SOL    HW1 4409   3.632   0.914   2.136
 1170SOL    HW2 4410   3.643   1.038   2.242
 1171SOL     OW 4411   2.974   5.896   1.093
 1171SOL    HW1 4412   2.942   5.923   1.183
 1171SOL    HW2 4413   2.907   5.924   1.024
 1172SOL     OW 4414   3.583   3.938   3.661
 1172SOL    HW1 4415   3.537   3.853   3.690
 1172SOL    HW2 4416   3.529   4.016   3.691
 1173SOL     OW 4417   3.510   0.248   5.545
 1173SOL    HW1 4418   3.451   0.320   5.508
 1173SOL    HW2 4419   3.504   0.168   5.486
 1174SOL     OW 4420   2.604   5.777   0.630
 1174SOL    HW1 4421   2.530   5.712   0.614
 1174SOL    HW2 4422   2.633   5.818   0.544
 1175SOL     OW 4423   5.938   4.869   0.111
 1175SOL    HW1 4424   5.894   4.920   0.184
 1175SOL    HW2 4425   5.871   4.807   0.069
 1176SOL     OW 4426   5.780   5.377   0.827
 1176SOL    HW1 4427   5.845   5.358   0.901
 1176SOL    HW2 4428   5.733   5.463   0.846
 1177SOL     OW 4429   0.105   2.534   5.361
 1177SOL    HW1 4430   0.113   2.479   5.444
 1177SOL    HW2 4431   0.064   2.622   5.383
 1178SOL     OW 4432   4.733   4.243   2.111
 1178SOL    HW1 4433   4.635   4.259   2.105
 1178SOL    HW2 4434   4.758   4.167   2.051
 1179SOL     OW 4435   1.839   4.266   0.614
 1179SOL    HW1 4436   1.887   4.323   0.681
 1179SOL    HW2 4437   1.818   4.320   0.533
 1180SOL     OW 4438   2.403   0.603   3.805
 1180SOL    HW1 4439   2.304   0.593   3.797
 1180SOL    HW2 4440   2.428   0.699   3.790
 1181SOL     OW 4441   0.813   4.824   4.534
 1181SOL    HW1 4442   0.763   4.888   4.592
 1181SOL    HW2 4443   0.837   4.869   4.448
 1182SOL     OW 4444   2.121   4.184   3.351
 1182SOL    HW1 4445   2.070   4.177   3.265
 1182SOL    HW2 4446   2.191   4.255   3.342
 1183SOL     OW 4447   4.478   5.861   1.620
 1183SOL    HW1 4448   4.506   5.948   1.579
 1183SOL    HW2 4449   4.516   5.853   1.712
 1184SOL     OW 4450   3.504   3.167   5.447
 1184SOL    HW1 4451   3.434   3.101   5.474
 1184SOL    HW2 4452   3.475   3.214   5.364
 1185SOL     OW 4453   2.445   0.502   0.304
 1185SOL    HW1 4454   2.392   0.525   0.223
 1185SOL    HW2 4455   2.521   0.442   0.279
 1186SOL     OW 4456   6.316   0.197   5.488
 1186SOL    HW1 4457   6.255   0.120   5.509
 1186SOL    HW2 4458   6.295   0.233   5.397
 1187SOL     OW 4459   5.416   5.839   4.487
 1187SOL    HW1 4460   5.491   5.882   4.537
 1187SOL    HW2 4461   5.402   5.746   4.521
 1188SOL     OW 4462   2.891   6.802   6.225
 1188SOL    HW1 4463   2.958   6.731   6.202
 1188SOL    HW2 4464   2.938   6.890   6.238
 1189SOL     OW 4465   5.136   1.594   2.278
 1189SOL    HW1 4466   5.199   1.653   2.228
 1189SOL    HW2 4467   5.104   1.642   2.360
 1190SOL     OW 4468   3.684   5.599   3.447
 1190SOL    HW1 4469   3.699   5.575   3.352
 1190SOL    HW2 4470   3.736   5.537   3.506
 1191SOL     OW 4471   3.742   5.466   6.029
 1191SOL    HW1 4472   3.827   5.417   6.046
 1191SOL    HW2 4473   3.664   5.407   6.054
 1192SOL     OW 4474   5.556   4.449   3.088
 1192SOL    HW1 4475   5.602   4.362   3.073
 1192SOL    HW2 4476   5.619   4.524   3.068
 1193SOL     OW 4477   5.384   6.945   4.486
 1193SOL    HW1 4478   5.343   6.853   4.490
 1193SOL    HW2 4479   5.422   6.968   4.576
 1194SOL     OW 4480   6.900   0.991   0.756
 1194SOL    HW1 4481   6.845   0.956   0.831
 1194SOL    HW2 4482   6.848   0.984   0.671
 1195SOL     OW 4483   6.257   1.465   6.478
 1195SOL    HW1 4484   6.272   1.413   6.394
 1195SOL    HW2 4485   6.345   1.484   6.522
 1196SOL     OW 4486   0.285   5.046   2.197
 1196SOL    HW1 4487   0.270   5.072   2.293
 1196SOL    HW2 4488   0.210   4.988   2.166
 1197SOL     OW 4489   3.976   5.801   5.729
 1197SOL    HW1 4490   4.071   5.831   5.717
 1197SOL    HW2 4491   3.943   5.830   5.819
 1198SOL     OW 4492   2.812   2.296   2.500
 1198SOL    HW1 4493   2.767   2.333   2.418
 1198SOL    HW2 4494   2.907   2.275   2.479
 1199SOL     OW 4495   3.593   4.148   2.702
 1199SOL    HW1 4496   3.604   4.247   2.709
 1199SOL    HW2 4497   3.661   4.111   2.639
 1200SOL     OW 4498   4.254   3.952   5.379
 1200SOL    HW1 4499   4.295   4.042   5.365
 1200SOL    HW2 4500   4.163   3.962   5.417
 1201SOL     OW 4501   1.642   1.727   4.895
 1201SOL    HW1 4502   1.680   1.643   4.934
 1201SOL    HW2 4503   1.545   1.713   4.874
 1202SOL     OW 4504   5.640   0.131   6.185
 1202SOL    HW1 4505   5.680   0.121   6.276
 1202SOL    HW2 4506   5.686   0.070   6.121
 1203SOL     OW 4507   5.510   0.176   1.233
 1203SOL    HW1 4508   5.540   0.230   1.154
 1203SOL    HW2 4509   5.568   0.197   1.312
 1204SOL     OW 4510   3.831   1.283   0.670
 1204SOL    HW1 4511   3.905   1.311   0.609
 1204SOL    HW2 4512   3.744   1.290   0.622
 1205SOL     OW 4513   5.788   2.793   6.803
 1205SOL    HW1 4514   5.838   2.727   6.746
 1205SOL    HW2 4515   5.724   2.844   6.745
 1206SOL     OW 4516   1.865   1.598   5.051
 1206SOL    HW1 4517   1.870   1.559   5.143
 1206SOL    HW2 4518   1.888   1.528   4.983
 1207SOL     OW 4519   6.636   6.378   0.485
 1207SOL    HW1 4520   6.625   6.456   0.547
 1207SOL    HW2 4521   6.567   6.309   0.506
 1208SOL     OW 4522   3.101   3.900   2.630
 1208SOL    HW1 4523   3.024   3.897   2.695
 1208SOL    HW2 4524   3.187   3.901   2.681
 1209SOL     OW 4525   6.514   5.557   5.301
 1209SOL    HW1 4526   6.422   5.521   5.316
 1209SOL    HW2 4527   6.551   5.592   5.387
 1210SOL     OW 4528   4.094   0.685   2.655
 1210SOL    HW1 4529   4.001   0.678   2.620
 1210SOL    HW2 4530   4.156   0.630   2.598
 1211SOL     OW 4531   1.441   3.449   3.666
 1211SOL    HW1 4532   1.400   3.362   3.693
 1211SOL    HW2 4533   1.541   3.440   3.667
 1212SOL     OW 4534   1.082   2.792   5.497
 1212SOL    HW1 4535   1.121   2.738   5.572
 1212SOL    HW2 4536   1.006   2.847   5.532
 1213SOL     OW 4537   6.406   2.621   5.011
 1213SOL    HW1 4538   6.372   2.653   4.922
 1213SOL    HW2 4539   6.445   2.530   5.001
 1214SOL     OW 4540   1.920   3.202   4.655
 1214SOL    HW1 4541   1.876   3.189   4.565
 1214SOL    HW2 4542   1.999   3.261   4.644
 1215SOL     OW 4543   2.455   4.408   2.654
 1215SOL    HW1 4544   2.394   4.465   2.600
 1215SOL    HW2 4545   2.545   4.452   2.660
 1216SOL     OW 4546   0.376   6.580   1.729
 1216SOL    HW1 4547   0.369   6.678   1.712
 1216SOL    HW2 4548   0.470   6.557   1.754
 1217SOL     OW 4549   0.920   6.254   0.182
 1217SOL    HW1 4550   0.973   6.251   0.267
 1217SOL    HW2 4551   0.941   6.173   0.126
 1218SOL     OW 4552   0.983   3.056   5.135
 1218SOL    HW1 4553   0.976   3.108   5.050
 1218SOL    HW2 4554   0.999   3.118   5.211
 1219SOL     OW 4555   4.482   4.876   0.569
 1219SOL    HW1 4556   4.522   4.827   0.492
 1219SOL    HW2 4557   4.523   4.843   0.654
 1220SOL     OW 4558   5.885   3.327   2.358
 1220SOL    HW1 4559   5.892   3.248   2.419
 1220SOL    HW2 4560   5.805   3.315   2.298
 1221SOL     OW 4561   5.932   3.978   0.081
 1221SOL    HW1 4562   5.838   3.979   0.048
 1221SOL    HW2 4563   5.976   3.892   0.054
 1222SOL     OW 4564   6.940   6.599   0.649
 1222SOL    HW1 4565   6.954   6.546   0.732
 1222SOL    HW2 4566   7.022   6.653   0.630
 1223SOL     OW 4567   5.992   0.256   6.897
 1223SOL    HW1 4568   5.892   0.264   6.895
 1223SOL    HW2 4569   6.017   0.171   6.942
 1224SOL     OW 4570   4.125   5.936   6.750
 1224SOL    HW1 4571   4.114   5.871   6.674
 1224SOL    HW2 4572   4.115   6.029   6.716
 1225SOL     OW 4573   3.947   1.696   1.046
 1225SOL    HW1 4574   3.866   1.732   1.000
 1225SOL    HW2 4575   3.923   1.610   1.093
 1226SOL     OW 4576   5.508   6.490   0.996
 1226SOL    HW1 4577   5.597   6.523   1.028
 1226SOL    HW2 4578   5.437   6.556   1.020
 1227SOL     OW 4579   5.832   4.525   5.395
 1227SOL    HW1 4580   5.746   4.487   5.360
 1227SOL    HW2 4581   5.855   4.481   5.482
 1228SOL     OW 4582   3.479   2.787   1.926
 1228SOL    HW1 4583   3.539   2.744   1.993
 1228SOL    HW2 4584   3.506   2.883   1.915
 1229SOL     OW 4585   0.874   6.867   2.044
 1229SOL    HW1 4586   0.912   6.777   2.066
 1229SOL    HW2 4587   0.937   6.938   2.075
 1230SOL     OW 4588   5.316   5.447   2.973
 1230SOL    HW1 4589   5.229   5.453   2.924
 1230SOL    HW2 4590   5.333   5.532   3.021
 1231SOL     OW 4591   2.130   2.827   6.147
 1231SOL    HW1 4592   2.087   2.785   6.067
 1231SOL    HW2 4593   2.116   2.768   6.226
 1232SOL     OW 4594   4.022   1.488   4.670
 1232SOL    HW1 4595   3.978   1.491   4.580
 1232SOL    HW2 4596   4.013   1.577   4.714
 1233SOL     OW 4597   1.570   4.815   3.724
 1233SOL    HW1 4598   1.576   4.846   3.630
 1233SOL    HW2 4599   1.597   4.718   3.730
 1234SOL     OW 4600   6.602   3.190   6.915
 1234SOL    HW1 4601   6.536   3.118   6.892
 1234SOL    HW2 4602   6.629   3.182   7.011
 1235SOL     OW 4603   6.183   5.166   0.000
 1235SOL    HW1 4604   6.199   5.086   0.058
 1235SOL    HW2 4605   6.112   5.223   0.041
 1236SOL     OW 4606   3.572   1.341   0.549
 1236SOL    HW1 4607   3.621   1.357   0.463
 1236SOL    HW2 4608   3.529   1.426   0.579
 1237SOL     OW 4609   1.322   0.658   4.562
 1237SOL    HW1 4610   1.353   0.629   4.471
 1237SOL    HW2 4611   1.347   0.753   4.577
 1238SOL     OW 4612   0.330   0.175   2.886
 1238SOL    HW1 4613   0.255   0.230   2.851
 1238SOL    HW2 4614   0.316   0.079   2.861
 1239SOL     OW 4615   0.010   5.061   4.320
 1239SOL    HW1 4616   7.011   5.144   4.370
 1239SOL    HW2 4617   6.976   4.986   4.348
 1240SOL     OW 4618   6.056   5.656   2.917
 1240SOL    HW1 4619   5.999   5.604   2.854
 1240SOL    HW2 4620   6.136   5.692   2.869
 1241SOL     OW 4621   6.890   5.305   4.232
 1241SOL    HW1 4622   6.882   5.242   4.155
 1241SOL    HW2 4623   6.816   5.373   4.228
 1242SOL     OW 4624   1.859   3.732   6.981
 1242SOL    HW1 4625   1.803   3.660   7.021
 1242SOL    HW2 4626   1.955   3.708   6.987
 1243SOL     OW 4627   0.755   3.043   5.866
 1243SOL    HW1 4628   0.854   3.050   5.878
 1243SOL    HW2 4629   0.711   3.126   5.901
 1244SOL     OW 4630   5.741   6.463   5.270
 1244SOL    HW1 4631   5.668   6.395   5.261
 1244SOL    HW2 4632   5.830   6.418   5.260
 1245SOL     OW 4633   5.340   5.701   1.263
 1245SOL    HW1 4634   5.271   5.646   1.310
 1245SOL    HW2 4635   5.306   5.727   1.173
 1246SOL     OW 4636   4.788   0.899   1.053
 1246SOL    HW1 4637   4.879   0.925   1.083
 1246SOL    HW2 4638   4.784   0.899   0.953
 1247SOL     OW 4639   6.830   6.597   4.085
 1247SOL    HW1 4640   6.922   6.564   4.103
 1247SOL    HW2 4641   6.809   6.675   4.144
 1248SOL     OW 4642   7.021   6.567   4.724
 1248SOL    HW1 4643   0.022   6.473   4.706
 1248SOL    HW2 4644   6.945   6.568   4.789
 1249SOL     OW 4645   0.660   4.479   1.478
 1249SOL    HW1 4646   0.726   4.548   1.506
 1249SOL    HW2 4647   0.683   4.445   1.387
 1250SOL     OW 4648   6.128   3.426   5.056
 1250SOL    HW1 4649   6.226   3.407   5.059
 1250SOL    HW2 4650   6.113   3.520   5.027
 1251SOL     OW 4651   2.096   1.537   3.041
 1251SOL    HW1 4652   2.121   1.536   2.944
 1251SOL    HW2 4653   2.159   1.479   3.092
 1252SOL     OW 4654   3.095   5.503   6.923
 1252SOL    HW1 4655   3.157   5.581   6.912
 1252SOL    HW2 4656   3.006   5.525   6.882
 1253SOL     OW 4657   3.041   0.678   0.900
 1253SOL    HW1 4658   2.996   0.704   0.986
 1253SOL    HW2 4659   3.054   0.759   0.844
 1254SOL     OW 4660   5.715   1.702   2.994
 1254SOL    HW1 4661   5.646   1.726   2.926
 1254SOL    HW2 4662   5.759   1.786   3.028
 1255SOL     OW 4663   5.895   2.726   4.877
 1255SOL    HW1 4664   5.818   2.783   4.850
 1255SOL    HW2 4665   5.949   2.703   4.796
 1256SOL     OW 4666   6.695   5.789   3.501
 1256SOL    HW1 4667   6.767   5.792   3.571
 1256SOL    HW2 4668   6.615   5.840   3.533
 1257SOL     OW 4669   0.642   4.761   3.973
 1257SOL    HW1 4670   0.545   4.781   3.985
 1257SOL    HW2 4671   0.652   4.672   3.930
 1258SOL     OW 4672   1.796   5.893   3.748
 1258SOL    HW1 4673   1.764   5.987   3.764
 1258SOL    HW2 4674   1.773   5.866   3.654
 1259SOL     OW 4675   4.455   0.499   5.273
 1259SOL    HW1 4676   4.393   0.477   5.348
 1259SOL    HW2 4677   4.408   0.487   5.186
 1260SOL     OW 4678   2.864   1.078   2.363
 1260SOL    HW1 4679   2.822   1.041   2.280
 1260SOL    HW2 4680   2.964   1.071   2.355
 1261SOL     OW 4681   0.208   3.952   6.900
 1261SOL    HW1 4682   0.144   3.879   6.877
 1261SOL    HW2 4683   0.216   4.015   6.823
 1262SOL     OW 4684   4.672   4.837   1.083
 1262SOL    HW1 4685   4.598   4.840   1.015
 1262SOL    HW2 4686   4.649   4.770   1.154
 1263SOL     OW 4687   6.513   2.154   1.030
 1263SOL    HW1 4688   6.578   2.222   1.067
 1263SOL    HW2 4689   6.530   2.142   0.932
 1264SOL     OW 4690   0.243   4.543   3.550
 1264SOL    HW1 4691   0.253   4.573   3.645
 1264SOL    HW2 4692   0.182   4.464   3.546
 1265SOL     OW 4693   0.625   4.102   4.034
 1265SOL    HW1 4694   0.622   4.003   4.047
 1265SOL    HW2 4695   0.721   4.131   4.027
 1266SOL     OW 4696   2.676   1.523   4.886
 1266SOL    HW1 4697   2.746   1.504   4.817
 1266SOL    HW2 4698   2.718   1.565   4.966
 1267SOL     OW 4699   6.929   5.745   2.490
 1267SOL    HW1 4700   6.980   5.669   2.448
 1267SOL    HW2 4701   6.969   5.832   2.461
 1268SOL     OW 4702   5.672   2.217   0.257
 1268SOL    HW1 4703   5.629   2.172   0.335
 1268SOL    HW2 4704   5.628   2.306   0.242
 1269SOL     OW 4705   6.481   6.567   5.288
 1269SOL    HW1 4706   6.395   6.618   5.281
 1269SOL    HW2 4707   6.557   6.626   5.261
 1270SOL     OW 4708   2.026   4.084   4.389
 1270SOL    HW1 4709   2.083   4.004   4.372
 1270SOL    HW2 4710   1.961   4.064   4.462
 1271SOL     OW 4711   3.457   1.902   3.213
 1271SOL    HW1 4712   3.397   1.937   3.285
 1271SOL    HW2 4713   3.413   1.824   3.167
 1272SOL     OW 4714   0.119   5.845   0.886
 1272SOL    HW1 4715   0.026   5.854   0.850
 1272SOL    HW2 4716   0.132   5.909   0.962
 1273SOL     OW 4717   2.088   4.002   0.330
 1273SOL    HW1 4718   2.174   4.048   0.351
 1273SOL    HW2 4719   2.077   3.998   0.230
 1274SOL     OW 4720   0.549   3.023   1.985
 1274SOL    HW1 4721   0.615   3.098   1.980
 1274SOL    HW2 4722   0.497   3.030   2.070
 1275SOL     OW 4723   4.405   0.908   3.649
 1275SOL    HW1 4724   4.395   0.995   3.699
 1275SOL    HW2 4725   4.326   0.895   3.589
 1276SOL     OW 4726   6.668   0.278   3.086
 1276SOL    HW1 4727   6.595   0.298   3.020
 1276SOL    HW2 4728   6.627   0.251   3.173
 1277SOL     OW 4729   0.543   1.222   4.794
 1277SOL    HW1 4730   0.586   1.303   4.755
 1277SOL    HW2 4731   0.611   1.168   4.844
 1278SOL     OW 4732   2.150   2.136   5.410
 1278SOL    HW1 4733   2.169   2.197   5.334
 1278SOL    HW2 4734   2.080   2.070   5.384
 1279SOL     OW 4735   2.485   0.126   0.850
 1279SOL    HW1 4736   2.457   0.038   0.812
 1279SOL    HW2 4737   2.558   0.112   0.917
 1280SOL     OW 4738   2.476   0.290   2.750
 1280SOL    HW1 4739   2.382   0.313   2.773
 1280SOL    HW2 4740   2.479   0.246   2.661
 1281SOL     OW 4741   0.981   5.603   3.158
 1281SOL    HW1 4742   0.945   5.644   3.242
 1281SOL    HW2 4743   0.972   5.503   3.163
 1282SOL     OW 4744   0.708   1.067   1.065
 1282SOL    HW1 4745   0.770   0.990   1.051
 1282SOL    HW2 4746   0.753   1.152   1.038
 1283SOL     OW 4747   5.740   3.761   5.337
 1283SOL    HW1 4748   5.825   3.729   5.379
 1283SOL    HW2 4749   5.686   3.812   5.404
 1284SOL     OW 4750   3.127   2.634   1.700
 1284SOL    HW1 4751   3.037   2.660   1.734
 1284SOL    HW2 4752   3.117   2.559   1.633
 1285SOL     OW 4753   5.398   3.587   6.757
 1285SOL    HW1 4754   5.344   3.505   6.778
 1285SOL    HW2 4755   5.337   3.665   6.746
 1286SOL     OW 4756   4.676   4.809   2.133
 1286SOL    HW1 4757   4.647   4.769   2.220
 1286SOL    HW2 4758   4.733   4.744   2.084
 1287SOL     OW 4759   5.857   4.740   6.904
 1287SOL    HW1 4760   5.894   4.827   6.873
 1287SOL    HW2 4761   5.763   4.729   6.871
 1288SOL     OW 4762   0.350   2.790   0.346
 1288SOL    HW1 4763   0.373   2.849   0.269
 1288SOL    HW2 4764   0.410   2.710   0.346
 1289SOL     OW 4765   0.112   5.878   1.323
 1289SOL    HW1 4766   0.173   5.815   1.275
 1289SOL    HW2 4767   0.054   5.827   1.387
 1290SOL     OW 4768   0.486   0.672   0.132
 1290SOL    HW1 4769   0.484   0.585   0.181
 1290SOL    HW2 4770   0.547   0.664   0.053
 1291SOL     OW 4771   2.067   5.007   6.186
 1291SOL    HW1 4772   2.149   5.053   6.151
 1291SOL    HW2 4773   2.027   4.952   6.112
 1292SOL     OW 4774   6.798   4.403   2.098
 1292SOL    HW1 4775   6.826   4.433   2.189
 1292SOL    HW2 4776   6.862   4.439   2.030
 1293SOL     OW 4777   2.735   1.167   6.056
 1293SOL    HW1 4778   2.823   1.174   6.009
 1293SOL    HW2 4779   2.661   1.183   5.990
 1294SOL     OW 4780   0.304   3.128   1.856
 1294SOL    HW1 4781   0.384   3.102   1.910
 1294SOL    HW2 4782   0.261   3.047   1.818
 1295SOL     OW 4783   6.049   3.900   2.447
 1295SOL    HW1 4784   6.118   3.889   2.518
 1295SOL    HW2 4785   6.074   3.977   2.388
 1296SOL     OW 4786   3.493   1.610   6.280
 1296SOL    HW1 4787   3.554   1.545   6.234
 1296SOL    HW2 4788   3.444   1.665   6.211
 1297SOL     OW 4789   5.830   1.406   5.822
 1297SOL    HW1 4790   5.778   1.486   5.792
 1297SOL    HW2 4791   5.817   1.331   5.756
 1298SOL     OW 4792   5.590   3.277   3.468
 1298SOL    HW1 4793   5.622   3.306   3.559
 1298SOL    HW2 4794   5.628   3.338   3.398
 1299SOL     OW 4795   1.834   4.011   3.287
 1299SOL    HW1 4796   1.836   4.111   3.290
 1299SOL    HW2 4797   1.833   3.981   3.192
 1300SOL     OW 4798   2.921   3.812   2.339
 1300SOL    HW1 4799   2.959   3.875   2.407
 1300SOL    HW2 4800   2.859   3.862   2.279
 1301SOL     OW 4801   1.308   6.359   2.349
 1301SOL    HW1 4802   1.210   6.339   2.347
 1301SOL    HW2 4803   1.354   6.304   2.280
 1302SOL     OW 4804   2.134   6.598   4.674
 1302SOL    HW1 4805   2.170   6.528   4.613
 1302SOL    HW2 4806   2.142   6.688   4.631
 1303SOL     OW 4807   3.914   0.904   1.072
 1303SOL    HW1 4808   3.909   0.809   1.103
 1303SOL    HW2 4809   4.009   0.930   1.057
 1304SOL     OW 4810   1.785   0.970   6.399
 1304SOL    HW1 4811   1.801   1.069   6.403
 1304SOL    HW2 4812   1.775   0.941   6.304
 1305SOL     OW 4813   5.610   5.638   5.225
 1305SOL    HW1 4814   5.566   5.552   5.249
 1305SOL    HW2 4815   5.624   5.642   5.126
 1306SOL     OW 4816   0.841   4.113   5.194
 1306SOL    HW1 4817   0.839   4.131   5.292
 1306SOL    HW2 4818   0.800   4.023   5.175
 1307SOL     OW 4819   1.578   2.994   4.605
 1307SOL    HW1 4820   1.667   2.949   4.597
 1307SOL    HW2 4821   1.555   3.004   4.702
 1308SOL     OW 4822   4.293   5.848   4.614
 1308SOL    HW1 4823   4.327   5.768   4.664
 1308SOL    HW2 4824   4.197   5.862   4.636
 1309SOL     OW 4825   5.575   3.348   5.419
 1309SOL    HW1 4826   5.624   3.376   5.337
 1309SOL    HW2 4827   5.579   3.249   5.429
 1310SOL     OW 4828   5.897   3.732   5.120
 1310SOL    HW1 4829   5.946   3.818   5.132
 1310SOL    HW2 4830   5.822   3.727   5.187
 1311SOL     OW 4831   6.081   6.537   4.061
 1311SOL    HW1 4832   6.001   6.598   4.062
 1311SOL    HW2 4833   6.050   6.442   4.064
 1312SOL     OW 4834   0.739   0.638   6.830
 1312SOL    HW1 4835   0.808   0.696   6.874
 1312SOL    HW2 4836   0.652   0.688   6.825
 1313SOL     OW 4837   2.619   5.659   5.674
 1313SOL    HW1 4838   2.676   5.712   5.611
 1313SOL    HW2 4839   2.527   5.652   5.636
 1314SOL     OW 4840   1.954   1.272   5.866
 1314SOL    HW1 4841   1.854   1.272   5.861
 1314SOL    HW2 4842   1.991   1.332   5.795
 1315SOL     OW 4843   0.998   1.142   0.264
 1315SOL    HW1 4844   1.079   1.178   0.217
 1315SOL    HW2 4845   1.014   1.046   0.289
 1316SOL     OW 4846   1.918   6.901   2.996
 1316SOL    HW1 4847   1.966   6.899   2.908
 1316SOL    HW2 4848   1.829   6.856   2.986
 1317SOL     OW 4849   0.500   4.416   4.462
 1317SOL    HW1 4850   0.479   4.510   4.489
 1317SOL    HW2 4851   0.510   4.411   4.363
 1318SOL     OW 4852   0.658   1.041   0.604
 1318SOL    HW1 4853   0.661   1.038   0.504
 1318SOL    HW2 4854   0.706   0.962   0.642
 1319SOL     OW 4855   6.051   1.456   0.051
 1319SOL    HW1 4856   6.064   1.358   0.068
 1319SOL    HW2 4857   6.121   1.508   0.100
 1320SOL     OW 4858   5.610   4.548   0.027
 1320SOL    HW1 4859   5.552   4.599   0.089
 1320SOL    HW2 4860   5.683   4.503   0.079
 1321SOL     OW 4861   4.525   2.733   0.251
 1321SOL    HW1 4862   4.485   2.698   0.167
 1321SOL    HW2 4863   4.489   2.824   0.271
 1322SOL     OW 4864   5.067   1.251   3.132
 1322SOL    HW1 4865   5.001   1.177   3.144
 1322SOL    HW2 4866   5.079   1.269   3.034
 1323SOL     OW 4867   5.507   1.586   5.280
 1323SOL    HW1 4868   5.597   1.563   5.317
 1323SOL    HW2 4869   5.444   1.605   5.355
 1324SOL     OW 4870   1.728   2.131   1.852
 1324SOL    HW1 4871   1.748   2.138   1.949
 1324SOL    HW2 4872   1.670   2.208   1.824
 1325SOL     OW 4873   2.319   0.048   2.962
 1325SOL    HW1 4874   2.394   7.024   2.918
 1325SOL    HW2 4875   2.345   0.072   3.056
 1326SOL     OW 4876   4.677   2.790   4.587
 1326SOL    HW1 4877   4.693   2.853   4.512
 1326SOL    HW2 4878   4.702   2.834   4.673
 1327SOL     OW 4879   2.550   5.429   2.816
 1327SOL    HW1 4880   2.543   5.512   2.761
 1327SOL    HW2 4881   2.631   5.377   2.789
 1328SOL     OW 4882   1.059   2.186   0.201
 1328SOL    HW1 4883   1.131   2.221   0.260
 1328SOL    HW2 4884   1.055   2.240   0.117
 1329SOL     OW 4885   6.556   1.767   0.857
 1329SOL    HW1 4886   6.552   1.711   0.774
 1329SOL    HW2 4887   6.464   1.780   0.893
 1330SOL     OW 4888   6.458   6.865   0.931
 1330SOL    HW1 4889   6.490   6.777   0.895
 1330SOL    HW2 4890   6.510   6.887   1.013
 1331SOL     OW 4891   5.145   2.000   3.135
 1331SOL    HW1 4892   5.169   1.971   3.228
 1331SOL    HW2 4893   5.176   2.094   3.120
 1332SOL     OW 4894   3.636   0.379   1.255
 1332SOL    HW1 4895   3.692   0.365   1.174
 1332SOL    HW2 4896   3.557   0.317   1.252
 1333SOL     OW 4897   3.638   4.225   4.951
 1333SOL    HW1 4898   3.700   4.184   5.019
 1333SOL    HW2 4899   3.679   4.309   4.915
 1334SOL     OW 4900   0.526   3.238   4.873
 1334SOL    HW1 4901   0.603   3.269   4.928
 1334SOL    HW2 4902   0.522   3.138   4.874
 1335SOL     OW 4903   1.979   6.445   2.783
 1335SOL    HW1 4904   1.927   6.360   2.791
 1335SOL    HW2 4905   1.949   6.495   2.702
 1336SOL     OW 4906   1.412   1.508   6.726
 1336SOL    HW1 4907   1.395   1.607   6.722
 1336SOL    HW2 4908   1.510   1.491   6.735
 1337SOL     OW 4909   1.146   2.610   5.308
 1337SOL    HW1 4910   1.166   2.676   5.236
 1337SOL    HW2 4911   1.099   2.656   5.384
 1338SOL     OW 4912   4.251   3.858   6.388
 1338SOL    HW1 4913   4.230   3.774   6.338
 1338SOL    HW2 4914   4.328   3.841   6.450
 1339SOL     OW 4915   7.010   4.752   6.482
 1339SOL    HW1 4916   6.936   4.797   6.432
 1339SOL    HW2 4917   0.031   4.819   6.539
 1340SOL     OW 4918   0.942   1.748   1.281
 1340SOL    HW1 4919   0.967   1.662   1.326
 1340SOL    HW2 4920   0.915   1.729   1.187
 1341SOL     OW 4921   4.220   0.884   5.157
 1341SOL    HW1 4922   4.259   0.939   5.230
 1341SOL    HW2 4923   4.191   0.943   5.081
 1342SOL     OW 4924   1.602   5.328   6.145
 1342SOL    HW1 4925   1.565   5.383   6.220
 1342SOL    HW2 4926   1.544   5.248   6.131
 1343SOL     OW 4927   3.594   6.724   2.430
 1343SOL    HW1 4928   3.545   6.808   2.453
 1343SOL    HW2 4929   3.674   6.747   2.375
 1344SOL     OW 4930   6.533   2.448   3.403
 1344SOL    HW1 4931   6.605   2.387   3.436
 1344SOL    HW2 4932   6.492   2.410   3.320
 1345SOL     OW 4933   0.887   1.324   3.687
 1345SOL    HW1 4934   0.932   1.411   3.667
 1345SOL    HW2 4935   0.913   1.294   3.779
 1346SOL     OW 4936   1.222   6.943   2.793
 1346SOL    HW1 4937   1.194   0.008   2.763
 1346SOL    HW2 4938   1.150   6.877   2.771
 1347SOL     OW 4939   6.137   6.633   3.623
 1347SOL    HW1 4940   6.105   6.713   3.674
 1347SOL    HW2 4941   6.197   6.579   3.681
 1348SOL     OW 4942   5.567   5.554   3.371
 1348SOL    HW1 4943   5.618   5.571   3.455
 1348SOL    HW2 4944   5.532   5.460   3.371
 1349SOL     OW 4945   4.796   2.864   6.659
 1349SOL    HW1 4946   4.853   2.921   6.600
 1349SOL    HW2 4947   4.711   2.912   6.679
 1350SOL     OW 4948   3.579   4.921   6.770
 1350SOL    HW1 4949   3.519   4.996   6.744
 1350SOL    HW2 4950   3.643   4.952   6.840
 1351SOL     OW 4951   1.015   0.881   2.893
 1351SOL    HW1 4952   1.019   0.888   2.793
 1351SOL    HW2 4953   0.996   0.971   2.932
 1352SOL     OW 4954   0.026   6.923   3.563
 1352SOL    HW1 4955   6.966   6.955   3.523
 1352SOL    HW2 4956   0.101   6.978   3.527
 1353SOL     OW 4957   6.426   4.641   5.599
 1353SOL    HW1 4958   6.474   4.713   5.549
 1353SOL    HW2 4959   6.491   4.587   5.651
 1354SOL     OW 4960   6.658   1.119   0.956
 1354SOL    HW1 4961   6.747   1.147   0.993
 1354SOL    HW2 4962   6.634   1.179   0.880
 1355SOL     OW 4963   5.271   3.885   0.162
 1355SOL    HW1 4964   5.322   3.946   0.101
 1355SOL    HW2 4965   5.214   3.940   0.223
 1356SOL     OW 4966   3.748   3.987   3.450
 1356SOL    HW1 4967   3.844   4.013   3.441
 1356SOL    HW2 4968   3.725   3.980   3.547
 1357SOL     OW 4969   2.626   3.461   6.208
 1357SOL    HW1 4970   2.690   3.412   6.149
 1357SOL    HW2 4971   2.550   3.401   6.232
 1358SOL     OW 4972   2.402   2.608   6.109
 1358SOL    HW1 4973   2.408   2.702   6.075
 1358SOL    HW2 4974   2.340   2.556   6.050
 1359SOL     OW 4975   6.889   3.587   1.557
 1359SOL    HW1 4976   6.958   3.633   1.612
 1359SOL    HW2 4977   6.830   3.656   1.513
 1360SOL     OW 4978   3.755   3.794   2.443
 1360SOL    HW1 4979   3.734   3.822   2.349
 1360SOL    HW2 4980   3.677   3.745   2.482
 1361SOL     OW 4981   0.640   6.984   5.845
 1361SOL    HW1 4982   0.585   0.017   5.904
 1361SOL    HW2 4983   0.580   6.931   5.785
 1362SOL     OW 4984   3.101   3.470   5.426
 1362SOL    HW1 4985   3.006   3.442   5.413
 1362SOL    HW2 4986   3.114   3.563   5.393
 1363SOL     OW 4987   6.128   5.920   3.713
 1363SOL    HW1 4988   6.125   5.998   3.775
 1363SOL    HW2 4989   6.137   5.836   3.766
 1364SOL     OW 4990   6.944   2.879   0.288
 1364SOL    HW1 4991   6.911   2.955   0.343
 1364SOL    HW2 4992   6.940   2.794   0.341
 1365SOL     OW 4993   0.862   4.163   5.452
 1365SOL    HW1 4994   0.816   4.123   5.530
 1365SOL    HW2 4995   0.961   4.164   5.468
 1366SOL     OW 4996   0.021   3.229   0.923
 1366SOL    HW1 4997   0.037   3.144   0.973
 1366SOL    HW2 4998   0.102   3.288   0.930
 1367SOL     OW 4999   1.341   5.230   3.412
 1367SOL    HW1 5000   1.399   5.214   3.332
 1367SOL    HW2 5001   1.257   5.175   3.404
 1368SOL     OW 5002   6.793   6.791   4.266
 1368SOL    HW1 5003   6.813   6.792   4.364
 1368SOL    HW2 5004   6.777   6.885   4.235
 1369SOL     OW 5005   2.732   6.222   1.574
 1369SOL    HW1 5006   2.812   6.282   1.573
 1369SOL    HW2 5007   2.723   6.180   1.664
 1370SOL     OW 5008   6.895   1.891   4.111
 1370SOL    HW1 5009   6.978   1.854   4.153
 1370SOL    HW2 5010   6.861   1.827   4.042
 1371SOL     OW 5011   5.213   1.017   5.312
 1371SOL    HW1 5012   5.228   0.992   5.407
 1371SOL    HW2 5013   5.131   0.972   5.278
 1372SOL     OW 5014   6.397   2.587   0.938
 1372SOL    HW1 5015   6.378   2.501   0.890
 1372SOL    HW2 5016   6.428   2.567   1.031
 1373SOL     OW 5017   4.903   1.897   0.853
 1373SOL    HW1 5018   4.841   1.827   0.889
 1373SOL    HW2 5019   4.865   1.988   0.872
 1374SOL     OW 5020   5.347   4.139   0.453
 1374SOL    HW1 5021   5.431   4.100   0.417
 1374SOL    HW2 5022   5.284   4.065   0.477
 1375SOL     OW 5023   0.163   6.036   6.041
 1375SOL    HW1 5024   0.157   6.065   5.946
 1375SOL    HW2 5025   0.071   6.024   6.079
 1376SOL     OW 5026   3.070   4.778   6.118
 1376SOL    HW1 5027   2.997   4.721   6.079
 1376SOL    HW2 5028   3.148   4.779   6.056
 1377SOL     OW 5029   1.290   2.462   4.358
 1377SOL    HW1 5030   1.363   2.453   4.289
 1377SOL    HW2 5031   1.305   2.394   4.430
 1378SOL     OW 5032   4.651   2.623   4.943
 1378SOL    HW1 5033   4.606   2.569   4.872
 1378SOL    HW2 5034   4.701   2.699   4.900
 1379SOL     OW 5035   5.056   5.941   2.723
 1379SOL    HW1 5036   5.034   6.038   2.725
 1379SOL    HW2 5037   5.098   5.915   2.810
 1380SOL     OW 5038   0.003   6.328   2.664
 1380SOL    HW1 5039   7.001   6.238   2.698
 1380SOL    HW2 5040   0.086   6.357   2.713
 1381SOL     OW 5041   5.615   1.999   6.783
 1381SOL    HW1 5042   5.522   2.035   6.777
 1381SOL    HW2 5043   5.631   1.959   6.873
 1382SOL     OW 5044   4.844   3.566   1.724
 1382SOL    HW1 5045   4.821   3.469   1.713
 1382SOL    HW2 5046   4.827   3.613   1.637
 1383SOL     OW 5047   0.805   6.579   1.431
 1383SOL    HW1 5048   0.726   6.541   1.480
 1383SOL    HW2 5049   0.840   6.512   1.366
 1384SOL     OW 5050   4.213   0.059   1.006
 1384SOL    HW1 5051   4.160   0.049   0.922
 1384SOL    HW2 5052   4.169   0.008   1.080
 1385SOL     OW 5053   2.434   4.801   3.651
 1385SOL    HW1 5054   2.491   4.884   3.656
 1385SOL    HW2 5055   2.408   4.773   3.743
 1386SOL     OW 5056   3.239   6.693   3.236
 1386SOL    HW1 5057   3.314   6.722   3.295
 1386SOL    HW2 5058   3.189   6.773   3.203
 1387SOL     OW 5059   3.253   5.864   1.835
 1387SOL    HW1 5060   3.169   5.903   1.872
 1387SOL    HW2 5061   3.299   5.933   1.778
 1388SOL     OW 5062   6.320   6.337   1.147
 1388SOL    HW1 5063   6.261   6.270   1.102
 1388SOL    HW2 5064   6.264   6.406   1.193
 1389SOL     OW 5065   5.660   2.014   3.331
 1389SOL    HW1 5066   5.740   2.042   3.277
 1389SOL    HW2 5067   5.680   2.027   3.428
 1390SOL     OW 5068   0.068   4.118   0.036
 1390SOL    HW1 5069   0.118   4.046   7.015
 1390SOL    HW2 5070   0.019   4.080   0.114
 1391SOL     OW 5071   6.599   0.287   4.071
 1391SOL    HW1 5072   6.689   0.255   4.099
 1391SOL    HW2 5073   6.604   0.323   3.978
 1392SOL     OW 5074   5.159   5.595   6.101
 1392SOL    HW1 5075   5.110   5.680   6.119
 1392SOL    HW2 5076   5.251   5.600   6.139
 1393SOL     OW 5077   6.051   4.899   5.092
 1393SOL    HW1 5078   6.149   4.895   5.073
 1393SOL    HW2 5079   6.002   4.846   5.023
 1394SOL     OW 5080   2.810   6.138   4.951
 1394SOL    HW1 5081   2.771   6.117   5.040
 1394SOL    HW2 5082   2.759   6.214   4.909
 1395SOL     OW 5083   2.710   4.173   6.331
 1395SOL    HW1 5084   2.785   4.159   6.266
 1395SOL    HW2 5085   2.641   4.102   6.318
 1396SOL     OW 5086   1.955   0.705   4.847
 1396SOL    HW1 5087   2.003   0.639   4.905
 1396SOL    HW2 5088   1.901   0.656   4.778
 1397SOL     OW 5089   0.334   0.349   3.917
 1397SOL    HW1 5090   0.309   0.400   3.835
 1397SOL    HW2 5091   0.368   0.412   3.987
 1398SOL     OW 5092   2.536   1.038   5.721
 1398SOL    HW1 5093   2.515   1.111   5.786
 1398SOL    HW2 5094   2.454   1.018   5.666
 1399SOL     OW 5095   3.765   6.472   0.845
 1399SOL    HW1 5096   3.792   6.376   0.847
 1399SOL    HW2 5097   3.797   6.518   0.927
 1400SOL     OW 5098   6.748   1.153   2.928
 1400SOL    HW1 5099   6.702   1.241   2.937
 1400SOL    HW2 5100   6.819   1.145   2.999
 1401SOL     OW 5101   6.901   1.769   4.944
 1401SOL    HW1 5102   6.852   1.704   5.001
 1401SOL    HW2 5103   6.996   1.739   4.931
 1402SOL     OW 5104   0.773   4.282   0.388
 1402SOL    HW1 5105   0.748   4.267   0.292
 1402SOL    HW2 5106   0.748   4.376   0.414
 1403SOL     OW 5107   2.921   1.724   1.633
 1403SOL    HW1 5108   2.993   1.771   1.684
 1403SOL    HW2 5109   2.952   1.709   1.539
 1404SOL     OW 5110   5.292   6.955   0.005
 1404SOL    HW1 5111   5.262   6.925   6.940
 1404SOL    HW2 5112   5.324   0.023   7.025
 1405SOL     OW 5113   2.261   3.545   1.052
 1405SOL    HW1 5114   2.176   3.562   1.002
 1405SOL    HW2 5115   2.327   3.500   0.992
 1406SOL     OW 5116   1.527   5.351   1.304
 1406SOL    HW1 5117   1.434   5.321   1.325
 1406SOL    HW2 5118   1.551   5.323   1.211
 1407SOL     OW 5119   0.465   2.252   2.116
 1407SOL    HW1 5120   0.519   2.263   2.033
 1407SOL    HW2 5121   0.487   2.165   2.159
 1408SOL     OW 5122   5.323   1.291   5.751
 1408SOL    HW1 5123   5.414   1.313   5.718
 1408SOL    HW2 5124   5.317   1.193   5.771
 1409SOL     OW 5125   0.485   0.306   5.179
 1409SOL    HW1 5126   0.583   0.299   5.161
 1409SOL    HW2 5127   0.437   0.328   5.095
 1410SOL     OW 5128   2.172   3.499   6.432
 1410SOL    HW1 5129   2.168   3.413   6.381
 1410SOL    HW2 5130   2.227   3.487   6.515
 1411SOL     OW 5131   2.588   6.697   2.033
 1411SOL    HW1 5132   2.573   6.631   2.107
 1411SOL    HW2 5133   2.679   6.681   1.994
 1412SOL     OW 5134   0.261   2.167   1.065
 1412SOL    HW1 5135   0.255   2.247   1.006
 1412SOL    HW2 5136   0.170   2.128   1.077
 1413SOL     OW 5137   1.874   1.233   5.337
 1413SOL    HW1 5138   1.926   1.152   5.312
 1413SOL    HW2 5139   1.838   1.221   5.430
 1414SOL     OW 5140   2.678   1.185   1.573
 1414SOL    HW1 5141   2.633   1.112   1.521
 1414SOL    HW2 5142   2.743   1.144   1.637
 1415SOL     OW 5143   2.374   0.740   4.725
 1415SOL    HW1 5144   2.443   0.812   4.729
 1415SOL    HW2 5145   2.283   0.780   4.740
 1416SOL     OW 5146   4.464   4.645   4.436
 1416SOL    HW1 5147   4.495   4.569   4.494
 1416SOL    HW2 5148   4.413   4.711   4.492
 1417SOL     OW 5149   3.180   1.749   6.841
 1417SOL    HW1 5150   3.223   1.669   6.884
 1417SOL    HW2 5151   3.189   1.741   6.742
 1418SOL     OW 5152   2.915   3.304   3.751
 1418SOL    HW1 5153   2.869   3.303   3.663
 1418SOL    HW2 5154   2.887   3.386   3.802
 1419SOL     OW 5155   2.174   6.391   4.885
 1419SOL    HW1 5156   2.272   6.390   4.906
 1419SOL    HW2 5157   2.150   6.474   4.835
 1420SOL     OW 5158   2.471   0.366   1.602
 1420SOL    HW1 5159   2.416   0.443   1.569
 1420SOL    HW2 5160   2.411   0.289   1.624
 1421SOL     OW 5161   1.843   3.359   3.290
 1421SOL    HW1 5162   1.935   3.370   3.328
 1421SOL    HW2 5163   1.831   3.265   3.258
 1422SOL     OW 5164   2.119   3.574   1.546
 1422SOL    HW1 5165   2.087   3.527   1.628
 1422SOL    HW2 5166   2.183   3.515   1.497
 1423SOL     OW 5167   5.316   6.488   3.300
 1423SOL    HW1 5168   5.264   6.403   3.309
 1423SOL    HW2 5169   5.388   6.491   3.370
 1424SOL     OW 5170   0.024   4.447   5.242
 1424SOL    HW1 5171   0.085   4.377   5.279
 1424SOL    HW2 5172   6.970   4.404   5.201
 1425SOL     OW 5173   0.921   6.592   4.398
 1425SOL    HW1 5174   0.880   6.683   4.398
 1425SOL    HW2 5175   0.998   6.589   4.462
 1426SOL     OW 5176   1.028   1.981   6.216
 1426SOL    HW1 5177   1.007   1.892   6.254
 1426SOL    HW2 5178   0.975   2.052   6.263
 1427SOL     OW 5179   0.035   6.725   3.311
 1427SOL    HW1 5180   0.010   6.683   3.224
 1427SOL    HW2 5181   6.991   6.791   3.338
 1428SOL     OW 5182   5.474   2.578   0.659
 1428SOL    HW1 5183   5.424   2.587   0.573
 1428SOL    HW2 5184   5.410   2.582   0.736
 1429SOL     OW 5185   5.565   1.769   0.428
 1429SOL    HW1 5186   5.540   1.673   0.412
 1429SOL    HW2 5187   5.559   1.789   0.526
 1430SOL     OW 5188   2.108   4.986   3.991
 1430SOL    HW1 5189   2.066   4.911   4.043
 1430SOL    HW2 5190   2.145   4.950   3.906
 1431SOL     OW 5191   2.274   1.823   0.559
 1431SOL    HW1 5192   2.211   1.779   0.495
 1431SOL    HW2 5193   2.327   1.753   0.607
 1432SOL     OW 5194   3.415   1.361   2.861
 1432SOL    HW1 5195   3.488   1.393   2.921
 1432SOL    HW2 5196   3.360   1.440   2.831
 1433SOL     OW 5197   4.190   1.253   4.804
 1433SOL    HW1 5198   4.274   1.249   4.858
 1433SOL    HW2 5199   4.151   1.345   4.810
 1434SOL     OW 5200   0.138   0.762   6.395
 1434SOL    HW1 5201   0.205   0.691   6.417
 1434SOL    HW2 5202   0.123   0.763   6.296
 1435SOL     OW 5203   6.166   0.011   2.321
 1435SOL    HW1 5204   6.157   0.019   2.222
 1435SOL    HW2 5205   6.109   0.080   2.365
 1436SOL     OW 5206   5.717   3.788   0.507
 1436SOL    HW1 5207   5.755   3.829   0.424
 1436SOL    HW2 5208   5.619   3.810   0.513
 1437SOL     OW 5209   2.550   2.489   3.324
 1437SOL    HW1 5210   2.637   2.446   3.299
 1437SOL    HW2 5211   2.526   2.464   3.418
 1438SOL     OW 5212   3.240   6.448   1.294
 1438SOL    HW1 5213   3.229   6.350   1.281
 1438SOL    HW2 5214   3.268   6.490   1.208
 1439SOL     OW 5215   6.724   5.779   1.194
 1439SOL    HW1 5216   6.757   5.865   1.235
 1439SOL    HW2 5217   6.631   5.760   1.227
 1440SOL     OW 5218   2.933   3.714   0.255
 1440SOL    HW1 5219   3.004   3.780   0.281
 1440SOL    HW2 5220   2.938   3.635   0.316
 1441SOL     OW 5221   6.176   0.677   2.733
 1441SOL    HW1 5222   6.172   0.686   2.633
 1441SOL    HW2 5223   6.162   0.766   2.775
 1442SOL     OW 5224   0.067   5.865   6.993
 1442SOL    HW1 5225   0.115   5.842   0.052
 1442SOL    HW2 5226   7.002   5.824   6.994
 1443SOL     OW 5227   0.214   2.768   2.629
 1443SOL    HW1 5228   0.185   2.782   2.534
 1443SOL    HW2 5229   0.202   2.672   2.653
 1444SOL     OW 5230   5.238   6.048   0.661
 1444SOL    HW1 5231   5.190   6.132   0.685
 1444SOL    HW2 5232   5.172   5.973   0.655
 1445SOL     OW 5233   0.787   2.650   2.467
 1445SOL    HW1 5234   0.701   2.602   2.484
 1445SOL    HW2 5235   0.799   2.724   2.533
 1446SOL     OW 5236   5.886   0.942   6.680
 1446SOL    HW1 5237   5.974   0.936   6.632
 1446SOL    HW2 5238   5.876   1.033   6.720
 1447SOL     OW 5239   5.893   6.003   4.329
 1447SOL    HW1 5240   5.936   6.001   4.238
 1447SOL    HW2 5241   5.844   6.089   4.341
 1448SOL     OW 5242   6.676   2.818   5.366
 1448SOL    HW1 5243   6.635   2.785   5.451
 1448SOL    HW2 5244   6.680   2.918   5.368
 1449SOL     OW 5245   1.297   4.052   5.709
 1449SOL    HW1 5246   1.392   4.058   5.678
 1449SOL    HW2 5247   1.235   4.065   5.632
 1450SOL     OW 5248   0.950   1.947   0.290
 1450SOL    HW1 5249   0.861   1.923   0.253
 1450SOL    HW2 5250   0.982   2.033   0.248
 1451SOL     OW 5251   1.463   6.689   2.183
 1451SOL    HW1 5252   1.449   6.610   2.123
 1451SOL    HW2 5253   1.522   6.755   2.138
 1452SOL     OW 5254   4.195   2.686   5.465
 1452SOL    HW1 5255   4.152   2.694   5.555
 1452SOL    HW2 5256   4.128   2.708   5.394
 1453SOL     OW 5257   0.852   4.287   5.979
 1453SOL    HW1 5258   0.907   4.203   5.987
 1453SOL    HW2 5259   0.824   4.317   6.070
 1454SOL     OW 5260   1.200   2.238   1.755
 1454SOL    HW1 5261   1.297   2.249   1.775
 1454SOL    HW2 5262   1.184   2.150   1.710
 1455SOL     OW 5263   1.954   6.927   2.193
 1455SOL    HW1 5264   1.900   6.910   2.275
 1455SOL    HW2 5265   1.934   7.018   2.158
 1456SOL     OW 5266   6.419   0.270   6.136
 1456SOL    HW1 5267   6.347   0.289   6.203
 1456SOL    HW2 5268   6.383   0.278   6.044
 1457SOL     OW 5269   1.040   5.965   0.663
 1457SOL    HW1 5270   1.088   6.037   0.614
 1457SOL    HW2 5271   1.022   5.995   0.757
 1458SOL     OW 5272   5.921   4.779   5.355
 1458SOL    HW1 5273   5.978   4.807   5.278
 1458SOL    HW2 5274   5.882   4.688   5.336
 1459SOL     OW 5275   4.339   6.735   5.663
 1459SOL    HW1 5276   4.402   6.793   5.714
 1459SOL    HW2 5277   4.245   6.763   5.681
 1460SOL     OW 5278   1.723   6.735   5.278
 1460SOL    HW1 5279   1.689   6.822   5.243
 1460SOL    HW2 5280   1.646   6.674   5.297
 1461SOL     OW 5281   6.844   4.148   2.937
 1461SOL    HW1 5282   6.746   4.127   2.933
 1461SOL    HW2 5283   6.885   4.128   2.849
 1462SOL     OW 5284   1.079   1.060   6.679
 1462SOL    HW1 5285   1.129   0.974   6.671
 1462SOL    HW2 5286   1.142   1.137   6.671
 1463SOL     OW 5287   1.213   4.955   5.674
 1463SOL    HW1 5288   1.224   5.029   5.607
 1463SOL    HW2 5289   1.214   4.994   5.767
 1464SOL     OW 5290   6.711   5.162   2.370
 1464SOL    HW1 5291   6.739   5.118   2.286
 1464SOL    HW2 5292   6.628   5.118   2.405
 1465SOL     OW 5293   1.629   1.168   4.091
 1465SOL    HW1 5294   1.683   1.252   4.098
 1465SOL    HW2 5295   1.539   1.189   4.053
 1466SOL     OW 5296   3.830   1.707   1.993
 1466SOL    HW1 5297   3.791   1.657   2.070
 1466SOL    HW2 5298   3.913   1.754   2.023
 1467SOL     OW 5299   1.807   1.265   3.776
 1467SOL    HW1 5300   1.812   1.338   3.707
 1467SOL    HW2 5301   1.894   1.217   3.779
 1468SOL     OW 5302   2.089   5.779   1.952
 1468SOL    HW1 5303   2.083   5.851   2.020
 1468SOL    HW2 5304   2.144   5.811   1.874
 1469SOL     OW 5305   6.727   6.758   2.528
 1469SOL    HW1 5306   6.644   6.778   2.476
 1469SOL    HW2 5307   6.800   6.728   2.466
 1470SOL     OW 5308   0.453   1.568   2.080
 1470SOL    HW1 5309   0.419   1.643   2.022
 1470SOL    HW2 5310   0.375   1.518   2.118
 1471SOL     OW 5311   1.094   0.097   0.137
 1471SOL    HW1 5312   1.106   0.081   0.235
 1471SOL    HW2 5313   1.047   0.184   0.123
 1472SOL     OW 5314   3.274   5.769   0.246
 1472SOL    HW1 5315   3.317   5.692   0.199
 1472SOL    HW2 5316   3.175   5.758   0.246
 1473SOL     OW 5317   2.967   6.093   5.353
 1473SOL    HW1 5318   3.035   6.021   5.367
 1473SOL    HW2 5319   2.890   6.057   5.301
 1474SOL     OW 5320   4.930   4.448   1.201
 1474SOL    HW1 5321   4.897   4.428   1.109
 1474SOL    HW2 5322   4.984   4.532   1.200
 1475SOL     OW 5323   5.415   0.831   0.488
 1475SOL    HW1 5324   5.493   0.786   0.443
 1475SOL    HW2 5325   5.440   0.854   0.582
 1476SOL     OW 5326   2.454   1.531   1.345
 1476SOL    HW1 5327   2.481   1.487   1.430
 1476SOL    HW2 5328   2.445   1.462   1.273
 1477SOL     OW 5329   3.345   6.338   6.694
 1477SOL    HW1 5330   3.250   6.337   6.727
 1477SOL    HW2 5331   3.380   6.244   6.692
 1478SOL     OW 5332   6.196   5.204   5.278
 1478SOL    HW1 5333   6.263   5.267   5.237
 1478SOL    HW2 5334   6.112   5.205   5.224
 1479SOL     OW 5335   3.232   3.474   1.356
 1479SOL    HW1 5336   3.291   3.437   1.428
 1479SOL    HW2 5337   3.289   3.522   1.288
 1480SOL     OW 5338   3.104   0.053   4.360
 1480SOL    HW1 5339   3.107   0.067   4.261
 1480SOL    HW2 5340   3.082   6.984   4.380
 1481SOL     OW 5341   5.842   3.467   6.271
 1481SOL    HW1 5342   5.768   3.528   6.300
 1481SOL    HW2 5343   5.840   3.384   6.326
 1482SOL     OW 5344   4.749   0.493   1.367
 1482SOL    HW1 5345   4.772   0.570   1.308
 1482SOL    HW2 5346   4.790   0.507   1.457
 1483SOL     OW 5347   5.880   2.544   5.073
 1483SOL    HW1 5348   5.796   2.569   5.122
 1483SOL    HW2 5349   5.879   2.586   4.983
 1484SOL     OW 5350   4.446   4.774   3.753
 1484SOL    HW1 5351   4.408   4.746   3.664
 1484SOL    HW2 5352   4.421   4.869   3.771
 1485SOL     OW 5353   5.440   0.448   4.375
 1485SOL    HW1 5354   5.414   0.352   4.382
 1485SOL    HW2 5355   5.513   0.457   4.307
 1486SOL     OW 5356   5.032   0.827   3.146
 1486SOL    HW1 5357   5.059   0.808   3.240
 1486SOL    HW2 5358   5.112   0.849   3.092
 1487SOL     OW 5359   0.131   2.077   6.996
 1487SOL    HW1 5360   0.218   2.030   7.016
 1487SOL    HW2 5361   0.063   2.010   6.966
 1488SOL     OW 5362   4.735   0.253   3.234
 1488SOL    HW1 5363   4.671   0.325   3.209
 1488SOL    HW2 5364   4.783   0.279   3.318
 1489SOL     OW 5365   3.533   4.626   6.146
 1489SOL    HW1 5366   3.477   4.705   6.173
 1489SOL    HW2 5367   3.541   4.625   6.046
 1490SOL     OW 5368   0.194   3.467   0.889
 1490SOL    HW1 5369   0.292   3.473   0.907
 1490SOL    HW2 5370   0.179   3.447   0.792
 1491SOL     OW 5371   6.217   3.903   2.659
 1491SOL    HW1 5372   6.215   3.914   2.759
 1491SOL    HW2 5373   6.308   3.875   2.630
 1492SOL     OW 5374   6.149   6.896   2.548
 1492SOL    HW1 5375   6.066   6.841   2.542
 1492SOL    HW2 5376   6.167   6.940   2.459
 1493SOL     OW 5377   3.781   0.346   6.187
 1493SOL    HW1 5378   3.713   0.414   6.159
 1493SOL    HW2 5379   3.829   0.378   6.269
 1494SOL     OW 5380   6.356   2.696   6.656
 1494SOL    HW1 5381   6.260   2.699   6.685
 1494SOL    HW2 5382   6.376   2.606   6.617
 1495SOL     OW 5383   0.155   3.990   5.380
 1495SOL    HW1 5384   0.153   3.899   5.422
 1495SOL    HW2 5385   0.243   4.034   5.400
 1496SOL     OW 5386   1.386   0.413   0.304
 1496SOL    HW1 5387   1.384   0.372   0.213
 1496SOL    HW2 5388   1.300   0.395   0.351
 1497SOL     OW 5389   5.339   3.000   1.992
 1497SOL    HW1 5390   5.290   2.917   2.020
 1497SOL    HW2 5391   5.400   2.979   1.916
 1498SOL     OW 5392   2.741   4.846   0.910
 1498SOL    HW1 5393   2.726   4.799   0.823
 1498SOL    HW2 5394   2.817   4.911   0.899
 1499SOL     OW 5395   0.125   3.394   5.944
 1499SOL    HW1 5396   0.186   3.451   5.888
 1499SOL    HW2 5397   0.165   3.303   5.955
 1500SOL     OW 5398   0.301   6.923   0.183
 1500SOL    HW1 5399   0.213   6.967   0.202
 1500SOL    HW2 5400   0.290   6.824   0.186
 1501SOL     OW 5401   5.728   1.794   6.299
 1501SOL    HW1 5402   5.793   1.732   6.342
 1501SOL    HW2 5403   5.674   1.841   6.369
 1502SOL     OW 5404   4.974   1.105   7.007
 1502SOL    HW1 5405   5.010   1.032   6.949
 1502SOL    HW2 5406   5.033   1.115   0.062
 1503SOL     OW 5407   1.749   3.441   2.237
 1503SOL    HW1 5408   1.834   3.407   2.197
 1503SOL    HW2 5409   1.765   3.531   2.277
 1504SOL     OW 5410   0.519   0.007   3.483
 1504SOL    HW1 5411   0.568   0.081   3.437
 1504SOL    HW2 5412   0.438   0.044   3.529
 1505SOL     OW 5413   5.094   6.956   5.536
 1505SOL    HW1 5414   5.166   7.014   5.498
 1505SOL    HW2 5415   5.086   6.971   5.634
 1506SOL     OW 5416   1.143   6.705   0.123
 1506SOL    HW1 5417   1.172   6.791   0.081
 1506SOL    HW2 5418   1.043   6.703   0.129
 1507SOL     OW 5419   0.238   2.120   5.708
 1507SOL    HW1 5420   0.238   2.049   5.778
 1507SOL    HW2 5421   0.276   2.205   5.746
 1508SOL     OW 5422   6.097   1.535   1.894
 1508SOL    HW1 5423   6.132   1.444   1.916
 1508SOL    HW2 5424   6.104   1.550   1.796
 1509SOL     OW 5425   4.804   2.031   5.047
 1509SOL    HW1 5426   4.710   2.008   5.072
 1509SOL    HW2 5427   4.834   2.110   5.099
 1510SOL     OW 5428   5.537   6.990   4.709
 1510SOL    HW1 5429   5.508   6.940   4.791
 1510SOL    HW2 5430   5.627   6.958   4.680
 1511SOL     OW 5431   4.087   3.573   3.901
 1511SOL    HW1 5432   4.133   3.528   3.977
 1511SOL    HW2 5433   3.992   3.543   3.896
 1512SOL     OW 5434   6.285   5.678   1.551
 1512SOL    HW1 5435   6.352   5.626   1.603
 1512SOL    HW2 5436   6.304   5.776   1.561
 1513SOL     OW 5437   3.517   0.205   4.541
 1513SOL    HW1 5438   3.588   0.136   4.555
 1513SOL    HW2 5439   3.427   0.164   4.555
 1514SOL     OW 5440   3.895   2.788   6.024
 1514SOL    HW1 5441   3.800   2.807   6.000
 1514SOL    HW2 5442   3.921   2.843   6.103
 1515SOL     OW 5443   5.678   1.289   2.561
 1515SOL    HW1 5444   5.772   1.305   2.590
 1515SOL    HW2 5445   5.616   1.345   2.615
 1516SOL     OW 5446   5.699   5.356   5.742
 1516SOL    HW1 5447   5.782   5.301   5.735
 1516SOL    HW2 5448   5.707   5.436   5.682
 1517SOL     OW 5449   4.207   6.080   2.681
 1517SOL    HW1 5450   4.175   6.089   2.587
 1517SOL    HW2 5451   4.129   6.066   2.743
 1518SOL     OW 5452   6.808   3.026   0.481
 1518SOL    HW1 5453   6.726   2.969   0.491
 1518SOL    HW2 5454   6.841   3.051   0.572
 1519SOL     OW 5455   6.285   4.609   0.820
 1519SOL    HW1 5456   6.264   4.520   0.779
 1519SOL    HW2 5457   6.329   4.595   0.908
 1520SOL     OW 5458   0.573   4.600   1.794
 1520SOL    HW1 5459   0.494   4.589   1.733
 1520SOL    HW2 5460   0.640   4.661   1.752
 1521SOL     OW 5461   2.194   4.583   6.671
 1521SOL    HW1 5462   2.196   4.603   6.768
 1521SOL    HW2 5463   2.257   4.644   6.623
 1522SOL     OW 5464   6.543   5.244   4.935
 1522SOL    HW1 5465   6.511   5.234   4.841
 1522SOL    HW2 5466   6.467   5.273   4.993
 1523SOL     OW 5467   3.591   6.515   6.967
 1523SOL    HW1 5468   3.672   6.545   7.016
 1523SOL    HW2 5469   3.543   6.594   6.930
 1524SOL     OW 5470   2.403   1.882   2.346
 1524SOL    HW1 5471   2.359   1.795   2.367
 1524SOL    HW2 5472   2.501   1.874   2.363
 1525SOL     OW 5473   6.129   2.902   0.482
 1525SOL    HW1 5474   6.067   2.825   0.463
 1525SOL    HW2 5475   6.117   2.972   0.412
 1526SOL     OW 5476   6.885   1.098   0.214
 1526SOL    HW1 5477   6.952   1.084   0.141
 1526SOL    HW2 5478   6.877   1.014   0.268
 1527SOL     OW 5479   3.530   1.073   4.059
 1527SOL    HW1 5480   3.472   1.061   3.979
 1527SOL    HW2 5481   3.626   1.056   4.034
 1528SOL     OW 5482   4.290   4.769   2.113
 1528SOL    HW1 5483   4.338   4.763   2.200
 1528SOL    HW2 5484   4.311   4.857   2.069
 1529SOL     OW 5485   4.700   1.029   6.786
 1529SOL    HW1 5486   4.611   1.029   6.740
 1529SOL    HW2 5487   4.726   1.124   6.807
 1530SOL     OW 5488   3.569   1.275   1.577
 1530SOL    HW1 5489   3.573   1.346   1.647
 1530SOL    HW2 5490   3.608   1.191   1.613
 1531SOL     OW 5491   4.918   0.822   4.801
 1531SOL    HW1 5492   4.968   0.778   4.876
 1531SOL    HW2 5493   4.858   0.755   4.756
 1532SOL     OW 5494   3.896   4.077   5.930
 1532SOL    HW1 5495   3.837   4.030   5.995
 1532SOL    HW2 5496   3.977   4.112   5.977
 1533SOL     OW 5497   5.852   5.796   0.096
 1533SOL    HW1 5498   5.908   5.871   0.131
 1533SOL    HW2 5499   5.872   5.782   7.025
 1534SOL     OW 5500   3.010   6.165   6.140
 1534SOL    HW1 5501   3.059   6.242   6.098
 1534SOL    HW2 5502   3.004   6.179   6.239
 1535SOL     OW 5503   5.030   5.497   4.480
 1535SOL    HW1 5504   5.122   5.521   4.446
 1535SOL    HW2 5505   4.962   5.529   4.414
 1536SOL     OW 5506   4.198   5.132   6.443
 1536SOL    HW1 5507   4.184   5.033   6.450
 1536SOL    HW2 5508   4.126   5.173   6.387
 1537SOL     OW 5509   4.635   6.158   4.217
 1537SOL    HW1 5510   4.663   6.184   4.125
 1537SOL    HW2 5511   4.537   6.174   4.228
 1538SOL     OW 5512   3.261   6.821   6.709
 1538SOL    HW1 5513   3.201   6.852   6.783
 1538SOL    HW2 5514   3.216   6.749   6.657
 1539SOL     OW 5515   4.904   3.714   1.920
 1539SOL    HW1 5516   4.871   3.680   2.008
 1539SOL    HW2 5517   4.891   3.645   1.849
 1540SOL     OW 5518   0.434   6.953   5.522
 1540SOL    HW1 5519   0.388   6.897   5.452
 1540SOL    HW2 5520   0.469   6.893   5.594
 1541SOL     OW 5521   3.293   2.931   4.335
 1541SOL    HW1 5522   3.202   2.947   4.372
 1541SOL    HW2 5523   3.297   2.959   4.239
 1542SOL     OW 5524   6.857   0.266   2.171
 1542SOL    HW1 5525   6.953   0.289   2.159
 1542SOL    HW2 5526   6.819   0.234   2.084
 1543SOL     OW 5527   3.871   4.975   4.974
 1543SOL    HW1 5528   3.822   4.898   4.933
 1543SOL    HW2 5529   3.890   5.044   4.904
 1544SOL     OW 5530   3.569   3.332   3.461
 1544SOL    HW1 5531   3.580   3.241   3.501
 1544SOL    HW2 5532   3.502   3.384   3.515
 1545SOL     OW 5533   4.187   0.695   3.215
 1545SOL    HW1 5534   4.158   0.641   3.294
 1545SOL    HW2 5535   4.169   0.645   3.131
 1546SOL     OW 5536   5.210   6.194   5.285
 1546SOL    HW1 5537   5.249   6.195   5.378
 1546SOL    HW2 5538   5.128   6.250   5.283
 1547SOL     OW 5539   1.612   3.895   1.217
 1547SOL    HW1 5540   1.574   3.896   1.125
 1547SOL    HW2 5541   1.621   3.801   1.248
 1548SOL     OW 5542   5.332   4.011   6.905
 1548SOL    HW1 5543   5.261   4.078   6.925
 1548SOL    HW2 5544   5.419   4.058   6.890
 1549SOL     OW 5545   3.805   1.560   1.527
 1549SOL    HW1 5546   3.789   1.583   1.623
 1549SOL    HW2 5547   3.720   1.524   1.488
 1550SOL     OW 5548   2.878   3.755   1.014
 1550SOL    HW1 5549   2.819   3.687   1.056
 1550SOL    HW2 5550   2.904   3.824   1.082
 1551SOL     OW 5551   2.108   4.563   6.345
 1551SOL    HW1 5552   2.135   4.504   6.269
 1551SOL    HW2 5553   2.190   4.603   6.387
 1552SOL     OW 5554   1.932   5.388   1.161
 1552SOL    HW1 5555   2.010   5.328   1.144
 1552SOL    HW2 5556   1.885   5.407   1.076
 1553SOL     OW 5557   6.044   1.263   6.581
 1553SOL    HW1 5558   6.073   1.183   6.634
 1553SOL    HW2 5559   6.118   1.331   6.580
 1554SOL     OW 5560   3.396   1.753   3.580
 1554SOL    HW1 5561   3.305   1.716   3.594
 1554SOL    HW2 5562   3.399   1.848   3.612
 1555SOL     OW 5563   5.680   3.315   6.913
 1555SOL    HW1 5564   5.615   3.264   6.969
 1555SOL    HW2 5565   5.721   3.253   6.846
 1556SOL     OW 5566   2.026   2.152   6.704
 1556SOL    HW1 5567   2.023   2.062   6.746
 1556SOL    HW2 5568   2.115   2.194   6.720
 1557SOL     OW 5569   1.784   2.600   5.051
 1557SOL    HW1 5570   1.688   2.617   5.076
 1557SOL    HW2 5571   1.842   2.668   5.096
 1558SOL     OW 5572   6.318   0.687   4.742
 1558SOL    HW1 5573   6.416   0.703   4.727
 1558SOL    HW2 5574   6.273   0.775   4.758
 1559SOL     OW 5575   1.745   2.946   6.611
 1559SOL    HW1 5576   1.800   3.004   6.551
 1559SOL    HW2 5577   1.792   2.935   6.699
 1560SOL     OW 5578   0.283   0.527   6.475
 1560SOL    HW1 5579   0.339   0.470   6.416
 1560SOL    HW2 5580   0.198   0.479   6.498
 1561SOL     OW 5581   5.131   6.224   4.044
 1561SOL    HW1 5582   5.031   6.218   4.049
 1561SOL    HW2 5583   5.168   6.231   4.137
 1562SOL     OW 5584   4.820   6.227   2.590
 1562SOL    HW1 5585   4.822   6.145   2.533
 1562SOL    HW2 5586   4.727   6.241   2.623
 1563SOL     OW 5587   2.585   0.289   4.883
 1563SOL    HW1 5588   2.540   0.370   4.920
 1563SOL    HW2 5589   2.642   0.247   4.954
 1564SOL     OW 5590   1.423   1.422   3.334
 1564SOL    HW1 5591   1.330   1.389   3.316
 1564SOL    HW2 5592   1.462   1.370   3.410
 1565SOL     OW 5593   5.115   4.404   3.404
 1565SOL    HW1 5594   5.089   4.500   3.390
 1565SOL    HW2 5595   5.149   4.366   3.318
 1566SOL     OW 5596   5.829   4.368   2.875
 1566SOL    HW1 5597   5.898   4.441   2.877
 1566SOL    HW2 5598   5.801   4.346   2.968
 1567SOL     OW 5599   6.518   6.141   0.791
 1567SOL    HW1 5600   6.493   6.141   0.694
 1567SOL    HW2 5601   6.498   6.232   0.829
 1568SOL     OW 5602   1.538   6.708   6.845
 1568SOL    HW1 5603   1.498   6.786   6.797
 1568SOL    HW2 5604   1.622   6.680   6.799
 1569SOL     OW 5605   4.262   6.298   3.328
 1569SOL    HW1 5606   4.203   6.224   3.362
 1569SOL    HW2 5607   4.205   6.373   3.294
 1570SOL     OW 5608   1.779   0.122   0.721
 1570SOL    HW1 5609   1.694   0.106   0.772
 1570SOL    HW2 5610   1.831   0.036   0.717
 1571SOL     OW 5611   5.666   2.495   0.842
 1571SOL    HW1 5612   5.608   2.537   0.772
 1571SOL    HW2 5613   5.755   2.472   0.802
 1572SOL     OW 5614   0.370   0.332   1.391
 1572SOL    HW1 5615   0.274   0.361   1.387
 1572SOL    HW2 5616   0.375   0.233   1.400
 1573SOL     OW 5617   5.355   1.694   2.105
 1573SOL    HW1 5618   5.324   1.785   2.079
 1573SOL    HW2 5619   5.331   1.628   2.034
 1574SOL     OW 5620   6.156   1.017   2.051
 1574SOL    HW1 5621   6.097   0.946   2.091
 1574SOL    HW2 5622   6.227   1.042   2.116
 1575SOL     OW 5623   3.052   1.422   0.457
 1575SOL    HW1 5624   3.034   1.352   0.387
 1575SOL    HW2 5625   2.994   1.405   0.536
 1576SOL     OW 5626   6.477   6.239   4.150
 1576SOL    HW1 5627   6.471   6.259   4.248
 1576SOL    HW2 5628   6.561   6.278   4.112
 1577SOL     OW 5629   3.124   1.623   4.140
 1577SOL    HW1 5630   3.139   1.633   4.238
 1577SOL    HW2 5631   3.093   1.710   4.102
 1578SOL     OW 5632   6.161   3.497   5.814
 1578SOL    HW1 5633   6.206   3.582   5.788
 1578SOL    HW2 5634   6.219   3.448   5.880
 1579SOL     OW 5635   0.107   1.623   3.397
 1579SOL    HW1 5636   0.135   1.529   3.379
 1579SOL    HW2 5637   0.050   1.625   3.480
 1580SOL     OW 5638   2.844   3.684   5.408
 1580SOL    HW1 5639   2.886   3.701   5.319
 1580SOL    HW2 5640   2.814   3.770   5.448
 1581SOL     OW 5641   0.189   4.470   4.794
 1581SOL    HW1 5642   0.254   4.399   4.768
 1581SOL    HW2 5643   0.206   4.498   4.888
 1582SOL     OW 5644   1.436   6.802   4.133
 1582SOL    HW1 5645   1.357   6.845   4.176
 1582SOL    HW2 5646   1.451   6.711   4.173
 1583SOL     OW 5647   0.887   3.001   3.934
 1583SOL    HW1 5648   0.928   3.090   3.954
 1583SOL    HW2 5649   0.954   2.929   3.954
 1584SOL     OW 5650   1.450   6.522   4.748
 1584SOL    HW1 5651   1.508   6.546   4.826
 1584SOL    HW2 5652   1.380   6.457   4.778
 1585SOL     OW 5653   5.950   1.637   3.386
 1585SOL    HW1 5654   5.942   1.585   3.301
 1585SOL    HW2 5655   5.999   1.722   3.369
 1586SOL     OW 5656   3.615   4.172   1.527
 1586SOL    HW1 5657   3.565   4.094   1.490
 1586SOL    HW2 5658   3.661   4.221   1.453
 1587SOL     OW 5659   3.279   4.857   0.281
 1587SOL    HW1 5660   3.329   4.778   0.318
 1587SOL    HW2 5661   3.332   4.898   0.206
 1588SOL     OW 5662   4.664   1.514   3.162
 1588SOL    HW1 5663   4.733   1.496   3.093
 1588SOL    HW2 5664   4.644   1.612   3.166
 1589SOL     OW 5665   5.796   4.205   3.349
 1589SOL    HW1 5666   5.730   4.181   3.419
 1589SOL    HW2 5667   5.855   4.127   3.329
 1590SOL     OW 5668   2.357   6.860   5.910
 1590SOL    HW1 5669   2.277   6.917   5.892
 1590SOL    HW2 5670   2.424   6.913   5.962
 1591SOL     OW 5671   1.051   4.900   3.027
 1591SOL    HW1 5672   1.017   4.806   3.035
 1591SOL    HW2 5673   1.111   4.907   2.947
 1592SOL     OW 5674   2.825   4.379   1.382
 1592SOL    HW1 5675   2.919   4.413   1.384
 1592SOL    HW2 5676   2.781   4.395   1.470
 1593SOL     OW 5677   1.243   6.659   3.555
 1593SOL    HW1 5678   1.174   6.648   3.627
 1593SOL    HW2 5679   1.207   6.719   3.484
 1594SOL     OW 5680   0.511   5.040   2.837
 1594SOL    HW1 5681   0.532   5.010   2.930
 1594SOL    HW2 5682   0.413   5.029   2.819
 1595SOL     OW 5683   0.740   4.655   6.263
 1595SOL    HW1 5684   0.690   4.691   6.342
 1595SOL    HW2 5685   0.766   4.731   6.202
 1596SOL     OW 5686   0.918   2.799   5.737
 1596SOL    HW1 5687   0.916   2.703   5.764
 1596SOL    HW2 5688   0.829   2.826   5.701
 1597SOL     OW 5689   3.160   5.370   0.922
 1597SOL    HW1 5690   3.097   5.354   0.998
 1597SOL    HW2 5691   3.245   5.410   0.956
 1598SOL     OW 5692   0.712   4.255   0.125
 1598SOL    HW1 5693   0.789   4.308   0.090
 1598SOL    HW2 5694   0.710   4.165   0.082
 1599SOL     OW 5695   4.828   3.838   5.942
 1599SOL    HW1 5696   4.902   3.887   5.988
 1599SOL    HW2 5697   4.809   3.753   5.990
 1600SOL     OW 5698   5.368   1.966   5.050
 1600SOL    HW1 5699   5.392   1.871   5.066
 1600SOL    HW2 5700   5.270   1.979   5.069
 1601SOL     OW 5701   0.282   5.474   4.648
 1601SOL    HW1 5702   0.216   5.400   4.657
 1601SOL    HW2 5703   0.279   5.510   4.555
 1602SOL     OW 5704   2.054   5.534   4.074
 1602SOL    HW1 5705   2.127   5.525   4.141
 1602SOL    HW2 5706   1.967   5.505   4.115
 1603SOL     OW 5707   0.792   6.174   2.002
 1603SOL    HW1 5708   0.717   6.151   2.065
 1603SOL    HW2 5709   0.860   6.229   2.051
 1604SOL     OW 5710   6.039   4.566   0.003
 1604SOL    HW1 5711   6.055   4.623   0.083
 1604SOL    HW2 5712   5.965   4.606   6.974
 1605SOL     OW 5713   6.293   0.152   1.922
 1605SOL    HW1 5714   6.382   0.109   1.907
 1605SOL    HW2 5715   6.305   0.236   1.974
 1606SOL     OW 5716   4.176   0.679   5.320
 1606SOL    HW1 5717   4.078   0.684   5.305
 1606SOL    HW2 5718   4.222   0.748   5.264
 1607SOL     OW 5719   4.956   2.587   0.756
 1607SOL    HW1 5720   4.954   2.659   0.826
 1607SOL    HW2 5721   4.886   2.606   0.687
 1608SOL     OW 5722   1.380   0.422   5.490
 1608SOL    HW1 5723   1.305   0.459   5.437
 1608SOL    HW2 5724   1.412   0.491   5.555
 1609SOL     OW 5725   4.374   0.839   6.774
 1609SOL    HW1 5726   4.282   0.850   6.812
 1609SOL    HW2 5727   4.406   0.927   6.738
 1610SOL     OW 5728   6.066   3.793   5.384
 1610SOL    HW1 5729   6.055   3.869   5.320
 1610SOL    HW2 5730   6.155   3.750   5.369
 1611SOL     OW 5731   3.257   3.466   2.048
 1611SOL    HW1 5732   3.245   3.493   2.144
 1611SOL    HW2 5733   3.200   3.524   1.990
 1612SOL     OW 5734   3.137   1.179   5.488
 1612SOL    HW1 5735   3.101   1.086   5.475
 1612SOL    HW2 5736   3.235   1.174   5.505
 1613SOL     OW 5737   1.818   6.046   1.292
 1613SOL    HW1 5738   1.915   6.024   1.284
 1613SOL    HW2 5739   1.805   6.145   1.290
 1614SOL     OW 5740   6.651   4.342   0.546
 1614SOL    HW1 5741   6.730   4.403   0.552
 1614SOL    HW2 5742   6.677   4.251   0.579
 1615SOL     OW 5743   6.235   5.058   1.040
 1615SOL    HW1 5744   6.211   5.140   1.092
 1615SOL    HW2 5745   6.218   5.074   0.943
 1616SOL     OW 5746   4.489   2.422   6.006
 1616SOL    HW1 5747   4.580   2.381   6.017
 1616SOL    HW2 5748   4.430   2.359   5.956
 1617SOL     OW 5749   5.531   6.963   1.147
 1617SOL    HW1 5750   5.516   0.034   1.161
 1617SOL    HW2 5751   5.479   6.931   1.068
 1618SOL     OW 5752   0.513   4.015   1.151
 1618SOL    HW1 5753   0.544   3.944   1.088
 1618SOL    HW2 5754   0.591   4.056   1.197
 1619SOL     OW 5755   1.701   2.036   4.696
 1619SOL    HW1 5756   1.675   2.125   4.657
 1619SOL    HW2 5757   1.651   2.021   4.781
 1620SOL     OW 5758   1.931   5.761   0.982
 1620SOL    HW1 5759   1.983   5.757   1.067
 1620SOL    HW2 5760   1.848   5.816   0.997
 1621SOL     OW 5761   0.410   0.742   0.480
 1621SOL    HW1 5762   0.493   0.778   0.438
 1621SOL    HW2 5763   0.339   0.732   0.410
 1622SOL     OW 5764   1.540   2.034   4.447
 1622SOL    HW1 5765   1.594   1.969   4.501
 1622SOL    HW2 5766   1.602   2.091   4.393
 1623SOL     OW 5767   2.596   3.086   5.916
 1623SOL    HW1 5768   2.567   3.089   5.820
 1623SOL    HW2 5769   2.604   3.179   5.951
 1624SOL     OW 5770   3.249   1.023   5.886
 1624SOL    HW1 5771   3.328   1.000   5.829
 1624SOL    HW2 5772   3.165   1.003   5.836
 1625SOL     OW 5773   1.311   5.409   2.419
 1625SOL    HW1 5774   1.392   5.456   2.382
 1625SOL    HW2 5775   1.289   5.330   2.362
 1626SOL     OW 5776   2.709   1.689   6.638
 1626SOL    HW1 5777   2.669   1.773   6.602
 1626SOL    HW2 5778   2.784   1.711   6.700
 1627SOL     OW 5779   6.903   2.716   4.521
 1627SOL    HW1 5780   6.803   2.713   4.519
 1627SOL    HW2 5781   6.940   2.666   4.443
 1628SOL     OW 5782   4.429   5.037   6.916
 1628SOL    HW1 5783   4.476   5.080   6.993
 1628SOL    HW2 5784   4.344   5.086   6.898
 1629SOL     OW 5785   3.150   2.197   4.125
 1629SOL    HW1 5786   3.143   2.190   4.026
 1629SOL    HW2 5787   3.242   2.170   4.154
 1630SOL     OW 5788   0.767   6.010   5.824
 1630SOL    HW1 5789   0.841   6.075   5.843
 1630SOL    HW2 5790   0.697   6.019   5.895
 1631SOL     OW 5791   6.693   0.789   6.322
 1631SOL    HW1 5792   6.757   0.713   6.336
 1631SOL    HW2 5793   6.745   0.873   6.305
 1632SOL     OW 5794   0.086   1.626   0.022
 1632SOL    HW1 5795   0.139   1.683   6.985
 1632SOL    HW2 5796   7.022   1.607   7.008
 1633SOL     OW 5797   5.127   2.200   3.885
 1633SOL    HW1 5798   5.056   2.203   3.815
 1633SOL    HW2 5799   5.183   2.283   3.878
 1634SOL     OW 5800   4.335   5.445   5.310
 1634SOL    HW1 5801   4.421   5.487   5.337
 1634SOL    HW2 5802   4.280   5.425   5.391
 1635SOL     OW 5803   6.545   4.926   4.912
 1635SOL    HW1 5804   6.599   4.847   4.882
 1635SOL    HW2 5805   6.601   4.985   4.969
 1636SOL     OW 5806   2.192   4.138   1.251
 1636SOL    HW1 5807   2.188   4.038   1.241
 1636SOL    HW2 5808   2.102   4.177   1.233
 1637SOL     OW 5809   6.233   1.325   2.780
 1637SOL    HW1 5810   6.240   1.353   2.684
 1637SOL    HW2 5811   6.310   1.266   2.804
 1638SOL     OW 5812   1.309   4.288   3.994
 1638SOL    HW1 5813   1.283   4.349   4.069
 1638SOL    HW2 5814   1.390   4.235   4.020
 1639SOL     OW 5815   4.833   6.488   2.610
 1639SOL    HW1 5816   4.842   6.389   2.624
 1639SOL    HW2 5817   4.759   6.505   2.545
 1640SOL     OW 5818   5.874   1.846   0.882
 1640SOL    HW1 5819   5.862   1.946   0.889
 1640SOL    HW2 5820   5.854   1.805   0.971
 1641SOL     OW 5821   5.746   2.696   3.803
 1641SOL    HW1 5822   5.736   2.646   3.889
 1641SOL    HW2 5823   5.732   2.634   3.726
 1642SOL     OW 5824   6.771   3.363   0.493
 1642SOL    HW1 5825   6.774   3.264   0.501
 1642SOL    HW2 5826   6.810   3.405   0.576
 1643SOL     OW 5827   2.987   6.236   4.052
 1643SOL    HW1 5828   3.047   6.248   3.973
 1643SOL    HW2 5829   2.963   6.325   4.090
 1644SOL     OW 5830   1.786   2.324   0.914
 1644SOL    HW1 5831   1.843   2.375   0.849
 1644SOL    HW2 5832   1.784   2.228   0.887
 1645SOL     OW 5833   3.135   6.266   5.141
 1645SOL    HW1 5834   3.168   6.280   5.047
 1645SOL    HW2 5835   3.075   6.186   5.143
 1646SOL     OW 5836   2.736   5.222   1.235
 1646SOL    HW1 5837   2.698   5.211   1.327
 1646SOL    HW2 5838   2.666   5.203   1.167
 1647SOL     OW 5839   5.478   2.682   4.257
 1647SOL    HW1 5840   5.565   2.713   4.220
 1647SOL    HW2 5841   5.489   2.592   4.299
 1648SOL     OW 5842   6.030   6.315   1.693
 1648SOL    HW1 5843   6.072   6.263   1.767
 1648SOL    HW2 5844   5.949   6.267   1.660
 1649SOL     OW 5845   3.375   0.331   3.254
 1649SOL    HW1 5846   3.321   0.339   3.338
 1649SOL    HW2 5847   3.441   0.407   3.249
 1650SOL     OW 5848   2.922   6.784   4.088
 1650SOL    HW1 5849   2.872   6.698   4.082
 1650SOL    HW2 5850   3.017   6.770   4.060
 1651SOL     OW 5851   0.833   0.793   0.962
 1651SOL    HW1 5852   0.802   0.747   1.045
 1651SOL    HW2 5853   0.932   0.805   0.965
 1652SOL     OW 5854   1.923   2.429   1.644
 1652SOL    HW1 5855   1.970   2.448   1.558
 1652SOL    HW2 5856   1.942   2.335   1.672
 1653SOL     OW 5857   0.850   6.093   1.552
 1653SOL    HW1 5858   0.935   6.048   1.578
 1653SOL    HW2 5859   0.832   6.168   1.616
 1654SOL     OW 5860   0.022   3.175   1.978
 1654SOL    HW1 5861   0.122   3.181   1.983
 1654SOL    HW2 5862   7.020   3.159   1.884
 1655SOL     OW 5863   5.438   3.889   6.064
 1655SOL    HW1 5864   5.517   3.858   6.010
 1655SOL    HW2 5865   5.399   3.970   6.020
 1656SOL     OW 5866   1.507   4.463   3.255
 1656SOL    HW1 5867   1.524   4.364   3.263
 1656SOL    HW2 5868   1.581   4.513   3.299
 1657SOL     OW 5869   7.014   1.507   4.570
 1657SOL    HW1 5870   7.011   1.577   4.499
 1657SOL    HW2 5871   6.924   1.500   4.614
 1658SOL     OW 5872   0.037   0.055   3.058
 1658SOL    HW1 5873   6.999   0.108   3.003
 1658SOL    HW2 5874   7.013   0.006   3.130
 1659SOL     OW 5875   4.258   2.009   6.203
 1659SOL    HW1 5876   4.288   2.103   6.218
 1659SOL    HW2 5877   4.158   2.005   6.205
 1660SOL     OW 5878   1.417   5.445   4.305
 1660SOL    HW1 5879   1.465   5.378   4.362
 1660SOL    HW2 5880   1.339   5.400   4.261
 1661SOL     OW 5881   3.573   1.784   1.846
 1661SOL    HW1 5882   3.634   1.862   1.830
 1661SOL    HW2 5883   3.593   1.712   1.779
 1662SOL     OW 5884   6.184   0.835   3.673
 1662SOL    HW1 5885   6.234   0.897   3.612
 1662SOL    HW2 5886   6.233   0.828   3.760
 1663SOL     OW 5887   2.250   1.040   3.212
 1663SOL    HW1 5888   2.172   1.060   3.271
 1663SOL    HW2 5889   2.327   1.010   3.267
 1664SOL     OW 5890   1.404   0.482   3.938
 1664SOL    HW1 5891   1.340   0.421   3.984
 1664SOL    HW2 5892   1.482   0.500   3.998
 1665SOL     OW 5893   6.966   1.777   2.958
 1665SOL    HW1 5894   6.961   1.735   2.868
 1665SOL    HW2 5895   7.016   1.717   3.020
 1666SOL     OW 5896   6.131   2.961   0.796
 1666SOL    HW1 5897   6.200   3.031   0.779
 1666SOL    HW2 5898   6.116   2.908   0.713
 1667SOL     OW 5899   5.473   6.338   0.532
 1667SOL    HW1 5900   5.516   6.427   0.519
 1667SOL    HW2 5901   5.475   6.314   0.629
 1668SOL     OW 5902   4.801   6.334   5.370
 1668SOL    HW1 5903   4.735   6.392   5.322
 1668SOL    HW2 5904   4.756   6.287   5.445
 1669SOL     OW 5905   6.159   6.796   0.456
 1669SOL    HW1 5906   6.171   6.895   0.452
 1669SOL    HW2 5907   6.151   6.767   0.552
 1670SOL     OW 5908   0.247   5.539   6.179
 1670SOL    HW1 5909   0.271   5.537   6.082
 1670SOL    HW2 5910   0.321   5.582   6.231
 1671SOL     OW 5911   4.212   2.122   1.137
 1671SOL    HW1 5912   4.247   2.186   1.205
 1671SOL    HW2 5913   4.230   2.028   1.166
 1672SOL     OW 5914   1.824   3.942   2.957
 1672SOL    HW1 5915   1.849   4.037   2.978
 1672SOL    HW2 5916   1.900   3.881   2.981
 1673SOL     OW 5917   0.691   2.364   4.468
 1673SOL    HW1 5918   0.605   2.385   4.514
 1673SOL    HW2 5919   0.717   2.441   4.410
 1674SOL     OW 5920   1.685   3.655   1.674
 1674SOL    HW1 5921   1.752   3.686   1.607
 1674SOL    HW2 5922   1.664   3.559   1.658
 1675SOL     OW 5923   4.103   0.124   6.288
 1675SOL    HW1 5924   4.192   0.160   6.317
 1675SOL    HW2 5925   4.117   0.049   6.224
 1676SOL     OW 5926   3.112   1.236   2.601
 1676SOL    HW1 5927   3.095   1.286   2.686
 1676SOL    HW2 5928   3.207   1.207   2.597
 1677SOL     OW 5929   4.857   2.475   5.859
 1677SOL    HW1 5930   4.870   2.562   5.812
 1677SOL    HW2 5931   4.778   2.427   5.819
 1678SOL     OW 5932   5.404   4.806   4.399
 1678SOL    HW1 5933   5.322   4.837   4.447
 1678SOL    HW2 5934   5.423   4.868   4.323
 1679SOL     OW 5935   1.878   3.649   5.522
 1679SOL    HW1 5936   1.971   3.661   5.557
 1679SOL    HW2 5937   1.880   3.654   5.422
 1680SOL     OW 5938   1.003   1.732   4.149
 1680SOL    HW1 5939   1.083   1.682   4.117
 1680SOL    HW2 5940   1.024   1.776   4.236
 1681SOL     OW 5941   6.806   5.783   0.938
 1681SOL    HW1 5942   6.774   5.759   1.029
 1681SOL    HW2 5943   6.840   5.701   0.892
 1682SOL     OW 5944   0.068   3.115   4.764
 1682SOL    HW1 5945   0.022   3.185   4.820
 1682SOL    HW2 5946   7.025   3.066   4.710
 1683SOL     OW 5947   4.371   5.200   1.163
 1683SOL    HW1 5948   4.284   5.151   1.161
 1683SOL    HW2 5949   4.439   5.150   1.109
 1684SOL     OW 5950   1.236   6.645   3.151
 1684SOL    HW1 5951   1.169   6.663   3.223
 1684SOL    HW2 5952   1.220   6.708   3.075
 1685SOL     OW 5953   2.141   1.322   6.639
 1685SOL    HW1 5954   2.240   1.336   6.626
 1685SOL    HW2 5955   2.126   1.278   6.727
 1686SOL     OW 5956   2.214   5.492   5.792
 1686SOL    HW1 5957   2.267   5.458   5.714
 1686SOL    HW2 5958   2.263   5.568   5.835
 1687SOL     OW 5959   1.778   3.212   1.486
 1687SOL    HW1 5960   1.767   3.236   1.389
 1687SOL    HW2 5961   1.872   3.181   1.502
 1688SOL     OW 5962   1.944   2.078   3.841
 1688SOL    HW1 5963   1.916   2.138   3.766
 1688SOL    HW2 5964   1.965   1.987   3.804
 1689SOL     OW 5965   3.390   0.998   2.004
 1689SOL    HW1 5966   3.436   0.913   2.027
 1689SOL    HW2 5967   3.445   1.075   2.035
 1690SOL     OW 5968   1.296   2.820   2.818
 1690SOL    HW1 5969   1.364   2.893   2.825
 1690SOL    HW2 5970   1.342   2.731   2.819
 1691SOL     OW 5971   5.085   4.097   3.134
 1691SOL    HW1 5972   5.106   4.005   3.100
 1691SOL    HW2 5973   4.987   4.108   3.144
 1692SOL     OW 5974   6.955   6.811   1.256
 1692SOL    HW1 5975   6.920   6.732   1.307
 1692SOL    HW2 5976   0.017   6.838   1.293
 1693SOL     OW 5977   1.985   2.586   2.668
 1693SOL    HW1 5978   2.003   2.490   2.644
 1693SOL    HW2 5979   1.969   2.639   2.585
 1694SOL     OW 5980   4.248   6.559   4.275
 1694SOL    HW1 5981   4.341   6.577   4.242
 1694SOL    HW2 5982   4.251   6.489   4.346
 1695SOL     OW 5983   2.579   0.907   4.708
 1695SOL    HW1 5984   2.592   1.005   4.698
 1695SOL    HW2 5985   2.666   0.860   4.692
 1696SOL     OW 5986   5.270   5.475   0.681
 1696SOL    HW1 5987   5.262   5.484   0.582
 1696SOL    HW2 5988   5.255   5.379   0.707
 1697SOL     OW 5989   6.844   6.512   1.367
 1697SOL    HW1 5990   6.897   6.478   1.289
 1697SOL    HW2 5991   6.849   6.447   1.442
 1698SOL     OW 5992   4.596   1.620   1.398
 1698SOL    HW1 5993   4.609   1.713   1.433
 1698SOL    HW2 5994   4.498   1.600   1.391
 1699SOL     OW 5995   2.816   1.788   2.106
 1699SOL    HW1 5996   2.892   1.786   2.171
 1699SOL    HW2 5997   2.816   1.704   2.053
 1700SOL     OW 5998   6.212   2.358   3.497
 1700SOL    HW1 5999   6.304   2.340   3.531
 1700SOL    HW2 6000   6.186   2.288   3.431
 1701SOL     OW 6001   5.151   3.202   5.118
 1701SOL    HW1 6002   5.247   3.217   5.143
 1701SOL    HW2 6003   5.108   3.289   5.095
 1702SOL     OW 6004   6.583   3.550   0.433
 1702SOL    HW1 6005   6.667   3.496   0.446
 1702SOL    HW2 6006   6.567   3.606   0.514
 1703SOL     OW 6007   3.396   4.080   3.163
 1703SOL    HW1 6008   3.427   4.089   3.258
 1703SOL    HW2 6009   3.316   4.021   3.159
 1704SOL     OW 6010   0.441   1.456   1.129
 1704SOL    HW1 6011   0.409   1.434   1.037
 1704SOL    HW2 6012   0.538   1.432   1.137
 1705SOL     OW 6013   3.409   2.054   2.004
 1705SOL    HW1 6014   3.495   2.105   2.001
 1705SOL    HW2 6015   3.380   2.044   2.098
 1706SOL     OW 6016   4.131   6.573   1.110
 1706SOL    HW1 6017   4.171   6.639   1.174
 1706SOL    HW2 6018   4.199   6.547   1.042
 1707SOL     OW 6019   4.430   1.562   2.090
 1707SOL    HW1 6020   4.495   1.502   2.136
 1707SOL    HW2 6021   4.382   1.511   2.018
 1708SOL     OW 6022   5.848   5.975   2.833
 1708SOL    HW1 6023   5.847   5.983   2.734
 1708SOL    HW2 6024   5.767   5.924   2.864
 1709SOL     OW 6025   2.782   6.371   1.957
 1709SOL    HW1 6026   2.876   6.384   1.927
 1709SOL    HW2 6027   2.758   6.274   1.954
 1710SOL     OW 6028   6.086   4.404   3.773
 1710SOL    HW1 6029   6.177   4.362   3.763
 1710SOL    HW2 6030   6.055   4.436   3.684
 1711SOL     OW 6031   1.502   4.353   5.065
 1711SOL    HW1 6032   1.408   4.381   5.046
 1711SOL    HW2 6033   1.545   4.421   5.124
 1712SOL     OW 6034   0.615   3.207   6.460
 1712SOL    HW1 6035   0.535   3.240   6.410
 1712SOL    HW2 6036   0.692   3.198   6.397
 1713SOL     OW 6037   2.687   2.072   1.085
 1713SOL    HW1 6038   2.773   2.113   1.116
 1713SOL    HW2 6039   2.632   2.142   1.039
 1714SOL     OW 6040   4.065   1.795   6.342
 1714SOL    HW1 6041   4.026   1.709   6.376
 1714SOL    HW2 6042   4.006   1.832   6.271
 1715SOL     OW 6043   6.761   3.413   2.787
 1715SOL    HW1 6044   6.847   3.462   2.774
 1715SOL    HW2 6045   6.778   3.315   2.791
 1716SOL     OW 6046   5.560   6.415   1.516
 1716SOL    HW1 6047   5.522   6.499   1.477
 1716SOL    HW2 6048   5.659   6.424   1.523
 1717SOL     OW 6049   2.426   6.305   6.468
 1717SOL    HW1 6050   2.426   6.385   6.408
 1717SOL    HW2 6051   2.397   6.225   6.416
 1718SOL     OW 6052   2.063   1.977   0.713
 1718SOL    HW1 6053   2.093   2.069   0.739
 1718SOL    HW2 6054   2.135   1.932   0.660
 1719SOL     OW 6055   2.976   4.137   1.493
 1719SOL    HW1 6056   2.890   4.189   1.493
 1719SOL    HW2 6057   2.986   4.090   1.405
 1720SOL     OW 6058   6.300   1.789   1.551
 1720SOL    HW1 6059   6.382   1.767   1.604
 1720SOL    HW2 6060   6.229   1.720   1.568
 1721SOL     OW 6061   1.200   6.701   2.291
 1721SOL    HW1 6062   1.288   6.693   2.244
 1721SOL    HW2 6063   1.200   6.643   2.372
 1722SOL     OW 6064   4.883   1.161   3.568
 1722SOL    HW1 6065   4.859   1.173   3.471
 1722SOL    HW2 6066   4.913   1.249   3.606
 1723SOL     OW 6067   6.713   2.235   3.511
 1723SOL    HW1 6068   6.738   2.229   3.414
 1723SOL    HW2 6069   6.656   2.157   3.535
 1724SOL     OW 6070   5.895   1.227   0.926
 1724SOL    HW1 6071   5.984   1.185   0.905
 1724SOL    HW2 6072   5.838   1.227   0.843
 1725SOL     OW 6073   2.985   4.168   0.289
 1725SOL    HW1 6074   2.907   4.179   0.350
 1725SOL    HW2 6075   2.963   4.205   0.199
 1726SOL     OW 6076   0.153   4.543   5.038
 1726SOL    HW1 6077   0.235   4.588   5.073
 1726SOL    HW2 6078   0.100   4.505   5.114
 1727SOL     OW 6079   3.619   2.933   4.327
 1727SOL    HW1 6080   3.519   2.933   4.329
 1727SOL    HW2 6081   3.654   2.893   4.412
 1728SOL     OW 6082   5.191   4.892   4.547
 1728SOL    HW1 6083   5.150   4.942   4.471
 1728SOL    HW2 6084   5.119   4.867   4.613
 1729SOL     OW 6085   2.014   4.136   3.753
 1729SOL    HW1 6086   2.015   4.036   3.749
 1729SOL    HW2 6087   2.106   4.171   3.736
 1730SOL     OW 6088   6.588   0.751   4.699
 1730SOL    HW1 6089   6.584   0.848   4.723
 1730SOL    HW2 6090   6.684   0.723   4.689
 1731SOL     OW 6091   0.938   4.916   2.305
 1731SOL    HW1 6092   0.855   4.921   2.248
 1731SOL    HW2 6093   1.017   4.899   2.247
 1732SOL     OW 6094   2.414   4.426   6.023
 1732SOL    HW1 6095   2.471   4.476   6.087
 1732SOL    HW2 6096   2.319   4.456   6.031
 1733SOL     OW 6097   1.488   3.642   2.462
 1733SOL    HW1 6098   1.451   3.733   2.445
 1733SOL    HW2 6099   1.461   3.581   2.387
 1734SOL     OW 6100   5.026   3.175   1.777
 1734SOL    HW1 6101   4.998   3.086   1.811
 1734SOL    HW2 6102   4.946   3.236   1.772
 1735SOL     OW 6103   5.676   5.640   1.666
 1735SOL    HW1 6104   5.659   5.737   1.647
 1735SOL    HW2 6105   5.595   5.601   1.709
 1736SOL     OW 6106   4.804   1.585   0.098
 1736SOL    HW1 6107   4.768   1.492   0.096
 1736SOL    HW2 6108   4.894   1.587   0.055
 1737SOL     OW 6109   2.730   0.665   4.055
 1737SOL    HW1 6110   2.789   0.745   4.065
 1737SOL    HW2 6111   2.777   0.594   4.004
 1738SOL     OW 6112   2.687   2.419   3.764
 1738SOL    HW1 6113   2.758   2.365   3.809
 1738SOL    HW2 6114   2.626   2.459   3.832
 1739SOL     OW 6115   4.755   2.737   5.470
 1739SOL    HW1 6116   4.697   2.759   5.392
 1739SOL    HW2 6117   4.802   2.651   5.454
 1740SOL     OW 6118   6.880   1.509   6.942
 1740SOL    HW1 6119   6.793   1.556   6.928
 1740SOL    HW2 6120   6.889   1.435   6.876
 1741SOL     OW 6121   2.351   1.139   2.265
 1741SOL    HW1 6122   2.380   1.045   2.283
 1741SOL    HW2 6123   2.384   1.167   2.175
 1742SOL     OW 6124   3.853   5.946   5.946
 1742SOL    HW1 6125   3.775   5.888   5.969
 1742SOL    HW2 6126   3.841   6.035   5.989
 1743SOL     OW 6127   1.927   1.293   2.184
 1743SOL    HW1 6128   1.964   1.206   2.217
 1743SOL    HW2 6129   1.949   1.304   2.087
 1744SOL     OW 6130   0.861   6.643   1.786
 1744SOL    HW1 6131   0.884   6.681   1.696
 1744SOL    HW2 6132   0.906   6.696   1.857
 1745SOL     OW 6133   6.966   1.243   4.429
 1745SOL    HW1 6134   6.967   1.153   4.384
 1745SOL    HW2 6135   0.033   1.271   4.449
 1746SOL     OW 6136   2.157   5.968   5.716
 1746SOL    HW1 6137   2.072   5.917   5.716
 1746SOL    HW2 6138   2.190   5.979   5.810
 1747SOL     OW 6139   5.005   6.720   2.557
 1747SOL    HW1 6140   5.093   6.693   2.520
 1747SOL    HW2 6141   4.952   6.638   2.581
 1748SOL     OW 6142   6.960   0.891   3.572
 1748SOL    HW1 6143   0.021   0.942   3.574
 1748SOL    HW2 6144   6.936   0.863   3.664
 1749SOL     OW 6145   3.296   6.441   5.295
 1749SOL    HW1 6146   3.262   6.535   5.305
 1749SOL    HW2 6147   3.236   6.390   5.234
 1750SOL     OW 6148   5.621   0.845   3.561
 1750SOL    HW1 6149   5.570   0.915   3.512
 1750SOL    HW2 6150   5.568   0.817   3.642
 1751SOL     OW 6151   3.053   5.292   4.794
 1751SOL    HW1 6152   3.044   5.384   4.755
 1751SOL    HW2 6153   2.975   5.236   4.766
 1752SOL     OW 6154   6.325   2.537   1.990
 1752SOL    HW1 6155   6.245   2.531   1.931
 1752SOL    HW2 6156   6.403   2.495   1.945
 1753SOL     OW 6157   0.627   1.319   0.418
 1753SOL    HW1 6158   0.616   1.220   0.406
 1753SOL    HW2 6159   0.568   1.367   0.353
 1754SOL     OW 6160   3.725   3.358   1.180
 1754SOL    HW1 6161   3.791   3.421   1.219
 1754SOL    HW2 6162   3.632   3.387   1.204
 1755SOL     OW 6163   5.847   5.126   2.156
 1755SOL    HW1 6164   5.901   5.079   2.087
 1755SOL    HW2 6165   5.844   5.071   2.239
 1756SOL     OW 6166   4.566   4.529   5.886
 1756SOL    HW1 6167   4.501   4.566   5.818
 1756SOL    HW2 6168   4.623   4.460   5.843
 1757SOL     OW 6169   2.222   6.367   4.460
 1757SOL    HW1 6170   2.140   6.408   4.419
 1757SOL    HW2 6171   2.203   6.272   4.484
 1758SOL     OW 6172   2.971   0.366   3.444
 1758SOL    HW1 6173   2.898   0.434   3.430
 1758SOL    HW2 6174   2.987   0.317   3.358
 1759SOL     OW 6175   1.197   5.099   6.668
 1759SOL    HW1 6176   1.110   5.127   6.627
 1759SOL    HW2 6177   1.198   5.000   6.682
 1760SOL     OW 6178   6.169   1.259   1.894
 1760SOL    HW1 6179   6.161   1.163   1.919
 1760SOL    HW2 6180   6.245   1.300   1.944
 1761SOL     OW 6181   6.917   6.840   0.414
 1761SOL    HW1 6182   6.975   6.760   0.400
 1761SOL    HW2 6183   6.883   6.840   0.508
 1762SOL     OW 6184   6.422   1.243   5.165
 1762SOL    HW1 6185   6.494   1.255   5.233
 1762SOL    HW2 6186   6.348   1.308   5.183
 1763SOL     OW 6187   1.828   3.729   4.538
 1763SOL    HW1 6188   1.913   3.759   4.580
 1763SOL    HW2 6189   1.829   3.752   4.441
 1764SOL     OW 6190   1.661   3.710   3.148
 1764SOL    HW1 6191   1.621   3.636   3.095
 1764SOL    HW2 6192   1.662   3.794   3.093
 1765SOL     OW 6193   3.686   2.083   6.870
 1765SOL    HW1 6194   3.720   2.014   6.805
 1765SOL    HW2 6195   3.759   2.149   6.888
 1766SOL     OW 6196   4.993   2.980   4.497
 1766SOL    HW1 6197   5.055   3.056   4.514
 1766SOL    HW2 6198   5.045   2.900   4.466
 1767SOL     OW 6199   5.721   3.987   2.946
 1767SOL    HW1 6200   5.713   4.016   2.851
 1767SOL    HW2 6201   5.727   3.888   2.950
 1768SOL     OW 6202   3.892   1.193   4.720
 1768SOL    HW1 6203   3.986   1.209   4.691
 1768SOL    HW2 6204   3.837   1.276   4.704
 1769SOL     OW 6205   4.528   2.429   4.792
 1769SOL    HW1 6206   4.435   2.395   4.784
 1769SOL    HW2 6207   4.589   2.355   4.821
 1770SOL     OW 6208   1.362   5.782   4.788
 1770SOL    HW1 6209   1.361   5.881   4.802
 1770SOL    HW2 6210   1.457   5.750   4.782
 1771SOL     OW 6211   2.988   5.171   6.613
 1771SOL    HW1 6212   3.024   5.231   6.542
 1771SOL    HW2 6213   3.056   5.161   6.686
 1772SOL     OW 6214   3.141   6.395   3.423
 1772SOL    HW1 6215   3.064   6.415   3.484
 1772SOL    HW2 6216   3.111   6.401   3.328
 1773SOL     OW 6217   2.146   5.079   5.735
 1773SOL    HW1 6218   2.121   5.159   5.789
 1773SOL    HW2 6219   2.246   5.072   5.729
 1774SOL     OW 6220   4.584   6.271   1.319
 1774SOL    HW1 6221   4.489   6.254   1.293
 1774SOL    HW2 6222   4.639   6.287   1.237
 1775SOL     OW 6223   1.903   4.235   3.993
 1775SOL    HW1 6224   1.929   4.202   3.902
 1775SOL    HW2 6225   1.809   4.268   3.990
 1776SOL     OW 6226   3.255   0.212   3.781
 1776SOL    HW1 6227   3.241   0.113   3.782
 1776SOL    HW2 6228   3.353   0.232   3.787
 1777SOL     OW 6229   3.534   5.280   5.750
 1777SOL    HW1 6230   3.447   5.319   5.721
 1777SOL    HW2 6231   3.608   5.345   5.731
 1778SOL     OW 6232   4.255   3.523   5.414
 1778SOL    HW1 6233   4.350   3.531   5.385
 1778SOL    HW2 6234   4.198   3.586   5.361
 1779SOL     OW 6235   4.127   1.096   4.467
 1779SOL    HW1 6236   4.089   1.140   4.385
 1779SOL    HW2 6237   4.205   1.148   4.500
 1780SOL     OW 6238   3.318   3.009   7.001
 1780SOL    HW1 6239   3.326   2.952   6.919
 1780SOL    HW2 6240   3.303   3.105   6.974
 1781SOL     OW 6241   4.575   5.785   3.949
 1781SOL    HW1 6242   4.509   5.849   3.991
 1781SOL    HW2 6243   4.600   5.819   3.859
 1782SOL     OW 6244   3.115   1.961   2.692
 1782SOL    HW1 6245   3.048   1.914   2.634
 1782SOL    HW2 6246   3.146   1.898   2.764
 1783SOL     OW 6247   1.392   4.881   6.169
 1783SOL    HW1 6248   1.455   4.823   6.221
 1783SOL    HW2 6249   1.304   4.884   6.217
 1784SOL     OW 6250   3.766   1.024   6.206
 1784SOL    HW1 6251   3.757   1.098   6.140
 1784SOL    HW2 6252   3.677   1.001   6.245
 1785SOL     OW 6253   6.190   4.314   3.283
 1785SOL    HW1 6254   6.254   4.377   3.328
 1785SOL    HW2 6255   6.176   4.234   3.341
 1786SOL     OW 6256   1.965   2.712   0.392
 1786SOL    HW1 6257   2.054   2.693   0.352
 1786SOL    HW2 6258   1.949   2.811   0.394
 1787SOL     OW 6259   3.222   1.019   4.770
 1787SOL    HW1 6260   3.298   1.083   4.760
 1787SOL    HW2 6261   3.136   1.070   4.773
 1788SOL     OW 6262   3.119   2.688   0.477
 1788SOL    HW1 6263   3.057   2.662   0.551
 1788SOL    HW2 6264   3.199   2.733   0.516
 1789SOL     OW 6265   5.888   2.385   3.330
 1789SOL    HW1 6266   5.971   2.372   3.275
 1789SOL    HW2 6267   5.848   2.474   3.310
 1790SOL     OW 6268   4.060   5.871   4.424
 1790SOL    HW1 6269   3.975   5.870   4.476
 1790SOL    HW2 6270   4.128   5.927   4.472
 1791SOL     OW 6271   6.035   0.626   3.615
 1791SOL    HW1 6272   5.962   0.654   3.553
 1791SOL    HW2 6273   6.097   0.703   3.629
 1792SOL     OW 6274   6.864   2.581   4.825
 1792SOL    HW1 6275   6.785   2.598   4.767
 1792SOL    HW2 6276   6.942   2.635   4.793
 1793SOL     OW 6277   6.716   6.668   3.444
 1793SOL    HW1 6278   6.618   6.677   3.457
 1793SOL    HW2 6279   6.752   6.750   3.398
 1794SOL     OW 6280   5.613   6.147   6.075
 1794SOL    HW1 6281   5.522   6.185   6.059
 1794SOL    HW2 6282   5.606   6.047   6.082
 1795SOL     OW 6283   1.588   2.739   0.575
 1795SOL    HW1 6284   1.637   2.816   0.536
 1795SOL    HW2 6285   1.592   2.661   0.512
 1796SOL     OW 6286   2.493   0.331   4.313
 1796SOL    HW1 6287   2.495   0.378   4.401
 1796SOL    HW2 6288   2.493   0.398   4.239
 1797SOL     OW 6289   1.710   7.008   6.710
 1797SOL    HW1 6290   1.684   0.029   6.794
 1797SOL    HW2 6291   1.758   0.046   6.650
 1798SOL     OW 6292   5.407   2.587   4.009
 1798SOL    HW1 6293   5.433   2.633   3.924
 1798SOL    HW2 6294   5.399   2.655   4.082
 1799SOL     OW 6295   6.694   1.686   5.765
 1799SOL    HW1 6296   6.664   1.749   5.694
 1799SOL    HW2 6297   6.709   1.735   5.850
 1800SOL     OW 6298   4.053   4.974   2.013
 1800SOL    HW1 6299   4.125   4.994   2.080
 1800SOL    HW2 6300   3.970   5.022   2.038
 1801SOL     OW 6301   0.396   0.649   2.090
 1801SOL    HW1 6302   0.334   0.692   2.155
 1801SOL    HW2 6303   0.358   0.561   2.061
 1802SOL     OW 6304   5.741   5.277   3.124
 1802SOL    HW1 6305   5.708   5.190   3.160
 1802SOL    HW2 6306   5.772   5.335   3.199
 1803SOL     OW 6307   0.797   5.973   6.799
 1803SOL    HW1 6308   0.804   5.890   6.855
 1803SOL    HW2 6309   0.854   6.045   6.839
 1804SOL     OW 6310   2.690   3.963   5.264
 1804SOL    HW1 6311   2.695   4.022   5.345
 1804SOL    HW2 6312   2.602   3.975   5.219
 1805SOL     OW 6313   6.269   4.029   5.817
 1805SOL    HW1 6314   6.320   4.086   5.753
 1805SOL    HW2 6315   6.172   4.032   5.795
 1806SOL     OW 6316   0.134   0.686   0.343
 1806SOL    HW1 6317   0.089   0.611   0.295
 1806SOL    HW2 6318   0.067   0.733   0.401
 1807SOL     OW 6319   5.033   2.975   5.196
 1807SOL    HW1 6320   5.015   2.985   5.294
 1807SOL    HW2 6321   5.078   3.058   5.163
 1808SOL     OW 6322   0.546   4.203   6.592
 1808SOL    HW1 6323   0.616   4.142   6.554
 1808SOL    HW2 6324   0.587   4.290   6.618
 1809SOL     OW 6325   2.266   2.344   4.515
 1809SOL    HW1 6326   2.210   2.426   4.525
 1809SOL    HW2 6327   2.216   2.265   4.548
 1810SOL     OW 6328   3.334   6.852   3.471
 1810SOL    HW1 6329   3.397   6.925   3.442
 1810SOL    HW2 6330   3.240   6.883   3.458
 1811SOL     OW 6331   5.848   5.410   3.343
 1811SOL    HW1 6332   5.920   5.415   3.412
 1811SOL    HW2 6333   5.758   5.413   3.387
 1812SOL     OW 6334   4.362   6.386   5.429
 1812SOL    HW1 6335   4.432   6.452   5.404
 1812SOL    HW2 6336   4.386   6.296   5.394
 1813SOL     OW 6337   6.420   5.273   1.197
 1813SOL    HW1 6338   6.447   5.198   1.137
 1813SOL    HW2 6339   6.500   5.305   1.249
 1814SOL     OW 6340   6.102   1.046   0.876
 1814SOL    HW1 6341   6.126   0.983   0.802
 1814SOL    HW2 6342   6.181   1.061   0.935
 1815SOL     OW 6343   7.020   2.337   2.430
 1815SOL    HW1 6344   6.976   2.377   2.510
 1815SOL    HW2 6345   0.004   2.408   2.359
 1816SOL     OW 6346   2.886   3.428   1.050
 1816SOL    HW1 6347   2.801   3.479   1.037
 1816SOL    HW2 6348   2.877   3.338   1.008
 1817SOL     OW 6349   3.161   0.029   2.709
 1817SOL    HW1 6350   3.192   0.009   2.617
 1817SOL    HW2 6351   3.155   6.970   2.762
 1818SOL     OW 6352   1.585   6.535   2.888
 1818SOL    HW1 6353   1.673   6.529   2.935
 1818SOL    HW2 6354   1.545   6.625   2.903
 1819SOL     OW 6355   1.540   4.826   1.740
 1819SOL    HW1 6356   1.483   4.879   1.677
 1819SOL    HW2 6357   1.566   4.740   1.696
 1820SOL     OW 6358   4.699   0.890   2.377
 1820SOL    HW1 6359   4.795   0.877   2.404
 1820SOL    HW2 6360   4.657   0.958   2.438
 1821SOL     OW 6361   0.730   1.246   2.084
 1821SOL    HW1 6362   0.749   1.160   2.037
 1821SOL    HW2 6363   0.684   1.309   2.021
 1822SOL     OW 6364   2.733   2.963   1.035
 1822SOL    HW1 6365   2.747   2.962   0.936
 1822SOL    HW2 6366   2.636   2.962   1.055
 1823SOL     OW 6367   3.148   5.782   3.038
 1823SOL    HW1 6368   3.097   5.802   2.955
 1823SOL    HW2 6369   3.167   5.684   3.043
 1824SOL     OW 6370   3.266   2.506   1.245
 1824SOL    HW1 6371   3.366   2.513   1.241
 1824SOL    HW2 6372   3.239   2.410   1.247
 1825SOL     OW 6373   1.560   1.667   2.999
 1825SOL    HW1 6374   1.591   1.576   2.969
 1825SOL    HW2 6375   1.568   1.673   3.098
 1826SOL     OW 6376   3.403   0.506   1.314
 1826SOL    HW1 6377   3.379   0.470   1.404
 1826SOL    HW2 6378   3.494   0.473   1.287
 1827SOL     OW 6379   0.415   5.555   2.336
 1827SOL    HW1 6380   0.348   5.481   2.347
 1827SOL    HW2 6381   0.506   5.521   2.360
 1828SOL     OW 6382   1.299   2.067   0.378
 1828SOL    HW1 6383   1.331   1.973   0.391
 1828SOL    HW2 6384   1.243   2.095   0.456
 1829SOL     OW 6385   4.019   0.339   3.601
 1829SOL    HW1 6386   3.956   0.286   3.659
 1829SOL    HW2 6387   4.072   0.277   3.544
 1830SOL     OW 6388   5.699   5.757   4.219
 1830SOL    HW1 6389   5.764   5.686   4.247
 1830SOL    HW2 6390   5.744   5.846   4.226
 1831SOL     OW 6391   6.139   0.719   2.479
 1831SOL    HW1 6392   6.168   0.647   2.416
 1831SOL    HW2 6393   6.153   0.808   2.436
 1832SOL     OW 6394   5.309   1.434   0.652
 1832SOL    HW1 6395   5.389   1.492   0.669
 1832SOL    HW2 6396   5.230   1.473   0.699
 1833SOL     OW 6397   5.353   0.776   5.329
 1833SOL    HW1 6398   5.437   0.740   5.287
 1833SOL    HW2 6399   5.288   0.801   5.258
 1834SOL     OW 6400   2.698   3.716   0.579
 1834SOL    HW1 6401   2.629   3.697   0.648
 1834SOL    HW2 6402   2.786   3.732   0.623
 1835SOL     OW 6403   1.319   4.532   1.493
 1835SOL    HW1 6404   1.248   4.555   1.559
 1835SOL    HW2 6405   1.280   4.532   1.401
 1836SOL     OW 6406   5.589   1.431   0.963
 1836SOL    HW1 6407   5.681   1.425   1.003
 1836SOL    HW2 6408   5.534   1.496   1.015
 1837SOL     OW 6409   0.675   2.307   4.015
 1837SOL    HW1 6410   0.668   2.236   4.085
 1837SOL    HW2 6411   0.712   2.391   4.056
 1838SOL     OW 6412   0.241   2.360   4.202
 1838SOL    HW1 6413   0.284   2.305   4.274
 1838SOL    HW2 6414   0.165   2.310   4.163
 1839SOL     OW 6415   4.445   2.626   5.160
 1839SOL    HW1 6416   4.372   2.574   5.115
 1839SOL    HW2 6417   4.528   2.621   5.104
 1840SOL     OW 6418   3.847   5.747   1.437
 1840SOL    HW1 6419   3.880   5.661   1.477
 1840SOL    HW2 6420   3.911   5.777   1.366
 1841SOL     OW 6421   2.465   2.683   4.258
 1841SOL    HW1 6422   2.436   2.705   4.351
 1841SOL    HW2 6423   2.410   2.736   4.193
 1842SOL     OW 6424   0.621   5.684   0.558
 1842SOL    HW1 6425   0.653   5.611   0.498
 1842SOL    HW2 6426   0.677   5.766   0.545
 1843SOL     OW 6427   0.543   1.977   4.777
 1843SOL    HW1 6428   0.488   1.943   4.701
 1843SOL    HW2 6429   0.637   1.945   4.768
 1844SOL     OW 6430   3.429   1.128   5.476
 1844SOL    HW1 6431   3.445   1.226   5.467
 1844SOL    HW2 6432   3.475   1.094   5.558
 1845SOL     OW 6433   2.107   6.471   5.204
 1845SOL    HW1 6434   2.094   6.520   5.117
 1845SOL    HW2 6435   2.025   6.482   5.260
 1846SOL     OW 6436   4.205   1.899   0.549
 1846SOL    HW1 6437   4.139   1.973   0.559
 1846SOL    HW2 6438   4.238   1.896   0.455
 1847SOL     OW 6439   1.365   0.832   6.325
 1847SOL    HW1 6440   1.438   0.847   6.258
 1847SOL    HW2 6441   1.376   0.741   6.365
 1848SOL     OW 6442   1.060   0.046   2.069
 1848SOL    HW1 6443   1.073   0.010   2.161
 1848SOL    HW2 6444   1.135   0.109   2.048
 1849SOL     OW 6445   3.472   1.577   0.687
 1849SOL    HW1 6446   3.522   1.601   0.604
 1849SOL    HW2 6447   3.462   1.658   0.745
 1850SOL     OW 6448   6.474   2.989   2.556
 1850SOL    HW1 6449   6.397   2.945   2.511
 1850SOL    HW2 6450   6.499   3.073   2.507
 1851SOL     OW 6451   0.642   1.784   1.350
 1851SOL    HW1 6452   0.739   1.804   1.336
 1851SOL    HW2 6453   0.631   1.687   1.371
 1852SOL     OW 6454   5.941   3.801   1.433
 1852SOL    HW1 6455   5.842   3.810   1.438
 1852SOL    HW2 6456   5.984   3.882   1.474
 1853SOL     OW 6457   0.242   3.258   2.791
 1853SOL    HW1 6458   0.218   3.171   2.748
 1853SOL    HW2 6459   0.340   3.275   2.780
 1854SOL     OW 6460   2.585   5.982   2.732
 1854SOL    HW1 6461   2.653   6.052   2.756
 1854SOL    HW2 6462   2.592   5.906   2.796
 1855SOL     OW 6463   4.382   4.069   6.898
 1855SOL    HW1 6464   4.445   4.026   6.834
 1855SOL    HW2 6465   4.432   4.099   6.980
 1856SOL     OW 6466   6.552   3.698   5.325
 1856SOL    HW1 6467   6.579   3.700   5.229
 1856SOL    HW2 6468   6.633   3.697   5.383
 1857SOL     OW 6469   3.489   0.575   6.333
 1857SOL    HW1 6470   3.423   0.650   6.343
 1857SOL    HW2 6471   3.502   0.555   6.236
 1858SOL     OW 6472   6.115   2.614   3.912
 1858SOL    HW1 6473   6.026   2.573   3.894
 1858SOL    HW2 6474   6.181   2.542   3.936
 1859SOL     OW 6475   4.383   1.693   3.130
 1859SOL    HW1 6476   4.287   1.706   3.105
 1859SOL    HW2 6477   4.441   1.748   3.071
 1860SOL     OW 6478   6.254   0.478   3.562
 1860SOL    HW1 6479   6.167   0.524   3.573
 1860SOL    HW2 6480   6.325   0.544   3.537
 1861SOL     OW 6481   5.415   6.852   2.629
 1861SOL    HW1 6482   5.348   6.794   2.674
 1861SOL    HW2 6483   5.459   6.912   2.696
 1862SOL     OW 6484   2.322   0.103   6.352
 1862SOL    HW1 6485   2.392   0.121   6.421
 1862SOL    HW2 6486   2.239   0.068   6.397
 1863SOL     OW 6487   1.974   1.789   0.121
 1863SOL    HW1 6488   1.897   1.832   0.167
 1863SOL    HW2 6489   2.008   1.849   0.048
 1864SOL     OW 6490   0.970   6.774   5.403
 1864SOL    HW1 6491   1.042   6.747   5.340
 1864SOL    HW2 6492   0.975   6.872   5.420
 1865SOL     OW 6493   3.382   6.992   5.951
 1865SOL    HW1 6494   3.343   0.041   6.004
 1865SOL    HW2 6495   3.309   6.929   5.923
 1866SOL     OW 6496   4.428   4.949   3.132
 1866SOL    HW1 6497   4.347   4.905   3.092
 1866SOL    HW2 6498   4.509   4.895   3.113
 1867SOL     OW 6499   1.079   4.583   0.323
 1867SOL    HW1 6500   0.988   4.622   0.305
 1867SOL    HW2 6501   1.070   4.484   0.335
 1868SOL     OW 6502   4.917   3.830   0.664
 1868SOL    HW1 6503   5.001   3.776   0.670
 1868SOL    HW2 6504   4.924   3.911   0.722
 1869SOL     OW 6505   6.239   2.508   5.913
 1869SOL    HW1 6506   6.290   2.428   5.881
 1869SOL    HW2 6507   6.289   2.591   5.889
 1870SOL     OW 6508   2.036   2.966   5.862
 1870SOL    HW1 6509   2.084   3.052   5.882
 1870SOL    HW2 6510   1.948   2.965   5.909
 1871SOL     OW 6511   0.403   0.411   6.827
 1871SOL    HW1 6512   0.428   0.427   6.922
 1871SOL    HW2 6513   0.356   0.491   6.790
 1872SOL     OW 6514   3.824   2.772   0.387
 1872SOL    HW1 6515   3.826   2.857   0.440
 1872SOL    HW2 6516   3.902   2.770   0.325
 1873SOL     OW 6517   4.796   1.344   5.490
 1873SOL    HW1 6518   4.796   1.418   5.557
 1873SOL    HW2 6519   4.818   1.258   5.535
 1874SOL     OW 6520   2.996   1.020   0.988
 1874SOL    HW1 6521   3.089   1.003   1.023
 1874SOL    HW2 6522   2.972   1.116   1.004
 1875SOL     OW 6523   0.548   1.594   0.035
 1875SOL    HW1 6524   0.631   1.605   7.006
 1875SOL    HW2 6525   0.525   1.681   0.079
 1876SOL     OW 6526   3.642   6.913   5.892
 1876SOL    HW1 6527   3.545   6.936   5.895
 1876SOL    HW2 6528   3.692   6.984   5.843
 1877SOL     OW 6529   0.480   0.351   2.743
 1877SOL    HW1 6530   0.440   0.285   2.807
 1877SOL    HW2 6531   0.565   0.387   2.780
 1878SOL     OW 6532   6.485   1.881   3.764
 1878SOL    HW1 6533   6.583   1.880   3.749
 1878SOL    HW2 6534   6.437   1.896   3.677
 1879SOL     OW 6535   0.992   4.397   4.276
 1879SOL    HW1 6536   0.991   4.444   4.365
 1879SOL    HW2 6537   1.087   4.388   4.244
 1880SOL     OW 6538   6.660   1.738   4.792
 1880SOL    HW1 6539   6.728   1.774   4.857
 1880SOL    HW2 6540   6.619   1.815   4.743
 1881SOL     OW 6541   5.931   2.053   3.229
 1881SOL    HW1 6542   5.951   2.008   3.142
 1881SOL    HW2 6543   5.969   1.999   3.305
 1882SOL     OW 6544   1.438   4.060   6.259
 1882SOL    HW1 6545   1.476   4.143   6.299
 1882SOL    HW2 6546   1.358   4.084   6.205
 1883SOL     OW 6547   6.754   1.991   3.359
 1883SOL    HW1 6548   6.667   2.016   3.400
 1883SOL    HW2 6549   6.761   1.892   3.352
 1884SOL     OW 6550   0.168   1.733   0.573
 1884SOL    HW1 6551   0.081   1.778   0.554
 1884SOL    HW2 6552   0.156   1.634   0.568
 1885SOL     OW 6553   1.887   1.685   6.225
 1885SOL    HW1 6554   1.812   1.621   6.243
 1885SOL    HW2 6555   1.909   1.683   6.127
 1886SOL     OW 6556   1.435   0.215   1.673
 1886SOL    HW1 6557   1.476   0.305   1.687
 1886SOL    HW2 6558   1.458   0.182   1.581
 1887SOL     OW 6559   1.151   5.722   5.395
 1887SOL    HW1 6560   1.095   5.653   5.441
 1887SOL    HW2 6561   1.242   5.685   5.377
 1888SOL     OW 6562   2.898   2.622   6.871
 1888SOL    HW1 6563   2.900   2.562   6.951
 1888SOL    HW2 6564   2.836   2.583   6.802
 1889SOL     OW 6565   0.509   3.451   5.153
 1889SOL    HW1 6566   0.424   3.414   5.115
 1889SOL    HW2 6567   0.501   3.458   5.252
 1890SOL     OW 6568   1.500   5.955   3.970
 1890SOL    HW1 6569   1.550   5.984   4.052
 1890SOL    HW2 6570   1.477   6.036   3.915
 1891SOL     OW 6571   5.009   2.694   1.698
 1891SOL    HW1 6572   4.988   2.770   1.760
 1891SOL    HW2 6573   4.940   2.691   1.625
 1892SOL     OW 6574   1.382   0.306   2.568
 1892SOL    HW1 6575   1.318   0.358   2.625
 1892SOL    HW2 6576   1.474   0.344   2.579
 1893SOL     OW 6577   3.146   3.434   1.711
 1893SOL    HW1 6578   3.079   3.445   1.785
 1893SOL    HW2 6579   3.236   3.461   1.744
 1894SOL     OW 6580   4.008   3.850   3.471
 1894SOL    HW1 6581   4.084   3.833   3.534
 1894SOL    HW2 6582   4.037   3.830   3.378
 1895SOL     OW 6583   4.062   0.297   1.059
 1895SOL    HW1 6584   4.149   0.346   1.064
 1895SOL    HW2 6585   4.075   0.201   1.083
 1896SOL     OW 6586   5.832   1.516   1.643
 1896SOL    HW1 6587   5.832   1.556   1.551
 1896SOL    HW2 6588   5.886   1.432   1.642
 1897SOL     OW 6589   2.268   5.305   1.387
 1897SOL    HW1 6590   2.297   5.255   1.469
 1897SOL    HW2 6591   2.196   5.253   1.341
 1898SOL     OW 6592   2.308   5.207   3.914
 1898SOL    HW1 6593   2.242   5.275   3.882
 1898SOL    HW2 6594   2.259   5.132   3.958
 1899SOL     OW 6595   0.263   1.297   1.274
 1899SOL    HW1 6596   0.305   1.209   1.252
 1899SOL    HW2 6597   0.325   1.371   1.248
 1900SOL     OW 6598   2.323   0.637   6.756
 1900SOL    HW1 6599   2.382   0.712   6.788
 1900SOL    HW2 6600   2.323   0.636   6.656
 1901SOL     OW 6601   1.824   1.953   0.559
 1901SOL    HW1 6602   1.764   2.030   0.538
 1901SOL    HW2 6603   1.903   1.986   0.611
 1902SOL     OW 6604   2.140   0.530   4.966
 1902SOL    HW1 6605   2.111   0.447   5.014
 1902SOL    HW2 6606   2.174   0.505   4.875
 1903SOL     OW 6607   0.378   3.399   3.297
 1903SOL    HW1 6608   0.466   3.358   3.321
 1903SOL    HW2 6609   0.386   3.449   3.211
 1904SOL     OW 6610   6.036   5.080   3.870
 1904SOL    HW1 6611   6.068   4.992   3.836
 1904SOL    HW2 6612   5.936   5.081   3.870
 1905SOL     OW 6613   0.686   0.208   3.404
 1905SOL    HW1 6614   0.715   0.211   3.308
 1905SOL    HW2 6615   0.692   0.299   3.444
 1906SOL     OW 6616   2.998   0.196   5.201
 1906SOL    HW1 6617   3.058   0.191   5.122
 1906SOL    HW2 6618   2.983   0.104   5.238
 1907SOL     OW 6619   4.355   2.066   1.769
 1907SOL    HW1 6620   4.441   2.107   1.738
 1907SOL    HW2 6621   4.290   2.063   1.693
 1908SOL     OW 6622   3.506   6.090   6.279
 1908SOL    HW1 6623   3.566   6.073   6.357
 1908SOL    HW2 6624   3.559   6.122   6.201
 1909SOL     OW 6625   0.944   3.400   3.502
 1909SOL    HW1 6626   0.930   3.496   3.526
 1909SOL    HW2 6627   0.858   3.362   3.468
 1910SOL     OW 6628   0.185   5.271   6.221
 1910SOL    HW1 6629   0.211   5.366   6.201
 1910SOL    HW2 6630   0.107   5.245   6.165
 1911SOL     OW 6631   0.208   3.525   4.470
 1911SOL    HW1 6632   0.289   3.568   4.429
 1911SOL    HW2 6633   0.220   3.521   4.569
 1912SOL     OW 6634   2.944   6.165   1.793
 1912SOL    HW1 6635   3.038   6.196   1.804
 1912SOL    HW2 6636   2.939   6.100   1.717
 1913SOL     OW 6637   3.120   0.840   4.312
 1913SOL    HW1 6638   3.209   0.868   4.346
 1913SOL    HW2 6639   3.081   0.770   4.371
 1914SOL     OW 6640   3.382   2.887   6.761
 1914SOL    HW1 6641   3.395   2.790   6.738
 1914SOL    HW2 6642   3.425   2.944   6.691
 1915SOL     OW 6643   3.877   2.431   5.621
 1915SOL    HW1 6644   3.799   2.415   5.682
 1915SOL    HW2 6645   3.961   2.435   5.675
 1916SOL     OW 6646   4.000   5.854   1.246
 1916SOL    HW1 6647   3.976   5.805   1.162
 1916SOL    HW2 6648   4.065   5.928   1.225
 1917SOL     OW 6649   2.052   3.361   6.986
 1917SOL    HW1 6650   2.071   3.431   6.917
 1917SOL    HW2 6651   2.136   3.312   7.007
 1918SOL     OW 6652   1.192   1.433   4.616
 1918SOL    HW1 6653   1.190   1.395   4.709
 1918SOL    HW2 6654   1.261   1.384   4.562
 1919SOL     OW 6655   1.506   1.848   1.669
 1919SOL    HW1 6656   1.558   1.818   1.749
 1919SOL    HW2 6657   1.540   1.938   1.639
 1920SOL     OW 6658   6.528   4.085   3.144
 1920SOL    HW1 6659   6.516   3.987   3.124
 1920SOL    HW2 6660   6.558   4.132   3.061
 1921SOL     OW 6661   1.864   3.204   6.905
 1921SOL    HW1 6662   1.937   3.262   6.942
 1921SOL    HW2 6663   1.815   3.255   6.834
 1922SOL     OW 6664   2.934   3.857   1.880
 1922SOL    HW1 6665   2.973   3.920   1.948
 1922SOL    HW2 6666   2.891   3.910   1.807
 1923SOL     OW 6667   4.128   1.913   6.577
 1923SOL    HW1 6668   4.110   1.896   6.480
 1923SOL    HW2 6669   4.059   1.865   6.632
 1924SOL     OW 6670   4.549   6.629   0.183
 1924SOL    HW1 6671   4.454   6.659   0.170
 1924SOL    HW2 6672   4.594   6.687   0.251
 1925SOL     OW 6673   1.203   5.194   1.096
 1925SOL    HW1 6674   1.272   5.215   1.026
 1925SOL    HW2 6675   1.205   5.264   1.167
 1926SOL     OW 6676   3.256   0.234   2.185
 1926SOL    HW1 6677   3.178   0.225   2.122
 1926SOL    HW2 6678   3.309   0.315   2.160
 1927SOL     OW 6679   2.232   4.502   0.544
 1927SOL    HW1 6680   2.322   4.545   0.540
 1927SOL    HW2 6681   2.210   4.479   0.639
 1928SOL     OW 6682   5.674   4.209   4.873
 1928SOL    HW1 6683   5.623   4.225   4.788
 1928SOL    HW2 6684   5.750   4.146   4.855
 1929SOL     OW 6685   2.151   0.552   1.687
 1929SOL    HW1 6686   2.194   0.518   1.604
 1929SOL    HW2 6687   2.149   0.652   1.686
 1930SOL     OW 6688   5.273   3.037   6.606
 1930SOL    HW1 6689   5.222   2.954   6.583
 1930SOL    HW2 6690   5.225   3.086   6.679
 1931SOL     OW 6691   1.244   1.665   0.132
 1931SOL    HW1 6692   1.208   1.750   0.096
 1931SOL    HW2 6693   1.169   1.606   0.161
 1932SOL     OW 6694   4.635   2.690   3.581
 1932SOL    HW1 6695   4.619   2.599   3.618
 1932SOL    HW2 6696   4.578   2.757   3.629
 1933SOL     OW 6697   1.329   2.704   0.653
 1933SOL    HW1 6698   1.422   2.697   0.616
 1933SOL    HW2 6699   1.267   2.650   0.596
 1934SOL     OW 6700   0.176   1.093   4.833
 1934SOL    HW1 6701   0.253   1.061   4.889
 1934SOL    HW2 6702   0.098   1.112   4.893
 1935SOL     OW 6703   4.145   4.810   3.935
 1935SOL    HW1 6704   4.213   4.742   3.962
 1935SOL    HW2 6705   4.189   4.885   3.885
 1936SOL     OW 6706   4.895   3.705   3.972
 1936SOL    HW1 6707   4.870   3.615   3.936
 1936SOL    HW2 6708   4.902   3.770   3.896
 1937SOL     OW 6709   4.436   6.191   0.165
 1937SOL    HW1 6710   4.527   6.164   0.132
 1937SOL    HW2 6711   4.379   6.218   0.088
 1938SOL     OW 6712   1.651   1.834   0.936
 1938SOL    HW1 6713   1.624   1.830   1.032
 1938SOL    HW2 6714   1.570   1.820   0.879
 1939SOL     OW 6715   0.129   6.297   4.262
 1939SOL    HW1 6716   0.151   6.249   4.178
 1939SOL    HW2 6717   0.114   6.231   4.336
 1940SOL     OW 6718   6.337   4.507   1.068
 1940SOL    HW1 6719   6.342   4.413   1.036
 1940SOL    HW2 6720   6.249   4.522   1.114
 1941SOL     OW 6721   1.563   3.025   3.519
 1941SOL    HW1 6722   1.480   3.012   3.573
 1941SOL    HW2 6723   1.627   3.083   3.570
 1942SOL     OW 6724   5.566   3.573   2.922
 1942SOL    HW1 6725   5.542   3.493   2.977
 1942SOL    HW2 6726   5.503   3.580   2.844
 1943SOL     OW 6727   0.848   1.186   2.505
 1943SOL    HW1 6728   0.864   1.267   2.561
 1943SOL    HW2 6729   0.932   1.131   2.503
 1944SOL     OW 6730   6.067   4.321   0.345
 1944SOL    HW1 6731   6.046   4.417   0.365
 1944SOL    HW2 6732   6.048   4.303   0.248
 1945SOL     OW 6733   3.897   6.178   0.605
 1945SOL    HW1 6734   3.831   6.119   0.559
 1945SOL    HW2 6735   3.878   6.178   0.703
 1946SOL     OW 6736   5.754   6.645   1.287
 1946SOL    HW1 6737   5.836   6.659   1.342
 1946SOL    HW2 6738   5.774   6.585   1.210
 1947SOL     OW 6739   5.931   5.591   4.253
 1947SOL    HW1 6740   5.919   5.492   4.242
 1947SOL    HW2 6741   6.025   5.611   4.279
 1948SOL     OW 6742   5.665   5.365   2.873
 1948SOL    HW1 6743   5.582   5.311   2.874
 1948SOL    HW2 6744   5.703   5.370   2.966
 1949SOL     OW 6745   4.108   3.675   0.312
 1949SOL    HW1 6746   4.109   3.580   0.345
 1949SOL    HW2 6747   4.028   3.688   0.253
 1950SOL     OW 6748   4.077   3.282   3.459
 1950SOL    HW1 6749   4.132   3.364   3.438
 1950SOL    HW2 6750   4.058   3.233   3.374
 1951SOL     OW 6751   0.020   4.292   6.495
 1951SOL    HW1 6752   7.013   4.376   6.454
 1951SOL    HW2 6753   0.120   4.293   6.498
 1952SOL     OW 6754   5.734   5.307   1.229
 1952SOL    HW1 6755   5.808   5.342   1.171
 1952SOL    HW2 6756   5.661   5.375   1.235
 1953SOL     OW 6757   6.555   1.497   6.431
 1953SOL    HW1 6758   6.631   1.562   6.431
 1953SOL    HW2 6759   6.584   1.410   6.470
 1954SOL     OW 6760   5.419   6.865   1.389
 1954SOL    HW1 6761   5.420   6.919   1.474
 1954SOL    HW2 6762   5.460   6.918   1.315
 1955SOL     OW 6763   0.203   1.072   1.727
 1955SOL    HW1 6764   0.118   1.054   1.677
 1955SOL    HW2 6765   0.258   0.989   1.728
 1956SOL     OW 6766   4.519   6.898   2.695
 1956SOL    HW1 6767   4.565   6.814   2.723
 1956SOL    HW2 6768   4.587   6.970   2.680
 1957SOL     OW 6769   5.424   3.964   3.614
 1957SOL    HW1 6770   5.326   3.969   3.631
 1957SOL    HW2 6771   5.463   3.890   3.669
 1958SOL     OW 6772   4.755   1.126   1.640
 1958SOL    HW1 6773   4.660   1.154   1.650
 1958SOL    HW2 6774   4.759   1.028   1.617
 1959SOL     OW 6775   6.881   6.315   3.807
 1959SOL    HW1 6776   6.827   6.298   3.890
 1959SOL    HW2 6777   6.942   6.393   3.823
 1960SOL     OW 6778   0.400   3.578   2.785
 1960SOL    HW1 6779   0.368   3.591   2.691
 1960SOL    HW2 6780   0.438   3.486   2.795
 1961SOL     OW 6781   6.532   4.464   4.620
 1961SOL    HW1 6782   6.440   4.470   4.582
 1961SOL    HW2 6783   6.598   4.450   4.546
 1962SOL     OW 6784   1.060   5.864   2.549
 1962SOL    HW1 6785   1.135   5.815   2.505
 1962SOL    HW2 6786   1.087   5.891   2.641
 1963SOL     OW 6787   1.654   2.096   1.211
 1963SOL    HW1 6788   1.584   2.096   1.139
 1963SOL    HW2 6789   1.610   2.087   1.300
 1964SOL     OW 6790   4.910   4.861   1.721
 1964SOL    HW1 6791   5.001   4.884   1.687
 1964SOL    HW2 6792   4.852   4.832   1.646
 1965SOL     OW 6793   1.737   2.703   4.139
 1965SOL    HW1 6794   1.793   2.654   4.207
 1965SOL    HW2 6795   1.750   2.661   4.049
 1966SOL     OW 6796   1.716   5.069   1.106
 1966SOL    HW1 6797   1.675   5.006   1.040
 1966SOL    HW2 6798   1.684   5.162   1.088
 1967SOL     OW 6799   6.289   2.627   4.352
 1967SOL    HW1 6800   6.230   2.699   4.316
 1967SOL    HW2 6801   6.308   2.644   4.448
 1968SOL     OW 6802   2.745   1.148   5.120
 1968SOL    HW1 6803   2.701   1.226   5.165
 1968SOL    HW2 6804   2.750   1.071   5.184
 1969SOL     OW 6805   3.346   0.624   1.727
 1969SOL    HW1 6806   3.417   0.692   1.708
 1969SOL    HW2 6807   3.256   0.664   1.711
 1970SOL     OW 6808   6.902   0.236   5.576
 1970SOL    HW1 6809   6.804   0.244   5.557
 1970SOL    HW2 6810   6.916   0.203   5.669
 1971SOL     OW 6811   0.516   0.784   5.517
 1971SOL    HW1 6812   0.612   0.781   5.489
 1971SOL    HW2 6813   0.504   0.735   5.603
 1972SOL     OW 6814   6.111   2.665   1.460
 1972SOL    HW1 6815   6.106   2.575   1.416
 1972SOL    HW2 6816   6.027   2.682   1.512
 1973SOL     OW 6817   2.694   4.138   1.560
 1973SOL    HW1 6818   2.655   4.135   1.467
 1973SOL    HW2 6819   2.685   4.231   1.596
 1974SOL     OW 6820   4.463   6.839   4.915
 1974SOL    HW1 6821   4.480   6.870   4.822
 1974SOL    HW2 6822   4.469   6.918   4.977
 1975SOL     OW 6823   2.120   2.583   4.102
 1975SOL    HW1 6824   2.124   2.574   4.202
 1975SOL    HW2 6825   2.178   2.660   4.073
 1976SOL     OW 6826   5.215   6.317   6.489
 1976SOL    HW1 6827   5.251   6.409   6.480
 1976SOL    HW2 6828   5.270   6.266   6.556
 1977SOL     OW 6829   2.183   3.401   5.717
 1977SOL    HW1 6830   2.245   3.359   5.651
 1977SOL    HW2 6831   2.236   3.445   5.790
 1978SOL     OW 6832   1.632   5.910   2.649
 1978SOL    HW1 6833   1.610   5.913   2.746
 1978SOL    HW2 6834   1.689   5.988   2.625
 1979SOL     OW 6835   5.415   5.206   0.084
 1979SOL    HW1 6836   5.483   5.193   0.013
 1979SOL    HW2 6837   5.327   5.171   0.053
 1980SOL     OW 6838   3.702   0.619   2.802
 1980SOL    HW1 6839   3.613   0.593   2.840
 1980SOL    HW2 6840   3.759   0.657   2.875
 1981SOL     OW 6841   5.573   2.659   2.026
 1981SOL    HW1 6842   5.504   2.699   2.086
 1981SOL    HW2 6843   5.598   2.568   2.059
 1982SOL     OW 6844   6.956   4.107   3.597
 1982SOL    HW1 6845   6.867   4.063   3.582
 1982SOL    HW2 6846   0.002   4.050   3.560
 1983SOL     OW 6847   0.828   0.161   1.398
 1983SOL    HW1 6848   0.907   0.219   1.418
 1983SOL    HW2 6849   0.825   0.141   1.300
 1984SOL     OW 6850   4.843   2.442   5.483
 1984SOL    HW1 6851   4.880   2.349   5.485
 1984SOL    HW2 6852   4.774   2.453   5.555
 1985SOL     OW 6853   6.800   5.577   2.205
 1985SOL    HW1 6854   6.760   5.669   2.203
 1985SOL    HW2 6855   6.885   5.579   2.259
 1986SOL     OW 6856   2.786   1.497   6.133
 1986SOL    HW1 6857   2.838   1.495   6.048
 1986SOL    HW2 6858   2.819   1.426   6.195
 1987SOL     OW 6859   2.030   1.726   4.068
 1987SOL    HW1 6860   2.107   1.676   4.107
 1987SOL    HW2 6861   2.043   1.737   3.970
 1988SOL     OW 6862   6.872   1.551   1.116
 1988SOL    HW1 6863   6.783   1.582   1.148
 1988SOL    HW2 6864   6.944   1.599   1.166
 1989SOL     OW 6865   2.363   5.918   4.179
 1989SOL    HW1 6866   2.297   5.984   4.143
 1989SOL    HW2 6867   2.331   5.825   4.160
 1990SOL     OW 6868   3.648   0.066   0.692
 1990SOL    HW1 6869   3.642   6.998   0.726
 1990SOL    HW2 6870   3.671   0.066   0.595
 1991SOL     OW 6871   2.316   5.295   0.203
 1991SOL    HW1 6872   2.370   5.242   0.268
 1991SOL    HW2 6873   2.363   5.296   0.115
 1992SOL     OW 6874   6.720   0.124   0.585
 1992SOL    HW1 6875   6.748   0.029   0.585
 1992SOL    HW2 6876   6.636   0.134   0.638
 1993SOL     OW 6877   3.474   2.128   4.577
 1993SOL    HW1 6878   3.567   2.106   4.606
 1993SOL    HW2 6879   3.411   2.115   4.654
 1994SOL     OW 6880   4.781   1.722   1.034
 1994SOL    HW1 6881   4.780   1.631   1.076
 1994SOL    HW2 6882   4.821   1.788   1.097
 1995SOL     OW 6883   5.858   3.452   4.111
 1995SOL    HW1 6884   5.764   3.436   4.081
 1995SOL    HW2 6885   5.894   3.533   4.065
 1996SOL     OW 6886   2.478   1.375   1.097
 1996SOL    HW1 6887   2.506   1.422   1.014
 1996SOL    HW2 6888   2.466   1.277   1.079
 1997SOL     OW 6889   2.990   1.447   4.000
 1997SOL    HW1 6890   2.972   1.361   4.048
 1997SOL    HW2 6891   3.046   1.506   4.057
 1998SOL     OW 6892   1.379   3.699   0.694
 1998SOL    HW1 6893   1.422   3.774   0.644
 1998SOL    HW2 6894   1.447   3.629   0.715
 1999SOL     OW 6895   0.386   0.832   4.683
 1999SOL    HW1 6896   0.455   0.890   4.639
 1999SOL    HW2 6897   0.416   0.809   4.776
 2000SOL     OW 6898   4.159   3.632   6.294
 2000SOL    HW1 6899   4.072   3.672   6.323
 2000SOL    HW2 6900   4.155   3.613   6.195
 2001SOL     OW 6901   1.477   1.892   0.224
 2001SOL    HW1 6902   1.552   1.958   0.231
 2001SOL    HW2 6903   1.483   1.845   0.135
 2002SOL     OW 6904   0.820   5.849   0.990
 2002SOL    HW1 6905   0.780   5.937   0.963
 2002SOL    HW2 6906   0.829   5.791   0.910
 2003SOL     OW 6907   6.724   5.205   1.803
 2003SOL    HW1 6908   6.767   5.215   1.893
 2003SOL    HW2 6909   6.700   5.109   1.787
 2004SOL     OW 6910   4.517   1.052   4.562
 2004SOL    HW1 6911   4.434   1.106   4.547
 2004SOL    HW2 6912   4.586   1.075   4.493
 2005SOL     OW 6913   6.784   5.315   6.747
 2005SOL    HW1 6914   6.830   5.251   6.684
 2005SOL    HW2 6915   6.852   5.376   6.787
 2006SOL     OW 6916   5.461   6.989   4.148
 2006SOL    HW1 6917   5.487   6.893   4.147
 2006SOL    HW2 6918   5.443   7.020   4.054
 2007SOL     OW 6919   5.294   3.914   1.242
 2007SOL    HW1 6920   5.355   3.835   1.246
 2007SOL    HW2 6921   5.316   3.976   1.317
 2008SOL     OW 6922   2.033   3.542   4.039
 2008SOL    HW1 6923   1.998   3.545   4.132
 2008SOL    HW2 6924   2.095   3.620   4.025
 2009SOL     OW 6925   5.285   6.451   1.995
 2009SOL    HW1 6926   5.278   6.351   1.989
 2009SOL    HW2 6927   5.195   6.489   2.014
 2010SOL     OW 6928   1.606   2.079   1.489
 2010SOL    HW1 6929   1.690   2.027   1.502
 2010SOL    HW2 6930   1.619   2.173   1.521
 2011SOL     OW 6931   6.980   0.517   5.193
 2011SOL    HW1 6932   6.919   0.593   5.167
 2011SOL    HW2 6933   0.037   0.555   5.235
 2012SOL     OW 6934   1.212   3.667   2.108
 2012SOL    HW1 6935   1.298   3.622   2.130
 2012SOL    HW2 6936   1.213   3.697   2.012
 2013SOL     OW 6937   6.776   3.022   3.343
 2013SOL    HW1 6938   6.837   2.957   3.297
 2013SOL    HW2 6939   6.805   3.035   3.437
 2014SOL     OW 6940   2.855   0.283   2.828
 2014SOL    HW1 6941   2.801   0.353   2.876
 2014SOL    HW2 6942   2.952   0.303   2.838
 2015SOL     OW 6943   3.351   6.661   1.128
 2015SOL    HW1 6944   3.371   6.672   1.226
 2015SOL    HW2 6945   3.434   6.672   1.075
 2016SOL     OW 6946   1.409   5.604   5.352
 2016SOL    HW1 6947   1.470   5.525   5.351
 2016SOL    HW2 6948   1.398   5.637   5.258
 2017SOL     OW 6949   4.141   0.564   3.457
 2017SOL    HW1 6950   4.238   0.539   3.455
 2017SOL    HW2 6951   4.087   0.486   3.488
 2018SOL     OW 6952   6.969   2.589   3.913
 2018SOL    HW1 6953   6.886   2.596   3.858
 2018SOL    HW2 6954   6.989   2.677   3.955
 2019SOL     OW 6955   6.120   4.424   6.415
 2019SOL    HW1 6956   6.074   4.434   6.326
 2019SOL    HW2 6957   6.175   4.341   6.415
 2020SOL     OW 6958   1.473   6.336   6.206
 2020SOL    HW1 6959   1.520   6.351   6.120
 2020SOL    HW2 6960   1.379   6.371   6.199
 2021SOL     OW 6961   5.972   6.848   3.714
 2021SOL    HW1 6962   5.941   6.898   3.794
 2021SOL    HW2 6963   5.910   6.865   3.637
 2022SOL     OW 6964   1.942   4.580   4.971
 2022SOL    HW1 6965   1.924   4.482   4.963
 2022SOL    HW2 6966   1.921   4.625   4.885
 2023SOL     OW 6967   0.172   0.138   6.588
 2023SOL    HW1 6968   0.211   0.171   6.674
 2023SOL    HW2 6969   0.238   0.078   6.542
 2024SOL     OW 6970   6.864   5.915   3.974
 2024SOL    HW1 6971   6.892   5.900   4.068
 2024SOL    HW2 6972   6.942   5.946   3.920
 2025SOL     OW 6973   3.310   0.674   3.258
 2025SOL    HW1 6974   3.311   0.770   3.229
 2025SOL    HW2 6975   3.251   0.663   3.338
 2026SOL     OW 6976   6.362   2.128   6.781
 2026SOL    HW1 6977   6.453   2.098   6.753
 2026SOL    HW2 6978   6.305   2.143   6.701
 2027SOL     OW 6979   0.559   6.205   1.625
 2027SOL    HW1 6980   0.543   6.280   1.561
 2027SOL    HW2 6981   0.650   6.213   1.664
 2028SOL     OW 6982   3.397   6.083   2.785
 2028SOL    HW1 6983   3.357   6.073   2.876
 2028SOL    HW2 6984   3.327   6.113   2.721
 2029SOL     OW 6985   6.798   2.045   0.053
 2029SOL    HW1 6986   6.852   2.098   0.119
 2029SOL    HW2 6987   6.701   2.066   0.064
 2030SOL     OW 6988   2.942   6.861   2.339
 2030SOL    HW1 6989   3.034   6.825   2.324
 2030SOL    HW2 6990   2.921   6.928   2.267
 2031SOL     OW 6991   6.907   6.059   2.502
 2031SOL    HW1 6992   6.940   6.069   2.596
 2031SOL    HW2 6993   6.808   6.068   2.500
 2032SOL     OW 6994   3.286   1.207   0.880
 2032SOL    HW1 6995   3.245   1.299   0.885
 2032SOL    HW2 6996   3.340   1.199   0.796
 2033SOL     OW 6997   1.711   1.322   0.576
 2033SOL    HW1 6998   1.640   1.260   0.544
 2033SOL    HW2 6999   1.697   1.340   0.674
 2034SOL     OW 7000   1.582   5.398   5.364
 2034SOL    HW1 7001   1.581   5.383   5.463
 2034SOL    HW2 7002   1.542   5.318   5.318
 2035SOL     OW 7003   6.385   6.886   2.161
 2035SOL    HW1 7004   6.289   6.905   2.182
 2035SOL    HW2 7005   6.392   6.847   2.070
 2036SOL     OW 7006   1.424   3.435   3.075
 2036SOL    HW1 7007   1.521   3.417   3.060
 2036SOL    HW2 7008   1.398   3.520   3.030
 2037SOL     OW 7009   6.831   2.505   6.036
 2037SOL    HW1 7010   6.763   2.469   6.100
 2037SOL    HW2 7011   6.794   2.502   5.943
 2038SOL     OW 7012   2.726   1.067   7.003
 2038SOL    HW1 7013   2.667   1.058   0.057
 2038SOL    HW2 7014   2.670   1.075   6.921
 2039SOL     OW 7015   0.008   5.562   2.322
 2039SOL    HW1 7016   0.058   5.642   2.289
 2039SOL    HW2 7017   0.057   5.479   2.295
 2040SOL     OW 7018   1.809   2.196   0.009
 2040SOL    HW1 7019   1.836   2.264   6.967
 2040SOL    HW2 7020   1.795   2.108   6.990
 2041SOL     OW 7021   1.616   6.975   5.193
 2041SOL    HW1 7022   1.557   7.002   5.269
 2041SOL    HW2 7023   1.636   0.028   5.136
 2042SOL     OW 7024   4.908   0.042   6.279
 2042SOL    HW1 7025   4.816   0.081   6.271
 2042SOL    HW2 7026   4.976   0.115   6.270
 2043SOL     OW 7027   6.366   2.334   2.268
 2043SOL    HW1 7028   6.384   2.405   2.336
 2043SOL    HW2 7029   6.445   2.324   2.208
 2044SOL     OW 7030   5.975   0.991   1.751
 2044SOL    HW1 7031   5.912   0.930   1.799
 2044SOL    HW2 7032   5.932   1.080   1.737
 2045SOL     OW 7033   1.626   5.698   4.722
 2045SOL    HW1 7034   1.698   5.743   4.775
 2045SOL    HW2 7035   1.661   5.674   4.631
 2046SOL     OW 7036   6.610   1.937   5.599
 2046SOL    HW1 7037   6.540   1.904   5.536
 2046SOL    HW2 7038   6.669   2.003   5.552
 2047SOL     OW 7039   6.270   2.183   1.157
 2047SOL    HW1 7040   6.301   2.240   1.233
 2047SOL    HW2 7041   6.347   2.167   1.094
 2048SOL     OW 7042   0.354   1.603   4.911
 2048SOL    HW1 7043   0.351   1.517   4.860
 2048SOL    HW2 7044   0.448   1.637   4.913
 2049SOL     OW 7045   4.885   1.509   4.567
 2049SOL    HW1 7046   4.890   1.607   4.548
 2049SOL    HW2 7047   4.918   1.491   4.660
 2050SOL     OW 7048   6.849   1.959   5.259
 2050SOL    HW1 7049   6.920   1.973   5.190
 2050SOL    HW2 7050   6.888   1.907   5.336
 2051SOL     OW 7051   2.149   6.052   0.200
 2051SOL    HW1 7052   2.106   5.999   0.273
 2051SOL    HW2 7053   2.248   6.051   0.211
 2052SOL     OW 7054   1.228   3.183   0.769
 2052SOL    HW1 7055   1.135   3.168   0.734
 2052SOL    HW2 7056   1.225   3.243   0.849
 2053SOL     OW 7057   0.309   5.585   4.393
 2053SOL    HW1 7058   0.268   5.522   4.328
 2053SOL    HW2 7059   0.387   5.631   4.351
 2054SOL     OW 7060   3.469   3.072   2.857
 2054SOL    HW1 7061   3.563   3.064   2.889
 2054SOL    HW2 7062   3.445   3.168   2.844
 2055SOL     OW 7063   6.816   2.589   5.092
 2055SOL    HW1 7064   6.893   2.653   5.093
 2055SOL    HW2 7065   6.820   2.534   5.008
 2056SOL     OW 7066   4.568   4.645   1.240
 2056SOL    HW1 7067   4.556   4.611   1.333
 2056SOL    HW2 7068   4.536   4.576   1.175
 2057SOL     OW 7069   5.396   2.971   4.621
 2057SOL    HW1 7070   5.324   2.931   4.678
 2057SOL    HW2 7071   5.364   3.058   4.583
 2058SOL     OW 7072   0.347   6.704   2.544
 2058SOL    HW1 7073   0.372   6.624   2.599
 2058SOL    HW2 7074   0.428   6.738   2.496
 2059SOL     OW 7075   2.640   0.968   5.318
 2059SOL    HW1 7076   2.547   0.933   5.314
 2059SOL    HW2 7077   2.703   0.893   5.338
 2060SOL     OW 7078   0.930   3.103   0.953
 2060SOL    HW1 7079   0.923   3.114   0.854
 2060SOL    HW2 7080   0.957   3.190   0.994
 2061SOL     OW 7081   1.774   2.795   2.447
 2061SOL    HW1 7082   1.800   2.863   2.379
 2061SOL    HW2 7083   1.690   2.749   2.419
 2062SOL     OW 7084   6.707   5.057   5.551
 2062SOL    HW1 7085   6.777   5.095   5.612
 2062SOL    HW2 7086   6.627   5.118   5.550
 2063SOL     OW 7087   1.610   6.272   4.901
 2063SOL    HW1 7088   1.632   6.363   4.938
 2063SOL    HW2 7089   1.691   6.236   4.854
 2064SOL     OW 7090   1.298   3.820   4.321
 2064SOL    HW1 7091   1.356   3.755   4.271
 2064SOL    HW2 7092   1.207   3.821   4.280
 2065SOL     OW 7093   5.418   3.039   6.023
 2065SOL    HW1 7094   5.473   2.956   6.015
 2065SOL    HW2 7095   5.338   3.032   5.963
 2066SOL     OW 7096   6.652   3.764   5.603
 2066SOL    HW1 7097   6.704   3.836   5.557
 2066SOL    HW2 7098   6.677   3.762   5.700
 2067SOL     OW 7099   6.021   4.755   2.127
 2067SOL    HW1 7100   6.000   4.818   2.051
 2067SOL    HW2 7101   6.083   4.684   2.094
 2068SOL     OW 7102   3.688   1.426   3.788
 2068SOL    HW1 7103   3.599   1.422   3.833
 2068SOL    HW2 7104   3.704   1.519   3.754
 2069SOL     OW 7105   0.153   1.869   4.451
 2069SOL    HW1 7106   0.126   1.786   4.402
 2069SOL    HW2 7107   0.231   1.848   4.511
 2070SOL     OW 7108   1.569   3.120   1.252
 2070SOL    HW1 7109   1.594   3.064   1.173
 2070SOL    HW2 7110   1.619   3.206   1.249
 2071SOL     OW 7111   6.183   1.744   6.193
 2071SOL    HW1 7112   6.161   1.681   6.267
 2071SOL    HW2 7113   6.116   1.736   6.120
 2072SOL     OW 7114   3.910   4.737   5.666
 2072SOL    HW1 7115   3.855   4.769   5.589
 2072SOL    HW2 7116   3.855   4.676   5.723
 2073SOL     OW 7117   3.687   6.091   6.516
 2073SOL    HW1 7118   3.732   6.007   6.547
 2073SOL    HW2 7119   3.737   6.170   6.551
 2074SOL     OW 7120   1.789   2.886   5.982
 2074SOL    HW1 7121   1.740   2.831   5.915
 2074SOL    HW2 7122   1.804   2.832   6.065
 2075SOL     OW 7123   6.514   2.137   2.632
 2075SOL    HW1 7124   6.566   2.201   2.575
 2075SOL    HW2 7125   6.444   2.092   2.577
 2076SOL     OW 7126   6.089   6.911   4.797
 2076SOL    HW1 7127   6.100   6.864   4.709
 2076SOL    HW2 7128   6.135   7.000   4.793
 2077SOL     OW 7129   6.870   2.447   1.866
 2077SOL    HW1 7130   6.834   2.539   1.885
 2077SOL    HW2 7131   6.811   2.379   1.908
 2078SOL     OW 7132   1.748   4.838   5.837
 2078SOL    HW1 7133   1.723   4.741   5.846
 2078SOL    HW2 7134   1.844   4.850   5.864
 2079SOL     OW 7135   5.129   0.900   2.129
 2079SOL    HW1 7136   5.149   0.965   2.203
 2079SOL    HW2 7137   5.110   0.950   2.045
 2080SOL     OW 7138   3.138   2.216   4.557
 2080SOL    HW1 7139   3.079   2.197   4.478
 2080SOL    HW2 7140   3.162   2.313   4.558
 2081SOL     OW 7141   0.717   6.457   3.220
 2081SOL    HW1 7142   0.665   6.420   3.143
 2081SOL    HW2 7143   0.684   6.417   3.305
 2082SOL     OW 7144   0.666   6.333   2.689
 2082SOL    HW1 7145   0.651   6.235   2.674
 2082SOL    HW2 7146   0.712   6.372   2.609
 2083SOL     OW 7147   0.689   5.571   3.645
 2083SOL    HW1 7148   0.728   5.562   3.736
 2083SOL    HW2 7149   0.590   5.581   3.652
 2084SOL     OW 7150   1.433   2.105   1.024
 2084SOL    HW1 7151   1.342   2.071   1.049
 2084SOL    HW2 7152   1.426   2.199   0.990
 2085SOL     OW 7153   4.837   5.596   0.528
 2085SOL    HW1 7154   4.833   5.641   0.618
 2085SOL    HW2 7155   4.891   5.512   0.535
 2086SOL     OW 7156   3.284   6.542   0.013
 2086SOL    HW1 7157   3.245   6.634   0.009
 2086SOL    HW2 7158   3.380   6.546   7.012
 2087SOL     OW 7159   4.353   2.170   6.951
 2087SOL    HW1 7160   4.304   2.257   6.937
 2087SOL    HW2 7161   4.291   2.094   6.933
 2088SOL     OW 7162   0.761   5.776   5.646
 2088SOL    HW1 7163   0.760   5.861   5.699
 2088SOL    HW2 7164   0.733   5.795   5.552
 2089SOL     OW 7165   3.958   2.742   5.333
 2089SOL    HW1 7166   4.004   2.674   5.276
 2089SOL    HW2 7167   3.951   2.828   5.282
 2090SOL     OW 7168   4.536   3.295   5.782
 2090SOL    HW1 7169   4.441   3.312   5.808
 2090SOL    HW2 7170   4.554   3.196   5.784
 2091SOL     OW 7171   6.798   6.008   1.326
 2091SOL    HW1 7172   6.761   6.090   1.369
 2091SOL    HW2 7173   6.816   6.026   1.229
 2092SOL     OW 7174   5.075   3.826   1.067
 2092SOL    HW1 7175   5.048   3.896   1.001
 2092SOL    HW2 7176   5.142   3.864   1.131
 2093SOL     OW 7177   3.773   2.006   2.258
 2093SOL    HW1 7178   3.723   2.056   2.187
 2093SOL    HW2 7179   3.708   1.957   2.316
 2094SOL     OW 7180   5.773   2.583   0.447
 2094SOL    HW1 7181   5.714   2.656   0.483
 2094SOL    HW2 7182   5.855   2.576   0.504
 2095SOL     OW 7183   5.849   6.202   3.203
 2095SOL    HW1 7184   5.774   6.238   3.260
 2095SOL    HW2 7185   5.883   6.117   3.243
 2096SOL     OW 7186   4.547   6.330   2.957
 2096SOL    HW1 7187   4.488   6.410   2.942
 2096SOL    HW2 7188   4.519   6.283   3.040
 2097SOL     OW 7189   2.628   4.385   6.503
 2097SOL    HW1 7190   2.690   4.345   6.436
 2097SOL    HW2 7191   2.647   4.483   6.511
 2098SOL     OW 7192   3.926   6.361   3.580
 2098SOL    HW1 7193   3.877   6.392   3.499
 2098SOL    HW2 7194   3.971   6.440   3.624
 2099SOL     OW 7195   4.009   1.558   7.020
 2099SOL    HW1 7196   3.936   1.529   0.056
 2099SOL    HW2 7197   3.985   1.646   6.979
 2100SOL     OW 7198   5.138   1.133   0.468
 2100SOL    HW1 7199   5.141   1.177   0.558
 2100SOL    HW2 7200   5.096   1.043   0.477
 2101SOL     OW 7201   0.501   6.147   0.817
 2101SOL    HW1 7202   0.455   6.217   0.871
 2101SOL    HW2 7203   0.502   6.173   0.721
 2102SOL     OW 7204   3.970   3.004   1.485
 2102SOL    HW1 7205   4.044   2.959   1.536
 2102SOL    HW2 7206   3.920   3.065   1.546
 2103SOL     OW 7207   3.218   4.581   0.420
 2103SOL    HW1 7208   3.187   4.672   0.447
 2103SOL    HW2 7209   3.160   4.512   0.464
 2104SOL     OW 7210   1.904   4.580   2.666
 2104SOL    HW1 7211   1.875   4.655   2.606
 2104SOL    HW2 7212   1.875   4.599   2.759
 2105SOL     OW 7213   4.687   4.255   0.490
 2105SOL    HW1 7214   4.730   4.343   0.470
 2105SOL    HW2 7215   4.602   4.270   0.541
 2106SOL     OW 7216   5.403   3.668   1.267
 2106SOL    HW1 7217   5.450   3.610   1.334
 2106SOL    HW2 7218   5.314   3.628   1.245
 2107SOL     OW 7219   5.354   3.434   6.144
 2107SOL    HW1 7220   5.406   3.471   6.067
 2107SOL    HW2 7221   5.256   3.445   6.127
 2108SOL     OW 7222   5.694   6.415   6.160
 2108SOL    HW1 7223   5.757   6.449   6.091
 2108SOL    HW2 7224   5.661   6.324   6.133
 2109SOL     OW 7225   3.234   4.948   2.222
 2109SOL    HW1 7226   3.168   4.957   2.147
 2109SOL    HW2 7227   3.208   4.869   2.278
 2110SOL     OW 7228   4.015   0.960   6.597
 2110SOL    HW1 7229   4.065   0.887   6.550
 2110SOL    HW2 7230   4.069   0.991   6.675
 2111SOL     OW 7231   1.376   2.337   5.895
 2111SOL    HW1 7232   1.319   2.331   5.977
 2111SOL    HW2 7233   1.328   2.295   5.818
 2112SOL     OW 7234   5.833   1.432   6.684
 2112SOL    HW1 7235   5.893   1.365   6.640
 2112SOL    HW2 7236   5.878   1.467   6.766
 2113SOL     OW 7237   2.189   6.391   4.079
 2113SOL    HW1 7238   2.285   6.364   4.080
 2113SOL    HW2 7239   2.181   6.487   4.108
 2114SOL     OW 7240   2.622   2.943   0.334
 2114SOL    HW1 7241   2.530   2.913   0.362
 2114SOL    HW2 7242   2.636   3.038   0.362
 2115SOL     OW 7243   1.095   4.317   2.287
 2115SOL    HW1 7244   1.189   4.309   2.256
 2115SOL    HW2 7245   1.087   4.395   2.350
 2116SOL     OW 7246   1.035   2.597   0.817
 2116SOL    HW1 7247   1.012   2.650   0.735
 2116SOL    HW2 7248   1.121   2.630   0.855
 2117SOL     OW 7249   5.925   3.021   1.839
 2117SOL    HW1 7250   5.854   2.955   1.864
 2117SOL    HW2 7251   5.929   3.093   1.908
 2118SOL     OW 7252   6.489   3.786   2.661
 2118SOL    HW1 7253   6.545   3.786   2.579
 2118SOL    HW2 7254   6.417   3.716   2.652
 2119SOL     OW 7255   2.136   0.487   6.886
 2119SOL    HW1 7256   2.043   0.522   6.895
 2119SOL    HW2 7257   2.189   0.549   6.827
 2120SOL     OW 7258   6.613   1.933   2.797
 2120SOL    HW1 7259   6.585   2.010   2.739
 2120SOL    HW2 7260   6.713   1.927   2.797
 2121SOL     OW 7261   1.979   0.981   5.959
 2121SOL    HW1 7262   1.968   1.079   5.940
 2121SOL    HW2 7263   2.076   0.960   5.968
 2122SOL     OW 7264   5.501   0.026   5.682
 2122SOL    HW1 7265   5.418   0.076   5.659
 2122SOL    HW2 7266   5.479   6.973   5.738
 2123SOL     OW 7267   0.335   6.394   2.437
 2123SOL    HW1 7268   0.366   6.430   2.525
 2123SOL    HW2 7269   0.267   6.456   2.398
 2124SOL     OW 7270   3.421   2.755   5.832
 2124SOL    HW1 7271   3.406   2.657   5.831
 2124SOL    HW2 7272   3.347   2.801   5.881
 2125SOL     OW 7273   1.713   6.057   3.255
 2125SOL    HW1 7274   1.731   6.103   3.342
 2125SOL    HW2 7275   1.635   6.101   3.210
 2126SOL     OW 7276   3.886   3.215   0.519
 2126SOL    HW1 7277   3.818   3.204   0.446
 2126SOL    HW2 7278   3.877   3.139   0.583
 2127SOL     OW 7279   0.019   2.702   6.024
 2127SOL    HW1 7280   7.007   2.794   6.029
 2127SOL    HW2 7281   6.973   2.635   6.043
 2128SOL     OW 7282   5.517   3.861   0.939
 2128SOL    HW1 7283   5.572   3.911   1.006
 2128SOL    HW2 7284   5.542   3.765   0.939
 2129SOL     OW 7285   5.143   4.040   3.755
 2129SOL    HW1 7286   5.055   3.994   3.755
 2129SOL    HW2 7287   5.183   4.036   3.847
 2130SOL     OW 7288   2.526   1.413   1.575
 2130SOL    HW1 7289   2.564   1.322   1.595
 2130SOL    HW2 7290   2.594   1.483   1.599
 2131SOL     OW 7291   5.306   1.926   6.087
 2131SOL    HW1 7292   5.366   1.884   6.156
 2131SOL    HW2 7293   5.229   1.866   6.069
 2132SOL     OW 7294   2.926   1.765   6.444
 2132SOL    HW1 7295   3.005   1.721   6.401
 2132SOL    HW2 7296   2.890   1.706   6.516
 2133SOL     OW 7297   2.642   1.716   1.275
 2133SOL    HW1 7298   2.579   1.639   1.261
 2133SOL    HW2 7299   2.624   1.758   1.365
 2134SOL     OW 7300   0.166   0.126   4.018
 2134SOL    HW1 7301   0.099   0.077   3.962
 2134SOL    HW2 7302   0.202   0.204   3.967
 2135SOL     OW 7303   0.519   1.987   4.026
 2135SOL    HW1 7304   0.561   2.045   4.095
 2135SOL    HW2 7305   0.555   2.009   3.936
 2136SOL     OW 7306   1.357   3.409   5.175
 2136SOL    HW1 7307   1.287   3.467   5.135
 2136SOL    HW2 7308   1.315   3.325   5.211
 2137SOL     OW 7309   0.622   6.598   5.190
 2137SOL    HW1 7310   0.612   6.686   5.144
 2137SOL    HW2 7311   0.711   6.594   5.237
 2138SOL     OW 7312   0.033   2.439   1.264
 2138SOL    HW1 7313   6.963   2.436   1.293
 2138SOL    HW2 7314   0.064   2.534   1.261
 2139SOL     OW 7315   2.874   0.538   3.689
 2139SOL    HW1 7316   2.780   0.525   3.718
 2139SOL    HW2 7317   2.883   0.515   3.592
 2140SOL     OW 7318   2.441   6.333   2.885
 2140SOL    HW1 7319   2.512   6.300   2.947
 2140SOL    HW2 7320   2.473   6.328   2.791
 2141SOL     OW 7321   6.882   2.752   1.076
 2141SOL    HW1 7322   6.842   2.700   1.000
 2141SOL    HW2 7323   6.822   2.743   1.156
 2142SOL     OW 7324   1.697   1.855   3.255
 2142SOL    HW1 7325   1.679   1.760   3.279
 2142SOL    HW2 7326   1.618   1.892   3.207
 2143SOL     OW 7327   4.179   6.282   1.320
 2143SOL    HW1 7328   4.228   6.212   1.372
 2143SOL    HW2 7329   4.202   6.372   1.356
 2144SOL     OW 7330   1.263   0.716   2.931
 2144SOL    HW1 7331   1.175   0.763   2.921
 2144SOL    HW2 7332   1.306   0.745   3.017
 2145SOL     OW 7333   3.308   5.779   3.677
 2145SOL    HW1 7334   3.370   5.720   3.626
 2145SOL    HW2 7335   3.340   5.788   3.771
 2146SOL     OW 7336   3.065   3.968   2.104
 2146SOL    HW1 7337   3.131   4.011   2.042
 2146SOL    HW2 7338   3.071   4.011   2.194
 2147SOL     OW 7339   0.237   1.570   0.248
 2147SOL    HW1 7340   0.198   1.614   0.167
 2147SOL    HW2 7341   0.281   1.640   0.305
 2148SOL     OW 7342   4.883   3.636   3.619
 2148SOL    HW1 7343   4.847   3.656   3.527
 2148SOL    HW2 7344   4.904   3.539   3.627
 2149SOL     OW 7345   3.903   0.387   1.775
 2149SOL    HW1 7346   3.891   0.475   1.730
 2149SOL    HW2 7347   3.977   0.336   1.731
 2150SOL     OW 7348   3.848   2.132   2.764
 2150SOL    HW1 7349   3.878   2.224   2.740
 2150SOL    HW2 7350   3.900   2.100   2.844
 2151SOL     OW 7351   3.344   2.551   5.587
 2151SOL    HW1 7352   3.379   2.553   5.681
 2151SOL    HW2 7353   3.277   2.477   5.578
 2152SOL     OW 7354   6.189   6.406   2.076
 2152SOL    HW1 7355   6.096   6.420   2.109
 2152SOL    HW2 7356   6.186   6.353   1.991
 2153SOL     OW 7357   4.881   1.435   3.830
 2153SOL    HW1 7358   4.919   1.504   3.891
 2153SOL    HW2 7359   4.926   1.440   3.741
 2154SOL     OW 7360   2.855   5.473   4.655
 2154SOL    HW1 7361   2.857   5.540   4.582
 2154SOL    HW2 7362   2.818   5.386   4.620
 2155SOL     OW 7363   2.144   5.223   0.399
 2155SOL    HW1 7364   2.049   5.217   0.367
 2155SOL    HW2 7365   2.205   5.234   0.321
 2156SOL     OW 7366   1.877   0.537   1.068
 2156SOL    HW1 7367   1.847   0.450   1.031
 2156SOL    HW2 7368   1.965   0.563   1.028
 2157SOL     OW 7369   6.932   1.342   5.053
 2157SOL    HW1 7370   6.950   1.313   4.959
 2157SOL    HW2 7371   6.884   1.269   5.102
 2158SOL     OW 7372   3.643   6.822   0.769
 2158SOL    HW1 7373   3.695   6.760   0.710
 2158SOL    HW2 7374   3.587   6.769   0.832
 2159SOL     OW 7375   1.404   6.745   4.608
 2159SOL    HW1 7376   1.486   6.802   4.602
 2159SOL    HW2 7377   1.424   6.664   4.664
 2160SOL     OW 7378   3.789   3.829   1.463
 2160SOL    HW1 7379   3.827   3.918   1.436
 2160SOL    HW2 7380   3.742   3.789   1.384
 2161SOL     OW 7381   4.897   3.583   3.183
 2161SOL    HW1 7382   4.882   3.484   3.181
 2161SOL    HW2 7383   4.994   3.602   3.201
 2162SOL     OW 7384   2.307   0.617   6.482
 2162SOL    HW1 7385   2.293   0.650   6.389
 2162SOL    HW2 7386   2.353   0.528   6.479
 2163SOL     OW 7387   1.518   0.097   6.861
 2163SOL    HW1 7388   1.432   0.140   6.832
 2163SOL    HW2 7389   1.508   0.064   6.955
 2164SOL     OW 7390   2.173   0.593   6.168
 2164SOL    HW1 7391   2.243   0.575   6.100
 2164SOL    HW2 7392   2.192   0.680   6.214
 2165SOL     OW 7393   1.567   1.036   2.896
 2165SOL    HW1 7394   1.501   1.007   2.827
 2165SOL    HW2 7395   1.563   0.974   2.974
 2166SOL     OW 7396   1.253   2.147   5.655
 2166SOL    HW1 7397   1.177   2.175   5.596
 2166SOL    HW2 7398   1.339   2.159   5.605
 2167SOL     OW 7399   2.770   1.013   2.099
 2167SOL    HW1 7400   2.690   1.032   2.042
 2167SOL    HW2 7401   2.806   0.923   2.077
 2168SOL     OW 7402   6.121   3.033   5.014
 2168SOL    HW1 7403   6.171   3.028   5.101
 2168SOL    HW2 7404   6.172   3.090   4.950
 2169SOL     OW 7405   5.606   2.830   6.018
 2169SOL    HW1 7406   5.618   2.734   6.042
 2169SOL    HW2 7407   5.656   2.849   5.933
 2170SOL     OW 7408   5.169   4.510   5.118
 2170SOL    HW1 7409   5.137   4.600   5.146
 2170SOL    HW2 7410   5.090   4.449   5.104
 2171SOL     OW 7411   6.512   2.836   7.013
 2171SOL    HW1 7412   6.485   2.888   6.932
 2171SOL    HW2 7413   6.524   2.899   0.064
 2172SOL     OW 7414   2.932   0.922   0.296
 2172SOL    HW1 7415   2.936   1.021   0.309
 2172SOL    HW2 7416   2.862   0.883   0.357
 2173SOL     OW 7417   4.022   0.404   5.874
 2173SOL    HW1 7418   3.990   0.331   5.934
 2173SOL    HW2 7419   4.113   0.434   5.903
 2174SOL     OW 7420   6.639   4.243   5.412
 2174SOL    HW1 7421   6.683   4.238   5.502
 2174SOL    HW2 7422   6.556   4.298   5.418
 2175SOL     OW 7423   3.170   0.276   2.853
 2175SOL    HW1 7424   3.151   0.199   2.791
 2175SOL    HW2 7425   3.256   0.259   2.900
 2176SOL     OW 7426   2.073   2.368   2.095
 2176SOL    HW1 7427   2.001   2.298   2.092
 2176SOL    HW2 7428   2.122   2.369   2.008
 2177SOL     OW 7429   6.927   1.586   1.796
 2177SOL    HW1 7430   6.966   1.677   1.792
 2177SOL    HW2 7431   7.000   1.518   1.787
 2178SOL     OW 7432   1.084   4.936   0.029
 2178SOL    HW1 7433   1.161   4.979   0.075
 2178SOL    HW2 7434   1.008   4.927   0.093
 2179SOL     OW 7435   1.050   5.737   3.936
 2179SOL    HW1 7436   0.980   5.671   3.910
 2179SOL    HW2 7437   1.072   5.795   3.857
 2180SOL     OW 7438   3.231   3.702   3.056
 2180SOL    HW1 7439   3.148   3.735   3.101
 2180SOL    HW2 7440   3.237   3.744   2.965
 2181SOL     OW 7441   4.872   4.963   6.020
 2181SOL    HW1 7442   4.908   4.907   5.945
 2181SOL    HW2 7443   4.801   4.912   6.068
 2182SOL     OW 7444   0.162   3.428   0.032
 2182SOL    HW1 7445   0.117   3.390   6.977
 2182SOL    HW2 7446   0.115   3.511   0.060
 2183SOL     OW 7447   3.125   3.030   0.803
 2183SOL    HW1 7448   3.081   2.940   0.807
 2183SOL    HW2 7449   3.196   3.029   0.733
 2184SOL     OW 7450   3.732   1.010   6.583
 2184SOL    HW1 7451   3.696   0.966   6.666
 2184SOL    HW2 7452   3.824   0.975   6.564
 2185SOL     OW 7453   1.857   0.594   0.530
 2185SOL    HW1 7454   1.927   0.650   0.576
 2185SOL    HW2 7455   1.826   0.523   0.593
 2186SOL     OW 7456   7.019   4.367   2.694
 2186SOL    HW1 7457   6.999   4.269   2.699
 2186SOL    HW2 7458   6.941   4.415   2.654
 2187SOL     OW 7459   6.716   1.206   1.580
 2187SOL    HW1 7460   6.665   1.139   1.525
 2187SOL    HW2 7461   6.652   1.263   1.632
 2188SOL     OW 7462   4.727   6.294   3.917
 2188SOL    HW1 7463   4.769   6.384   3.930
 2188SOL    HW2 7464   4.774   6.246   3.844
 2189SOL     OW 7465   1.712   7.025   5.818
 2189SOL    HW1 7466   1.694   0.021   5.722
 2189SOL    HW2 7467   1.643   6.961   5.851
 2190SOL     OW 7468   6.489   2.867   1.963
 2190SOL    HW1 7469   6.476   2.960   1.999
 2190SOL    HW2 7470   6.404   2.835   1.923
 2191SOL     OW 7471   3.388   2.565   6.676
 2191SOL    HW1 7472   3.435   2.570   6.764
 2191SOL    HW2 7473   3.292   2.593   6.687
 2192SOL     OW 7474   4.179   6.083   5.503
 2192SOL    HW1 7475   4.118   6.162   5.499
 2192SOL    HW2 7476   4.263   6.103   5.452
 2193SOL     OW 7477   1.066   5.244   5.375
 2193SOL    HW1 7478   0.991   5.235   5.441
 2193SOL    HW2 7479   1.152   5.214   5.418
 2194SOL     OW 7480   2.013   5.918   0.423
 2194SOL    HW1 7481   1.983   5.888   0.514
 2194SOL    HW2 7482   1.949   5.884   0.354
 2195SOL     OW 7483   1.162   5.761   2.086
 2195SOL    HW1 7484   1.221   5.687   2.051
 2195SOL    HW2 7485   1.092   5.782   2.018
 2196SOL     OW 7486   3.735   1.144   5.611
 2196SOL    HW1 7487   3.696   1.235   5.593
 2196SOL    HW2 7488   3.762   1.101   5.525
 2197SOL     OW 7489   5.086   4.408   1.483
 2197SOL    HW1 7490   5.011   4.454   1.530
 2197SOL    HW2 7491   5.049   4.346   1.413
 2198SOL     OW 7492   6.707   4.221   0.021
 2198SOL    HW1 7493   6.689   4.217   0.119
 2198SOL    HW2 7494   6.696   4.129   7.007
 2199SOL     OW 7495   4.656   6.758   0.379
 2199SOL    HW1 7496   4.749   6.781   0.349
 2199SOL    HW2 7497   4.658   6.670   0.427
 2200SOL     OW 7498   4.249   0.814   4.768
 2200SOL    HW1 7499   4.200   0.734   4.733
 2200SOL    HW2 7500   4.327   0.834   4.710
 2201SOL     OW 7501   6.356   3.232   1.989
 2201SOL    HW1 7502   6.346   3.331   1.986
 2201SOL    HW2 7503   6.278   3.189   1.944
 2202SOL     OW 7504   3.696   5.042   4.391
 2202SOL    HW1 7505   3.599   5.032   4.414
 2202SOL    HW2 7506   3.711   5.017   4.296
 2203SOL     OW 7507   3.573   2.023   3.701
 2203SOL    HW1 7508   3.602   2.000   3.608
 2203SOL    HW2 7509   3.635   2.091   3.739
 2204SOL     OW 7510   3.657   1.525   6.818
 2204SOL    HW1 7511   3.718   1.467   6.764
 2204SOL    HW2 7512   3.583   1.558   6.759
 2205SOL     OW 7513   1.838   0.141   6.945
 2205SOL    HW1 7514   1.784   0.223   6.931
 2205SOL    HW2 7515   1.935   0.164   6.947
 2206SOL     OW 7516   3.319   3.644   6.726
 2206SOL    HW1 7517   3.258   3.684   6.657
 2206SOL    HW2 7518   3.401   3.607   6.682
 2207SOL     OW 7519   1.269   4.118   6.040
 2207SOL    HW1 7520   1.276   4.197   6.100
 2207SOL    HW2 7521   1.351   4.113   5.983
 2208SOL     OW 7522   0.313   3.520   2.139
 2208SOL    HW1 7523   0.289   3.486   2.048
 2208SOL    HW2 7524   0.411   3.539   2.143
 2209SOL     OW 7525   1.797   5.384   6.561
 2209SOL    HW1 7526   1.850   5.467   6.573
 2209SOL    HW2 7527   1.740   5.368   6.642
 2210SOL     OW 7528   1.114   5.434   3.470
 2210SOL    HW1 7529   1.047   5.420   3.397
 2210SOL    HW2 7530   1.074   5.405   3.557
 2211SOL     OW 7531   6.139   0.803   5.366
 2211SOL    HW1 7532   6.199   0.821   5.287
 2211SOL    HW2 7533   6.150   0.876   5.433
 2212SOL     OW 7534   0.936   7.019   6.203
 2212SOL    HW1 7535   0.880   6.964   6.142
 2212SOL    HW2 7536   0.913   6.998   6.298
 2213SOL     OW 7537   4.321   2.334   3.728
 2213SOL    HW1 7538   4.372   2.248   3.734
 2213SOL    HW2 7539   4.232   2.324   3.773
 2214SOL     OW 7540   5.228   0.554   4.685
 2214SOL    HW1 7541   5.239   0.455   4.676
 2214SOL    HW2 7542   5.294   0.601   4.627
 2215SOL     OW 7543   0.040   1.972   5.588
 2215SOL    HW1 7544   0.094   1.913   5.528
 2215SOL    HW2 7545   0.099   2.042   5.629
 2216SOL     OW 7546   1.214   6.679   1.119
 2216SOL    HW1 7547   1.269   6.604   1.084
 2216SOL    HW2 7548   1.204   6.670   1.218
 2217SOL     OW 7549   3.921   6.741   1.504
 2217SOL    HW1 7550   4.015   6.738   1.539
 2217SOL    HW2 7551   3.863   6.790   1.568
 2218SOL     OW 7552   1.270   5.467   6.031
 2218SOL    HW1 7553   1.320   5.382   6.018
 2218SOL    HW2 7554   1.179   5.447   6.067
 2219SOL     OW 7555   1.296   3.640   3.511
 2219SOL    HW1 7556   1.344   3.561   3.548
 2219SOL    HW2 7557   1.277   3.625   3.414
 2220SOL     OW 7558   0.420   2.140   5.455
 2220SOL    HW1 7559   0.388   2.137   5.360
 2220SOL    HW2 7560   0.347   2.109   5.515
 2221SOL     OW 7561   6.817   1.903   1.229
 2221SOL    HW1 7562   6.817   1.901   1.329
 2221SOL    HW2 7563   6.758   1.830   1.194
 2222SOL     OW 7564   4.650   6.887   2.112
 2222SOL    HW1 7565   4.677   6.846   2.025
 2222SOL    HW2 7566   4.733   6.911   2.164
 2223SOL     OW 7567   5.657   5.347   4.043
 2223SOL    HW1 7568   5.616   5.437   4.054
 2223SOL    HW2 7569   5.738   5.339   4.102
 2224SOL     OW 7570   1.996   4.903   1.964
 2224SOL    HW1 7571   2.012   4.836   1.891
 2224SOL    HW2 7572   1.898   4.914   1.978
 2225SOL     OW 7573   6.341   4.802   2.431
 2225SOL    HW1 7574   6.395   4.759   2.359
 2225SOL    HW2 7575   6.244   4.781   2.418
 2226SOL     OW 7576   4.024   2.646   1.202
 2226SOL    HW1 7577   4.102   2.700   1.234
 2226SOL    HW2 7578   4.019   2.651   1.102
 2227SOL     OW 7579   6.607   4.061   6.446
 2227SOL    HW1 7580   6.580   4.117   6.367
 2227SOL    HW2 7581   6.559   3.973   6.442
 2228SOL     OW 7582   3.084   4.798   6.657
 2228SOL    HW1 7583   3.047   4.705   6.656
 2228SOL    HW2 7584   3.183   4.794   6.643
 2229SOL     OW 7585   4.572   1.513   3.563
 2229SOL    HW1 7586   4.492   1.539   3.509
 2229SOL    HW2 7587   4.572   1.414   3.577
 2230SOL     OW 7588   1.048   5.988   4.891
 2230SOL    HW1 7589   1.015   5.911   4.837
 2230SOL    HW2 7590   0.986   6.066   4.881
 2231SOL     OW 7591   1.829   0.907   1.948
 2231SOL    HW1 7592   1.879   0.948   2.025
 2231SOL    HW2 7593   1.884   0.914   1.865
 2232SOL     OW 7594   6.927   3.168   2.630
 2232SOL    HW1 7595   6.883   3.241   2.578
 2232SOL    HW2 7596   6.862   3.131   2.696
 2233SOL     OW 7597   3.692   6.087   0.406
 2233SOL    HW1 7598   3.658   5.995   0.391
 2233SOL    HW2 7599   3.623   6.141   0.454
 2234SOL     OW 7600   3.615   1.728   0.492
 2234SOL    HW1 7601   3.598   1.740   0.394
 2234SOL    HW2 7602   3.689   1.789   0.521
 2235SOL     OW 7603   1.471   6.970   0.092
 2235SOL    HW1 7604   1.519   6.883   0.102
 2235SOL    HW2 7605   1.373   6.953   0.081
 2236SOL     OW 7606   0.635   4.401   1.182
 2236SOL    HW1 7607   0.669   4.489   1.150
 2236SOL    HW2 7608   0.684   4.327   1.135
 2237SOL     OW 7609   6.894   3.008   4.579
 2237SOL    HW1 7610   6.816   3.007   4.641
 2237SOL    HW2 7611   6.910   2.915   4.545
 2238SOL     OW 7612   0.218   5.544   1.965
 2238SOL    HW1 7613   0.233   5.586   1.876
 2238SOL    HW2 7614   0.242   5.610   2.037
 2239SOL     OW 7615   3.980   4.798   3.647
 2239SOL    HW1 7616   4.019   4.753   3.727
 2239SOL    HW2 7617   4.049   4.803   3.574
 2240SOL     OW 7618   6.873   4.956   3.468
 2240SOL    HW1 7619   6.788   5.003   3.444
 2240SOL    HW2 7620   6.896   4.889   3.397
 2241SOL     OW 7621   0.137   6.356   2.035
 2241SOL    HW1 7622   0.157   6.365   1.937
 2241SOL    HW2 7623   0.207   6.404   2.088
 2242SOL     OW 7624   4.993   2.336   2.827
 2242SOL    HW1 7625   4.950   2.356   2.915
 2242SOL    HW2 7626   4.925   2.300   2.764
 2243SOL     OW 7627   2.222   5.816   4.882
 2243SOL    HW1 7628   2.285   5.877   4.835
 2243SOL    HW2 7629   2.161   5.870   4.940
 2244SOL     OW 7630   2.913   0.305   4.316
 2244SOL    HW1 7631   2.851   0.274   4.245
 2244SOL    HW2 7632   2.976   0.231   4.340
 2245SOL     OW 7633   0.261   1.752   2.764
 2245SOL    HW1 7634   0.351   1.782   2.798
 2245SOL    HW2 7635   0.195   1.755   2.839
 2246SOL     OW 7636   1.358   3.750   6.165
 2246SOL    HW1 7637   1.347   3.810   6.244
 2246SOL    HW2 7638   1.451   3.761   6.128
 2247SOL     OW 7639   1.924   2.363   5.990
 2247SOL    HW1 7640   1.920   2.391   6.086
 2247SOL    HW2 7641   1.874   2.428   5.934
 2248SOL     OW 7642   4.690   4.356   5.481
 2248SOL    HW1 7643   4.668   4.443   5.525
 2248SOL    HW2 7644   4.632   4.284   5.520
 2249SOL     OW 7645   5.439   6.292   3.104
 2249SOL    HW1 7646   5.454   6.385   3.139
 2249SOL    HW2 7647   5.391   6.238   3.173
 2250SOL     OW 7648   5.992   4.091   1.222
 2250SOL    HW1 7649   6.046   4.036   1.158
 2250SOL    HW2 7650   6.022   4.071   1.316
 2251SOL     OW 7651   5.817   1.539   6.964
 2251SOL    HW1 7652   5.777   1.459   7.007
 2251SOL    HW2 7653   5.917   1.534   6.970
 2252SOL     OW 7654   5.254   2.789   5.293
 2252SOL    HW1 7655   5.240   2.868   5.353
 2252SOL    HW2 7656   5.237   2.705   5.345
 2253SOL     OW 7657   2.738   2.967   6.835
 2253SOL    HW1 7658   2.830   2.937   6.862
 2253SOL    HW2 7659   2.693   3.009   6.913
 2254SOL     OW 7660   1.696   3.308   5.949
 2254SOL    HW1 7661   1.674   3.260   5.864
 2254SOL    HW2 7662   1.795   3.318   5.956
 2255SOL     OW 7663   6.137   2.804   2.035
 2255SOL    HW1 7664   6.172   2.780   2.126
 2255SOL    HW2 7665   6.126   2.903   2.029
 2256SOL     OW 7666   4.023   4.752   2.337
 2256SOL    HW1 7667   4.084   4.773   2.260
 2256SOL    HW2 7668   3.930   4.782   2.315
 2257SOL     OW 7669   1.533   3.719   4.191
 2257SOL    HW1 7670   1.596   3.753   4.261
 2257SOL    HW2 7671   1.575   3.727   4.101
 2258SOL     OW 7672   1.856   5.404   5.352
 2258SOL    HW1 7673   1.759   5.427   5.359
 2258SOL    HW2 7674   1.896   5.452   5.275
 2259SOL     OW 7675   5.246   3.824   6.724
 2259SOL    HW1 7676   5.208   3.875   6.647
 2259SOL    HW2 7677   5.275   3.887   6.796
 2260SOL     OW 7678   4.871   5.059   1.896
 2260SOL    HW1 7679   4.909   4.998   1.827
 2260SOL    HW2 7680   4.771   5.061   1.887
 2261SOL     OW 7681   5.000   6.316   0.454
 2261SOL    HW1 7682   5.048   6.397   0.422
 2261SOL    HW2 7683   5.035   6.289   0.544
 2262SOL     OW 7684   5.108   2.502   3.957
 2262SOL    HW1 7685   5.077   2.545   4.042
 2262SOL    HW2 7686   5.207   2.490   3.960
 2263SOL     OW 7687   1.560   5.063   6.021
 2263SOL    HW1 7688   1.506   4.995   6.070
 2263SOL    HW2 7689   1.651   5.026   6.000
 2264SOL     OW 7690   3.054   3.757   3.280
 2264SOL    HW1 7691   2.999   3.808   3.346
 2264SOL    HW2 7692   3.011   3.668   3.264
 2265SOL     OW 7693   0.240   0.762   2.276
 2265SOL    HW1 7694   0.207   0.852   2.247
 2265SOL    HW2 7695   0.259   0.764   2.374
 2266SOL     OW 7696   6.171   0.773   0.794
 2266SOL    HW1 7697   6.145   0.757   0.889
 2266SOL    HW2 7698   6.246   0.711   0.769
 2267SOL     OW 7699   6.052   2.354   5.151
 2267SOL    HW1 7700   5.995   2.435   5.135
 2267SOL    HW2 7701   6.147   2.383   5.166
 2268SOL     OW 7702   0.206   6.385   6.742
 2268SOL    HW1 7703   0.189   6.287   6.751
 2268SOL    HW2 7704   0.182   6.431   6.828
 2269SOL     OW 7705   6.759   5.858   6.022
 2269SOL    HW1 7706   6.846   5.872   6.069
 2269SOL    HW2 7707   6.751   5.762   5.995
 2270SOL     OW 7708   3.016   3.137   2.051
 2270SOL    HW1 7709   3.114   3.145   2.035
 2270SOL    HW2 7710   2.971   3.105   1.968
 2271SOL     OW 7711   5.938   4.829   1.686
 2271SOL    HW1 7712   6.023   4.827   1.633
 2271SOL    HW2 7713   5.860   4.825   1.623
 2272SOL     OW 7714   5.449   1.853   5.352
 2272SOL    HW1 7715   5.360   1.895   5.373
 2272SOL    HW2 7716   5.491   1.821   5.436
 2273SOL     OW 7717   0.864   1.141   3.459
 2273SOL    HW1 7718   0.804   1.170   3.385
 2273SOL    HW2 7719   0.846   1.197   3.540
 2274SOL     OW 7720   1.620   3.673   4.706
 2274SOL    HW1 7721   1.599   3.760   4.751
 2274SOL    HW2 7722   1.701   3.684   4.648
 2275SOL     OW 7723   4.870   5.601   4.886
 2275SOL    HW1 7724   4.903   5.519   4.933
 2275SOL    HW2 7725   4.806   5.574   4.814
 2276SOL     OW 7726   4.243   3.957   0.906
 2276SOL    HW1 7727   4.206   3.961   0.813
 2276SOL    HW2 7728   4.306   3.879   0.913
 2277SOL     OW 7729   2.792   3.395   6.420
 2277SOL    HW1 7730   2.832   3.485   6.440
 2277SOL    HW2 7731   2.763   3.392   6.324
 2278SOL     OW 7732   5.542   6.440   2.225
 2278SOL    HW1 7733   5.555   6.513   2.158
 2278SOL    HW2 7734   5.446   6.433   2.249
 2279SOL     OW 7735   5.725   3.129   5.060
 2279SOL    HW1 7736   5.791   3.149   5.133
 2279SOL    HW2 7737   5.774   3.110   4.975
 2280SOL     OW 7738   6.611   6.130   5.391
 2280SOL    HW1 7739   6.697   6.086   5.418
 2280SOL    HW2 7740   6.611   6.224   5.425
 2281SOL     OW 7741   3.584   1.962   1.459
 2281SOL    HW1 7742   3.485   1.952   1.460
 2281SOL    HW2 7743   3.613   2.020   1.535
 2282SOL     OW 7744   4.156   5.587   3.545
 2282SOL    HW1 7745   4.064   5.626   3.554
 2282SOL    HW2 7746   4.224   5.658   3.558
 2283SOL     OW 7747   0.141   3.707   3.523
 2283SOL    HW1 7748   0.059   3.685   3.469
 2283SOL    HW2 7749   0.146   3.805   3.538
 2284SOL     OW 7750   2.756   2.113   1.657
 2284SOL    HW1 7751   2.819   2.091   1.731
 2284SOL    HW2 7752   2.735   2.210   1.657
 2285SOL     OW 7753   1.208   3.760   0.176
 2285SOL    HW1 7754   1.151   3.840   0.160
 2285SOL    HW2 7755   1.243   3.761   0.270
 2286SOL     OW 7756   6.012   5.819   4.492
 2286SOL    HW1 7757   5.970   5.890   4.436
 2286SOL    HW2 7758   5.941   5.763   4.535
 2287SOL     OW 7759   2.345   2.306   1.371
 2287SOL    HW1 7760   2.415   2.378   1.376
 2287SOL    HW2 7761   2.268   2.337   1.316
 2288SOL     OW 7762   0.054   6.629   2.786
 2288SOL    HW1 7763   0.012   6.662   2.702
 2288SOL    HW2 7764   0.153   6.644   2.782
 2289SOL     OW 7765   5.895   1.451   2.282
 2289SOL    HW1 7766   5.916   1.426   2.187
 2289SOL    HW2 7767   5.828   1.387   2.319
 2290SOL     OW 7768   2.984   3.652   3.673
 2290SOL    HW1 7769   3.041   3.583   3.631
 2290SOL    HW2 7770   3.041   3.725   3.711
 2291SOL     OW 7771   1.955   2.013   1.081
 2291SOL    HW1 7772   1.978   2.002   1.177
 2291SOL    HW2 7773   1.856   2.026   1.071
 2292SOL     OW 7774   4.840   2.124   3.370
 2292SOL    HW1 7775   4.814   2.152   3.462
 2292SOL    HW2 7776   4.760   2.130   3.309
 2293SOL     OW 7777   5.475   1.193   0.570
 2293SOL    HW1 7778   5.387   1.237   0.587
 2293SOL    HW2 7779   5.470   1.097   0.596
 2294SOL     OW 7780   1.434   2.375   6.357
 2294SOL    HW1 7781   1.360   2.324   6.314
 2294SOL    HW2 7782   1.522   2.333   6.333
 2295SOL     OW 7783   6.822   6.997   1.959
 2295SOL    HW1 7784   6.921   7.005   1.972
 2295SOL    HW2 7785   6.775   7.013   2.046
 2296SOL     OW 7786   2.309   5.462   3.286
 2296SOL    HW1 7787   2.230   5.456   3.347
 2296SOL    HW2 7788   2.372   5.532   3.321
 2297SOL     OW 7789   4.672   5.128   5.723
 2297SOL    HW1 7790   4.755   5.098   5.677
 2297SOL    HW2 7791   4.653   5.223   5.698
 2298SOL     OW 7792   3.847   3.134   4.769
 2298SOL    HW1 7793   3.913   3.194   4.813
 2298SOL    HW2 7794   3.840   3.048   4.819
 2299SOL     OW 7795   5.710   3.432   5.152
 2299SOL    HW1 7796   5.799   3.444   5.196
 2299SOL    HW2 7797   5.722   3.384   5.065
 2300SOL     OW 7798   3.644   6.674   3.152
 2300SOL    HW1 7799   3.581   6.752   3.151
 2300SOL    HW2 7800   3.723   6.694   3.094
 2301SOL     OW 7801   3.103   3.212   4.366
 2301SOL    HW1 7802   3.129   3.148   4.438
 2301SOL    HW2 7803   3.061   3.293   4.406
 2302SOL     OW 7804   4.088   1.351   0.512
 2302SOL    HW1 7805   4.144   1.312   0.585
 2302SOL    HW2 7806   4.107   1.303   0.426
 2303SOL     OW 7807   2.441   2.565   0.985
 2303SOL    HW1 7808   2.433   2.533   0.890
 2303SOL    HW2 7809   2.430   2.664   0.987
 2304SOL     OW 7810   6.434   5.967   3.268
 2304SOL    HW1 7811   6.444   5.868   3.255
 2304SOL    HW2 7812   6.503   6.015   3.213
 2305SOL     OW 7813   1.115   1.316   4.875
 2305SOL    HW1 7814   1.065   1.241   4.832
 2305SOL    HW2 7815   1.053   1.366   4.936
 2306SOL     OW 7816   2.501   4.700   3.400
 2306SOL    HW1 7817   2.421   4.724   3.346
 2306SOL    HW2 7818   2.486   4.726   3.496
 2307SOL     OW 7819   1.434   2.583   5.415
 2307SOL    HW1 7820   1.486   2.666   5.392
 2307SOL    HW2 7821   1.337   2.598   5.394
 2308SOL     OW 7822   2.372   4.565   1.501
 2308SOL    HW1 7823   2.370   4.524   1.592
 2308SOL    HW2 7824   2.430   4.647   1.502
 2309SOL     OW 7825   1.190   6.863   4.247
 2309SOL    HW1 7826   1.172   6.873   4.344
 2309SOL    HW2 7827   1.172   6.768   4.219
 2310SOL     OW 7828   4.234   6.744   1.551
 2310SOL    HW1 7829   4.325   6.783   1.565
 2310SOL    HW2 7830   4.214   6.741   1.453
 2311SOL     OW 7831   2.627   5.900   0.908
 2311SOL    HW1 7832   2.629   5.860   0.816
 2311SOL    HW2 7833   2.695   5.973   0.913
 2312SOL     OW 7834   3.621   5.849   2.604
 2312SOL    HW1 7835   3.612   5.914   2.680
 2312SOL    HW2 7836   3.544   5.862   2.541
 2313SOL     OW 7837   4.640   4.886   2.731
 2313SOL    HW1 7838   4.638   4.985   2.720
 2313SOL    HW2 7839   4.639   4.842   2.642
 2314SOL     OW 7840   3.316   6.009   3.439
 2314SOL    HW1 7841   3.327   5.969   3.530
 2314SOL    HW2 7842   3.333   6.108   3.444
 2315SOL     OW 7843   4.535   3.283   6.395
 2315SOL    HW1 7844   4.590   3.202   6.376
 2315SOL    HW2 7845   4.456   3.285   6.335
 2316SOL     OW 7846   5.624   3.090   2.934
 2316SOL    HW1 7847   5.663   3.009   2.890
 2316SOL    HW2 7848   5.697   3.146   2.973
 2317SOL     OW 7849   1.815   4.286   3.295
 2317SOL    HW1 7850   1.895   4.346   3.296
 2317SOL    HW2 7851   1.801   4.248   3.387
 2318SOL     OW 7852   0.082   1.569   3.081
 2318SOL    HW1 7853   0.105   1.475   3.052
 2318SOL    HW2 7854   0.135   1.592   3.162
 2319SOL     OW 7855   1.526   4.855   4.552
 2319SOL    HW1 7856   1.612   4.845   4.602
 2319SOL    HW2 7857   1.543   4.855   4.454
 2320SOL     OW 7858   0.178   2.723   4.055
 2320SOL    HW1 7859   0.189   2.688   3.962
 2320SOL    HW2 7860   0.255   2.693   4.111
 2321SOL     OW 7861   2.951   6.728   4.906
 2321SOL    HW1 7862   3.047   6.713   4.881
 2321SOL    HW2 7863   2.892   6.680   4.842
 2322SOL     OW 7864   1.253   0.990   5.408
 2322SOL    HW1 7865   1.311   0.937   5.471
 2322SOL    HW2 7866   1.239   0.937   5.324
 2323SOL     OW 7867   4.782   5.363   2.855
 2323SOL    HW1 7868   4.718   5.426   2.811
 2323SOL    HW2 7869   4.821   5.406   2.936
 2324SOL     OW 7870   0.530   6.085   2.415
 2324SOL    HW1 7871   0.519   6.043   2.325
 2324SOL    HW2 7872   0.597   6.159   2.410
 2325SOL     OW 7873   1.390   4.000   1.406
 2325SOL    HW1 7874   1.435   3.968   1.489
 2325SOL    HW2 7875   1.441   3.970   1.326
 2326SOL     OW 7876   1.533   5.064   6.872
 2326SOL    HW1 7877   1.445   5.111   6.870
 2326SOL    HW2 7878   1.522   4.970   6.840
 2327SOL     OW 7879   5.105   2.870   4.107
 2327SOL    HW1 7880   5.165   2.931   4.158
 2327SOL    HW2 7881   5.149   2.845   4.020
 2328SOL     OW 7882   4.896   1.516   2.995
 2328SOL    HW1 7883   4.897   1.613   2.972
 2328SOL    HW2 7884   4.980   1.473   2.962
 2329SOL     OW 7885   1.031   5.880   4.189
 2329SOL    HW1 7886   1.130   5.882   4.204
 2329SOL    HW2 7887   1.012   5.849   4.096
 2330SOL     OW 7888   0.697   4.440   2.511
 2330SOL    HW1 7889   0.780   4.496   2.504
 2330SOL    HW2 7890   0.721   4.343   2.504
 2331SOL     OW 7891   0.472   4.316   5.293
 2331SOL    HW1 7892   0.401   4.368   5.340
 2331SOL    HW2 7893   0.521   4.376   5.229
 2332SOL     OW 7894   5.665   2.340   5.730
 2332SOL    HW1 7895   5.682   2.262   5.791
 2332SOL    HW2 7896   5.595   2.315   5.663
 2333SOL     OW 7897   1.396   5.524   3.374
 2333SOL    HW1 7898   1.448   5.472   3.305
 2333SOL    HW2 7899   1.309   5.478   3.391
 2334SOL     OW 7900   3.045   0.087   6.718
 2334SOL    HW1 7901   2.981   0.050   6.652
 2334SOL    HW2 7902   3.036   0.038   6.805
 2335SOL     OW 7903   4.862   0.007   3.394
 2335SOL    HW1 7904   4.780   6.983   3.421
 2335SOL    HW2 7905   4.906   0.045   3.476
 2336SOL     OW 7906   5.067   0.848   6.264
 2336SOL    HW1 7907   5.007   0.881   6.337
 2336SOL    HW2 7908   5.147   0.908   6.258
 2337SOL     OW 7909   5.176   0.354   3.315
 2337SOL    HW1 7910   5.134   0.277   3.266
 2337SOL    HW2 7911   5.170   0.436   3.259
 2338SOL     OW 7912   0.549   6.740   6.850
 2338SOL    HW1 7913   0.491   6.723   6.930
 2338SOL    HW2 7914   0.575   6.836   6.848
 2339SOL     OW 7915   3.516   4.586   0.118
 2339SOL    HW1 7916   3.564   4.656   0.169
 2339SOL    HW2 7917   3.503   4.617   0.023
 2340SOL     OW 7918   3.551   5.659   4.745
 2340SOL    HW1 7919   3.516   5.736   4.691
 2340SOL    HW2 7920   3.494   5.645   4.826
 2341SOL     OW 7921   5.313   5.283   0.961
 2341SOL    HW1 7922   5.382   5.217   0.933
 2341SOL    HW2 7923   5.352   5.375   0.959
 2342SOL     OW 7924   6.338   0.060   5.128
 2342SOL    HW1 7925   6.271   0.112   5.076
 2342SOL    HW2 7926   6.430   0.095   5.109
 2343SOL     OW 7927   1.157   5.468   0.969
 2343SOL    HW1 7928   1.117   5.465   1.060
 2343SOL    HW2 7929   1.177   5.563   0.944
 2344SOL     OW 7930   2.072   2.242   2.807
 2344SOL    HW1 7931   2.064   2.247   2.708
 2344SOL    HW2 7932   2.151   2.295   2.837
 2345SOL     OW 7933   1.596   0.904   4.143
 2345SOL    HW1 7934   1.623   0.999   4.129
 2345SOL    HW2 7935   1.657   0.862   4.211
 2346SOL     OW 7936   5.340   3.670   5.706
 2346SOL    HW1 7937   5.414   3.606   5.727
 2346SOL    HW2 7938   5.344   3.696   5.609
 2347SOL     OW 7939   1.758   3.012   1.868
 2347SOL    HW1 7940   1.784   2.979   1.959
 2347SOL    HW2 7941   1.785   3.108   1.859
 2348SOL     OW 7942   2.833   5.994   2.867
 2348SOL    HW1 7943   2.830   6.066   2.798
 2348SOL    HW2 7944   2.835   5.905   2.821
 2349SOL     OW 7945   6.720   6.785   6.137
 2349SOL    HW1 7946   6.669   6.871   6.142
 2349SOL    HW2 7947   6.713   6.748   6.044
 2350SOL     OW 7948   2.646   0.488   5.709
 2350SOL    HW1 7949   2.574   0.551   5.738
 2350SOL    HW2 7950   2.735   0.527   5.732
 2351SOL     OW 7951   2.673   4.933   3.941
 2351SOL    HW1 7952   2.708   4.985   3.863
 2351SOL    HW2 7953   2.634   4.997   4.008
 2352SOL     OW 7954   0.242   3.926   3.247
 2352SOL    HW1 7955   0.310   3.865   3.290
 2352SOL    HW2 7956   0.290   3.998   3.197
 2353SOL     OW 7957   2.772   4.266   5.718
 2353SOL    HW1 7958   2.719   4.349   5.700
 2353SOL    HW2 7959   2.724   4.187   5.681
 2354SOL     OW 7960   3.357   1.796   0.830
 2354SOL    HW1 7961   3.274   1.745   0.807
 2354SOL    HW2 7962   3.359   1.816   0.927
 2355SOL     OW 7963   0.414   6.430   0.342
 2355SOL    HW1 7964   0.328   6.418   0.293
 2355SOL    HW2 7965   0.468   6.346   0.335
 2356SOL     OW 7966   2.726   5.051   2.970
 2356SOL    HW1 7967   2.810   4.998   2.971
 2356SOL    HW2 7968   2.748   5.149   2.974
 2357SOL     OW 7969   6.090   4.366   2.232
 2357SOL    HW1 7970   6.094   4.354   2.132
 2357SOL    HW2 7971   6.010   4.422   2.255
 2358SOL     OW 7972   3.730   0.779   5.924
 2358SOL    HW1 7973   3.639   0.803   5.892
 2358SOL    HW2 7974   3.773   0.717   5.858
 2359SOL     OW 7975   2.519   1.647   5.152
 2359SOL    HW1 7976   2.528   1.723   5.088
 2359SOL    HW2 7977   2.425   1.615   5.153
 2360SOL     OW 7978   4.200   4.876   1.185
 2360SOL    HW1 7979   4.131   4.804   1.170
 2360SOL    HW2 7980   4.159   4.965   1.168
 2361SOL     OW 7981   3.199   6.826   2.276
 2361SOL    HW1 7982   3.234   6.767   2.349
 2361SOL    HW2 7983   3.273   6.884   2.241
 2362SOL     OW 7984   4.306   5.559   4.664
 2362SOL    HW1 7985   4.270   5.594   4.578
 2362SOL    HW2 7986   4.276   5.465   4.678
 2363SOL     OW 7987   3.079   3.145   0.526
 2363SOL    HW1 7988   3.073   3.183   0.434
 2363SOL    HW2 7989   3.157   3.184   0.574
 2364SOL     OW 7990   4.657   1.778   2.088
 2364SOL    HW1 7991   4.623   1.871   2.103
 2364SOL    HW2 7992   4.587   1.724   2.042
 2365SOL     OW 7993   5.593   3.595   3.949
 2365SOL    HW1 7994   5.625   3.602   3.855
 2365SOL    HW2 7995   5.562   3.501   3.967
 2366SOL     OW 7996   2.409   4.091   5.543
 2366SOL    HW1 7997   2.362   4.099   5.456
 2366SOL    HW2 7998   2.384   4.004   5.587
 2367SOL     OW 7999   0.692   4.043   6.129
 2367SOL    HW1 8000   0.646   4.130   6.107
 2367SOL    HW2 8001   0.791   4.054   6.116
 2368SOL     OW 8002   5.657   0.132   3.891
 2368SOL    HW1 8003   5.654   0.202   3.962
 2368SOL    HW2 8004   5.571   0.081   3.890
 2369SOL     OW 8005   3.078   1.509   3.753
 2369SOL    HW1 8006   3.039   1.505   3.845
 2369SOL    HW2 8007   3.151   1.441   3.744
 2370SOL     OW 8008   5.302   3.126   1.405
 2370SOL    HW1 8009   5.240   3.095   1.477
 2370SOL    HW2 8010   5.275   3.084   1.318
 2371SOL     OW 8011   0.789   6.668   2.783
 2371SOL    HW1 8012   0.878   6.712   2.768
 2371SOL    HW2 8013   0.795   6.606   2.862
 2372SOL     OW 8014   6.508   1.248   6.028
 2372SOL    HW1 8015   6.469   1.338   6.009
 2372SOL    HW2 8016   6.572   1.224   5.955
 2373SOL     OW 8017   6.287   0.535   5.946
 2373SOL    HW1 8018   6.221   0.571   5.880
 2373SOL    HW2 8019   6.304   0.438   5.927
 2374SOL     OW 8020   6.092   6.311   3.173
 2374SOL    HW1 8021   6.148   6.229   3.184
 2374SOL    HW2 8022   5.996   6.287   3.186
 2375SOL     OW 8023   1.010   0.324   3.837
 2375SOL    HW1 8024   1.072   0.356   3.909
 2375SOL    HW2 8025   1.062   0.315   3.751
 2376SOL     OW 8026   6.304   2.447   3.098
 2376SOL    HW1 8027   6.222   2.391   3.101
 2376SOL    HW2 8028   6.383   2.393   3.126
 2377SOL     OW 8029   4.107   4.991   5.945
 2377SOL    HW1 8030   4.135   5.086   5.935
 2377SOL    HW2 8031   4.164   4.947   6.015
 2378SOL     OW 8032   6.319   1.914   0.711
 2378SOL    HW1 8033   6.293   1.892   0.805
 2378SOL    HW2 8034   6.239   1.907   0.651
 2379SOL     OW 8035   6.820   5.073   0.255
 2379SOL    HW1 8036   6.880   5.072   0.175
 2379SOL    HW2 8037   6.749   5.142   0.242
 2380SOL     OW 8038   5.311   3.911   5.006
 2380SOL    HW1 8039   5.314   3.852   4.926
 2380SOL    HW2 8040   5.389   3.891   5.065
 2381SOL     OW 8041   2.545   5.048   5.114
 2381SOL    HW1 8042   2.472   5.116   5.110
 2381SOL    HW2 8043   2.591   5.054   5.202
 2382SOL     OW 8044   1.751   5.708   2.314
 2382SOL    HW1 8045   1.737   5.774   2.240
 2382SOL    HW2 8046   1.840   5.725   2.357
 2383SOL     OW 8047   5.358   5.615   4.912
 2383SOL    HW1 8048   5.330   5.547   4.979
 2383SOL    HW2 8049   5.307   5.700   4.928
 2384SOL     OW 8050   0.936   1.958   1.467
 2384SOL    HW1 8051   0.893   2.037   1.423
 2384SOL    HW2 8052   0.952   1.886   1.399
 2385SOL     OW 8053   0.624   1.691   0.687
 2385SOL    HW1 8054   0.530   1.719   0.670
 2385SOL    HW2 8055   0.638   1.598   0.653
 2386SOL     OW 8056   3.451   5.585   4.071
 2386SOL    HW1 8057   3.444   5.487   4.088
 2386SOL    HW2 8058   3.359   5.623   4.058
 2387SOL     OW 8059   0.793   2.259   3.617
 2387SOL    HW1 8060   0.776   2.190   3.548
 2387SOL    HW2 8061   0.892   2.274   3.626
 2388SOL     OW 8062   6.799   1.898   6.353
 2388SOL    HW1 8063   6.708   1.917   6.315
 2388SOL    HW2 8064   6.855   1.980   6.350
 2389SOL     OW 8065   4.683   4.809   4.351
 2389SOL    HW1 8066   4.742   4.733   4.324
 2389SOL    HW2 8067   4.590   4.776   4.366
 2390SOL     OW 8068   4.447   3.547   6.205
 2390SOL    HW1 8069   4.407   3.457   6.224
 2390SOL    HW2 8070   4.524   3.563   6.267
 2391SOL     OW 8071   3.371   3.618   6.364
 2391SOL    HW1 8072   3.335   3.625   6.271
 2391SOL    HW2 8073   3.465   3.653   6.366
 2392SOL     OW 8074   3.408   5.857   5.339
 2392SOL    HW1 8075   3.426   5.858   5.437
 2392SOL    HW2 8076   3.487   5.816   5.291
 2393SOL     OW 8077   4.071   5.400   1.356
 2393SOL    HW1 8078   4.163   5.416   1.319
 2393SOL    HW2 8079   4.076   5.330   1.427
 2394SOL     OW 8080   6.880   3.389   3.193
 2394SOL    HW1 8081   6.846   3.466   3.139
 2394SOL    HW2 8082   6.978   3.378   3.177
 2395SOL     OW 8083   0.635   2.955   6.583
 2395SOL    HW1 8084   0.550   2.905   6.566
 2395SOL    HW2 8085   0.633   3.043   6.534
 2396SOL     OW 8086   5.894   0.663   4.982
 2396SOL    HW1 8087   5.961   0.592   4.963
 2396SOL    HW2 8088   5.873   0.664   5.080
 2397SOL     OW 8089   1.026   4.877   5.392
 2397SOL    HW1 8090   1.087   4.856   5.468
 2397SOL    HW2 8091   1.080   4.905   5.312
 2398SOL     OW 8092   2.505   5.083   3.719
 2398SOL    HW1 8093   2.509   5.120   3.626
 2398SOL    HW2 8094   2.446   5.141   3.775
 2399SOL     OW 8095   2.756   2.251   3.517
 2399SOL    HW1 8096   2.821   2.312   3.561
 2399SOL    HW2 8097   2.664   2.268   3.552
 2400SOL     OW 8098   2.064   4.018   0.059
 2400SOL    HW1 8099   2.032   4.113   0.055
 2400SOL    HW2 8100   2.081   3.985   6.993
 2401SOL     OW 8101   3.790   0.244   4.797
 2401SOL    HW1 8102   3.781   0.171   4.864
 2401SOL    HW2 8103   3.879   0.237   4.752
 2402SOL     OW 8104   0.696   2.314   2.533
 2402SOL    HW1 8105   0.786   2.342   2.565
 2402SOL    HW2 8106   0.638   2.395   2.521
 2403SOL     OW 8107   4.102   3.601   1.964
 2403SOL    HW1 8108   4.011   3.615   1.925
 2403SOL    HW2 8109   4.121   3.504   1.973
 2404SOL     OW 8110   6.500   1.229   1.124
 2404SOL    HW1 8111   6.561   1.191   1.055
 2404SOL    HW2 8112   6.459   1.313   1.090
 2405SOL     OW 8113   2.262   4.714   0.130
 2405SOL    HW1 8114   2.181   4.753   0.085
 2405SOL    HW2 8115   2.336   4.781   0.128
 2406SOL     OW 8116   1.871   0.348   3.967
 2406SOL    HW1 8117   1.804   0.273   3.979
 2406SOL    HW2 8118   1.846   0.402   3.887
 2407SOL     OW 8119   4.114   1.971   3.521
 2407SOL    HW1 8120   4.177   1.925   3.458
 2407SOL    HW2 8121   4.037   2.008   3.469
 2408SOL     OW 8122   2.342   5.858   3.576
 2408SOL    HW1 8123   2.257   5.875   3.527
 2408SOL    HW2 8124   2.320   5.822   3.667
 2409SOL     OW 8125   2.236   2.493   1.140
 2409SOL    HW1 8126   2.308   2.501   1.070
 2409SOL    HW2 8127   2.157   2.547   1.113
 2410SOL     OW 8128   6.294   3.308   5.965
 2410SOL    HW1 8129   6.355   3.292   6.043
 2410SOL    HW2 8130   6.228   3.233   5.958
 2411SOL     OW 8131   2.744   3.921   6.678
 2411SOL    HW1 8132   2.814   3.968   6.625
 2411SOL    HW2 8133   2.653   3.953   6.651
 2412SOL     OW 8134   3.004   2.384   6.619
 2412SOL    HW1 8135   2.962   2.356   6.705
 2412SOL    HW2 8136   2.990   2.313   6.550
 2413SOL     OW 8137   6.946   3.477   6.379
 2413SOL    HW1 8138   6.876   3.429   6.432
 2413SOL    HW2 8139   6.901   3.536   6.312
 2414SOL     OW 8140   5.702   3.090   4.197
 2414SOL    HW1 8141   5.746   3.126   4.279
 2414SOL    HW2 8142   5.765   3.028   4.150
 2415SOL     OW 8143   2.271   6.423   1.060
 2415SOL    HW1 8144   2.175   6.395   1.056
 2415SOL    HW2 8145   2.285   6.501   0.999
 2416SOL     OW 8146   0.386   3.536   3.084
 2416SOL    HW1 8147   0.314   3.545   3.015
 2416SOL    HW2 8148   0.465   3.490   3.042
 2417SOL     OW 8149   4.606   2.395   0.090
 2417SOL    HW1 8150   4.676   2.338   0.132
 2417SOL    HW2 8151   4.515   2.366   0.121
 2418SOL     OW 8152   4.346   4.196   5.313
 2418SOL    HW1 8153   4.289   4.267   5.273
 2418SOL    HW2 8154   4.438   4.232   5.329
 2419SOL     OW 8155   1.983   6.505   4.417
 2419SOL    HW1 8156   1.974   6.602   4.441
 2419SOL    HW2 8157   1.931   6.450   4.482
 2420SOL     OW 8158   3.402   5.470   2.214
 2420SOL    HW1 8159   3.344   5.549   2.194
 2420SOL    HW2 8160   3.366   5.422   2.293
 2421SOL     OW 8161   3.298   0.044   4.598
 2421SOL    HW1 8162   3.214   0.056   4.546
 2421SOL    HW2 8163   3.280   7.013   4.678
 2422SOL     OW 8164   3.605   7.017   2.068
 2422SOL    HW1 8165   3.642   0.009   2.160
 2422SOL    HW2 8166   3.673   0.017   2.000
 2423SOL     OW 8167   1.955   5.400   1.981
 2423SOL    HW1 8168   1.972   5.482   2.035
 2423SOL    HW2 8169   2.028   5.334   1.996
 2424SOL     OW 8170   5.534   0.304   6.552
 2424SOL    HW1 8171   5.466   0.371   6.581
 2424SOL    HW2 8172   5.588   0.276   6.631
 2425SOL     OW 8173   4.599   5.389   5.654
 2425SOL    HW1 8174   4.581   5.422   5.561
 2425SOL    HW2 8175   4.684   5.431   5.688
 2426SOL     OW 8176   1.534   5.571   5.768
 2426SOL    HW1 8177   1.439   5.595   5.786
 2426SOL    HW2 8178   1.541   5.472   5.755
 2427SOL     OW 8179   4.827   6.576   6.128
 2427SOL    HW1 8180   4.790   6.516   6.199
 2427SOL    HW2 8181   4.819   6.672   6.158
 2428SOL     OW 8182   0.223   1.442   3.661
 2428SOL    HW1 8183   0.169   1.359   3.674
 2428SOL    HW2 8184   0.264   1.469   3.748
 2429SOL     OW 8185   5.216   4.778   2.655
 2429SOL    HW1 8186   5.142   4.726   2.697
 2429SOL    HW2 8187   5.177   4.843   2.589
 2430SOL     OW 8188   5.817   2.034   0.575
 2430SOL    HW1 8189   5.732   2.035   0.522
 2430SOL    HW2 8190   5.835   2.125   0.612
 2431SOL     OW 8191   6.114   1.872   2.067
 2431SOL    HW1 8192   6.099   1.969   2.049
 2431SOL    HW2 8193   6.040   1.836   2.124
 2432SOL     OW 8194   3.173   5.273   2.079
 2432SOL    HW1 8195   3.174   5.345   2.010
 2432SOL    HW2 8196   3.211   5.307   2.165
 2433SOL     OW 8197   6.867   5.479   0.033
 2433SOL    HW1 8198   6.929   5.461   0.109
 2433SOL    HW2 8199   6.797   5.544   0.062
 2434SOL     OW 8200   4.493   1.871   2.961
 2434SOL    HW1 8201   4.461   1.820   2.881
 2434SOL    HW2 8202   4.448   1.960   2.964
 2435SOL     OW 8203   5.431   6.791   6.595
 2435SOL    HW1 8204   5.499   6.854   6.560
 2435SOL    HW2 8205   5.379   6.752   6.519
 2436SOL     OW 8206   1.387   1.036   1.663
 2436SOL    HW1 8207   1.324   1.083   1.600
 2436SOL    HW2 8208   1.400   0.942   1.632
 2437SOL     OW 8209   6.359   6.090   2.403
 2437SOL    HW1 8210   6.359   6.009   2.462
 2437SOL    HW2 8211   6.267   6.126   2.396
 2438SOL     OW 8212   3.516   1.788   4.166
 2438SOL    HW1 8213   3.481   1.729   4.093
 2438SOL    HW2 8214   3.568   1.863   4.125
 2439SOL     OW 8215   0.125   4.970   6.606
 2439SOL    HW1 8216   0.108   5.067   6.588
 2439SOL    HW2 8217   0.211   4.943   6.561
 2440SOL     OW 8218   3.848   1.716   4.099
 2440SOL    HW1 8219   3.830   1.642   4.035
 2440SOL    HW2 8220   3.921   1.774   4.063
 2441SOL     OW 8221   5.805   0.466   6.699
 2441SOL    HW1 8222   5.809   0.504   6.792
 2441SOL    HW2 8223   5.755   0.380   6.701
 2442SOL     OW 8224   5.200   3.790   2.048
 2442SOL    HW1 8225   5.126   3.762   1.987
 2442SOL    HW2 8226   5.189   3.747   2.138
 2443SOL     OW 8227   2.368   1.187   6.971
 2443SOL    HW1 8228   2.439   1.183   6.900
 2443SOL    HW2 8229   2.349   1.094   7.003
 2444SOL     OW 8230   4.753   4.851   0.694
 2444SOL    HW1 8231   4.837   4.889   0.732
 2444SOL    HW2 8232   4.715   4.915   0.628
 2445SOL     OW 8233   6.719   2.220   1.945
 2445SOL    HW1 8234   6.714   2.142   1.881
 2445SOL    HW2 8235   6.787   2.201   2.016
 2446SOL     OW 8236   1.123   2.998   2.020
 2446SOL    HW1 8237   1.127   3.094   2.050
 2446SOL    HW2 8238   1.052   2.988   1.951
 2447SOL     OW 8239   2.233   1.049   0.197
 2447SOL    HW1 8240   2.311   1.108   0.216
 2447SOL    HW2 8241   2.259   0.981   0.128
 2448SOL     OW 8242   5.891   1.941   4.309
 2448SOL    HW1 8243   5.879   2.026   4.258
 2448SOL    HW2 8244   5.988   1.915   4.309
 2449SOL     OW 8245   1.865   4.087   1.730
 2449SOL    HW1 8246   1.925   4.012   1.704
 2449SOL    HW2 8247   1.826   4.129   1.648
 2450SOL     OW 8248   3.185   5.145   6.807
 2450SOL    HW1 8249   3.188   5.219   6.875
 2450SOL    HW2 8250   3.126   5.072   6.840
 2451SOL     OW 8251   0.568   6.979   4.071
 2451SOL    HW1 8252   0.623   7.019   3.998
 2451SOL    HW2 8253   0.628   6.953   4.147
 2452SOL     OW 8254   2.342   2.340   3.157
 2452SOL    HW1 8255   2.384   2.284   3.229
 2452SOL    HW2 8256   2.408   2.408   3.126
 2453SOL     OW 8257   6.534   2.130   0.755
 2453SOL    HW1 8258   6.615   2.103   0.702
 2453SOL    HW2 8259   6.461   2.064   0.738
 2454SOL     OW 8260   3.216   5.619   0.784
 2454SOL    HW1 8261   3.298   5.593   0.734
 2454SOL    HW2 8262   3.191   5.546   0.847
 2455SOL     OW 8263   3.458   1.268   0.157
 2455SOL    HW1 8264   3.419   1.341   0.212
 2455SOL    HW2 8265   3.399   1.250   0.078
 2456SOL     OW 8266   0.905   3.674   0.112
 2456SOL    HW1 8267   0.930   3.593   0.059
 2456SOL    HW2 8268   0.986   3.708   0.160
 2457SOL     OW 8269   5.558   1.314   5.622
 2457SOL    HW1 8270   5.620   1.269   5.686
 2457SOL    HW2 8271   5.591   1.302   5.529
 2458SOL     OW 8272   0.957   1.072   3.085
 2458SOL    HW1 8273   0.963   1.022   3.171
 2458SOL    HW2 8274   0.861   1.089   3.063
 2459SOL     OW 8275   2.837   5.684   5.931
 2459SOL    HW1 8276   2.743   5.661   5.959
 2459SOL    HW2 8277   2.880   5.739   6.003
 2460SOL     OW 8278   0.871   0.747   0.048
 2460SOL    HW1 8279   0.967   0.771   0.058
 2460SOL    HW2 8280   0.840   0.700   0.130
 2461SOL     OW 8281   4.470   6.687   4.046
 2461SOL    HW1 8282   4.443   6.608   3.992
 2461SOL    HW2 8283   4.566   6.708   4.029
 2462SOL     OW 8284   0.684   5.314   0.667
 2462SOL    HW1 8285   0.782   5.323   0.682
 2462SOL    HW2 8286   0.659   5.359   0.581
 2463SOL     OW 8287   6.583   1.667   0.596
 2463SOL    HW1 8288   6.637   1.592   0.557
 2463SOL    HW2 8289   6.601   1.751   0.545
 2464SOL     OW 8290   0.771   2.821   3.036
 2464SOL    HW1 8291   0.717   2.787   3.113
 2464SOL    HW2 8292   0.721   2.894   2.989
 2465SOL     OW 8293   6.728   6.142   6.205
 2465SOL    HW1 8294   6.756   6.221   6.260
 2465SOL    HW2 8295   6.637   6.159   6.166
 2466SOL     OW 8296   1.283   1.951   2.594
 2466SOL    HW1 8297   1.297   1.938   2.495
 2466SOL    HW2 8298   1.303   1.866   2.642
 2467SOL     OW 8299   4.577   1.944   5.690
 2467SOL    HW1 8300   4.608   1.858   5.649
 2467SOL    HW2 8301   4.499   1.926   5.750
 2468SOL     OW 8302   3.940   0.365   6.409
 2468SOL    HW1 8303   4.016   0.313   6.449
 2468SOL    HW2 8304   3.853   0.324   6.437
 2469SOL     OW 8305   4.037   3.262   5.633
 2469SOL    HW1 8306   3.997   3.177   5.599
 2469SOL    HW2 8307   4.012   3.337   5.573
 2470SOL     OW 8308   4.062   4.504   6.805
 2470SOL    HW1 8309   4.045   4.495   6.707
 2470SOL    HW2 8310   4.123   4.431   6.835
 2471SOL     OW 8311   3.166   0.025   0.574
 2471SOL    HW1 8312   3.080   0.071   0.553
 2471SOL    HW2 8313   3.197   7.000   0.493
 2472SOL     OW 8314   4.296   2.312   3.470
 2472SOL    HW1 8315   4.362   2.373   3.427
 2472SOL    HW2 8316   4.293   2.331   3.568
 2473SOL     OW 8317   1.191   4.615   5.100
 2473SOL    HW1 8318   1.144   4.649   5.018
 2473SOL    HW2 8319   1.265   4.677   5.125
 2474SOL     OW 8320   1.200   5.718   0.274
 2474SOL    HW1 8321   1.224   5.814   0.286
 2474SOL    HW2 8322   1.171   5.679   0.361
 2475SOL     OW 8323   4.423   0.276   1.474
 2475SOL    HW1 8324   4.457   0.213   1.404
 2475SOL    HW2 8325   4.478   0.360   1.472
 2476SOL     OW 8326   5.846   0.094   2.564
 2476SOL    HW1 8327   5.834   0.058   2.472
 2476SOL    HW2 8328   5.818   0.025   2.631
 2477SOL     OW 8329   3.684   0.934   2.994
 2477SOL    HW1 8330   3.603   0.877   2.980
 2477SOL    HW2 8331   3.766   0.878   2.989
 2478SOL     OW 8332   4.850   0.849   1.676
 2478SOL    HW1 8333   4.760   0.814   1.652
 2478SOL    HW2 8334   4.855   0.863   1.775
 2479SOL     OW 8335   1.517   2.568   1.519
 2479SOL    HW1 8336   1.423   2.540   1.500
 2479SOL    HW2 8337   1.574   2.550   1.439
 2480SOL     OW 8338   3.819   2.468   1.217
 2480SOL    HW1 8339   3.870   2.554   1.223
 2480SOL    HW2 8340   3.883   2.391   1.216
 2481SOL     OW 8341   2.895   0.805   1.473
 2481SOL    HW1 8342   2.973   0.866   1.457
 2481SOL    HW2 8343   2.901   0.726   1.411
 2482SOL     OW 8344   5.156   3.636   0.195
 2482SOL    HW1 8345   5.206   3.721   0.178
 2482SOL    HW2 8346   5.204   3.582   0.264
 2483SOL     OW 8347   1.425   1.389   0.212
 2483SOL    HW1 8348   1.460   1.458   0.275
 2483SOL    HW2 8349   1.420   1.427   0.120
 2484SOL     OW 8350   3.557   0.790   0.102
 2484SOL    HW1 8351   3.485   0.856   0.122
 2484SOL    HW2 8352   3.552   0.714   0.168
 2485SOL     OW 8353   5.079   3.115   0.515
 2485SOL    HW1 8354   5.106   3.072   0.601
 2485SOL    HW2 8355   5.113   3.061   0.438
 2486SOL     OW 8356   1.135   5.226   5.745
 2486SOL    HW1 8357   1.179   5.288   5.680
 2486SOL    HW2 8358   1.082   5.280   5.811
 2487SOL     OW 8359   4.390   6.244   6.911
 2487SOL    HW1 8360   4.291   6.252   6.895
 2487SOL    HW2 8361   4.437   6.234   6.823
 2488SOL     OW 8362   0.863   3.394   1.848
 2488SOL    HW1 8363   0.769   3.410   1.817
 2488SOL    HW2 8364   0.884   3.453   1.926
 2489SOL     OW 8365   1.266   5.960   3.450
 2489SOL    HW1 8366   1.303   6.053   3.457
 2489SOL    HW2 8367   1.333   5.901   3.406
 2490SOL     OW 8368   0.419   5.933   0.944
 2490SOL    HW1 8369   0.437   6.014   0.889
 2490SOL    HW2 8370   0.324   5.934   0.975
 2491SOL     OW 8371   3.596   4.413   1.190
 2491SOL    HW1 8372   3.536   4.373   1.121
 2491SOL    HW2 8373   3.540   4.450   1.265
 2492SOL     OW 8374   4.324   3.285   1.056
 2492SOL    HW1 8375   4.360   3.340   1.132
 2492SOL    HW2 8376   4.225   3.279   1.064
 2493SOL     OW 8377   6.686   6.794   1.406
 2493SOL    HW1 8378   6.709   6.697   1.415
 2493SOL    HW2 8379   6.767   6.850   1.423
 2494SOL     OW 8380   5.761   4.118   2.014
 2494SOL    HW1 8381   5.757   4.192   1.947
 2494SOL    HW2 8382   5.822   4.145   2.089
 2495SOL     OW 8383   5.063   5.395   3.660
 2495SOL    HW1 8384   4.979   5.446   3.678
 2495SOL    HW2 8385   5.119   5.445   3.594
 2496SOL     OW 8386   0.083   3.055   6.797
 2496SOL    HW1 8387   0.048   3.146   6.819
 2496SOL    HW2 8388   0.032   2.987   6.849
 2497SOL     OW 8389   0.339   0.208   0.858
 2497SOL    HW1 8390   0.355   0.158   0.943
 2497SOL    HW2 8391   0.295   0.295   0.878
 2498SOL     OW 8392   3.137   2.212   5.396
 2498SOL    HW1 8393   3.200   2.138   5.421
 2498SOL    HW2 8394   3.160   2.246   5.305
 2499SOL     OW 8395   6.017   3.500   2.183
 2499SOL    HW1 8396   5.968   3.503   2.096
 2499SOL    HW2 8397   5.975   3.432   2.244
 2500SOL     OW 8398   3.470   4.438   6.631
 2500SOL    HW1 8399   3.412   4.371   6.679
 2500SOL    HW2 8400   3.538   4.474   6.694
 2501SOL     OW 8401   5.554   5.635   0.052
 2501SOL    HW1 8402   5.635   5.605   0.103
 2501SOL    HW2 8403   5.583   5.689   6.998
 2502SOL     OW 8404   1.039   0.295   4.630
 2502SOL    HW1 8405   1.123   0.243   4.615
 2502SOL    HW2 8406   1.060   0.392   4.633
 2503SOL     OW 8407   2.804   6.575   4.483
 2503SOL    HW1 8408   2.819   6.640   4.557
 2503SOL    HW2 8409   2.819   6.482   4.517
 2504SOL     OW 8410   3.612   5.786   3.954
 2504SOL    HW1 8411   3.574   5.764   4.043
 2504SOL    HW2 8412   3.627   5.702   3.902
 2505SOL     OW 8413   0.386   6.548   3.012
 2505SOL    HW1 8414   0.443   6.575   2.935
 2505SOL    HW2 8415   0.429   6.470   3.059
 2506SOL     OW 8416   6.597   3.153   6.392
 2506SOL    HW1 8417   6.501   3.125   6.389
 2506SOL    HW2 8418   6.604   3.245   6.430
 2507SOL     OW 8419   6.239   3.298   0.196
 2507SOL    HW1 8420   6.248   3.208   0.154
 2507SOL    HW2 8421   6.235   3.289   0.296
 2508SOL     OW 8422   2.752   1.438   3.675
 2508SOL    HW1 8423   2.842   1.470   3.705
 2508SOL    HW2 8424   2.711   1.507   3.616
 2509SOL     OW 8425   0.131   4.496   1.320
 2509SOL    HW1 8426   0.224   4.501   1.284
 2509SOL    HW2 8427   0.093   4.588   1.329
 2510SOL     OW 8428   2.745   4.693   1.140
 2510SOL    HW1 8429   2.649   4.668   1.153
 2510SOL    HW2 8430   2.756   4.737   1.052
 2511SOL     OW 8431   3.042   1.861   4.078
 2511SOL    HW1 8432   3.075   1.856   3.983
 2511SOL    HW2 8433   3.117   1.891   4.137
 2512SOL     OW 8434   4.545   3.860   5.314
 2512SOL    HW1 8435   4.527   3.781   5.255
 2512SOL    HW2 8436   4.460   3.887   5.358
 2513SOL     OW 8437   2.055   4.847   4.695
 2513SOL    HW1 8438   2.083   4.839   4.599
 2513SOL    HW2 8439   2.118   4.794   4.752
 2514SOL     OW 8440   0.692   3.657   5.034
 2514SOL    HW1 8441   0.683   3.726   5.106
 2514SOL    HW2 8442   0.628   3.582   5.051
 2515SOL     OW 8443   1.692   6.180   0.369
 2515SOL    HW1 8444   1.723   6.171   0.464
 2515SOL    HW2 8445   1.652   6.271   0.356
 2516SOL     OW 8446   5.206   1.578   2.959
 2516SOL    HW1 8447   5.282   1.608   3.017
 2516SOL    HW2 8448   5.203   1.634   2.876
 2517SOL     OW 8449   1.211   0.312   6.260
 2517SOL    HW1 8450   1.310   0.319   6.250
 2517SOL    HW2 8451   1.168   0.397   6.228
 2518SOL     OW 8452   1.598   5.312   1.049
 2518SOL    HW1 8453   1.511   5.311   1.000
 2518SOL    HW2 8454   1.660   5.377   1.005
 2519SOL     OW 8455   4.232   6.907   2.038
 2519SOL    HW1 8456   4.237   6.975   1.965
 2519SOL    HW2 8457   4.298   6.930   2.109
 2520SOL     OW 8458   3.162   1.446   0.981
 2520SOL    HW1 8459   3.132   1.525   0.928
 2520SOL    HW2 8460   3.084   1.404   1.027
 2521SOL     OW 8461   3.207   0.370   5.211
 2521SOL    HW1 8462   3.190   0.386   5.114
 2521SOL    HW2 8463   3.142   0.302   5.246
 2522SOL     OW 8464   0.935   1.953   5.251
 2522SOL    HW1 8465   0.875   2.031   5.234
 2522SOL    HW2 8466   0.966   1.916   5.163
 2523SOL     OW 8467   1.263   2.722   0.911
 2523SOL    HW1 8468   1.315   2.714   0.827
 2523SOL    HW2 8469   1.254   2.819   0.936
 2524SOL     OW 8470   0.073   6.501   5.085
 2524SOL    HW1 8471   0.132   6.472   5.011
 2524SOL    HW2 8472   0.107   6.587   5.124
 2525SOL     OW 8473   1.046   2.207   5.454
 2525SOL    HW1 8474   0.966   2.266   5.448
 2525SOL    HW2 8475   1.018   2.114   5.477
 2526SOL     OW 8476   1.629   5.036   6.363
 2526SOL    HW1 8477   1.729   5.040   6.359
 2526SOL    HW2 8478   1.599   4.942   6.375
 2527SOL     OW 8479   6.005   6.545   5.930
 2527SOL    HW1 8480   6.020   6.644   5.939
 2527SOL    HW2 8481   5.938   6.528   5.857
 2528SOL     OW 8482   6.310   5.314   6.469
 2528SOL    HW1 8483   6.348   5.295   6.378
 2528SOL    HW2 8484   6.354   5.256   6.537
 2529SOL     OW 8485   6.219   6.438   6.232
 2529SOL    HW1 8486   6.180   6.512   6.287
 2529SOL    HW2 8487   6.308   6.413   6.270
 2530SOL     OW 8488   2.588   6.341   4.770
 2530SOL    HW1 8489   2.562   6.267   4.833
 2530SOL    HW2 8490   2.563   6.315   4.677
 2531SOL     OW 8491   5.645   5.613   4.480
 2531SOL    HW1 8492   5.615   5.626   4.385
 2531SOL    HW2 8493   5.567   5.584   4.536
 2532SOL     OW 8494   0.126   6.036   0.435
 2532SOL    HW1 8495   0.221   6.019   0.461
 2532SOL    HW2 8496   0.065   6.002   0.507
 2533SOL     OW 8497   4.110   0.056   4.170
 2533SOL    HW1 8498   4.193   0.013   4.204
 2533SOL    HW2 8499   4.042   0.059   4.244
 2534SOL     OW 8500   3.714   1.537   1.814
 2534SOL    HW1 8501   3.767   1.606   1.864
 2534SOL    HW2 8502   3.624   1.527   1.857
 2535SOL     OW 8503   3.687   3.322   6.044
 2535SOL    HW1 8504   3.719   3.370   6.126
 2535SOL    HW2 8505   3.616   3.255   6.070
 2536SOL     OW 8506   1.413   1.496   5.440
 2536SOL    HW1 8507   1.405   1.402   5.406
 2536SOL    HW2 8508   1.335   1.550   5.408
 2537SOL     OW 8509   3.203   0.300   6.340
 2537SOL    HW1 8510   3.218   0.253   6.427
 2537SOL    HW2 8511   3.248   0.250   6.266
 2538SOL     OW 8512   0.459   4.336   3.485
 2538SOL    HW1 8513   0.410   4.417   3.516
 2538SOL    HW2 8514   0.557   4.357   3.480
 2539SOL     OW 8515   5.541   0.947   4.575
 2539SOL    HW1 8516   5.455   0.956   4.625
 2539SOL    HW2 8517   5.618   0.950   4.639
 2540SOL     OW 8518   3.967   2.136   2.444
 2540SOL    HW1 8519   3.868   2.136   2.428
 2540SOL    HW2 8520   4.015   2.164   2.361
 2541SOL     OW 8521   3.380   0.909   4.441
 2541SOL    HW1 8522   3.409   1.004   4.449
 2541SOL    HW2 8523   3.381   0.866   4.532
 2542SOL     OW 8524   3.485   3.105   6.154
 2542SOL    HW1 8525   3.424   3.156   6.215
 2542SOL    HW2 8526   3.493   3.011   6.188
 2543SOL     OW 8527   0.460   0.623   3.323
 2543SOL    HW1 8528   0.506   0.593   3.240
 2543SOL    HW2 8529   0.386   0.686   3.300
 2544SOL     OW 8530   0.754   6.106   0.922
 2544SOL    HW1 8531   0.657   6.112   0.899
 2544SOL    HW2 8532   0.800   6.191   0.897
 2545SOL     OW 8533   1.215   6.879   1.733
 2545SOL    HW1 8534   1.129   6.929   1.724
 2545SOL    HW2 8535   1.196   6.784   1.755
 2546SOL     OW 8536   6.804   1.209   2.034
 2546SOL    HW1 8537   6.880   1.233   1.974
 2546SOL    HW2 8538   6.776   1.114   2.017
 2547SOL     OW 8539   0.005   4.058   0.394
 2547SOL    HW1 8540   0.000   4.154   0.368
 2547SOL    HW2 8541   6.942   4.028   0.429
 2548SOL     OW 8542   0.652   7.023   5.287
 2548SOL    HW1 8543   0.723   0.062   5.313
 2548SOL    HW2 8544   0.584   7.016   5.359
 2549SOL     OW 8545   1.029   0.229   0.754
 2549SOL    HW1 8546   1.107   0.290   0.769
 2549SOL    HW2 8547   0.970   0.266   0.683
 2550SOL     OW 8548   0.254   0.713   6.851
 2550SOL    HW1 8549   0.262   0.775   6.929
 2550SOL    HW2 8550   0.190   0.750   6.785
 2551SOL     OW 8551   3.578   4.693   0.751
 2551SOL    HW1 8552   3.550   4.608   0.707
 2551SOL    HW2 8553   3.578   4.768   0.684
 2552SOL     OW 8554   1.597   6.069   4.288
 2552SOL    HW1 8555   1.669   6.065   4.218
 2552SOL    HW2 8556   1.639   6.087   4.377
 2553SOL     OW 8557   4.404   3.749   5.764
 2553SOL    HW1 8558   4.336   3.699   5.709
 2553SOL    HW2 8559   4.369   3.761   5.857
 2554SOL     OW 8560   2.649   0.183   0.632
 2554SOL    HW1 8561   2.586   0.194   0.710
 2554SOL    HW2 8562   2.711   0.107   0.651
 2555SOL     OW 8563   5.907   0.126   4.835
 2555SOL    HW1 8564   5.885   0.075   4.918
 2555SOL    HW2 8565   5.869   0.078   4.756
 2556SOL     OW 8566   3.959   6.227   0.016
 2556SOL    HW1 8567   3.905   6.242   6.959
 2556SOL    HW2 8568   3.916   6.273   0.093
 2557SOL     OW 8569   2.280   4.447   0.121
 2557SOL    HW1 8570   2.271   4.545   0.136
 2557SOL    HW2 8571   2.257   4.398   0.205
 2558SOL     OW 8572   5.218   1.593   5.390
 2558SOL    HW1 8573   5.186   1.660   5.324
 2558SOL    HW2 8574   5.202   1.501   5.354
 2559SOL     OW 8575   0.581   3.760   5.431
 2559SOL    HW1 8576   0.533   3.836   5.475
 2559SOL    HW2 8577   0.517   3.710   5.373
 2560SOL     OW 8578   5.561   2.914   5.195
 2560SOL    HW1 8579   5.524   2.935   5.285
 2560SOL    HW2 8580   5.498   2.947   5.124
 2561SOL     OW 8581   3.132   5.884   5.400
 2561SOL    HW1 8582   3.232   5.884   5.408
 2561SOL    HW2 8583   3.092   5.876   5.491
 2562SOL     OW 8584   2.311   5.195   1.619
 2562SOL    HW1 8585   2.365   5.269   1.660
 2562SOL    HW2 8586   2.355   5.107   1.639
 2563SOL     OW 8587   3.218   1.808   0.525
 2563SOL    HW1 8588   3.210   1.748   0.604
 2563SOL    HW2 8589   3.208   1.754   0.441
 2564SOL     OW 8590   2.529   5.819   6.569
 2564SOL    HW1 8591   2.444   5.858   6.603
 2564SOL    HW2 8592   2.512   5.728   6.532
 2565SOL     OW 8593   1.236   0.003   6.778
 2565SOL    HW1 8594   1.255   0.098   6.751
 2565SOL    HW2 8595   1.148   7.001   6.740
 2566SOL     OW 8596   2.177   0.049   1.226
 2566SOL    HW1 8597   2.138   0.129   1.181
 2566SOL    HW2 8598   2.263   0.024   1.181
 2567SOL     OW 8599   1.232   0.419   0.748
 2567SOL    HW1 8600   1.273   0.498   0.793
 2567SOL    HW2 8601   1.300   0.374   0.691
 2568SOL     OW 8602   4.113   1.151   0.037
 2568SOL    HW1 8603   4.145   1.147   0.132
 2568SOL    HW2 8604   4.023   1.193   0.033
 2569SOL     OW 8605   3.147   0.613   2.505
 2569SOL    HW1 8606   3.088   0.654   2.574
 2569SOL    HW2 8607   3.243   0.637   2.524
 2570SOL     OW 8608   5.542   0.040   6.470
 2570SOL    HW1 8609   5.535   0.123   6.525
 2570SOL    HW2 8610   5.638   0.016   6.457
 2571SOL     OW 8611   2.434   4.389   5.161
 2571SOL    HW1 8612   2.459   4.445   5.083
 2571SOL    HW2 8613   2.447   4.441   5.245
 2572SOL     OW 8614   2.767   6.076   1.312
 2572SOL    HW1 8615   2.739   6.098   1.405
 2572SOL    HW2 8616   2.739   5.983   1.289
 2573SOL     OW 8617   0.033   1.811   1.833
 2573SOL    HW1 8618   0.100   1.871   1.791
 2573SOL    HW2 8619   0.061   1.788   1.926
 2574SOL     OW 8620   5.576   4.219   0.697
 2574SOL    HW1 8621   5.529   4.280   0.761
 2574SOL    HW2 8622   5.658   4.181   0.740
 2575SOL     OW 8623   4.849   5.740   0.784
 2575SOL    HW1 8624   4.861   5.670   0.854
 2575SOL    HW2 8625   4.872   5.830   0.821
 2576SOL     OW 8626   4.429   6.502   4.839
 2576SOL    HW1 8627   4.416   6.542   4.748
 2576SOL    HW2 8628   4.495   6.558   4.891
 2577SOL     OW 8629   4.126   6.601   2.348
 2577SOL    HW1 8630   4.084   6.646   2.270
 2577SOL    HW2 8631   4.158   6.510   2.321
 2578SOL     OW 8632   4.558   1.758   4.694
 2578SOL    HW1 8633   4.530   1.818   4.768
 2578SOL    HW2 8634   4.567   1.811   4.609
 2579SOL     OW 8635   1.409   6.807   3.762
 2579SOL    HW1 8636   1.323   6.835   3.805
 2579SOL    HW2 8637   1.393   6.782   3.667
 2580SOL     OW 8638   2.742   4.644   6.428
 2580SOL    HW1 8639   2.832   4.626   6.388
 2580SOL    HW2 8640   2.750   4.653   6.527
 2581SOL     OW 8641   2.346   4.732   2.300
 2581SOL    HW1 8642   2.409   4.664   2.262
 2581SOL    HW2 8643   2.275   4.754   2.233
 2582SOL     OW 8644   0.383   4.498   1.194
 2582SOL    HW1 8645   0.478   4.475   1.214
 2582SOL    HW2 8646   0.354   4.449   1.111
 2583SOL     OW 8647   1.056   1.524   6.715
 2583SOL    HW1 8648   1.040   1.619   6.741
 2583SOL    HW2 8649   1.067   1.518   6.616
 2584SOL     OW 8650   4.956   5.399   6.154
 2584SOL    HW1 8651   4.933   5.332   6.083
 2584SOL    HW2 8652   5.032   5.456   6.122
 2585SOL     OW 8653   3.689   3.706   1.243
 2585SOL    HW1 8654   3.740   3.628   1.280
 2585SOL    HW2 8655   3.741   3.747   1.168
 2586SOL     OW 8656   3.207   0.640   5.208
 2586SOL    HW1 8657   3.112   0.670   5.193
 2586SOL    HW2 8658   3.207   0.545   5.239
 2587SOL     OW 8659   5.929   1.258   3.594
 2587SOL    HW1 8660   5.881   1.170   3.596
 2587SOL    HW2 8661   6.014   1.251   3.646
 2588SOL     OW 8662   4.658   2.226   6.098
 2588SOL    HW1 8663   4.743   2.172   6.096
 2588SOL    HW2 8664   4.613   2.212   6.186
 2589SOL     OW 8665   1.500   6.662   5.703
 2589SOL    HW1 8666   1.438   6.672   5.781
 2589SOL    HW2 8667   1.594   6.654   5.736
 2590SOL     OW 8668   3.954   4.871   0.543
 2590SOL    HW1 8669   3.943   4.873   0.444
 2590SOL    HW2 8670   3.907   4.951   0.583
 2591SOL     OW 8671   6.636   4.671   3.293
 2591SOL    HW1 8672   6.610   4.743   3.356
 2591SOL    HW2 8673   6.605   4.695   3.200
 2592SOL     OW 8674   3.040   4.760   0.068
 2592SOL    HW1 8675   3.059   4.662   0.072
 2592SOL    HW2 8676   3.126   4.811   0.072
 2593SOL     OW 8677   4.066   5.747   6.938
 2593SOL    HW1 8678   4.015   5.783   7.016
 2593SOL    HW2 8679   4.101   5.823   6.883
 2594SOL     OW 8680   2.009   3.592   5.983
 2594SOL    HW1 8681   1.995   3.505   5.936
 2594SOL    HW2 8682   2.044   3.660   5.918
 2595SOL     OW 8683   6.929   0.523   4.223
 2595SOL    HW1 8684   6.988   0.580   4.282
 2595SOL    HW2 8685   6.843   0.571   4.206
 2596SOL     OW 8686   3.069   2.252   1.701
 2596SOL    HW1 8687   3.101   2.331   1.649
 2596SOL    HW2 8688   3.030   2.282   1.788
 2597SOL     OW 8689   0.531   4.982   6.029
 2597SOL    HW1 8690   0.492   5.035   6.105
 2597SOL    HW2 8691   0.526   5.036   5.945
 2598SOL     OW 8692   6.559   1.620   2.674
 2598SOL    HW1 8693   6.469   1.650   2.643
 2598SOL    HW2 8694   6.549   1.553   2.747
 2599SOL     OW 8695   1.407   5.933   0.674
 2599SOL    HW1 8696   1.406   5.833   0.680
 2599SOL    HW2 8697   1.333   5.963   0.614
 2600SOL     OW 8698   5.643   2.517   4.590
 2600SOL    HW1 8699   5.612   2.597   4.642
 2600SOL    HW2 8700   5.588   2.508   4.507
 2601SOL     OW 8701   1.526   1.757   1.371
 2601SOL    HW1 8702   1.434   1.796   1.361
 2601SOL    HW2 8703   1.566   1.789   1.457
 2602SOL     OW 8704   1.290   4.871   5.153
 2602SOL    HW1 8705   1.358   4.882   5.225
 2602SOL    HW2 8706   1.228   4.951   5.153
 2603SOL     OW 8707   3.067   1.364   2.835
 2603SOL    HW1 8708   2.998   1.426   2.873
 2603SOL    HW2 8709   3.042   1.269   2.855
 2604SOL     OW 8710   4.801   2.170   2.730
 2604SOL    HW1 8711   4.758   2.202   2.645
 2604SOL    HW2 8712   4.781   2.073   2.744
 2605SOL     OW 8713   1.565   3.541   2.733
 2605SOL    HW1 8714   1.534   3.578   2.645
 2605SOL    HW2 8715   1.568   3.441   2.728
 2606SOL     OW 8716   6.156   5.086   2.018
 2606SOL    HW1 8717   6.217   5.134   1.956
 2606SOL    HW2 8718   6.098   5.023   1.967
 2607SOL     OW 8719   0.732   1.427   1.165
 2607SOL    HW1 8720   0.811   1.401   1.220
 2607SOL    HW2 8721   0.761   1.451   1.072
 2608SOL     OW 8722   3.667   5.562   0.551
 2608SOL    HW1 8723   3.761   5.556   0.583
 2608SOL    HW2 8724   3.644   5.480   0.498
 2609SOL     OW 8725   5.873   1.130   2.024
 2609SOL    HW1 8726   5.897   1.227   2.037
 2609SOL    HW2 8727   5.936   1.090   1.957
 2610SOL     OW 8728   0.558   4.693   4.393
 2610SOL    HW1 8729   0.616   4.766   4.429
 2610SOL    HW2 8730   0.612   4.634   4.332
 2611SOL     OW 8731   4.660   6.126   0.008
 2611SOL    HW1 8732   4.602   6.138   6.954
 2611SOL    HW2 8733   4.729   6.199   0.011
 2612SOL     OW 8734   5.592   6.533   4.850
 2612SOL    HW1 8735   5.519   6.515   4.783
 2612SOL    HW2 8736   5.554   6.528   4.942
 2613SOL     OW 8737   2.304   5.499   6.667
 2613SOL    HW1 8738   2.325   5.572   6.732
 2613SOL    HW2 8739   2.262   5.422   6.716
 2614SOL     OW 8740   6.257   1.583   0.192
 2614SOL    HW1 8741   6.287   1.637   0.113
 2614SOL    HW2 8742   6.302   1.616   0.274
 2615SOL     OW 8743   1.099   3.316   1.016
 2615SOL    HW1 8744   1.195   3.304   1.042
 2615SOL    HW2 8745   1.088   3.405   0.972
 2616SOL     OW 8746   1.758   1.708   5.720
 2616SOL    HW1 8747   1.783   1.793   5.673
 2616SOL    HW2 8748   1.720   1.643   5.653
 2617SOL     OW 8749   4.667   1.209   0.835
 2617SOL    HW1 8750   4.667   1.308   0.838
 2617SOL    HW2 8751   4.572   1.175   0.838
 2618SOL     OW 8752   0.563   6.353   4.138
 2618SOL    HW1 8753   0.651   6.398   4.154
 2618SOL    HW2 8754   0.542   6.353   4.040
 2619SOL     OW 8755   4.831   1.696   1.704
 2619SOL    HW1 8756   4.848   1.719   1.799
 2619SOL    HW2 8757   4.832   1.597   1.693
 2620SOL     OW 8758   6.693   0.233   2.694
 2620SOL    HW1 8759   6.675   0.166   2.622
 2620SOL    HW2 8760   6.607   0.259   2.738
 2621SOL     OW 8761   0.902   4.611   2.233
 2621SOL    HW1 8762   0.834   4.669   2.278
 2621SOL    HW2 8763   0.980   4.597   2.293
 2622SOL     OW 8764   3.044   3.461   6.036
 2622SOL    HW1 8765   3.099   3.380   6.018
 2622SOL    HW2 8766   2.948   3.436   6.043
 2623SOL     OW 8767   0.801   0.897   4.730
 2623SOL    HW1 8768   0.803   0.874   4.827
 2623SOL    HW2 8769   0.839   0.821   4.677
 2624SOL     OW 8770   6.739   2.166   5.100
 2624SOL    HW1 8771   6.764   2.077   5.137
 2624SOL    HW2 8772   6.802   2.236   5.134
 2625SOL     OW 8773   2.502   3.851   5.636
 2625SOL    HW1 8774   2.513   3.872   5.733
 2625SOL    HW2 8775   2.451   3.765   5.627
 2626SOL     OW 8776   6.471   0.058   5.792
 2626SOL    HW1 8777   6.485   0.025   5.699
 2626SOL    HW2 8778   6.435   7.009   5.848
 2627SOL     OW 8779   1.345   0.758   5.938
 2627SOL    HW1 8780   1.321   0.714   5.851
 2627SOL    HW2 8781   1.283   0.835   5.954
 2628SOL     OW 8782   1.904   3.663   5.251
 2628SOL    HW1 8783   1.990   3.698   5.289
 2628SOL    HW2 8784   1.854   3.739   5.209
 2629SOL     OW 8785   4.152   3.321   2.696
 2629SOL    HW1 8786   4.240   3.357   2.665
 2629SOL    HW2 8787   4.150   3.318   2.796
 2630SOL     OW 8788   3.583   1.683   3.366
 2630SOL    HW1 8789   3.515   1.713   3.432
 2630SOL    HW2 8790   3.543   1.684   3.274
 2631SOL     OW 8791   5.595   0.872   6.650
 2631SOL    HW1 8792   5.554   0.923   6.574
 2631SOL    HW2 8793   5.669   0.927   6.690
 2632SOL     OW 8794   6.057   3.688   1.005
 2632SOL    HW1 8795   5.982   3.640   1.051
 2632SOL    HW2 8796   6.077   3.773   1.054
 2633SOL     OW 8797   6.521   2.063   4.973
 2633SOL    HW1 8798   6.612   2.082   5.008
 2633SOL    HW2 8799   6.519   2.080   4.875
 2634SOL     OW 8800   0.417   5.604   3.692
 2634SOL    HW1 8801   0.361   5.524   3.716
 2634SOL    HW2 8802   0.413   5.671   3.766
 2635SOL     OW 8803   5.904   5.555   3.960
 2635SOL    HW1 8804   5.909   5.455   3.959
 2635SOL    HW2 8805   5.886   5.587   4.053
 2636SOL     OW 8806   3.863   0.593   7.005
 2636SOL    HW1 8807   3.917   0.545   0.048
 2636SOL    HW2 8808   3.837   0.683   0.015
 2637SOL     OW 8809   6.272   1.773   4.139
 2637SOL    HW1 8810   6.210   1.810   4.070
 2637SOL    HW2 8811   6.348   1.726   4.094
 2638SOL     OW 8812   0.178   6.975   4.632
 2638SOL    HW1 8813   0.272   6.952   4.608
 2638SOL    HW2 8814   0.125   6.989   4.549
 2639SOL     OW 8815   5.436   5.348   5.822
 2639SOL    HW1 8816   5.525   5.342   5.776
 2639SOL    HW2 8817   5.427   5.438   5.865
 2640SOL     OW 8818   6.605   0.133   5.109
 2640SOL    HW1 8819   6.662   0.071   5.055
 2640SOL    HW2 8820   6.661   0.209   5.143
 2641SOL     OW 8821   4.606   2.071   1.126
 2641SOL    HW1 8822   4.612   2.139   1.199
 2641SOL    HW2 8823   4.528   2.011   1.142
 2642SOL     OW 8824   6.357   0.439   3.825
 2642SOL    HW1 8825   6.345   0.433   3.726
 2642SOL    HW2 8826   6.444   0.398   3.851
 2643SOL     OW 8827   1.926   3.279   3.924
 2643SOL    HW1 8828   1.995   3.325   3.979
 2643SOL    HW2 8829   1.955   3.184   3.908
 2644SOL     OW 8830   4.734   5.451   5.212
 2644SOL    HW1 8831   4.779   5.377   5.161
 2644SOL    HW2 8832   4.722   5.530   5.152
 2645SOL     OW 8833   5.435   4.741   3.653
 2645SOL    HW1 8834   5.378   4.659   3.651
 2645SOL    HW2 8835   5.429   4.782   3.744
 2646SOL     OW 8836   0.186   3.135   0.042
 2646SOL    HW1 8837   0.199   3.085   6.982
 2646SOL    HW2 8838   0.228   3.225   0.035
 2647SOL     OW 8839   5.907   6.928   1.845
 2647SOL    HW1 8840   5.979   6.986   1.808
 2647SOL    HW2 8841   5.931   6.832   1.831
 2648SOL     OW 8842   0.091   6.530   4.126
 2648SOL    HW1 8843   0.103   6.450   4.185
 2648SOL    HW2 8844   0.124   6.611   4.173
 2649SOL     OW 8845   5.848   3.135   1.481
 2649SOL    HW1 8846   5.872   3.231   1.469
 2649SOL    HW2 8847   5.798   3.124   1.568
 2650SOL     OW 8848   2.351   6.026   4.716
 2650SOL    HW1 8849   2.433   5.992   4.670
 2650SOL    HW2 8850   2.377   6.085   4.792
 2651SOL     OW 8851   3.443   1.048   6.912
 2651SOL    HW1 8852   3.377   1.094   6.971
 2651SOL    HW2 8853   3.396   0.977   6.859
 2652SOL     OW 8854   4.712   3.495   5.796
 2652SOL    HW1 8855   4.631   3.438   5.781
 2652SOL    HW2 8856   4.685   3.591   5.792
 2653SOL     OW 8857   3.940   6.279   5.751
 2653SOL    HW1 8858   4.032   6.254   5.783
 2653SOL    HW2 8859   3.872   6.221   5.795
 2654SOL     OW 8860   4.898   6.413   0.790
 2654SOL    HW1 8861   4.812   6.407   0.740
 2654SOL    HW2 8862   4.881   6.398   0.888
 2655SOL     OW 8863   4.616   5.811   3.646
 2655SOL    HW1 8864   4.597   5.717   3.619
 2655SOL    HW2 8865   4.710   5.834   3.622
 2656SOL     OW 8866   3.351   5.138   3.525
 2656SOL    HW1 8867   3.422   5.107   3.589
 2656SOL    HW2 8868   3.285   5.195   3.574
 2657SOL     OW 8869   2.127   3.292   0.786
 2657SOL    HW1 8870   2.092   3.212   0.835
 2657SOL    HW2 8871   2.158   3.264   0.695
 2658SOL     OW 8872   4.808   4.523   0.540
 2658SOL    HW1 8873   4.886   4.574   0.577
 2658SOL    HW2 8874   4.748   4.495   0.615
 2659SOL     OW 8875   4.666   3.178   5.357
 2659SOL    HW1 8876   4.735   3.117   5.396
 2659SOL    HW2 8877   4.638   3.244   5.427
 2660SOL     OW 8878   0.612   1.159   1.328
 2660SOL    HW1 8879   0.679   1.099   1.285
 2660SOL    HW2 8880   0.523   1.147   1.284
 2661SOL     OW 8881   1.813   0.220   1.558
 2661SOL    HW1 8882   1.805   0.123   1.537
 2661SOL    HW2 8883   1.893   0.235   1.617
 2662SOL     OW 8884   2.557   0.334   3.429
 2662SOL    HW1 8885   2.538   0.314   3.333
 2662SOL    HW2 8886   2.481   0.303   3.485
 2663SOL     OW 8887   4.453   5.796   6.012
 2663SOL    HW1 8888   4.386   5.870   6.008
 2663SOL    HW2 8889   4.499   5.787   5.924
 2664SOL     OW 8890   3.916   3.025   5.546
 2664SOL    HW1 8891   3.846   3.023   5.475
 2664SOL    HW2 8892   3.910   2.942   5.602
 2665SOL     OW 8893   2.370   3.205   5.347
 2665SOL    HW1 8894   2.305   3.264   5.299
 2665SOL    HW2 8895   2.391   3.125   5.290
 2666SOL     OW 8896   1.927   3.869   2.092
 2666SOL    HW1 8897   1.913   3.799   2.023
 2666SOL    HW2 8898   1.855   3.938   2.086
 2667SOL     OW 8899   0.987   5.276   4.062
 2667SOL    HW1 8900   0.893   5.297   4.089
 2667SOL    HW2 8901   1.042   5.254   4.142
 2668SOL     OW 8902   5.581   3.175   4.624
 2668SOL    HW1 8903   5.515   3.101   4.637
 2668SOL    HW2 8904   5.641   3.154   4.547
 2669SOL     OW 8905   3.437   5.762   6.678
 2669SOL    HW1 8906   3.450   5.665   6.655
 2669SOL    HW2 8907   3.384   5.806   6.606
 2670SOL     OW 8908   6.294   2.275   4.963
 2670SOL    HW1 8909   6.225   2.205   4.983
 2670SOL    HW2 8910   6.380   2.251   5.007
 2671SOL     OW 8911   4.893   5.709   5.912
 2671SOL    HW1 8912   4.894   5.771   5.834
 2671SOL    HW2 8913   4.940   5.751   5.990
 2672SOL     OW 8914   3.076   0.349   1.763
 2672SOL    HW1 8915   3.048   0.410   1.836
 2672SOL    HW2 8916   3.050   0.255   1.786
 2673SOL     OW 8917   5.689   1.259   2.274
 2673SOL    HW1 8918   5.662   1.253   2.371
 2673SOL    HW2 8919   5.700   1.167   2.237
 2674SOL     OW 8920   1.800   4.892   3.842
 2674SOL    HW1 8921   1.872   4.929   3.783
 2674SOL    HW2 8922   1.716   4.880   3.788
 2675SOL     OW 8923   0.279   6.663   3.773
 2675SOL    HW1 8924   0.246   6.588   3.716
 2675SOL    HW2 8925   0.203   6.725   3.793
 2676SOL     OW 8926   3.334   3.826   2.812
 2676SOL    HW1 8927   3.404   3.755   2.806
 2676SOL    HW2 8928   3.371   3.906   2.860
 2677SOL     OW 8929   2.988   4.599   1.144
 2677SOL    HW1 8930   2.895   4.630   1.126
 2677SOL    HW2 8931   3.001   4.586   1.242
 2678SOL     OW 8932   6.895   2.985   2.159
 2678SOL    HW1 8933   6.947   3.038   2.093
 2678SOL    HW2 8934   6.801   3.019   2.164
 2679SOL     OW 8935   1.808   5.127   2.588
 2679SOL    HW1 8936   1.798   5.222   2.619
 2679SOL    HW2 8937   1.825   5.068   2.666
 2680SOL     OW 8938   1.476   2.619   0.334
 2680SOL    HW1 8939   1.401   2.640   0.397
 2680SOL    HW2 8940   1.455   2.657   0.244
 2681SOL     OW 8941   1.524   2.645   5.059
 2681SOL    HW1 8942   1.453   2.621   4.993
 2681SOL    HW2 8943   1.503   2.734   5.099
 2682SOL     OW 8944   5.439   4.103   2.873
 2682SOL    HW1 8945   5.369   4.032   2.880
 2682SOL    HW2 8946   5.491   4.107   2.958
 2683SOL     OW 8947   2.282   4.560   2.507
 2683SOL    HW1 8948   2.323   4.626   2.444
 2683SOL    HW2 8949   2.222   4.498   2.457
 2684SOL     OW 8950   5.171   6.775   1.240
 2684SOL    HW1 8951   5.174   6.824   1.153
 2684SOL    HW2 8952   5.252   6.798   1.294
 2685SOL     OW 8953   6.650   4.729   4.754
 2685SOL    HW1 8954   6.749   4.710   4.751
 2685SOL    HW2 8955   6.611   4.711   4.664
 2686SOL     OW 8956   1.049   1.205   5.302
 2686SOL    HW1 8957   0.973   1.229   5.362
 2686SOL    HW2 8958   1.124   1.167   5.357
 2687SOL     OW 8959   3.524   6.538   1.396
 2687SOL    HW1 8960   3.481   6.601   1.460
 2687SOL    HW2 8961   3.466   6.457   1.384
 2688SOL     OW 8962   3.244   2.096   0.766
 2688SOL    HW1 8963   3.221   2.008   0.723
 2688SOL    HW2 8964   3.304   2.148   0.705
 2689SOL     OW 8965   0.551   3.795   2.905
 2689SOL    HW1 8966   0.510   3.709   2.876
 2689SOL    HW2 8967   0.555   3.798   3.005
 2690SOL     OW 8968   2.784   3.349   0.124
 2690SOL    HW1 8969   2.811   3.443   0.104
 2690SOL    HW2 8970   2.859   3.302   0.169
 2691SOL     OW 8971   0.312   4.606   3.817
 2691SOL    HW1 8972   0.309   4.696   3.861
 2691SOL    HW2 8973   0.252   4.543   3.866
 2692SOL     OW 8974   2.460   6.131   3.403
 2692SOL    HW1 8975   2.466   6.075   3.486
 2692SOL    HW2 8976   2.547   6.127   3.355
 2693SOL     OW 8977   1.804   5.238   4.366
 2693SOL    HW1 8978   1.821   5.192   4.453
 2693SOL    HW2 8979   1.852   5.190   4.292
 2694SOL     OW 8980   4.279   0.122   2.829
 2694SOL    HW1 8981   4.278   0.022   2.824
 2694SOL    HW2 8982   4.272   0.160   2.737
 2695SOL     OW 8983   5.984   0.102   3.015
 2695SOL    HW1 8984   5.914   0.173   3.021
 2695SOL    HW2 8985   6.023   0.101   2.923
 2696SOL     OW 8986   4.738   4.131   6.565
 2696SOL    HW1 8987   4.703   4.215   6.607
 2696SOL    HW2 8988   4.675   4.055   6.583
 2697SOL     OW 8989   4.523   1.118   1.942
 2697SOL    HW1 8990   4.572   1.169   1.871
 2697SOL    HW2 8991   4.568   1.132   2.030
 2698SOL     OW 8992   1.997   4.752   6.492
 2698SOL    HW1 8993   2.062   4.766   6.567
 2698SOL    HW2 8994   2.032   4.685   6.428
 2699SOL     OW 8995   2.909   5.629   1.265
 2699SOL    HW1 8996   2.920   5.689   1.185
 2699SOL    HW2 8997   2.999   5.613   1.307
 2700SOL     OW 8998   2.542   1.537   0.889
 2700SOL    HW1 8999   2.576   1.626   0.920
 2700SOL    HW2 9000   2.484   1.549   0.809
 2701SOL     OW 9001   5.128   2.715   5.569
 2701SOL    HW1 9002   5.097   2.658   5.493
 2701SOL    HW2 9003   5.081   2.689   5.653
 2702SOL     OW 9004   1.066   2.275   3.592
 2702SOL    HW1 9005   1.143   2.294   3.654
 2702SOL    HW2 9006   1.095   2.291   3.497
 2703SOL     OW 9007   1.672   5.558   1.494
 2703SOL    HW1 9008   1.766   5.523   1.490
 2703SOL    HW2 9009   1.610   5.492   1.451
 2704SOL     OW 9010   6.749   5.562   2.622
 2704SOL    HW1 9011   6.757   5.464   2.636
 2704SOL    HW2 9012   6.813   5.591   2.551
 2705SOL     OW 9013   6.216   1.304   5.598
 2705SOL    HW1 9014   6.293   1.250   5.567
 2705SOL    HW2 9015   6.249   1.390   5.638
 2706SOL     OW 9016   6.038   4.230   4.723
 2706SOL    HW1 9017   5.979   4.149   4.731
 2706SOL    HW2 9018   6.128   4.202   4.687
 2707SOL     OW 9019   4.091   6.305   4.212
 2707SOL    HW1 9020   4.095   6.404   4.210
 2707SOL    HW2 9021   4.004   6.274   4.171
 2708SOL     OW 9022   6.481   2.458   0.271
 2708SOL    HW1 9023   6.399   2.449   0.328
 2708SOL    HW2 9024   6.562   2.468   0.329
 2709SOL     OW 9025   4.892   6.821   6.201
 2709SOL    HW1 9026   4.969   6.802   6.140
 2709SOL    HW2 9027   4.902   6.912   6.239
 2710SOL     OW 9028   1.796   2.418   3.421
 2710SOL    HW1 9029   1.704   2.441   3.450
 2710SOL    HW2 9030   1.842   2.500   3.385
 2711SOL     OW 9031   3.148   1.527   3.269
 2711SOL    HW1 9032   3.110   1.607   3.316
 2711SOL    HW2 9033   3.081   1.453   3.272
 2712SOL     OW 9034   3.244   5.514   1.930
 2712SOL    HW1 9035   3.259   5.572   2.010
 2712SOL    HW2 9036   3.249   5.568   1.847
 2713SOL     OW 9037   3.891   4.093   6.671
 2713SOL    HW1 9038   3.917   4.017   6.612
 2713SOL    HW2 9039   3.960   4.103   6.744
 2714SOL     OW 9040   4.111   4.058   0.133
 2714SOL    HW1 9041   4.142   3.969   0.100
 2714SOL    HW2 9042   4.190   4.113   0.162
 2715SOL     OW 9043   5.082   1.951   1.117
 2715SOL    HW1 9044   4.987   1.951   1.147
 2715SOL    HW2 9045   5.099   2.030   1.059
 2716SOL     OW 9046   4.684   2.811   3.332
 2716SOL    HW1 9047   4.638   2.773   3.413
 2716SOL    HW2 9048   4.703   2.737   3.267
 2717SOL     OW 9049   0.512   6.983   2.518
 2717SOL    HW1 9050   0.575   6.966   2.594
 2717SOL    HW2 9051   0.484   0.053   2.518
 2718SOL     OW 9052   6.783   0.665   5.086
 2718SOL    HW1 9053   6.716   0.733   5.116
 2718SOL    HW2 9054   6.735   0.582   5.056
 2719SOL     OW 9055   1.356   4.259   2.127
 2719SOL    HW1 9056   1.336   4.319   2.050
 2719SOL    HW2 9057   1.430   4.297   2.182
 2720SOL     OW 9058   0.968   0.266   4.303
 2720SOL    HW1 9059   0.975   0.166   4.309
 2720SOL    HW2 9060   0.974   0.306   4.394
 2721SOL     OW 9061   3.146   6.424   2.600
 2721SOL    HW1 9062   3.221   6.403   2.662
 2721SOL    HW2 9063   3.122   6.520   2.609
 2722SOL     OW 9064   4.929   5.067   6.794
 2722SOL    HW1 9065   4.889   5.158   6.782
 2722SOL    HW2 9066   4.952   5.029   6.704
 2723SOL     OW 9067   2.661   6.201   6.693
 2723SOL    HW1 9068   2.606   6.226   6.613
 2723SOL    HW2 9069   2.689   6.283   6.742
 2724SOL     OW 9070   1.368   5.645   6.632
 2724SOL    HW1 9071   1.382   5.733   6.587
 2724SOL    HW2 9072   1.456   5.609   6.664
 2725SOL     OW 9073   5.505   4.032   4.570
 2725SOL    HW1 9074   5.572   4.058   4.500
 2725SOL    HW2 9075   5.547   3.969   4.635
 2726SOL     OW 9076   0.453   2.517   1.820
 2726SOL    HW1 9077   0.518   2.465   1.876
 2726SOL    HW2 9078   0.452   2.480   1.727
 2727SOL     OW 9079   1.833   3.785   4.260
 2727SOL    HW1 9080   1.766   3.854   4.285
 2727SOL    HW2 9081   1.889   3.818   4.184
 2728SOL     OW 9082   4.929   5.743   6.600
 2728SOL    HW1 9083   4.866   5.697   6.662
 2728SOL    HW2 9084   4.972   5.676   6.539
 2729SOL     OW 9085   6.922   6.369   6.862
 2729SOL    HW1 9086   6.915   6.330   6.770
 2729SOL    HW2 9087   6.833   6.369   6.906
 2730SOL     OW 9088   0.794   5.645   1.175
 2730SOL    HW1 9089   0.740   5.692   1.244
 2730SOL    HW2 9090   0.828   5.712   1.109
 2731SOL     OW 9091   3.121   3.096   3.419
 2731SOL    HW1 9092   3.046   3.081   3.354
 2731SOL    HW2 9093   3.208   3.083   3.372
 2732SOL     OW 9094   5.233   2.361   1.495
 2732SOL    HW1 9095   5.227   2.447   1.445
 2732SOL    HW2 9096   5.241   2.380   1.593
 2733SOL     OW 9097   7.004   1.302   4.795
 2733SOL    HW1 9098   0.014   1.352   4.716
 2733SOL    HW2 9099   6.936   1.236   4.764
 2734SOL     OW 9100   3.790   5.991   1.548
 2734SOL    HW1 9101   3.754   6.026   1.462
 2734SOL    HW2 9102   3.813   5.894   1.536
 2735SOL     OW 9103   1.689   2.172   0.483
 2735SOL    HW1 9104   1.608   2.185   0.542
 2735SOL    HW2 9105   1.693   2.246   0.416
 2736SOL     OW 9106   5.921   6.270   4.474
 2736SOL    HW1 9107   5.999   6.208   4.485
 2736SOL    HW2 9108   5.934   6.350   4.532
 2737SOL     OW 9109   3.012   2.822   5.833
 2737SOL    HW1 9110   3.071   2.903   5.820
 2737SOL    HW2 9111   2.926   2.836   5.784
 2738SOL     OW 9112   6.497   6.770   2.360
 2738SOL    HW1 9113   6.435   6.806   2.290
 2738SOL    HW2 9114   6.457   6.784   2.450
 2739SOL     OW 9115   0.429   5.094   0.897
 2739SOL    HW1 9116   0.514   5.058   0.935
 2739SOL    HW2 9117   0.432   5.194   0.897
 2740SOL     OW 9118   0.347   5.308   2.038
 2740SOL    HW1 9119   0.292   5.392   2.045
 2740SOL    HW2 9120   0.371   5.276   2.129
 2741SOL     OW 9121   0.477   1.767   5.177
 2741SOL    HW1 9122   0.381   1.793   5.168
 2741SOL    HW2 9123   0.493   1.729   5.268
 2742SOL     OW 9124   2.745   5.335   1.645
 2742SOL    HW1 9125   2.772   5.247   1.606
 2742SOL    HW2 9126   2.763   5.408   1.579
 2743SOL     OW 9127   6.956   4.821   2.438
 2743SOL    HW1 9128   6.870   4.793   2.395
 2743SOL    HW2 9129   0.006   4.782   2.387
 2744SOL     OW 9130   3.563   3.083   1.979
 2744SOL    HW1 9131   3.602   3.153   1.920
 2744SOL    HW2 9132   3.468   3.108   2.001
 2745SOL     OW 9133   6.736   1.153   5.124
 2745SOL    HW1 9134   6.697   1.209   5.198
 2745SOL    HW2 9135   6.694   1.179   5.037
 2746SOL     OW 9136   0.361   1.680   4.222
 2746SOL    HW1 9137   0.419   1.715   4.296
 2746SOL    HW2 9138   0.314   1.757   4.178
 2747SOL     OW 9139   4.760   5.284   6.783
 2747SOL    HW1 9140   4.734   5.315   6.692
 2747SOL    HW2 9141   4.707   5.333   6.852
 2748SOL     OW 9142   4.495   0.513   1.714
 2748SOL    HW1 9143   4.528   0.428   1.755
 2748SOL    HW2 9144   4.480   0.580   1.787
 2749SOL     OW 9145   0.757   5.045   0.614
 2749SOL    HW1 9146   0.704   4.965   0.642
 2749SOL    HW2 9147   0.718   5.127   0.655
 2750SOL     OW 9148   2.350   4.464   1.741
 2750SOL    HW1 9149   2.399   4.492   1.824
 2750SOL    HW2 9150   2.252   4.464   1.759
 2751SOL     OW 9151   1.851   2.307   1.180
 2751SOL    HW1 9152   1.827   2.325   1.085
 2751SOL    HW2 9153   1.795   2.231   1.214
 2752SOL     OW 9154   3.780   4.517   6.182
 2752SOL    HW1 9155   3.783   4.418   6.177
 2752SOL    HW2 9156   3.686   4.547   6.200
 2753SOL     OW 9157   6.714   5.788   5.123
 2753SOL    HW1 9158   6.760   5.874   5.103
 2753SOL    HW2 9159   6.782   5.714   5.125
 2754SOL     OW 9160   0.558   0.001   0.261
 2754SOL    HW1 9161   0.483   7.000   0.201
 2754SOL    HW2 9162   0.548   6.982   0.350
 2755SOL     OW 9163   3.506   6.930   3.121
 2755SOL    HW1 9164   3.525   7.005   3.057
 2755SOL    HW2 9165   3.471   6.969   3.207
 2756SOL     OW 9166   4.372   6.421   0.291
 2756SOL    HW1 9167   4.385   6.330   0.251
 2756SOL    HW2 9168   4.451   6.478   0.270
 2757SOL     OW 9169   1.968   6.122   0.637
 2757SOL    HW1 9170   1.875   6.111   0.671
 2757SOL    HW2 9171   1.986   6.055   0.565
 2758SOL     OW 9172   4.819   0.416   4.788
 2758SOL    HW1 9173   4.874   0.498   4.803
 2758SOL    HW2 9174   4.822   0.393   4.691
 2759SOL     OW 9175   5.279   6.466   4.715
 2759SOL    HW1 9176   5.204   6.421   4.667
 2759SOL    HW2 9177   5.269   6.451   4.814
 2760SOL     OW 9178   1.039   5.721   1.307
 2760SOL    HW1 9179   0.941   5.734   1.324
 2760SOL    HW2 9180   1.056   5.627   1.278
 2761SOL     OW 9181   2.051   4.743   4.178
 2761SOL    HW1 9182   2.141   4.701   4.192
 2761SOL    HW2 9183   1.981   4.685   4.221
 2762SOL     OW 9184   0.824   0.848   4.991
 2762SOL    HW1 9185   0.836   0.765   5.045
 2762SOL    HW2 9186   0.810   0.925   5.053
 2763SOL     OW 9187   5.585   1.690   4.071
 2763SOL    HW1 9188   5.577   1.685   3.971
 2763SOL    HW2 9189   5.657   1.628   4.102
 2764SOL     OW 9190   6.291   0.511   1.477
 2764SOL    HW1 9191   6.242   0.592   1.509
 2764SOL    HW2 9192   6.254   0.430   1.523
 2765SOL     OW 9193   5.665   0.493   0.599
 2765SOL    HW1 9194   5.575   0.460   0.627
 2765SOL    HW2 9195   5.716   0.419   0.557
 2766SOL     OW 9196   5.239   2.049   0.662
 2766SOL    HW1 9197   5.252   2.116   0.589
 2766SOL    HW2 9198   5.308   2.062   0.733
 2767SOL     OW 9199   7.024   4.768   6.147
 2767SOL    HW1 9200   6.991   4.862   6.156
 2767SOL    HW2 9201   6.949   4.704   6.162
 2768SOL     OW 9202   4.959   0.412   0.117
 2768SOL    HW1 9203   4.926   0.505   0.099
 2768SOL    HW2 9204   4.909   0.374   0.195
 2769SOL     OW 9205   6.786   4.417   3.933
 2769SOL    HW1 9206   6.819   4.408   3.839
 2769SOL    HW2 9207   6.741   4.333   3.961
 2770SOL     OW 9208   2.495   5.251   6.185
 2770SOL    HW1 9209   2.462   5.277   6.275
 2770SOL    HW2 9210   2.595   5.253   6.184
 2771SOL     OW 9211   5.628   1.462   2.083
 2771SOL    HW1 9212   5.614   1.389   2.151
 2771SOL    HW2 9213   5.548   1.468   2.024
 2772SOL     OW 9214   4.412   1.897   1.215
 2772SOL    HW1 9215   4.434   1.903   1.313
 2772SOL    HW2 9216   4.319   1.861   1.204
 2773SOL     OW 9217   5.332   3.477   5.402
 2773SOL    HW1 9218   5.417   3.425   5.412
 2773SOL    HW2 9219   5.259   3.432   5.453
 2774SOL     OW 9220   6.524   3.504   2.893
 2774SOL    HW1 9221   6.534   3.602   2.903
 2774SOL    HW2 9222   6.609   3.464   2.860
 2775SOL     OW 9223   7.009   5.376   0.270
 2775SOL    HW1 9224   0.075   5.337   0.262
 2775SOL    HW2 9225   6.954   5.320   0.331
 2776SOL     OW 9226   4.946   5.361   5.629
 2776SOL    HW1 9227   4.948   5.411   5.543
 2776SOL    HW2 9228   4.913   5.420   5.702
 2777SOL     OW 9229   2.956   1.207   2.002
 2777SOL    HW1 9230   3.052   1.191   2.025
 2777SOL    HW2 9231   2.900   1.135   2.042
 2778SOL     OW 9232   1.313   1.243   5.061
 2778SOL    HW1 9233   1.235   1.248   4.999
 2778SOL    HW2 9234   1.356   1.153   5.054
 2779SOL     OW 9235   4.669   0.116   0.893
 2779SOL    HW1 9236   4.709   0.080   0.809
 2779SOL    HW2 9237   4.707   0.207   0.912
 2780SOL     OW 9238   6.917   5.494   6.176
 2780SOL    HW1 9239   6.960   5.585   6.170
 2780SOL    HW2 9240   6.830   5.502   6.225
 2781SOL     OW 9241   5.779   5.743   1.938
 2781SOL    HW1 9242   5.762   5.708   1.846
 2781SOL    HW2 9243   5.858   5.805   1.935
 2782SOL     OW 9244   3.108   2.418   5.565
 2782SOL    HW1 9245   3.041   2.488   5.539
 2782SOL    HW2 9246   3.120   2.353   5.490
 2783SOL     OW 9247   5.946   3.141   4.644
 2783SOL    HW1 9248   5.968   3.227   4.690
 2783SOL    HW2 9249   5.898   3.161   4.558
 2784SOL     OW 9250   2.921   1.600   0.832
 2784SOL    HW1 9251   2.930   1.655   0.915
 2784SOL    HW2 9252   2.887   1.509   0.856
 2785SOL     OW 9253   5.811   1.544   0.304
 2785SOL    HW1 9254   5.793   1.616   0.238
 2785SOL    HW2 9255   5.727   1.526   0.357
 2786SOL     OW 9256   4.321   6.004   1.352
 2786SOL    HW1 9257   4.419   5.985   1.344
 2786SOL    HW2 9258   4.281   6.012   1.261
 2787SOL     OW 9259   2.409   2.756   6.883
 2787SOL    HW1 9260   2.458   2.797   6.806
 2787SOL    HW2 9261   2.415   2.818   6.962
 2788SOL     OW 9262   2.419   4.068   0.054
 2788SOL    HW1 9263   2.451   4.137   0.118
 2788SOL    HW2 9264   2.319   4.067   0.053
 2789SOL     OW 9265   1.951   2.930   3.422
 2789SOL    HW1 9266   2.017   2.992   3.380
 2789SOL    HW2 9267   1.921   2.967   3.510
 2790SOL     OW 9268   2.834   5.560   2.568
 2790SOL    HW1 9269   2.885   5.542   2.485
 2790SOL    HW2 9270   2.800   5.474   2.606
 2791SOL     OW 9271   1.005   4.360   4.575
 2791SOL    HW1 9272   0.908   4.336   4.584
 2791SOL    HW2 9273   1.015   4.460   4.575
 2792SOL     OW 9274   0.975   0.001   5.221
 2792SOL    HW1 9275   0.916   0.081   5.233
 2792SOL    HW2 9276   0.926   6.956   5.170
 2793SOL     OW 9277   4.688   2.748   2.565
 2793SOL    HW1 9278   4.732   2.784   2.647
 2793SOL    HW2 9279   4.759   2.718   2.500
 2794SOL     OW 9280   6.842   2.742   0.616
 2794SOL    HW1 9281   6.881   2.712   0.529
 2794SOL    HW2 9282   6.906   2.805   0.661
 2795SOL     OW 9283   2.524   3.620   0.789
 2795SOL    HW1 9284   2.579   3.619   0.872
 2795SOL    HW2 9285   2.446   3.682   0.802
 2796SOL     OW 9286   6.879   5.139   3.176
 2796SOL    HW1 9287   6.866   5.228   3.218
 2796SOL    HW2 9288   6.795   5.086   3.182
 2797SOL     OW 9289   4.815   5.455   4.294
 2797SOL    HW1 9290   4.790   5.545   4.259
 2797SOL    HW2 9291   4.738   5.418   4.346
 2798SOL     OW 9292   1.102   4.549   1.716
 2798SOL    HW1 9293   1.046   4.616   1.765
 2798SOL    HW2 9294   1.171   4.512   1.778
 2799SOL     OW 9295   0.419   5.765   0.007
 2799SOL    HW1 9296   0.339   5.728   0.054
 2799SOL    HW2 9297   0.501   5.745   0.060
 2800SOL     OW 9298   4.176   4.749   6.864
 2800SOL    HW1 9299   4.275   4.737   6.878
 2800SOL    HW2 9300   4.135   4.660   6.843
 2801SOL     OW 9301   4.533   5.596   4.406
 2801SOL    HW1 9302   4.527   5.498   4.390
 2801SOL    HW2 9303   4.566   5.614   4.498
 2802SOL     OW 9304   4.692   3.354   6.628
 2802SOL    HW1 9305   4.624   3.361   6.701
 2802SOL    HW2 9306   4.646   3.339   6.541
 2803SOL     OW 9307   3.349   5.926   6.427
 2803SOL    HW1 9308   3.387   5.844   6.384
 2803SOL    HW2 9309   3.388   6.007   6.384
 2804SOL     OW 9310   0.104   4.613   4.593
 2804SOL    HW1 9311   0.119   4.578   4.685
 2804SOL    HW2 9312   0.042   4.552   4.544
 2805SOL     OW 9313   4.580   3.020   1.141
 2805SOL    HW1 9314   4.634   3.103   1.151
 2805SOL    HW2 9315   4.489   3.043   1.105
 2806SOL     OW 9316   5.822   5.024   4.179
 2806SOL    HW1 9317   5.874   4.938   4.179
 2806SOL    HW2 9318   5.766   5.029   4.097
 2807SOL     OW 9319   5.485   5.026   4.228
 2807SOL    HW1 9320   5.443   5.062   4.145
 2807SOL    HW2 9321   5.576   5.066   4.240
 2808SOL     OW 9322   4.896   2.656   2.390
 2808SOL    HW1 9323   4.993   2.675   2.377
 2808SOL    HW2 9324   4.865   2.590   2.322
 2809SOL     OW 9325   6.657   2.638   2.029
 2809SOL    HW1 9326   6.598   2.719   2.026
 2809SOL    HW2 9327   6.619   2.567   1.971
 2810SOL     OW 9328   3.167   6.347   4.433
 2810SOL    HW1 9329   3.125   6.268   4.388
 2810SOL    HW2 9330   3.143   6.430   4.383
 2811SOL     OW 9331   0.641   0.907   3.466
 2811SOL    HW1 9332   0.633   0.808   3.479
 2811SOL    HW2 9333   0.736   0.935   3.477
 2812SOL     OW 9334   5.888   3.444   0.786
 2812SOL    HW1 9335   5.816   3.375   0.781
 2812SOL    HW2 9336   5.938   3.434   0.872
 2813SOL     OW 9337   6.289   0.250   5.872
 2813SOL    HW1 9338   6.231   0.283   5.798
 2813SOL    HW2 9339   6.368   0.202   5.835
 2814SOL     OW 9340   5.053   2.837   6.950
 2814SOL    HW1 9341   5.123   2.814   7.018
 2814SOL    HW2 9342   4.967   2.794   6.976
 2815SOL     OW 9343   6.772   1.582   5.113
 2815SOL    HW1 9344   6.678   1.565   5.083
 2815SOL    HW2 9345   6.829   1.504   5.091
 2816SOL     OW 9346   6.694   6.102   3.817
 2816SOL    HW1 9347   6.741   6.114   3.730
 2816SOL    HW2 9348   6.749   6.045   3.878
 2817SOL     OW 9349   1.980   0.262   1.114
 2817SOL    HW1 9350   1.882   0.262   1.132
 2817SOL    HW2 9351   2.023   0.338   1.164
 2818SOL     OW 9352   0.052   6.054   6.487
 2818SOL    HW1 9353   0.097   5.991   6.551
 2818SOL    HW2 9354   0.119   6.120   6.453
 2819SOL     OW 9355   6.979   1.314   1.245
 2819SOL    HW1 9356   6.949   1.377   1.173
 2819SOL    HW2 9357   0.052   1.323   1.257
 2820SOL     OW 9358   0.898   2.017   3.020
 2820SOL    HW1 9359   0.948   1.936   3.049
 2820SOL    HW2 9360   0.954   2.099   3.034
 2821SOL     OW 9361   3.871   3.732   0.176
 2821SOL    HW1 9362   3.874   3.809   0.112
 2821SOL    HW2 9363   3.791   3.741   0.235
 2822SOL     OW 9364   4.518   2.632   0.000
 2822SOL    HW1 9365   4.541   2.545   0.044
 2822SOL    HW2 9366   4.556   2.634   6.934
 2823SOL     OW 9367   3.058   6.925   0.814
 2823SOL    HW1 9368   3.070   6.874   0.900
 2823SOL    HW2 9369   3.141   6.917   0.759
 2824SOL     OW 9370   2.492   1.280   4.338
 2824SOL    HW1 9371   2.416   1.345   4.349
 2824SOL    HW2 9372   2.465   1.208   4.274
 2825SOL     OW 9373   6.945   0.118   6.814
 2825SOL    HW1 9374   0.004   0.169   6.826
 2825SOL    HW2 9375   6.952   0.061   6.732
 2826SOL     OW 9376   5.287   2.016   0.020
 2826SOL    HW1 9377   5.336   2.049   6.966
 2826SOL    HW2 9378   5.195   1.985   7.019
 2827SOL     OW 9379   5.827   1.117   5.067
 2827SOL    HW1 9380   5.850   1.032   5.116
 2827SOL    HW2 9381   5.746   1.102   5.010
 2828SOL     OW 9382   3.260   0.608   6.920
 2828SOL    HW1 9383   3.275   0.510   6.912
 2828SOL    HW2 9384   3.331   0.657   6.870
 2829SOL     OW 9385   3.187   4.326   5.980
 2829SOL    HW1 9386   3.090   4.349   5.975
 2829SOL    HW2 9387   3.197   4.228   5.998
 2830SOL     OW 9388   0.979   3.426   0.012
 2830SOL    HW1 9389   0.901   3.366   0.027
 2830SOL    HW2 9390   1.032   3.394   6.959
 2831SOL     OW 9391   0.309   5.960   3.874
 2831SOL    HW1 9392   0.401   5.953   3.836
 2831SOL    HW2 9393   0.301   5.899   3.953
 2832SOL     OW 9394   0.206   1.456   1.916
 2832SOL    HW1 9395   0.278   1.399   1.876
 2832SOL    HW2 9396   0.208   1.547   1.874
 2833SOL     OW 9397   4.961   2.490   2.133
 2833SOL    HW1 9398   4.953   2.393   2.109
 2833SOL    HW2 9399   5.042   2.529   2.090
 2834SOL     OW 9400   2.703   6.978   5.946
 2834SOL    HW1 9401   2.715   0.046   5.913
 2834SOL    HW2 9402   2.630   6.975   6.013
 2835SOL     OW 9403   0.017   0.557   2.265
 2835SOL    HW1 9404   0.016   0.471   2.316
 2835SOL    HW2 9405   0.092   0.615   2.298
 2836SOL     OW 9406   6.769   6.713   1.975
 2836SOL    HW1 9407   6.760   6.745   2.070
 2836SOL    HW2 9408   6.780   6.791   1.914
 2837SOL     OW 9409   5.953   3.445   3.229
 2837SOL    HW1 9410   5.963   3.442   3.328
 2837SOL    HW2 9411   6.038   3.413   3.186
 2838SOL     OW 9412   1.676   4.124   1.523
 2838SOL    HW1 9413   1.643   4.037   1.561
 2838SOL    HW2 9414   1.609   4.195   1.539
 2839SOL     OW 9415   5.631   1.161   1.921
 2839SOL    HW1 9416   5.724   1.147   1.953
 2839SOL    HW2 9417   5.568   1.160   1.999
 2840SOL     OW 9418   1.006   1.272   3.929
 2840SOL    HW1 9419   1.079   1.336   3.905
 2840SOL    HW2 9420   1.046   1.183   3.951
 2841SOL     OW 9421   6.951   0.608   5.803
 2841SOL    HW1 9422   6.857   0.581   5.822
 2841SOL    HW2 9423   6.966   0.703   5.832
 2842SOL     OW 9424   0.161   2.862   4.416
 2842SOL    HW1 9425   0.097   2.786   4.401
 2842SOL    HW2 9426   0.114   2.949   4.402
 2843SOL     OW 9427   2.929   1.735   3.324
 2843SOL    HW1 9428   2.870   1.680   3.265
 2843SOL    HW2 9429   2.920   1.831   3.299
 2844SOL     OW 9430   1.356   5.393   0.428
 2844SOL    HW1 9431   1.411   5.418   0.349
 2844SOL    HW2 9432   1.277   5.340   0.398
 2845SOL     OW 9433   0.854   3.031   1.346
 2845SOL    HW1 9434   0.811   3.014   1.257
 2845SOL    HW2 9435   0.933   2.971   1.356
 2846SOL     OW 9436   4.507   1.334   6.561
 2846SOL    HW1 9437   4.579   1.390   6.601
 2846SOL    HW2 9438   4.427   1.391   6.542
 2847SOL     OW 9439   5.222   3.437   2.871
 2847SOL    HW1 9440   5.136   3.401   2.836
 2847SOL    HW2 9441   5.271   3.485   2.798
 2848SOL     OW 9442   0.693   3.979   6.509
 2848SOL    HW1 9443   0.649   3.933   6.587
 2848SOL    HW2 9444   0.655   3.941   6.424
 2849SOL     OW 9445   3.736   6.695   1.770
 2849SOL    HW1 9446   3.698   6.773   1.720
 2849SOL    HW2 9447   3.668   6.622   1.776
 2850SOL     OW 9448   3.366   7.004   2.179
 2850SOL    HW1 9449   3.305   0.057   2.173
 2850SOL    HW2 9450   3.455   0.001   2.139
 2851SOL     OW 9451   6.958   3.578   5.989
 2851SOL    HW1 9452   6.899   3.509   5.947
 2851SOL    HW2 9453   0.019   3.537   6.014
 2852SOL     OW 9454   5.487   4.413   0.274
 2852SOL    HW1 9455   5.425   4.355   0.221
 2852SOL    HW2 9456   5.470   4.398   0.371
 2853SOL     OW 9457   2.477   2.303   0.386
 2853SOL    HW1 9458   2.491   2.266   0.294
 2853SOL    HW2 9459   2.501   2.234   0.454
 2854SOL     OW 9460   3.816   1.811   4.570
 2854SOL    HW1 9461   3.747   1.739   4.573
 2854SOL    HW2 9462   3.883   1.795   4.642
 2855SOL     OW 9463   2.463   1.095   6.197
 2855SOL    HW1 9464   2.504   1.158   6.131
 2855SOL    HW2 9465   2.530   1.024   6.220
 2856SOL     OW 9466   2.432   2.876   6.028
 2856SOL    HW1 9467   2.336   2.881   6.056
 2856SOL    HW2 9468   2.462   2.967   5.997
 2857SOL     OW 9469   3.345   1.776   2.005
 2857SOL    HW1 9470   3.362   1.872   2.025
 2857SOL    HW2 9471   3.395   1.749   1.923
 2858SOL     OW 9472   6.356   3.711   1.591
 2858SOL    HW1 9473   6.444   3.688   1.633
 2858SOL    HW2 9474   6.370   3.765   1.508
 2859SOL     OW 9475   5.068   1.790   0.652
 2859SOL    HW1 9476   5.129   1.854   0.604
 2859SOL    HW2 9477   5.002   1.842   0.706
 2860SOL     OW 9478   3.479   1.621   1.207
 2860SOL    HW1 9479   3.437   1.533   1.186
 2860SOL    HW2 9480   3.563   1.607   1.259
 2861SOL     OW 9481   4.672   4.906   6.210
 2861SOL    HW1 9482   4.630   4.817   6.195
 2861SOL    HW2 9483   4.717   4.907   6.299
 2862SOL     OW 9484   5.304   2.128   3.505
 2862SOL    HW1 9485   5.323   2.041   3.458
 2862SOL    HW2 9486   5.390   2.172   3.530
 2863SOL     OW 9487   5.501   1.292   6.771
 2863SOL    HW1 9488   5.497   1.388   6.800
 2863SOL    HW2 9489   5.533   1.287   6.677
 2864SOL     OW 9490   4.301   0.867   1.603
 2864SOL    HW1 9491   4.373   0.887   1.669
 2864SOL    HW2 9492   4.271   0.772   1.613
 2865SOL     OW 9493   5.314   4.354   5.733
 2865SOL    HW1 9494   5.314   4.273   5.675
 2865SOL    HW2 9495   5.244   4.345   5.804
 2866SOL     OW 9496   6.585   6.217   6.664
 2866SOL    HW1 9497   6.590   6.316   6.666
 2866SOL    HW2 9498   6.506   6.186   6.718
 2867SOL     OW 9499   5.880   3.896   2.227
 2867SOL    HW1 9500   5.950   3.883   2.297
 2867SOL    HW2 9501   5.790   3.878   2.266
 2868SOL     OW 9502   0.223   3.176   5.593
 2868SOL    HW1 9503   0.216   3.108   5.520
 2868SOL    HW2 9504   0.318   3.184   5.623
 2869SOL     OW 9505   6.044   1.189   3.357
 2869SOL    HW1 9506   6.007   1.097   3.342
 2869SOL    HW2 9507   5.982   1.240   3.417
 2870SOL     OW 9508   0.193   1.016   4.582
 2870SOL    HW1 9509   0.212   1.038   4.678
 2870SOL    HW2 9510   0.262   0.951   4.549
 2871SOL     OW 9511   1.271   1.228   6.906
 2871SOL    HW1 9512   1.241   1.252   6.813
 2871SOL    HW2 9513   1.353   1.281   6.929
 2872SOL     OW 9514   2.684   1.622   3.493
 2872SOL    HW1 9515   2.752   1.686   3.457
 2872SOL    HW2 9516   2.602   1.625   3.436
 2873SOL     OW 9517   0.804   4.864   2.798
 2873SOL    HW1 9518   0.795   4.954   2.756
 2873SOL    HW2 9519   0.741   4.856   2.875
 2874SOL     OW 9520   3.841   6.242   2.892
 2874SOL    HW1 9521   3.802   6.263   2.802
 2874SOL    HW2 9522   3.891   6.155   2.888
 2875SOL     OW 9523   5.054   6.155   6.963
 2875SOL    HW1 9524   4.980   6.204   7.009
 2875SOL    HW2 9525   5.041   6.158   6.864
 2876SOL     OW 9526   0.814   0.140   1.924
 2876SOL    HW1 9527   0.745   0.205   1.956
 2876SOL    HW2 9528   0.885   0.129   1.994
 2877SOL     OW 9529   3.867   2.964   5.196
 2877SOL    HW1 9530   3.781   2.963   5.247
 2877SOL    HW2 9531   3.915   3.051   5.212
 2878SOL     OW 9532   3.642   5.179   4.758
 2878SOL    HW1 9533   3.578   5.209   4.687
 2878SOL    HW2 9534   3.673   5.086   4.738
 2879SOL     OW 9535   4.968   4.905   0.419
 2879SOL    HW1 9536   4.933   4.989   0.459
 2879SOL    HW2 9537   5.055   4.923   0.374
 2880SOL     OW 9538   5.475   6.911   0.758
 2880SOL    HW1 9539   5.468   7.010   0.772
 2880SOL    HW2 9540   5.440   6.888   0.668
 2881SOL     OW 9541   5.809   6.538   1.004
 2881SOL    HW1 9542   5.811   6.445   0.966
 2881SOL    HW2 9543   5.893   6.585   0.979
 2882SOL     OW 9544   0.870   3.459   2.367
 2882SOL    HW1 9545   0.966   3.485   2.357
 2882SOL    HW2 9546   0.821   3.532   2.416
 2883SOL     OW 9547   5.339   5.957   4.235
 2883SOL    HW1 9548   5.287   5.892   4.181
 2883SOL    HW2 9549   5.407   5.908   4.290
 2884SOL     OW 9550   0.794   5.652   2.786
 2884SOL    HW1 9551   0.783   5.572   2.845
 2884SOL    HW2 9552   0.858   5.716   2.829
 2885SOL     OW 9553   0.611   3.496   2.052
 2885SOL    HW1 9554   0.697   3.548   2.053
 2885SOL    HW2 9555   0.599   3.451   2.141
 2886SOL     OW 9556   2.168   4.080   6.324
 2886SOL    HW1 9557   2.147   3.983   6.336
 2886SOL    HW2 9558   2.095   4.136   6.365
 2887SOL     OW 9559   1.261   0.162   4.586
 2887SOL    HW1 9560   1.252   0.064   4.567
 2887SOL    HW2 9561   1.327   0.175   4.660
 2888SOL     OW 9562   0.825   4.769   6.948
 2888SOL    HW1 9563   0.895   4.698   6.941
 2888SOL    HW2 9564   0.865   4.857   6.925
 2889SOL     OW 9565   1.690   6.950   2.646
 2889SOL    HW1 9566   1.610   6.891   2.659
 2889SOL    HW2 9567   1.670   0.015   2.685
 2890SOL     OW 9568   2.481   0.765   1.277
 2890SOL    HW1 9569   2.506   0.688   1.219
 2890SOL    HW2 9570   2.562   0.799   1.325
 2891SOL     OW 9571   2.290   4.309   3.885
 2891SOL    HW1 9572   2.280   4.236   3.817
 2891SOL    HW2 9573   2.386   4.337   3.889
 2892SOL     OW 9574   5.660   3.526   0.359
 2892SOL    HW1 9575   5.666   3.594   0.286
 2892SOL    HW2 9576   5.715   3.556   0.437
 2893SOL     OW 9577   0.379   6.650   4.932
 2893SOL    HW1 9578   0.314   6.678   4.861
 2893SOL    HW2 9579   0.376   6.716   5.007
 2894SOL     OW 9580   3.152   2.544   0.063
 2894SOL    HW1 9581   3.249   2.552   0.084
 2894SOL    HW2 9582   3.105   2.627   0.093
 2895SOL     OW 9583   4.023   3.235   6.696
 2895SOL    HW1 9584   4.050   3.329   6.719
 2895SOL    HW2 9585   4.070   3.171   6.756
 2896SOL     OW 9586   3.168   5.276   6.436
 2896SOL    HW1 9587   3.196   5.361   6.392
 2896SOL    HW2 9588   3.247   5.216   6.445
 2897SOL     OW 9589   3.096   5.884   3.290
 2897SOL    HW1 9590   3.129   5.831   3.212
 2897SOL    HW2 9591   3.167   5.947   3.321
 2898SOL     OW 9592   4.058   5.077   3.727
 2898SOL    HW1 9593   3.993   5.091   3.802
 2898SOL    HW2 9594   4.011   5.034   3.650
 2899SOL     OW 9595   0.561   2.005   0.404
 2899SOL    HW1 9596   0.512   2.010   0.491
 2899SOL    HW2 9597   0.629   2.078   0.399
 2900SOL     OW 9598   1.955   5.004   5.554
 2900SOL    HW1 9599   1.975   4.919   5.505
 2900SOL    HW2 9600   2.034   5.028   5.611
 2901SOL     OW 9601   1.743   0.382   3.089
 2901SOL    HW1 9602   1.762   0.284   3.080
 2901SOL    HW2 9603   1.722   0.403   3.185
 2902SOL     OW 9604   5.560   6.117   1.436
 2902SOL    HW1 9605   5.601   6.090   1.349
 2902SOL    HW2 9606   5.491   6.187   1.420
 2903SOL     OW 9607   3.126   0.380   1.299
 2903SOL    HW1 9608   3.200   0.385   1.366
 2903SOL    HW2 9609   3.135   0.297   1.245
 2904SOL     OW 9610   1.863   3.356   5.188
 2904SOL    HW1 9611   1.855   3.368   5.089
 2904SOL    HW2 9612   1.852   3.445   5.233
 2905SOL     OW 9613   1.491   2.512   3.614
 2905SOL    HW1 9614   1.425   2.577   3.577
 2905SOL    HW2 9615   1.567   2.561   3.656
 2906SOL     OW 9616   4.966   5.374   3.039
 2906SOL    HW1 9617   5.008   5.378   2.948
 2906SOL    HW2 9618   5.004   5.447   3.096
 2907SOL     OW 9619   0.266   1.147   4.351
 2907SOL    HW1 9620   0.230   1.091   4.426
 2907SOL    HW2 9621   0.329   1.216   4.388
 2908SOL     OW 9622   4.408   7.018   3.882
 2908SOL    HW1 9623   4.413   6.941   3.946
 2908SOL    HW2 9624   4.377   0.073   3.931
 2909SOL     OW 9625   0.843   5.725   3.382
 2909SOL    HW1 9626   0.749   5.724   3.347
 2909SOL    HW2 9627   0.845   5.685   3.473
 2910SOL     OW 9628   4.615   5.959   4.413
 2910SOL    HW1 9629   4.629   6.006   4.326
 2910SOL    HW2 9630   4.553   5.882   4.399
 2911SOL     OW 9631   1.906   5.170   3.530
 2911SOL    HW1 9632   1.812   5.201   3.514
 2911SOL    HW2 9633   1.968   5.218   3.467
 2912SOL     OW 9634   4.106   6.187   6.625
 2912SOL    HW1 9635   4.012   6.196   6.593
 2912SOL    HW2 9636   4.121   6.247   6.703
 2913SOL     OW 9637   1.968   5.029   2.402
 2913SOL    HW1 9638   1.902   5.078   2.458
 2913SOL    HW2 9639   2.009   5.092   2.336
 2914SOL     OW 9640   6.137   6.153   5.539
 2914SOL    HW1 9641   6.044   6.182   5.561
 2914SOL    HW2 9642   6.156   6.065   5.583
 2915SOL     OW 9643   5.040   1.734   5.218
 2915SOL    HW1 9644   5.063   1.788   5.137
 2915SOL    HW2 9645   4.964   1.672   5.196
 2916SOL     OW 9646   6.453   5.578   5.803
 2916SOL    HW1 9647   6.393   5.626   5.866
 2916SOL    HW2 9648   6.548   5.585   5.835
 2917SOL     OW 9649   4.272   0.363   1.949
 2917SOL    HW1 9650   4.368   0.361   1.978
 2917SOL    HW2 9651   4.257   0.442   1.890
 2918SOL     OW 9652   6.941   3.633   3.388
 2918SOL    HW1 9653   6.847   3.653   3.360
 2918SOL    HW2 9654   6.977   3.559   3.331
 2919SOL     OW 9655   6.410   1.379   0.417
 2919SOL    HW1 9656   6.339   1.449   0.426
 2919SOL    HW2 9657   6.475   1.407   0.346
 2920SOL     OW 9658   3.240   1.815   2.330
 2920SOL    HW1 9659   3.284   1.817   2.240
 2920SOL    HW2 9660   3.297   1.863   2.396
 2921SOL     OW 9661   0.501   0.251   3.119
 2921SOL    HW1 9662   0.445   0.243   3.036
 2921SOL    HW2 9663   0.508   0.348   3.144
 2922SOL     OW 9664   5.653   6.702   6.829
 2922SOL    HW1 9665   5.554   6.697   6.817
 2922SOL    HW2 9666   5.694   6.615   6.802
 2923SOL     OW 9667   0.213   4.845   1.847
 2923SOL    HW1 9668   0.234   4.894   1.762
 2923SOL    HW2 9669   0.203   4.747   1.827
 2924SOL     OW 9670   0.059   2.253   6.628
 2924SOL    HW1 9671   7.024   2.330   6.608
 2924SOL    HW2 9672   0.056   2.188   6.552
 2925SOL     OW 9673   5.276   0.852   3.061
 2925SOL    HW1 9674   5.337   0.808   2.995
 2925SOL    HW2 9675   5.303   0.947   3.074
 2926SOL     OW 9676   0.268   1.343   4.749
 2926SOL    HW1 9677   0.360   1.308   4.767
 2926SOL    HW2 9678   0.201   1.271   4.765
 2927SOL     OW 9679   1.381   1.912   2.317
 2927SOL    HW1 9680   1.402   1.971   2.240
 2927SOL    HW2 9681   1.465   1.871   2.352
 2928SOL     OW 9682   6.627   2.290   6.097
 2928SOL    HW1 9683   6.544   2.335   6.130
 2928SOL    HW2 9684   6.604   2.203   6.055
 2929SOL     OW 9685   0.651   1.027   5.835
 2929SOL    HW1 9686   0.579   0.988   5.778
 2929SOL    HW2 9687   0.630   1.010   5.931
 2930SOL     OW 9688   4.626   6.482   5.200
 2930SOL    HW1 9689   4.653   6.527   5.115
 2930SOL    HW2 9690   4.582   6.548   5.260
 2931SOL     OW 9691   5.565   6.161   6.997
 2931SOL    HW1 9692   5.607   6.127   0.056
 2931SOL    HW2 9693   5.592   6.256   6.983
 2932SOL     OW 9694   1.505   5.047   1.920
 2932SOL    HW1 9695   1.482   5.130   1.870
 2932SOL    HW2 9696   1.528   4.974   1.856
 2933SOL     OW 9697   5.846   3.042   3.254
 2933SOL    HW1 9698   5.942   3.016   3.238
 2933SOL    HW2 9699   5.843   3.123   3.312
 2934SOL     OW 9700   3.902   1.048   0.316
 2934SOL    HW1 9701   3.891   1.047   0.416
 2934SOL    HW2 9702   3.835   1.111   0.276
 2935SOL     OW 9703   6.602   3.475   1.341
 2935SOL    HW1 9704   6.620   3.398   1.402
 2935SOL    HW2 9705   6.506   3.475   1.313
 2936SOL     OW 9706   4.727   5.645   2.198
 2936SOL    HW1 9707   4.791   5.722   2.203
 2936SOL    HW2 9708   4.747   5.580   2.271
 2937SOL     OW 9709   3.919   4.599   0.598
 2937SOL    HW1 9710   3.881   4.575   0.687
 2937SOL    HW2 9711   3.918   4.699   0.587
 2938SOL     OW 9712   4.942   4.510   5.904
 2938SOL    HW1 9713   4.884   4.541   5.828
 2938SOL    HW2 9714   5.017   4.575   5.917
 2939SOL     OW 9715   0.659   0.211   4.421
 2939SOL    HW1 9716   0.562   0.185   4.421
 2939SOL    HW2 9717   0.673   0.287   4.356
 2940SOL     OW 9718   5.829   0.072   6.410
 2940SOL    HW1 9719   5.886   0.079   6.492
 2940SOL    HW2 9720   5.880   0.024   6.338
 2941SOL     OW 9721   2.076   2.050   5.070
 2941SOL    HW1 9722   2.109   2.140   5.100
 2941SOL    HW2 9723   2.136   1.980   5.108
 2942SOL     OW 9724   2.316   1.601   1.705
 2942SOL    HW1 9725   2.357   1.641   1.787
 2942SOL    HW2 9726   2.386   1.551   1.653
 2943SOL     OW 9727   5.789   3.710   2.867
 2943SOL    HW1 9728   5.848   3.700   2.947
 2943SOL    HW2 9729   5.700   3.670   2.887
 2944SOL     OW 9730   2.726   5.471   5.201
 2944SOL    HW1 9731   2.629   5.457   5.221
 2944SOL    HW2 9732   2.751   5.421   5.118
 2945SOL     OW 9733   4.130   3.635   3.647
 2945SOL    HW1 9734   4.167   3.630   3.740
 2945SOL    HW2 9735   4.034   3.608   3.648
 2946SOL     OW 9736   0.416   5.347   6.919
 2946SOL    HW1 9737   0.361   5.270   6.951
 2946SOL    HW2 9738   0.513   5.328   6.935
 2947SOL     OW 9739   0.824   4.656   0.261
 2947SOL    HW1 9740   0.765   4.708   0.198
 2947SOL    HW2 9741   0.768   4.594   0.315
 2948SOL     OW 9742   6.844   4.096   5.672
 2948SOL    HW1 9743   6.871   4.017   5.726
 2948SOL    HW2 9744   6.772   4.147   5.719
 2949SOL     OW 9745   1.994   6.361   1.085
 2949SOL    HW1 9746   1.928   6.340   1.157
 2949SOL    HW2 9747   2.027   6.275   1.044
 2950SOL     OW 9748   4.987   3.628   4.478
 2950SOL    HW1 9749   4.903   3.669   4.442
 2950SOL    HW2 9750   4.980   3.620   4.578
 2951SOL     OW 9751   6.762   2.587   0.875
 2951SOL    HW1 9752   6.835   2.524   0.848
 2951SOL    HW2 9753   6.725   2.632   0.793
 2952SOL     OW 9754   0.881   6.224   4.968
 2952SOL    HW1 9755   0.871   6.266   4.878
 2952SOL    HW2 9756   0.910   6.293   5.035
 2953SOL     OW 9757   4.822   2.774   2.799
 2953SOL    HW1 9758   4.830   2.681   2.835
 2953SOL    HW2 9759   4.836   2.840   2.873
 2954SOL     OW 9760   0.857   5.526   1.647
 2954SOL    HW1 9761   0.800   5.446   1.629
 2954SOL    HW2 9762   0.841   5.559   1.740
 2955SOL     OW 9763   1.164   3.702   0.447
 2955SOL    HW1 9764   1.158   3.646   0.530
 2955SOL    HW2 9765   1.101   3.666   0.378
 2956SOL     OW 9766   6.185   6.063   3.238
 2956SOL    HW1 9767   6.271   6.020   3.266
 2956SOL    HW2 9768   6.148   6.016   3.158
 2957SOL     OW 9769   6.984   3.317   1.657
 2957SOL    HW1 9770   6.913   3.387   1.656
 2957SOL    HW2 9771   6.954   3.237   1.605
 2958SOL     OW 9772   2.678   4.748   4.798
 2958SOL    HW1 9773   2.596   4.803   4.812
 2958SOL    HW2 9774   2.693   4.689   4.877
 2959SOL     OW 9775   4.379   4.060   0.332
 2959SOL    HW1 9776   4.421   4.038   0.420
 2959SOL    HW2 9777   4.331   4.148   0.340
 2960SOL     OW 9778   2.983   0.480   6.967
 2960SOL    HW1 9779   3.066   0.510   7.015
 2960SOL    HW2 9780   2.908   0.543   6.989
 2961SOL     OW 9781   5.262   2.813   4.795
 2961SOL    HW1 9782   5.290   2.717   4.790
 2961SOL    HW2 9783   5.257   2.841   4.891
 2962SOL     OW 9784   4.164   1.314   3.947
 2962SOL    HW1 9785   4.085   1.354   3.995
 2962SOL    HW2 9786   4.248   1.355   3.983
 2963SOL     OW 9787   1.724   1.441   5.824
 2963SOL    HW1 9788   1.715   1.393   5.737
 2963SOL    HW2 9789   1.773   1.526   5.811
 2964SOL     OW 9790   0.667   6.828   1.854
 2964SOL    HW1 9791   0.710   6.779   1.778
 2964SOL    HW2 9792   0.737   6.863   1.915
 2965SOL     OW 9793   6.863   1.005   4.865
 2965SOL    HW1 9794   6.800   1.055   4.925
 2965SOL    HW2 9795   6.890   0.919   4.909
 2966SOL     OW 9796   6.025   4.785   4.152
 2966SOL    HW1 9797   6.022   4.713   4.083
 2966SOL    HW2 9798   6.082   4.755   4.229
 2967SOL     OW 9799   5.903   2.446   4.474
 2967SOL    HW1 9800   5.811   2.411   4.495
 2967SOL    HW2 9801   5.950   2.381   4.415
 2968SOL     OW 9802   1.127   4.160   5.510
 2968SOL    HW1 9803   1.193   4.178   5.437
 2968SOL    HW2 9804   1.114   4.244   5.563
 2969SOL     OW 9805   6.124   1.136   4.282
 2969SOL    HW1 9806   6.200   1.200   4.272
 2969SOL    HW2 9807   6.122   1.074   4.203
 2970SOL     OW 9808   0.870   4.041   6.797
 2970SOL    HW1 9809   0.824   3.978   6.734
 2970SOL    HW2 9810   0.948   3.995   6.840
 2971SOL     OW 9811   5.120   2.978   5.531
 2971SOL    HW1 9812   5.022   2.994   5.520
 2971SOL    HW2 9813   5.137   2.880   5.537
 2972SOL     OW 9814   6.385   4.885   6.040
 2972SOL    HW1 9815   6.299   4.908   6.084
 2972SOL    HW2 9816   6.459   4.939   6.079
 2973SOL     OW 9817   5.245   1.178   4.032
 2973SOL    HW1 9818   5.288   1.263   4.004
 2973SOL    HW2 9819   5.285   1.147   4.118
 2974SOL     OW 9820   0.784   3.613   2.945
 2974SOL    HW1 9821   0.738   3.654   2.867
 2974SOL    HW2 9822   0.882   3.605   2.926
 2975SOL     OW 9823   0.868   2.333   5.233
 2975SOL    HW1 9824   0.952   2.331   5.178
 2975SOL    HW2 9825   0.790   2.310   5.174
 2976SOL     OW 9826   4.193   1.467   2.382
 2976SOL    HW1 9827   4.273   1.525   2.396
 2976SOL    HW2 9828   4.219   1.371   2.396
 2977SOL     OW 9829   1.653   6.931   4.301
 2977SOL    HW1 9830   1.730   6.868   4.291
 2977SOL    HW2 9831   1.583   6.909   4.233
 2978SOL     OW 9832   3.838   4.744   6.860
 2978SOL    HW1 9833   3.914   4.797   6.822
 2978SOL    HW2 9834   3.867   4.649   6.872
 2979SOL     OW 9835   4.816   7.009   4.403
 2979SOL    HW1 9836   4.896   6.956   4.429
 2979SOL    HW2 9837   4.838   0.043   4.326
 2980SOL     OW 9838   1.443   6.174   3.666
 2980SOL    HW1 9839   1.444   6.166   3.765
 2980SOL    HW2 9840   1.435   6.083   3.625
 2981SOL     OW 9841   0.701   0.622   5.870
 2981SOL    HW1 9842   0.657   0.553   5.927
 2981SOL    HW2 9843   0.770   0.671   5.923
 2982SOL     OW 9844   4.946   6.322   3.321
 2982SOL    HW1 9845   4.954   6.319   3.222
 2982SOL    HW2 9846   4.890   6.244   3.352
 2983SOL     OW 9847   0.604   1.522   4.181
 2983SOL    HW1 9848   0.620   1.611   4.137
 2983SOL    HW2 9849   0.506   1.510   4.197
 2984SOL     OW 9850   5.015   5.637   1.777
 2984SOL    HW1 9851   5.021   5.712   1.844
 2984SOL    HW2 9852   4.949   5.569   1.809
 2985SOL     OW 9853   0.906   2.607   5.045
 2985SOL    HW1 9854   0.940   2.513   5.049
 2985SOL    HW2 9855   0.864   2.623   4.956
 2986SOL     OW 9856   2.118   3.803   6.315
 2986SOL    HW1 9857   2.206   3.818   6.271
 2986SOL    HW2 9858   2.117   3.714   6.359
 2987SOL     OW 9859   5.102   0.782   3.402
 2987SOL    HW1 9860   5.075   0.830   3.485
 2987SOL    HW2 9861   5.184   0.728   3.421
 2988SOL     OW 9862   0.236   6.769   3.113
 2988SOL    HW1 9863   0.159   6.770   3.177
 2988SOL    HW2 9864   0.265   6.675   3.097
 2989SOL     OW 9865   6.495   5.971   0.366
 2989SOL    HW1 9866   6.516   6.008   0.275
 2989SOL    HW2 9867   6.580   5.957   0.417
 2990SOL     OW 9868   4.379   1.565   3.386
 2990SOL    HW1 9869   4.335   1.478   3.365
 2990SOL    HW2 9870   4.386   1.620   3.302
 2991SOL     OW 9871   6.596   4.231   0.269
 2991SOL    HW1 9872   6.585   4.272   0.359
 2991SOL    HW2 9873   6.522   4.166   0.252
 2992SOL     OW 9874   2.417   5.283   5.649
 2992SOL    HW1 9875   2.384   5.224   5.576
 2992SOL    HW2 9876   2.512   5.307   5.632
 2993SOL     OW 9877   0.986   4.989   1.915
 2993SOL    HW1 9878   1.000   5.026   1.823
 2993SOL    HW2 9879   0.889   4.996   1.939
 2994SOL     OW 9880   4.181   0.378   0.754
 2994SOL    HW1 9881   4.105   0.325   0.792
 2994SOL    HW2 9882   4.263   0.365   0.810
 2995SOL     OW 9883   1.112   3.435   6.783
 2995SOL    HW1 9884   1.111   3.471   6.690
 2995SOL    HW2 9885   1.170   3.492   6.841
 2996SOL     OW 9886   2.590   5.970   3.644
 2996SOL    HW1 9887   2.659   5.902   3.669
 2996SOL    HW2 9888   2.508   5.924   3.610
 2997SOL     OW 9889   4.926   6.887   1.853
 2997SOL    HW1 9890   4.991   6.818   1.819
 2997SOL    HW2 9891   4.977   6.962   1.895
 2998SOL     OW 9892   5.430   6.572   5.149
 2998SOL    HW1 9893   5.437   6.669   5.171
 2998SOL    HW2 9894   5.480   6.518   5.217
 2999SOL     OW 9895   3.169   5.270   3.662
 2999SOL    HW1 9896   3.102   5.342   3.644
 2999SOL    HW2 9897   3.174   5.253   3.761
 3000SOL     OW 9898   1.701   3.939   6.854
 3000SOL    HW1 9899   1.778   3.899   6.903
 3000SOL    HW2 9900   1.629   3.964   6.919
 3001SOL     OW 9901   5.228   0.072   6.396
 3001SOL    HW1 9902   5.324   0.099   6.401
 3001SOL    HW2 9903   5.183   0.090   6.484
 3002SOL     OW 9904   4.556   0.370   5.536
 3002SOL    HW1 9905   4.497   0.297   5.500
 3002SOL    HW2 9906   4.652   0.347   5.518
 3003SOL     OW 9907   2.566   6.777   6.622
 3003SOL    HW1 9908   2.636   6.757   6.554
 3003SOL    HW2 9909   2.507   6.698   6.634
 3004SOL     OW 9910   0.994   5.288   3.805
 3004SOL    HW1 9911   0.921   5.356   3.799
 3004SOL    HW2 9912   1.021   5.277   3.901
 3005SOL     OW 9913   3.425   2.470   0.118
 3005SOL    HW1 9914   3.486   2.436   0.047
 3005SOL    HW2 9915   3.411   2.399   0.187
 3006SOL     OW 9916   6.246   2.145   6.515
 3006SOL    HW1 9917   6.162   2.115   6.558
 3006SOL    HW2 9918   6.267   2.086   6.437
 3007SOL     OW 9919   6.058   4.957   2.294
 3007SOL    HW1 9920   6.064   4.944   2.393
 3007SOL    HW2 9921   6.041   4.869   2.250
 3008SOL     OW 9922   3.457   0.376   6.519
 3008SOL    HW1 9923   3.393   0.305   6.488
 3008SOL    HW2 9924   3.489   0.428   6.440
 3009SOL     OW 9925   0.406   6.479   2.700
 3009SOL    HW1 9926   0.502   6.457   2.717
 3009SOL    HW2 9927   0.348   6.431   2.765
 3010SOL     OW 9928   3.526   6.427   3.181
 3010SOL    HW1 9929   3.456   6.454   3.115
 3010SOL    HW2 9930   3.583   6.506   3.203
 3011SOL     OW 9931   5.859   1.284   0.265
 3011SOL    HW1 9932   5.845   1.383   0.271
 3011SOL    HW2 9933   5.889   1.249   0.354
 3012SOL     OW 9934   1.328   3.711   5.295
 3012SOL    HW1 9935   1.274   3.708   5.211
 3012SOL    HW2 9936   1.417   3.751   5.275
 3013SOL     OW 9937   5.839   5.355   4.490
 3013SOL    HW1 9938   5.820   5.452   4.475
 3013SOL    HW2 9939   5.787   5.322   4.569
 3014SOL     OW 9940   5.219   3.077   4.264
 3014SOL    HW1 9941   5.206   3.138   4.342
 3014SOL    HW2 9942   5.309   3.033   4.270
 3015SOL     OW 9943   3.011   1.995   0.516
 3015SOL    HW1 9944   3.097   1.945   0.514
 3015SOL    HW2 9945   2.969   1.993   0.425
 3016SOL     OW 9946   2.889   6.408   3.552
 3016SOL    HW1 9947   2.873   6.382   3.648
 3016SOL    HW2 9948   2.839   6.346   3.492
 3017SOL     OW 9949   0.597   5.301   1.653
 3017SOL    HW1 9950   0.574   5.237   1.726
 3017SOL    HW2 9951   0.530   5.292   1.579
 3018SOL     OW 9952   2.997   6.943   5.150
 3018SOL    HW1 9953   3.072   6.979   5.096
 3018SOL    HW2 9954   2.910   6.958   5.102
 3019SOL     OW 9955   1.856   6.815   0.648
 3019SOL    HW1 9956   1.761   6.785   0.643
 3019SOL    HW2 9957   1.885   6.851   0.559
 3020SOL     OW 9958   3.816   4.191   1.730
 3020SOL    HW1 9959   3.912   4.202   1.705
 3020SOL    HW2 9960   3.758   4.213   1.652
 3021SOL     OW 9961   2.918   1.386   6.914
 3021SOL    HW1 9962   2.826   1.423   6.927
 3021SOL    HW2 9963   2.938   1.320   6.986
 3022SOL     OW 9964   3.666   6.192   3.117
 3022SOL    HW1 9965   3.721   6.222   3.039
 3022SOL    HW2 9966   3.609   6.267   3.149
 3023SOL     OW 9967   4.614   6.617   2.458
 3023SOL    HW1 9968   4.674   6.695   2.441
 3023SOL    HW2 9969   4.589   6.574   2.370
 3024SOL     OW 9970   4.190   0.082   6.003
 3024SOL    HW1 9971   4.222   0.162   5.953
 3024SOL    HW2 9972   4.135   0.025   5.942
 3025SOL     OW 9973   3.457   1.894   0.097
 3025SOL    HW1 9974   3.482   1.890   7.026
 3025SOL    HW2 9975   3.395   1.971   0.111
 3026SOL     OW 9976   2.136   2.018   0.365
 3026SOL    HW1 9977   2.106   1.961   0.441
 3026SOL    HW2 9978   2.060   2.074   0.333
 3027SOL     OW 9979   4.459   0.669   1.941
 3027SOL    HW1 9980   4.388   0.675   2.011
 3027SOL    HW2 9981   4.548   0.657   1.985
 3028SOL     OW 9982   1.526   3.423   6.134
 3028SOL    HW1 9983   1.576   3.385   6.057
 3028SOL    HW2 9984   1.590   3.467   6.197
 3029SOL     OW 9985   0.235   4.942   5.249
 3029SOL    HW1 9986   0.291   4.962   5.169
 3029SOL    HW2 9987   0.177   5.021   5.270
 3030SOL     OW 9988   0.664   2.414   6.162
 3030SOL    HW1 9989   0.729   2.454   6.097
 3030SOL    HW2 9990   0.644   2.320   6.135
 3031SOL     OW 9991   0.129   3.347   0.631
 3031SOL    HW1 9992   0.135   3.372   0.534
 3031SOL    HW2 9993   0.034   3.352   0.661
 3032SOL     OW 9994   4.359   6.716   0.716
 3032SOL    HW1 9995   4.340   6.658   0.636
 3032SOL    HW2 9996   4.432   6.780   0.693
 3033SOL     OW 9997   1.074   2.600   1.278
 3033SOL    HW1 9998   1.078   2.572   1.182
 3033SOL    HW2 9999   1.153   2.564   1.326
 3034SOL     OW10000   1.930   5.597   3.433
 3034SOL    HW110001   1.877   5.677   3.462
 3034SOL    HW210002   1.983   5.620   3.352
 3035SOL     OW10003   6.487   2.992   0.247
 3035SOL    HW110004   6.465   2.931   0.324
 3035SOL    HW210005   6.499   3.085   0.281
 3036SOL     OW10006   1.222   3.112   6.602
 3036SOL    HW110007   1.142   3.104   6.661
 3036SOL    HW210008   1.280   3.031   6.612
 3037SOL     OW10009   6.495   5.558   3.980
 3037SOL    HW110010   6.542   5.550   3.893
 3037SOL    HW210011   6.531   5.637   4.031
 3038SOL     OW10012   5.979   6.758   6.489
 3038SOL    HW110013   5.881   6.738   6.496
 3038SOL    HW210014   5.998   6.798   6.400
 3039SOL     OW10015   6.719   3.833   2.499
 3039SOL    HW110016   6.768   3.892   2.435
 3039SOL    HW210017   6.759   3.741   2.497
 3040SOL     OW10018   4.836   3.361   6.165
 3040SOL    HW110019   4.773   3.388   6.238
 3040SOL    HW210020   4.926   3.341   6.203
 3041SOL     OW10021   2.086   2.684   5.456
 3041SOL    HW110022   2.109   2.757   5.392
 3041SOL    HW210023   2.170   2.647   5.495
 3042SOL     OW10024   5.624   0.010   1.862
 3042SOL    HW110025   5.718   0.005   1.828
 3042SOL    HW210026   5.603   6.953   1.914
 3043SOL     OW10027   0.638   5.003   1.057
 3043SOL    HW110028   0.721   4.967   1.100
 3043SOL    HW210029   0.571   4.929   1.047
 3044SOL     OW10030   3.053   5.042   6.086
 3044SOL    HW110031   2.998   5.067   6.007
 3044SOL    HW210032   3.074   4.944   6.083
 3045SOL     OW10033   4.799   0.654   3.083
 3045SOL    HW110034   4.867   0.691   3.147
 3045SOL    HW210035   4.750   0.729   3.039
 3046SOL     OW10036   3.054   1.997   6.517
 3046SOL    HW110037   2.991   2.065   6.481
 3046SOL    HW210038   3.019   1.905   6.499
 3047SOL     OW10039   5.573   6.617   2.594
 3047SOL    HW110040   5.537   6.584   2.681
 3047SOL    HW210041   5.528   6.704   2.571
 3048SOL     OW10042   3.785   2.800   1.679
 3048SOL    HW110043   3.831   2.739   1.614
 3048SOL    HW210044   3.807   2.771   1.772
 3049SOL     OW10045   1.492   6.156   1.481
 3049SOL    HW110046   1.547   6.206   1.549
 3049SOL    HW210047   1.493   6.059   1.503
 3050SOL     OW10048   3.266   0.937   3.191
 3050SOL    HW110049   3.177   0.971   3.221
 3050SOL    HW210050   3.337   0.999   3.224
 3051SOL     OW10051   2.315   3.763   0.386
 3051SOL    HW110052   2.409   3.795   0.395
 3051SOL    HW210053   2.252   3.841   0.385
 3052SOL     OW10054   3.981   0.783   2.189
 3052SOL    HW110055   3.948   0.851   2.254
 3052SOL    HW210056   4.000   0.698   2.238
 3053SOL     OW10057   6.886   0.721   6.725
 3053SOL    HW110058   6.943   0.803   6.723
 3053SOL    HW210059   6.937   0.646   6.768
 3054SOL     OW10060   0.739   2.653   1.175
 3054SOL    HW110061   0.740   2.750   1.196
 3054SOL    HW210062   0.800   2.604   1.238
 3055SOL     OW10063   4.501   6.794   3.755
 3055SOL    HW110064   4.467   6.878   3.797
 3055SOL    HW210065   4.599   6.786   3.771
 3056SOL     OW10066   6.903   1.012   6.246
 3056SOL    HW110067   6.995   0.990   6.212
 3056SOL    HW210068   6.909   1.043   6.340
 3057SOL     OW10069   4.010   5.756   2.874
 3057SOL    HW110070   3.958   5.737   2.958
 3057SOL    HW210071   4.099   5.711   2.879
 3058SOL     OW10072   6.838   5.503   1.217
 3058SOL    HW110073   6.926   5.486   1.173
 3058SOL    HW210074   6.811   5.598   1.203
 3059SOL     OW10075   2.259   2.267   5.151
 3059SOL    HW110076   2.254   2.367   5.158
 3059SOL    HW210077   2.330   2.242   5.085
 3060SOL     OW10078   0.461   6.434   0.597
 3060SOL    HW110079   0.451   6.432   0.498
 3060SOL    HW210080   0.371   6.435   0.640
 3061SOL     OW10081   6.426   1.007   5.043
 3061SOL    HW110082   6.429   1.030   4.946
 3061SOL    HW210083   6.438   1.090   5.097
 3062SOL     OW10084   1.468   6.902   6.672
 3062SOL    HW110085   1.401   6.957   6.722
 3062SOL    HW210086   1.559   6.941   6.684
 3063SOL     OW10087   3.060   5.311   1.424
 3063SOL    HW110088   3.046   5.285   1.520
 3063SOL    HW210089   3.004   5.252   1.365
 3064SOL     OW10090   5.693   3.588   3.684
 3064SOL    HW110091   5.710   3.615   3.589
 3064SOL    HW210092   5.730   3.496   3.699
 3065SOL     OW10093   2.024   1.135   6.800
 3065SOL    HW110094   2.077   1.051   6.811
 3065SOL    HW210095   1.969   1.151   6.882
 3066SOL     OW10096   5.341   4.755   0.808
 3066SOL    HW110097   5.284   4.740   0.888
 3066SOL    HW210098   5.418   4.690   0.809
 3067SOL     OW10099   3.762   2.151   4.311
 3067SOL    HW110100   3.783   2.053   4.307
 3067SOL    HW210101   3.799   2.191   4.394
 3068SOL     OW10102   5.570   5.756   0.609
 3068SOL    HW110103   5.536   5.842   0.572
 3068SOL    HW210104   5.494   5.707   0.653
 3069SOL     OW10105   6.789   6.139   2.097
 3069SOL    HW110106   6.736   6.144   2.012
 3069SOL    HW210107   6.837   6.225   2.111
 3070SOL     OW10108   1.623   1.251   2.518
 3070SOL    HW110109   1.700   1.295   2.471
 3070SOL    HW210110   1.589   1.176   2.462
 3071SOL     OW10111   5.635   6.251   3.478
 3071SOL    HW110112   5.594   6.341   3.494
 3071SOL    HW210113   5.733   6.256   3.495
 3072SOL     OW10114   0.888   6.351   0.903
 3072SOL    HW110115   0.833   6.394   0.831
 3072SOL    HW210116   0.896   6.414   0.980
 3073SOL     OW10117   1.141   3.221   5.315
 3073SOL    HW110118   1.074   3.295   5.314
 3073SOL    HW210119   1.188   3.219   5.403
 3074SOL     OW10120   5.966   2.620   0.997
 3074SOL    HW110121   5.913   2.585   1.075
 3074SOL    HW210122   6.021   2.698   1.027
 3075SOL     OW10123   2.075   6.997   1.528
 3075SOL    HW110124   2.059   7.004   1.430
 3075SOL    HW210125   2.157   0.022   1.553
 3076SOL     OW10126   6.761   1.516   4.650
 3076SOL    HW110127   6.701   1.539   4.574
 3076SOL    HW210128   6.740   1.576   4.728
 3077SOL     OW10129   5.083   5.266   2.560
 3077SOL    HW110130   5.145   5.197   2.599
 3077SOL    HW210131   5.123   5.303   2.476
 3078SOL     OW10132   1.948   3.528   1.185
 3078SOL    HW110133   2.024   3.477   1.227
 3078SOL    HW210134   1.980   3.619   1.158
 3079SOL     OW10135   2.525   2.205   4.368
 3079SOL    HW110136   2.454   2.225   4.436
 3079SOL    HW210137   2.587   2.283   4.362
 3080SOL     OW10138   5.317   4.500   2.970
 3080SOL    HW110139   5.348   4.519   2.877
 3080SOL    HW210140   5.393   4.466   3.024
 3081SOL     OW10141   0.396   3.483   6.043
 3081SOL    HW110142   0.386   3.544   5.964
 3081SOL    HW210143   0.309   3.480   6.093
 3082SOL     OW10144   3.618   6.703   3.641
 3082SOL    HW110145   3.527   6.674   3.612
 3082SOL    HW210146   3.670   6.735   3.562
 3083SOL     OW10147   4.095   6.770   3.663
 3083SOL    HW110148   4.190   6.744   3.682
 3083SOL    HW210149   4.036   6.692   3.680
 3084SOL     OW10150   4.734   4.193   4.797
 3084SOL    HW110151   4.767   4.122   4.735
 3084SOL    HW210152   4.676   4.257   4.745
 3085SOL     OW10153   0.507   4.874   2.288
 3085SOL    HW110154   0.447   4.935   2.236
 3085SOL    HW210155   0.537   4.920   2.371
 3086SOL     OW10156   4.549   1.683   1.743
 3086SOL    HW110157   4.639   1.716   1.714
 3086SOL    HW210158   4.481   1.754   1.727
 3087SOL     OW10159   0.705   5.295   4.126
 3087SOL    HW110160   0.681   5.205   4.091
 3087SOL    HW210161   0.636   5.325   4.192
 3088SOL     OW10162   2.448   5.045   5.871
 3088SOL    HW110163   2.506   4.983   5.819
 3088SOL    HW210164   2.478   5.139   5.856
 3089SOL     OW10165   0.533   2.652   0.741
 3089SOL    HW110166   0.597   2.662   0.665
 3089SOL    HW210167   0.583   2.658   0.828
 3090SOL     OW10168   1.985   2.047   2.121
 3090SOL    HW110169   1.902   2.103   2.123
 3090SOL    HW210170   2.042   2.069   2.199
 3091SOL     OW10171   2.267   6.330   0.132
 3091SOL    HW110172   2.331   6.351   0.057
 3091SOL    HW210173   2.215   6.248   0.108
 3092SOL     OW10174   4.691   6.914   7.006
 3092SOL    HW110175   4.650   6.955   6.924
 3092SOL    HW210176   4.683   6.815   7.000
 3093SOL     OW10177   5.185   5.176   5.858
 3093SOL    HW110178   5.247   5.254   5.867
 3093SOL    HW210179   5.229   5.104   5.803
 3094SOL     OW10180   3.513   6.567   4.505
 3094SOL    HW110181   3.555   6.475   4.503
 3094SOL    HW210182   3.585   6.636   4.494
 3095SOL     OW10183   2.849   5.408   4.309
 3095SOL    HW110184   2.936   5.438   4.348
 3095SOL    HW210185   2.848   5.309   4.302
 3096SOL     OW10186   0.644   0.445   4.619
 3096SOL    HW110187   0.604   0.502   4.546
 3096SOL    HW210188   0.667   0.355   4.581
 3097SOL     OW10189   0.609   2.415   0.987
 3097SOL    HW110190   0.645   2.348   1.051
 3097SOL    HW210191   0.659   2.501   0.996
 3098SOL     OW10192   2.511   3.832   1.247
 3098SOL    HW110193   2.570   3.884   1.185
 3098SOL    HW210194   2.558   3.749   1.276
 3099SOL     OW10195   6.917   5.569   5.109
 3099SOL    HW110196   6.976   5.549   5.030
 3099SOL    HW210197   6.849   5.496   5.120
 3100SOL     OW10198   6.631   6.988   4.535
 3100SOL    HW110199   6.583   0.028   4.477
 3100SOL    HW210200   6.701   0.009   4.589
 3101SOL     OW10201   4.844   5.795   5.660
 3101SOL    HW110202   4.853   5.894   5.656
 3101SOL    HW210203   4.904   5.753   5.592
 3102SOL     OW10204   0.303   5.206   3.111
 3102SOL    HW110205   0.268   5.154   3.033
 3102SOL    HW210206   0.380   5.158   3.151
 3103SOL     OW10207   3.296   1.563   1.419
 3103SOL    HW110208   3.382   1.594   1.378
 3103SOL    HW210209   3.293   1.463   1.420
 3104SOL     OW10210   6.044   6.595   4.873
 3104SOL    HW110211   6.034   6.509   4.923
 3104SOL    HW210212   6.016   6.671   4.932
 3105SOL     OW10213   6.821   4.521   2.596
 3105SOL    HW110214   6.766   4.555   2.520
 3105SOL    HW210215   6.762   4.504   2.675
 3106SOL     OW10216   6.919   1.124   3.137
 3106SOL    HW110217   7.009   1.165   3.155
 3106SOL    HW210218   6.855   1.154   3.208
 3107SOL     OW10219   4.040   0.696   3.830
 3107SOL    HW110220   3.978   0.772   3.813
 3107SOL    HW210221   4.000   0.634   3.897
 3108SOL     OW10222   1.411   0.508   4.303
 3108SOL    HW110223   1.414   0.414   4.268
 3108SOL    HW210224   1.494   0.557   4.275
 3109SOL     OW10225   5.409   5.648   3.125
 3109SOL    HW110226   5.408   5.631   3.223
 3109SOL    HW210227   5.502   5.670   3.096
 3110SOL     OW10228   0.644   2.077   3.814
 3110SOL    HW110229   0.641   2.156   3.875
 3110SOL    HW210230   0.628   2.106   3.720
 3111SOL     OW10231   6.212   5.607   3.843
 3111SOL    HW110232   6.144   5.560   3.898
 3111SOL    HW210233   6.270   5.664   3.902
 3112SOL     OW10234   5.129   2.803   6.231
 3112SOL    HW110235   5.052   2.784   6.292
 3112SOL    HW210236   5.115   2.891   6.185
 3113SOL     OW10237   1.964   6.752   4.502
 3113SOL    HW110238   2.045   6.809   4.512
 3113SOL    HW210239   1.893   6.783   4.566
 3114SOL     OW10240   4.842   3.217   6.860
 3114SOL    HW110241   4.850   3.120   6.886
 3114SOL    HW210242   4.851   3.225   6.761
 3115SOL     OW10243   4.725   3.361   0.037
 3115SOL    HW110244   4.791   3.375   0.110
 3115SOL    HW210245   4.771   3.326   6.982
 3116SOL     OW10246   6.934   3.819   6.974
 3116SOL    HW110247   6.938   3.747   6.905
 3116SOL    HW210248   6.850   3.872   6.963
 3117SOL     OW10249   4.548   3.594   5.388
 3117SOL    HW110250   4.539   3.501   5.423
 3117SOL    HW210251   4.621   3.598   5.320
 3118SOL     OW10252   0.401   4.920   0.356
 3118SOL    HW110253   0.351   5.002   0.329
 3118SOL    HW210254   0.349   4.838   0.331
 3119SOL     OW10255   1.779   3.395   5.627
 3119SOL    HW110256   1.690   3.434   5.652
 3119SOL    HW210257   1.828   3.459   5.567
 3120SOL     OW10258   2.273   6.811   4.177
 3120SOL    HW110259   2.258   6.770   4.267
 3120SOL    HW210260   2.189   6.854   4.145
 3121SOL     OW10261   0.900   1.784   2.722
 3121SOL    HW110262   0.927   1.702   2.772
 3121SOL    HW210263   0.952   1.790   2.637
 3122SOL     OW10264   2.914   5.869   6.144
 3122SOL    HW110265   2.863   5.876   6.230
 3122SOL    HW210266   3.010   5.891   6.160
 3123SOL     OW10267   3.265   6.963   3.784
 3123SOL    HW110268   3.171   6.938   3.759
 3123SOL    HW210269   3.329   6.905   3.734
 3124SOL     OW10270   4.038   6.939   4.520
 3124SOL    HW110271   3.986   6.948   4.435
 3124SOL    HW210272   4.039   0.000   4.568
 3125SOL     OW10273   6.381   2.069   6.074
 3125SOL    HW110274   6.387   2.052   5.975
 3125SOL    HW210275   6.286   2.058   6.104
 3126SOL     OW10276   4.916   4.513   6.909
 3126SOL    HW110277   4.818   4.494   6.911
 3126SOL    HW210278   4.953   4.485   6.820
 3127SOL     OW10279   0.860   2.432   3.262
 3127SOL    HW110280   0.957   2.409   3.251
 3127SOL    HW210281   0.804   2.365   3.213
 3128SOL     OW10282   2.389   6.990   6.602
 3128SOL    HW110283   2.448   0.042   6.579
 3128SOL    HW210284   2.441   6.905   6.594
 3129SOL     OW10285   1.557   4.352   6.333
 3129SOL    HW110286   1.548   4.348   6.433
 3129SOL    HW210287   1.648   4.385   6.309
 3130SOL     OW10288   1.931   4.177   2.018
 3130SOL    HW110289   1.898   4.142   1.931
 3130SOL    HW210290   2.031   4.172   2.020
 3131SOL     OW10291   0.871   2.578   1.467
 3131SOL    HW110292   0.879   2.637   1.548
 3131SOL    HW210293   0.955   2.584   1.413
 3132SOL     OW10294   4.897   5.221   5.954
 3132SOL    HW110295   4.898   5.127   5.989
 3132SOL    HW210296   4.971   5.233   5.888
 3133SOL     OW10297   3.056   2.246   3.675
 3133SOL    HW110298   3.094   2.163   3.715
 3133SOL    HW210299   3.080   2.250   3.578
 3134SOL     OW10300   5.221   4.737   1.465
 3134SOL    HW110301   5.228   4.813   1.530
 3134SOL    HW210302   5.130   4.738   1.423
 3135SOL     OW10303   4.853   1.566   5.151
 3135SOL    HW110304   4.833   1.585   5.054
 3135SOL    HW210305   4.852   1.467   5.166
 3136SOL     OW10306   6.174   0.277   6.276
 3136SOL    HW110307   6.169   0.291   6.374
 3136SOL    HW210308   6.086   0.301   6.234
 3137SOL     OW10309   5.706   0.367   3.461
 3137SOL    HW110310   5.754   0.343   3.377
 3137SOL    HW210311   5.751   0.446   3.503
 3138SOL     OW10312   6.506   2.151   4.066
 3138SOL    HW110313   6.425   2.129   4.011
 3138SOL    HW210314   6.497   2.243   4.103
 3139SOL     OW10315   4.541   0.136   6.620
 3139SOL    HW110316   4.613   0.204   6.633
 3139SOL    HW210317   4.457   0.167   6.666
 3140SOL     OW10318   6.318   6.804   6.245
 3140SOL    HW110319   6.355   6.744   6.316
 3140SOL    HW210320   6.293   6.892   6.285
 3141SOL     OW10321   1.044   6.751   6.342
 3141SOL    HW110322   0.982   6.825   6.367
 3141SOL    HW210323   1.127   6.757   6.398
 3142SOL     OW10324   4.934   5.777   1.259
 3142SOL    HW110325   4.986   5.765   1.344
 3142SOL    HW210326   4.844   5.734   1.269
 3143SOL     OW10327   0.175   2.615   6.893
 3143SOL    HW110328   0.231   2.533   6.888
 3143SOL    HW210329   0.147   2.631   6.988
 3144SOL     OW10330   2.705   3.994   1.156
 3144SOL    HW110331   2.645   4.063   1.197
 3144SOL    HW210332   2.798   4.008   1.189
 3145SOL     OW10333   2.316   5.025   2.710
 3145SOL    HW110334   2.364   4.945   2.745
 3145SOL    HW210335   2.280   5.004   2.619
 3146SOL     OW10336   1.384   0.002   3.281
 3146SOL    HW110337   1.429   6.998   3.197
 3146SOL    HW210338   1.325   6.956   3.316
 3147SOL     OW10339   4.325   5.452   6.707
 3147SOL    HW110340   4.351   5.387   6.636
 3147SOL    HW210341   4.363   5.542   6.685
 3148SOL     OW10342   4.608   5.310   4.408
 3148SOL    HW110343   4.512   5.297   4.431
 3148SOL    HW210344   4.637   5.238   4.344
 3149SOL     OW10345   3.350   0.450   5.450
 3149SOL    HW110346   3.322   0.421   5.359
 3149SOL    HW210347   3.388   0.542   5.446
 3150SOL     OW10348   5.405   5.168   3.983
 3150SOL    HW110349   5.317   5.210   3.959
 3150SOL    HW210350   5.473   5.239   3.997
 3151SOL     OW10351   4.104   0.968   6.854
 3151SOL    HW110352   4.106   1.030   6.932
 3151SOL    HW210353   4.107   0.874   6.886
 3152SOL     OW10354   1.258   5.283   1.385
 3152SOL    HW110355   1.277   5.210   1.450
 3152SOL    HW210356   1.205   5.356   1.429
 3153SOL     OW10357   6.477   3.998   1.938
 3153SOL    HW110358   6.556   4.002   1.877
 3153SOL    HW210359   6.507   3.967   2.028
 3154SOL     OW10360   6.010   1.614   0.544
 3154SOL    HW110361   5.961   1.563   0.473
 3154SOL    HW210362   5.980   1.710   0.542
 3155SOL     OW10363   6.914   5.452   1.506
 3155SOL    HW110364   6.899   5.444   1.408
 3155SOL    HW210365   6.826   5.448   1.554
 3156SOL     OW10366   3.781   3.116   4.009
 3156SOL    HW110367   3.845   3.101   4.085
 3156SOL    HW210368   3.697   3.063   4.025
 3157SOL     OW10369   2.008   2.830   4.807
 3157SOL    HW110370   1.990   2.907   4.867
 3157SOL    HW210371   2.102   2.798   4.821
 3158SOL     OW10372   4.480   0.578   1.289
 3158SOL    HW110373   4.572   0.547   1.317
 3158SOL    HW210374   4.489   0.655   1.226
 3159SOL     OW10375   5.386   0.194   7.008
 3159SOL    HW110376   5.435   0.208   6.922
 3159SOL    HW210377   5.308   0.257   7.012
 3160SOL     OW10378   6.196   5.694   5.630
 3160SOL    HW110379   6.131   5.761   5.594
 3160SOL    HW210380   6.155   5.647   5.708
 3161SOL     OW10381   1.163   1.526   2.578
 3161SOL    HW110382   1.236   1.467   2.542
 3161SOL    HW210383   1.141   1.498   2.671
 3162SOL     OW10384   0.390   5.520   0.150
 3162SOL    HW110385   0.364   5.439   0.096
 3162SOL    HW210386   0.488   5.534   0.143
 3163SOL     OW10387   3.434   2.299   6.549
 3163SOL    HW110388   3.378   2.380   6.568
 3163SOL    HW210389   3.520   2.304   6.599
 3164SOL     OW10390   4.386   4.077   1.628
 3164SOL    HW110391   4.437   4.119   1.703
 3164SOL    HW210392   4.326   4.006   1.664
 3165SOL     OW10393   1.051   6.377   1.679
 3165SOL    HW110394   0.993   6.420   1.610
 3165SOL    HW210395   1.133   6.340   1.635
 3166SOL     OW10396   4.487   2.510   6.482
 3166SOL    HW110397   4.546   2.510   6.563
 3166SOL    HW210398   4.543   2.521   6.400
 3167SOL     OW10399   6.955   4.970   1.969
 3167SOL    HW110400   0.001   4.902   1.980
 3167SOL    HW210401   6.887   4.937   1.904
 3168SOL     OW10402   5.139   2.484   0.515
 3168SOL    HW110403   5.058   2.512   0.567
 3168SOL    HW210404   5.136   2.385   0.499
 3169SOL     OW10405   0.606   3.274   5.969
 3169SOL    HW110406   0.680   3.324   6.014
 3169SOL    HW210407   0.521   3.325   5.978
 3170SOL     OW10408   4.218   0.443   6.925
 3170SOL    HW110409   4.205   0.508   6.850
 3170SOL    HW210410   4.136   0.441   6.982
 3171SOL     OW10411   6.753   6.604   0.991
 3171SOL    HW110412   6.777   6.525   1.047
 3171SOL    HW210413   6.832   6.665   0.984
 3172SOL     OW10414   0.411   5.798   5.229
 3172SOL    HW110415   0.342   5.816   5.299
 3172SOL    HW210416   0.500   5.831   5.261
 3173SOL     OW10417   2.842   1.438   1.517
 3173SOL    HW110418   2.787   1.367   1.473
 3173SOL    HW210419   2.893   1.488   1.446
 3174SOL     OW10420   2.541   2.922   6.675
 3174SOL    HW110421   2.625   2.928   6.728
 3174SOL    HW210422   2.485   3.003   6.692
 3175SOL     OW10423   0.448   6.435   6.581
 3175SOL    HW110424   0.436   6.420   6.483
 3175SOL    HW210425   0.366   6.403   6.629
 3176SOL     OW10426   1.876   5.263   4.936
 3176SOL    HW110427   1.818   5.330   4.984
 3176SOL    HW210428   1.826   5.177   4.926
 3177SOL     OW10429   5.405   5.475   5.448
 3177SOL    HW110430   5.370   5.405   5.510
 3177SOL    HW210431   5.430   5.433   5.361
 3178SOL     OW10432   0.141   3.330   1.311
 3178SOL    HW110433   0.166   3.285   1.225
 3178SOL    HW210434   0.208   3.306   1.381
 3179SOL     OW10435   2.216   2.380   1.874
 3179SOL    HW110436   2.302   2.421   1.902
 3179SOL    HW210437   2.232   2.315   1.800
 3180SOL     OW10438   4.092   0.571   6.268
 3180SOL    HW110439   4.034   0.645   6.234
 3180SOL    HW210440   4.041   0.516   6.334
 3181SOL     OW10441   0.317   7.024   3.219
 3181SOL    HW110442   0.404   0.030   3.184
 3181SOL    HW210443   0.274   6.963   3.152
 3182SOL     OW10444   0.952   0.744   5.309
 3182SOL    HW110445   0.892   0.689   5.251
 3182SOL    HW210446   0.910   0.754   5.399
 3183SOL     OW10447   4.569   3.999   1.408
 3183SOL    HW110448   4.492   3.963   1.356
 3183SOL    HW210449   4.534   4.041   1.493
 3184SOL     OW10450   2.899   2.043   2.176
 3184SOL    HW110451   2.987   2.045   2.129
 3184SOL    HW210452   2.832   2.096   2.124
 3185SOL     OW10453   6.261   0.665   6.180
 3185SOL    HW110454   6.163   0.684   6.192
 3185SOL    HW210455   6.276   0.619   6.093
 3186SOL     OW10456   2.902   1.408   3.321
 3186SOL    HW110457   2.840   1.331   3.334
 3186SOL    HW210458   2.876   1.483   3.381
 3187SOL     OW10459   3.862   4.488   6.994
 3187SOL    HW110460   3.802   4.551   0.019
 3187SOL    HW210461   3.958   4.507   7.018
 3188SOL     OW10462   3.812   6.375   3.284
 3188SOL    HW110463   3.759   6.390   3.201
 3188SOL    HW210464   3.767   6.307   3.342
 3189SOL     OW10465   2.144   1.237   3.455
 3189SOL    HW110466   2.106   1.258   3.545
 3189SOL    HW210467   2.237   1.201   3.465
 3190SOL     OW10468   1.227   6.633   1.417
 3190SOL    HW110469   1.293   6.561   1.437
 3190SOL    HW210470   1.268   6.723   1.434
 3191SOL     OW10471   3.496   0.120   1.127
 3191SOL    HW110472   3.503   0.054   1.202
 3191SOL    HW210473   3.399   0.140   1.109
 3192SOL     OW10474   0.671   2.024   1.000
 3192SOL    HW110475   0.726   1.971   0.935
 3192SOL    HW210476   0.585   1.974   1.017
 3193SOL     OW10477   4.287   2.668   6.311
 3193SOL    HW110478   4.223   2.712   6.374
 3193SOL    HW210479   4.343   2.602   6.362
 3194SOL     OW10480   1.394   2.639   6.730
 3194SOL    HW110481   1.472   2.618   6.670
 3194SOL    HW210482   1.422   2.703   6.800
 3195SOL     OW10483   1.705   2.853   3.334
 3195SOL    HW110484   1.799   2.859   3.367
 3195SOL    HW210485   1.646   2.908   3.393
 3196SOL     OW10486   6.731   0.337   5.204
 3196SOL    HW110487   6.708   0.410   5.268
 3196SOL    HW210488   6.784   0.375   5.128
 3197SOL     OW10489   1.334   5.867   2.795
 3197SOL    HW110490   1.318   5.786   2.739
 3197SOL    HW210491   1.248   5.915   2.811
 3198SOL     OW10492   6.617   2.036   6.719
 3198SOL    HW110493   6.633   1.939   6.737
 3198SOL    HW210494   6.681   2.068   6.649
 3199SOL     OW10495   4.482   2.685   1.645
 3199SOL    HW110496   4.527   2.760   1.694
 3199SOL    HW210497   4.389   2.673   1.679
 3200SOL     OW10498   0.203   2.693   1.256
 3200SOL    HW110499   0.177   2.766   1.318
 3200SOL    HW210500   0.302   2.686   1.251
 3201SOL     OW10501   5.193   3.620   3.959
 3201SOL    HW110502   5.244   3.657   3.881
 3201SOL    HW210503   5.118   3.563   3.925
 3202SOL     OW10504   1.809   4.311   2.682
 3202SOL    HW110505   1.714   4.289   2.659
 3202SOL    HW210506   1.822   4.410   2.677
 3203SOL     OW10507   5.825   0.850   0.635
 3203SOL    HW110508   5.752   0.887   0.692
 3203SOL    HW210509   5.851   0.760   0.670
 3204SOL     OW10510   5.604   5.897   1.641
 3204SOL    HW110511   5.590   5.958   1.563
 3204SOL    HW210512   5.640   5.948   1.719
 3205SOL     OW10513   6.829   4.608   0.008
 3205SOL    HW110514   6.895   4.540   7.004
 3205SOL    HW210515   6.876   4.682   0.057
 3206SOL     OW10516   0.186   0.250   5.941
 3206SOL    HW110517   0.202   0.343   5.909
 3206SOL    HW210518   0.200   0.186   5.865
 3207SOL     OW10519   0.116   1.145   5.686
 3207SOL    HW110520   0.166   1.068   5.645
 3207SOL    HW210521   0.089   1.209   5.614
 3208SOL     OW10522   4.344   6.157   5.102
 3208SOL    HW110523   4.427   6.126   5.149
 3208SOL    HW210524   4.283   6.079   5.087
 3209SOL     OW10525   3.015   7.000   3.703
 3209SOL    HW110526   2.953   6.922   3.709
 3209SOL    HW210527   3.012   0.025   3.789
 3210SOL     OW10528   0.210   3.458   2.584
 3210SOL    HW110529   0.167   3.422   2.501
 3210SOL    HW210530   0.189   3.398   2.661
 3211SOL     OW10531   2.056   4.663   0.432
 3211SOL    HW110532   2.120   4.605   0.483
 3211SOL    HW210533   2.106   4.739   0.390
 3212SOL     OW10534   4.435   1.780   6.617
 3212SOL    HW110535   4.385   1.808   6.536
 3212SOL    HW210536   4.372   1.738   6.683
 3213SOL     OW10537   6.003   4.941   2.733
 3213SOL    HW110538   6.080   4.887   2.701
 3213SOL    HW210539   6.028   5.038   2.735
 3214SOL     OW10540   4.732   5.906   0.180
 3214SOL    HW110541   4.705   5.992   0.138
 3214SOL    HW210542   4.689   5.898   0.270
 3215SOL     OW10543   6.334   3.153   0.764
 3215SOL    HW110544   6.349   3.226   0.697
 3215SOL    HW210545   6.353   3.188   0.856
 3216SOL     OW10546   5.692   5.807   2.979
 3216SOL    HW110547   5.710   5.740   2.907
 3216SOL    HW210548   5.713   5.767   3.068
 3217SOL     OW10549   1.235   4.556   3.295
 3217SOL    HW110550   1.333   4.572   3.286
 3217SOL    HW210551   1.203   4.500   3.219
 3218SOL     OW10552   4.275   6.976   3.585
 3218SOL    HW110553   4.325   0.003   3.654
 3218SOL    HW210554   4.202   6.924   3.630
 3219SOL     OW10555   6.816   0.649   3.453
 3219SOL    HW110556   6.879   0.724   3.475
 3219SOL    HW210557   6.858   0.590   3.383
 3220SOL     OW10558   6.765   4.747   5.598
 3220SOL    HW110559   6.740   4.843   5.587
 3220SOL    HW210560   6.797   4.710   5.511
 3221SOL     OW10561   2.621   6.088   2.450
 3221SOL    HW110562   2.577   6.127   2.530
 3221SOL    HW210563   2.615   6.152   2.373
 3222SOL     OW10564   5.188   2.294   3.104
 3222SOL    HW110565   5.233   2.311   3.191
 3222SOL    HW210566   5.147   2.379   3.071
 3223SOL     OW10567   2.834   5.339   6.830
 3223SOL    HW110568   2.748   5.292   6.808
 3223SOL    HW210569   2.877   5.370   6.745
 3224SOL     OW10570   4.646   5.249   6.281
 3224SOL    HW110571   4.558   5.269   6.323
 3224SOL    HW210572   4.645   5.156   6.244
 3225SOL     OW10573   4.679   3.053   6.372
 3225SOL    HW110574   4.588   3.010   6.378
 3225SOL    HW210575   4.745   2.986   6.338
 3226SOL     OW10576   2.120   1.014   4.442
 3226SOL    HW110577   2.160   1.019   4.534
 3226SOL    HW210578   2.020   1.022   4.450
 3227SOL     OW10579   3.284   2.090   6.645
 3227SOL    HW110580   3.207   2.049   6.596
 3227SOL    HW210581   3.305   2.179   6.605
 3228SOL     OW10582   5.582   3.359   4.077
 3228SOL    HW110583   5.581   3.260   4.092
 3228SOL    HW210584   5.527   3.404   4.146
 3229SOL     OW10585   3.338   1.718   5.719
 3229SOL    HW110586   3.298   1.696   5.808
 3229SOL    HW210587   3.267   1.752   5.658
 3230SOL     OW10588   0.631   1.626   3.336
 3230SOL    HW110589   0.596   1.683   3.262
 3230SOL    HW210590   0.557   1.604   3.399
 3231SOL     OW10591   4.950   6.130   1.586
 3231SOL    HW110592   5.008   6.148   1.507
 3231SOL    HW210593   4.894   6.049   1.569
 3232SOL     OW10594   4.202   5.077   5.269
 3232SOL    HW110595   4.241   5.022   5.343
 3232SOL    HW210596   4.135   5.141   5.307
 3233SOL     OW10597   0.860   4.413   0.965
 3233SOL    HW110598   0.893   4.375   0.879
 3233SOL    HW210599   0.838   4.510   0.952
 3234SOL     OW10600   6.952   2.631   0.386
 3234SOL    HW110601   7.014   2.598   0.457
 3234SOL    HW210602   6.983   2.598   0.297
 3235SOL     OW10603   6.368   6.016   2.948
 3235SOL    HW110604   6.334   6.107   2.929
 3235SOL    HW210605   6.458   6.022   2.991
 3236SOL     OW10606   1.870   3.254   1.917
 3236SOL    HW110607   1.879   3.257   2.016
 3236SOL    HW210608   1.903   3.340   1.878
 3237SOL     OW10609   4.549   6.926   4.465
 3237SOL    HW110610   4.539   6.918   4.564
 3237SOL    HW210611   4.639   6.964   4.444
 3238SOL     OW10612   0.658   5.682   6.660
 3238SOL    HW110613   0.592   5.641   6.724
 3238SOL    HW210614   0.737   5.716   6.711
 3239SOL     OW10615   5.996   0.932   0.164
 3239SOL    HW110616   5.948   0.921   0.251
 3239SOL    HW210617   5.972   0.856   0.103
 3240SOL     OW10618   0.142   6.750   4.819
 3240SOL    HW110619   0.069   6.682   4.810
 3240SOL    HW210620   0.141   6.811   4.740
 3241SOL     OW10621   4.848   1.504   4.265
 3241SOL    HW110622   4.841   1.506   4.365
 3241SOL    HW210623   4.830   1.411   4.232
 3242SOL     OW10624   3.410   5.120   0.444
 3242SOL    HW110625   3.385   5.152   0.352
 3242SOL    HW210626   3.384   5.024   0.453
 3243SOL     OW10627   5.098   4.860   6.967
 3243SOL    HW110628   5.016   4.912   6.993
 3243SOL    HW210629   5.164   4.921   6.924
 3244SOL     OW10630   5.221   5.990   5.660
 3244SOL    HW110631   5.281   5.918   5.624
 3244SOL    HW210632   5.218   5.985   5.759
 3245SOL     OW10633   3.941   2.905   6.282
 3245SOL    HW110634   3.966   2.989   6.330
 3245SOL    HW210635   3.972   2.826   6.335
 3246SOL     OW10636   5.354   0.374   2.768
 3246SOL    HW110637   5.369   0.447   2.835
 3246SOL    HW210638   5.380   0.287   2.808
 3247SOL     OW10639   0.401   4.043   2.836
 3247SOL    HW110640   0.455   3.976   2.886
 3247SOL    HW210641   0.304   4.022   2.847
 3248SOL     OW10642   6.047   3.869   1.984
 3248SOL    HW110643   6.095   3.783   1.998
 3248SOL    HW210644   6.004   3.898   2.070
 3249SOL     OW10645   3.790   4.757   5.376
 3249SOL    HW110646   3.792   4.658   5.389
 3249SOL    HW210647   3.829   4.780   5.287
 3250SOL     OW10648   5.537   0.003   2.791
 3250SOL    HW110649   5.522   0.086   2.844
 3250SOL    HW210650   5.635   7.013   2.779
 3251SOL     OW10651   3.632   1.520   2.950
 3251SOL    HW110652   3.682   1.602   2.924
 3251SOL    HW210653   3.673   1.481   3.033
 3252SOL     OW10654   3.367   1.104   2.911
 3252SOL    HW110655   3.378   1.200   2.887
 3252SOL    HW210656   3.457   1.064   2.930
 3253SOL     OW10657   4.792   2.726   1.527
 3253SOL    HW110658   4.737   2.671   1.464
 3253SOL    HW210659   4.735   2.756   1.604
 3254SOL     OW10660   3.691   4.952   4.138
 3254SOL    HW110661   3.676   4.955   4.040
 3254SOL    HW210662   3.776   4.904   4.158
 3255SOL     OW10663   4.887   5.140   0.555
 3255SOL    HW110664   4.915   5.116   0.648
 3255SOL    HW210665   4.914   5.234   0.536
 3256SOL     OW10666   5.705   6.688   6.043
 3256SOL    HW110667   5.650   6.640   6.113
 3256SOL    HW210668   5.743   6.771   6.083
 3257SOL     OW10669   1.371   1.899   0.580
 3257SOL    HW110670   1.416   1.972   0.632
 3257SOL    HW210671   1.305   1.853   0.639
 3258SOL     OW10672   5.031   6.765   1.495
 3258SOL    HW110673   5.105   6.764   1.563
 3258SOL    HW210674   5.070   6.767   1.403
 3259SOL     OW10675   4.367   5.804   4.324
 3259SOL    HW110676   4.400   5.710   4.315
 3259SOL    HW210677   4.361   5.828   4.420
 3260SOL     OW10678   1.982   1.351   0.429
 3260SOL    HW110679   1.909   1.283   0.440
 3260SOL    HW210680   1.949   1.440   0.459
 3261SOL     OW10681   4.025   6.845   0.513
 3261SOL    HW110682   3.961   6.816   0.442
 3261SOL    HW210683   4.027   6.776   0.586
 3262SOL     OW10684   3.833   1.790   3.428
 3262SOL    HW110685   3.842   1.889   3.423
 3262SOL    HW210686   3.744   1.762   3.393
 3263SOL     OW10687   4.856   6.929   3.123
 3263SOL    HW110688   4.757   6.941   3.109
 3263SOL    HW210689   4.879   6.948   3.219
 3264SOL     OW10690   0.009   5.432   6.847
 3264SOL    HW110691   6.988   5.433   6.935
 3264SOL    HW210692   0.087   5.370   6.851
 3265SOL     OW10693   4.023   2.153   6.280
 3265SOL    HW110694   3.972   2.071   6.253
 3265SOL    HW210695   4.071   2.190   6.200
 3266SOL     OW10696   0.242   2.531   0.193
 3266SOL    HW110697   0.164   2.471   0.209
 3266SOL    HW210698   0.210   2.622   0.170
 3267SOL     OW10699   3.677   2.309   1.360
 3267SOL    HW110700   3.721   2.386   1.315
 3267SOL    HW210701   3.604   2.274   1.302
 3268SOL     OW10702   1.327   4.198   0.153
 3268SOL    HW110703   1.287   4.265   0.090
 3268SOL    HW210704   1.255   4.160   0.211
 3269SOL     OW10705   4.757   5.098   1.459
 3269SOL    HW110706   4.696   5.062   1.529
 3269SOL    HW210707   4.798   5.023   1.408
 3270SOL     OW10708   0.398   5.295   4.000
 3270SOL    HW110709   0.405   5.215   4.060
 3270SOL    HW210710   0.485   5.308   3.953
 3271SOL     OW10711   5.402   2.051   2.270
 3271SOL    HW110712   5.444   1.961   2.255
 3271SOL    HW210713   5.407   2.105   2.186
 3272SOL     OW10714   3.750   7.017   0.139
 3272SOL    HW110715   3.666   6.969   0.117
 3272SOL    HW210716   3.733   0.056   0.214
 3273SOL     OW10717   1.401   5.984   1.744
 3273SOL    HW110718   1.426   5.922   1.818
 3273SOL    HW210719   1.462   6.064   1.745
 3274SOL     OW10720   3.375   1.808   6.122
 3274SOL    HW110721   3.332   1.754   6.050
 3274SOL    HW210722   3.371   1.905   6.099
 3275SOL     OW10723   2.393   0.462   0.025
 3275SOL    HW110724   2.480   0.414   0.013
 3275SOL    HW210725   2.333   0.445   6.973
 3276SOL     OW10726   3.407   5.100   6.674
 3276SOL    HW110727   3.407   5.109   6.574
 3276SOL    HW210728   3.314   5.116   6.708
 3277SOL     OW10729   6.389   6.969   6.044
 3277SOL    HW110730   6.380   6.885   6.097
 3277SOL    HW210731   6.452   0.005   6.090
 3278SOL     OW10732   0.686   1.071   5.160
 3278SOL    HW110733   0.673   1.035   5.253
 3278SOL    HW210734   0.720   1.165   5.165
 3279SOL     OW10735   0.002   0.092   0.984
 3279SOL    HW110736   6.990   0.119   0.896
 3279SOL    HW210737   0.056   0.008   0.973
 3280SOL     OW10738   2.549   5.186   6.792
 3280SOL    HW110739   2.554   5.087   6.782
 3280SOL    HW210740   2.523   5.227   6.705
 3281SOL     OW10741   1.466   5.681   0.726
 3281SOL    HW110742   1.479   5.690   0.824
 3281SOL    HW210743   1.502   5.593   0.695
 3282SOL     OW10744   2.852   6.304   4.604
 3282SOL    HW110745   2.952   6.306   4.609
 3282SOL    HW210746   2.823   6.213   4.573
 3283SOL     OW10747   3.213   1.959   3.385
 3283SOL    HW110748   3.152   1.911   3.448
 3283SOL    HW210749   3.177   1.952   3.292
 3284SOL     OW10750   0.281   6.219   6.464
 3284SOL    HW110751   0.331   6.146   6.417
 3284SOL    HW210752   0.266   6.295   6.400
 3285SOL     OW10753   0.319   3.201   3.096
 3285SOL    HW110754   0.254   3.204   3.173
 3285SOL    HW210755   0.283   3.254   3.020
 3286SOL     OW10756   3.835   3.427   3.826
 3286SOL    HW110757   3.916   3.376   3.799
 3286SOL    HW210758   3.768   3.365   3.867
 3287SOL     OW10759   1.456   5.757   6.979
 3287SOL    HW110760   1.432   5.846   6.941
 3287SOL    HW210761   1.550   5.733   6.952
 3288SOL     OW10762   0.682   6.337   6.694
 3288SOL    HW110763   0.670   6.238   6.696
 3288SOL    HW210764   0.608   6.378   6.641
 3289SOL     OW10765   1.103   6.123   5.305
 3289SOL    HW110766   1.202   6.118   5.321
 3289SOL    HW210767   1.061   6.184   5.372
 3290SOL     OW10768   0.159   6.097   1.931
 3290SOL    HW110769   0.198   6.120   1.842
 3290SOL    HW210770   0.151   6.180   1.986
 3291SOL     OW10771   2.161   6.681   6.550
 3291SOL    HW110772   2.132   6.685   6.455
 3291SOL    HW210773   2.080   6.673   6.609
 3292SOL     OW10774   0.451   0.986   6.572
 3292SOL    HW110775   0.467   0.921   6.497
 3292SOL    HW210776   0.359   1.023   6.564
 3293SOL     OW10777   0.261   1.826   3.238
 3293SOL    HW110778   0.197   1.787   3.304
 3293SOL    HW210779   0.346   1.773   3.239
 3294SOL     OW10780   6.622   0.941   6.708
 3294SOL    HW110781   6.632   0.846   6.736
 3294SOL    HW210782   6.594   0.997   6.787
 3295SOL     OW10783   2.604   2.187   0.768
 3295SOL    HW110784   2.682   2.124   0.769
 3295SOL    HW210785   2.526   2.143   0.723
 3296SOL     OW10786   2.370   7.024   1.808
 3296SOL    HW110787   2.446   0.009   1.871
 3296SOL    HW210788   2.366   6.929   1.776
 3297SOL     OW10789   3.392   2.058   5.147
 3297SOL    HW110790   3.333   2.139   5.145
 3297SOL    HW210791   3.335   1.976   5.136
 3298SOL     OW10792   6.466   3.035   3.005
 3298SOL    HW110793   6.522   3.110   3.041
 3298SOL    HW210794   6.492   2.949   3.048
 3299SOL     OW10795   1.633   0.164   4.276
 3299SOL    HW110796   1.626   0.064   4.276
 3299SOL    HW210797   1.556   0.203   4.326
 3300SOL     OW10798   6.300   6.936   5.358
 3300SOL    HW110799   6.313   6.996   5.279
 3300SOL    HW210800   6.276   6.991   5.438
 3301SOL     OW10801   1.072   4.204   3.861
 3301SOL    HW110802   1.047   4.299   3.882
 3301SOL    HW210803   1.169   4.191   3.879
 3302SOL     OW10804   1.515   5.188   4.327
 3302SOL    HW110805   1.609   5.221   4.332
 3302SOL    HW210806   1.511   5.111   4.263
 3303SOL     OW10807   3.316   3.288   2.737
 3303SOL    HW110808   3.310   3.345   2.819
 3303SOL    HW210809   3.228   3.243   2.721
 3304SOL     OW10810   1.325   5.330   3.654
 3304SOL    HW110811   1.319   5.429   3.653
 3304SOL    HW210812   1.304   5.295   3.563
 3305SOL     OW10813   1.521   1.168   2.033
 3305SOL    HW110814   1.446   1.108   2.006
 3305SOL    HW210815   1.605   1.138   1.989
 3306SOL     OW10816   2.163   3.933   3.477
 3306SOL    HW110817   2.160   4.018   3.425
 3306SOL    HW210818   2.079   3.881   3.460
 3307SOL     OW10819   7.009   5.889   0.234
 3307SOL    HW110820   0.009   5.793   0.244
 3307SOL    HW210821   0.050   5.946   0.281
 3308SOL     OW10822   4.265   6.112   0.410
 3308SOL    HW110823   4.343   6.136   0.353
 3308SOL    HW210824   4.278   6.148   0.502
 3309SOL     OW10825   1.251   4.913   2.826
 3309SOL    HW110826   1.262   4.873   2.735
 3309SOL    HW210827   1.246   5.012   2.818
 3310SOL     OW10828   0.515   3.882   3.345
 3310SOL    HW110829   0.595   3.823   3.335
 3310SOL    HW210830   0.544   3.973   3.375
 3311SOL     OW10831   3.233   6.217   1.177
 3311SOL    HW110832   3.230   6.169   1.090
 3311SOL    HW210833   3.169   6.175   1.241
 3312SOL     OW10834   3.108   4.320   6.487
 3312SOL    HW110835   3.181   4.252   6.489
 3312SOL    HW210836   3.030   4.284   6.436
 3313SOL     OW10837   1.359   5.191   3.908
 3313SOL    HW110838   1.325   5.248   3.983
 3313SOL    HW210839   1.339   5.235   3.821
 3314SOL     OW10840   1.549   3.020   4.878
 3314SOL    HW110841   1.644   3.045   4.893
 3314SOL    HW210842   1.515   2.967   4.956
 3315SOL     OW10843   6.737   2.660   3.792
 3315SOL    HW110844   6.658   2.699   3.839
 3315SOL    HW210845   6.758   2.715   3.711
 3316SOL     OW10846   4.330   2.282   6.214
 3316SOL    HW110847   4.411   2.324   6.171
 3316SOL    HW210848   4.274   2.354   6.255
 3317SOL     OW10849   4.678   2.826   1.749
 3317SOL    HW110850   4.666   2.923   1.772
 3317SOL    HW210851   4.736   2.783   1.818
 3318SOL     OW10852   2.756   6.372   6.290
 3318SOL    HW110853   2.701   6.289   6.289
 3318SOL    HW210854   2.846   6.353   6.251
 3319SOL     OW10855   0.545   6.326   4.643
 3319SOL    HW110856   0.538   6.395   4.715
 3319SOL    HW210857   0.487   6.352   4.566
 3320SOL     OW10858   5.625   1.308   5.214
 3320SOL    HW110859   5.667   1.385   5.261
 3320SOL    HW210860   5.623   1.228   5.274
 3321SOL     OW10861   3.353   3.247   2.478
 3321SOL    HW110862   3.349   3.265   2.576
 3321SOL    HW210863   3.311   3.157   2.460
 3322SOL     OW10864   4.136   2.049   0.887
 3322SOL    HW110865   4.226   2.039   0.844
 3322SOL    HW210866   4.148   2.063   0.986
 3323SOL     OW10867   1.904   4.183   6.362
 3323SOL    HW110868   1.820   4.143   6.325
 3323SOL    HW210869   1.885   4.275   6.396
 3324SOL     OW10870   1.161   3.982   0.515
 3324SOL    HW110871   1.087   3.973   0.582
 3324SOL    HW210872   1.193   3.892   0.487
 3325SOL     OW10873   1.671   3.153   0.098
 3325SOL    HW110874   1.720   3.222   0.151
 3325SOL    HW210875   1.684   3.170   0.001
 3326SOL     OW10876   5.837   2.126   1.883
 3326SOL    HW110877   5.775   2.062   1.838
 3326SOL    HW210878   5.921   2.079   1.909
 3327SOL     OW10879   2.318   6.185   2.154
 3327SOL    HW110880   2.250   6.112   2.146
 3327SOL    HW210881   2.271   6.271   2.176
 3328SOL     OW10882   4.806   0.435   1.824
 3328SOL    HW110883   4.768   0.342   1.818
 3328SOL    HW210884   4.785   0.474   1.913
 3329SOL     OW10885   3.969   0.760   5.037
 3329SOL    HW110886   3.972   0.677   4.981
 3329SOL    HW210887   4.060   0.775   5.078
 3330SOL     OW10888   6.019   6.700   2.254
 3330SOL    HW110889   6.061   6.728   2.168
 3330SOL    HW210890   5.941   6.759   2.273
 3331SOL     OW10891   1.699   3.405   3.050
 3331SOL    HW110892   1.746   3.414   3.138
 3331SOL    HW210893   1.751   3.343   2.991
 3332SOL     OW10894   5.234   4.683   0.265
 3332SOL    HW110895   5.187   4.671   0.177
 3332SOL    HW210896   5.318   4.736   0.250
 3333SOL     OW10897   3.435   3.396   1.514
 3333SOL    HW110898   3.426   3.391   1.613
 3333SOL    HW210899   3.516   3.345   1.485
 3334SOL     OW10900   1.520   2.706   2.402
 3334SOL    HW110901   1.463   2.729   2.481
 3334SOL    HW210902   1.465   2.711   2.319
 3335SOL     OW10903   3.509   4.285   5.675
 3335SOL    HW110904   3.569   4.285   5.756
 3335SOL    HW210905   3.431   4.226   5.692
 3336SOL     OW10906   2.693   6.932   4.055
 3336SOL    HW110907   2.708   7.015   4.002
 3336SOL    HW210908   2.778   6.879   4.057
 3337SOL     OW10909   3.374   3.611   2.487
 3337SOL    HW110910   3.432   3.539   2.524
 3337SOL    HW210911   3.289   3.616   2.541
 3338SOL     OW10912   1.168   2.002   1.622
 3338SOL    HW110913   1.233   1.991   1.547
 3338SOL    HW210914   1.075   1.995   1.586
 3339SOL     OW10915   1.930   0.235   5.408
 3339SOL    HW110916   1.958   0.320   5.452
 3339SOL    HW210917   1.997   0.164   5.427
 3340SOL     OW10918   4.674   0.895   3.747
 3340SOL    HW110919   4.586   0.885   3.702
 3340SOL    HW210920   4.688   0.990   3.773
 3341SOL     OW10921   2.719   4.700   2.409
 3341SOL    HW110922   2.737   4.670   2.316
 3341SOL    HW210923   2.652   4.774   2.408
 3342SOL     OW10924   6.043   0.465   2.902
 3342SOL    HW110925   6.094   0.491   2.983
 3342SOL    HW210926   6.086   0.504   2.821
 3343SOL     OW10927   5.265   5.044   6.878
 3343SOL    HW110928   5.231   5.115   6.817
 3343SOL    HW210929   5.358   5.019   6.852
 3344SOL     OW10930   6.473   2.639   2.255
 3344SOL    HW110931   6.420   2.627   2.170
 3344SOL    HW210932   6.560   2.682   2.234
 3345SOL     OW10933   0.946   3.960   0.699
 3345SOL    HW110934   0.890   3.994   0.623
 3345SOL    HW210935   0.959   4.033   0.766
 3346SOL     OW10936   2.750   0.603   0.022
 3346SOL    HW110937   2.742   0.596   0.122
 3346SOL    HW210938   2.772   0.698   7.023
 3347SOL     OW10939   0.888   3.174   6.365
 3347SOL    HW110940   0.887   3.089   6.417
 3347SOL    HW210941   0.970   3.227   6.388
 3348SOL     OW10942   3.700   4.043   6.315
 3348SOL    HW110943   3.613   4.078   6.350
 3348SOL    HW210944   3.775   4.079   6.369
 3349SOL     OW10945   2.275   4.563   4.208
 3349SOL    HW110946   2.358   4.530   4.253
 3349SOL    HW210947   2.221   4.484   4.177
 3350SOL     OW10948   0.403   4.081   5.457
 3350SOL    HW110949   0.459   4.140   5.399
 3350SOL    HW210950   0.450   4.066   5.544
 3351SOL     OW10951   5.532   0.442   1.088
 3351SOL    HW110952   5.524   0.532   1.045
 3351SOL    HW210953   5.586   0.381   1.029
 3352SOL     OW10954   5.442   2.304   0.725
 3352SOL    HW110955   5.460   2.393   0.682
 3352SOL    HW210956   5.350   2.303   0.764
 3353SOL     OW10957   1.769   0.758   1.195
 3353SOL    HW110958   1.807   0.677   1.150
 3353SOL    HW210959   1.715   0.810   1.129
 3354SOL     OW10960   4.114   3.505   6.056
 3354SOL    HW110961   4.043   3.572   6.038
 3354SOL    HW210962   4.074   3.414   6.063
 3355SOL     OW10963   2.442   1.142   5.029
 3355SOL    HW110964   2.427   1.222   4.971
 3355SOL    HW210965   2.536   1.110   5.020
 3356SOL     OW10966   1.117   6.464   5.962
 3356SOL    HW110967   1.097   6.561   5.980
 3356SOL    HW210968   1.091   6.442   5.868
 3357SOL     OW10969   2.917   3.428   2.150
 3357SOL    HW110970   2.843   3.429   2.082
 3357SOL    HW210971   2.956   3.336   2.156
 3358SOL     OW10972   5.378   1.287   3.179
 3358SOL    HW110973   5.278   1.294   3.182
 3358SOL    HW210974   5.406   1.249   3.091
 3359SOL     OW10975   6.837   5.175   3.997
 3359SOL    HW110976   6.847   5.244   3.925
 3359SOL    HW210977   6.769   5.108   3.969
 3360SOL     OW10978   0.606   2.772   5.787
 3360SOL    HW110979   0.669   2.836   5.829
 3360SOL    HW210980   0.611   2.684   5.834
 3361SOL     OW10981   0.745   0.363   4.192
 3361SOL    HW110982   0.831   0.329   4.230
 3361SOL    HW210983   0.732   0.325   4.101
 3362SOL     OW10984   4.095   2.039   4.251
 3362SOL    HW110985   4.020   2.010   4.311
 3362SOL    HW210986   4.178   1.989   4.275
 3363SOL     OW10987   6.750   3.012   1.410
 3363SOL    HW110988   6.822   3.010   1.480
 3363SOL    HW210989   6.738   2.921   1.371
 3364SOL     OW10990   1.866   4.192   3.036
 3364SOL    HW110991   1.800   4.239   3.096
 3364SOL    HW210992   1.925   4.260   2.993
 3365SOL     OW10993   2.180   3.226   4.814
 3365SOL    HW110994   2.103   3.164   4.821
 3365SOL    HW210995   2.263   3.181   4.846
 3366SOL     OW10996   0.031   3.328   4.517
 3366SOL    HW110997   0.104   3.387   4.482
 3366SOL    HW210998   0.049   3.233   4.491
 3367SOL     OW10999   3.727   3.660   4.511
 3367SOL    HW111000   3.654   3.705   4.562
 3367SOL    HW211001   3.807   3.720   4.505
 3368SOL     OW11002   1.651   6.287   6.723
 3368SOL    HW111003   1.715   6.232   6.777
 3368SOL    HW211004   1.611   6.230   6.651
 3369SOL     OW11005   4.382   1.512   1.596
 3369SOL    HW111006   4.318   1.466   1.657
 3369SOL    HW211007   4.439   1.575   1.649
 3370SOL     OW11008   6.655   5.775   1.603
 3370SOL    HW111009   6.738   5.796   1.654
 3370SOL    HW211010   6.674   5.778   1.505
 3371SOL     OW11011   2.113   3.544   2.409
 3371SOL    HW111012   2.167   3.506   2.334
 3371SOL    HW211013   2.043   3.605   2.371
 3372SOL     OW11014   0.099   2.858   1.447
 3372SOL    HW111015   0.177   2.878   1.506
 3372SOL    HW211016   0.019   2.909   1.479
 3373SOL     OW11017   0.014   1.271   1.896
 3373SOL    HW111018   0.051   1.184   1.862
 3373SOL    HW211019   0.086   1.340   1.898
 3374SOL     OW11020   0.708   6.531   3.624
 3374SOL    HW111021   0.731   6.476   3.704
 3374SOL    HW211022   0.651   6.609   3.652
 3375SOL     OW11023   6.678   5.020   6.704
 3375SOL    HW111024   6.681   4.957   6.626
 3375SOL    HW211025   6.765   5.015   6.754
 3376SOL     OW11026   2.441   3.381   5.535
 3376SOL    HW111027   2.485   3.459   5.491
 3376SOL    HW211028   2.409   3.317   5.466
 3377SOL     OW11029   6.130   5.374   3.967
 3377SOL    HW111030   6.105   5.330   3.881
 3377SOL    HW211031   6.228   5.360   3.984
 3378SOL     OW11032   1.080   6.514   6.672
 3378SOL    HW111033   1.127   6.464   6.745
 3378SOL    HW211034   1.023   6.450   6.620
 3379SOL     OW11035   0.904   3.416   4.389
 3379SOL    HW111036   0.904   3.452   4.296
 3379SOL    HW211037   0.996   3.421   4.428
 3380SOL     OW11038   3.778   4.507   5.869
 3380SOL    HW111039   3.803   4.414   5.841
 3380SOL    HW211040   3.762   4.508   5.968
 3381SOL     OW11041   1.157   3.109   1.466
 3381SOL    HW111042   1.075   3.156   1.499
 3381SOL    HW211043   1.136   3.059   1.382
 3382SOL     OW11044   0.005   2.290   1.034
 3382SOL    HW111045   6.993   2.197   1.033
 3382SOL    HW211046   0.015   2.321   1.129
 3383SOL     OW11047   3.599   4.818   0.269
 3383SOL    HW111048   3.627   4.911   0.246
 3383SOL    HW211049   3.575   4.814   0.366
 3384SOL     OW11050   2.797   4.394   0.341
 3384SOL    HW111051   2.722   4.395   0.407
 3384SOL    HW211052   2.761   4.414   0.250
 3385SOL     OW11053   6.744   1.991   3.663
 3385SOL    HW111054   6.781   2.028   3.749
 3385SOL    HW211055   6.807   2.011   3.588
 3386SOL     OW11056   6.496   4.765   6.856
 3386SOL    HW111057   6.583   4.747   6.810
 3386SOL    HW211058   6.469   4.685   6.909
 3387SOL     OW11059   5.653   0.844   3.195
 3387SOL    HW111060   5.699   0.803   3.116
 3387SOL    HW211061   5.564   0.801   3.207
 3388SOL     OW11062   5.081   4.068   1.439
 3388SOL    HW111063   5.138   3.994   1.473
 3388SOL    HW211064   5.129   4.116   1.366
 3389SOL     OW11065   5.856   6.523   0.300
 3389SOL    HW111066   5.821   6.508   0.393
 3389SOL    HW211067   5.946   6.480   0.291
 3390SOL     OW11068   4.054   6.779   5.929
 3390SOL    HW111069   4.030   6.689   5.892
 3390SOL    HW211070   3.980   6.812   5.986
 3391SOL     OW11071   5.761   2.975   3.715
 3391SOL    HW111072   5.713   2.981   3.627
 3391SOL    HW211073   5.759   2.881   3.748
 3392SOL     OW11074   4.229   0.069   4.767
 3392SOL    HW111075   4.304   0.127   4.798
 3392SOL    HW211076   4.254   6.999   4.778
 3393SOL     OW11077   4.954   6.976   0.754
 3393SOL    HW111078   5.003   6.894   0.725
 3393SOL    HW211079   4.890   7.004   0.681
 3394SOL     OW11080   3.532   5.187   1.128
 3394SOL    HW111081   3.584   5.272   1.124
 3394SOL    HW211082   3.453   5.199   1.189
 3395SOL     OW11083   3.882   0.755   2.950
 3395SOL    HW111084   3.955   0.817   2.922
 3395SOL    HW211085   3.920   0.675   2.996
 3396SOL     OW11086   5.583   0.919   3.872
 3396SOL    HW111087   5.626   1.009   3.864
 3396SOL    HW211088   5.495   0.920   3.825
 3397SOL     OW11089   2.446   5.763   6.279
 3397SOL    HW111090   2.379   5.714   6.223
 3397SOL    HW211091   2.479   5.702   6.351
 3398SOL     OW11092   0.386   1.777   5.588
 3398SOL    HW111093   0.390   1.734   5.678
 3398SOL    HW211094   0.296   1.760   5.547
 3399SOL     OW11095   0.531   4.999   3.127
 3399SOL    HW111096   0.480   4.966   3.205
 3399SOL    HW211097   0.622   5.029   3.156
 3400SOL     OW11098   5.544   3.149   5.739
 3400SOL    HW111099   5.448   3.171   5.757
 3400SOL    HW211100   5.602   3.196   5.805
 3401SOL     OW11101   6.486   3.802   6.527
 3401SOL    HW111102   6.389   3.824   6.522
 3401SOL    HW211103   6.505   3.720   6.474
 3402SOL     OW11104   6.540   5.129   0.971
 3402SOL    HW111105   6.619   5.191   0.963
 3402SOL    HW211106   6.483   5.137   0.889
 3403SOL     OW11107   4.492   6.625   5.939
 3403SOL    HW111108   4.514   6.569   5.859
 3403SOL    HW211109   4.522   6.719   5.923
 3404SOL     OW11110   5.100   3.262   5.849
 3404SOL    HW111111   5.001   3.249   5.857
 3404SOL    HW211112   5.119   3.357   5.822
 3405SOL     OW11113   4.997   6.260   5.721
 3405SOL    HW111114   4.929   6.323   5.758
 3405SOL    HW211115   5.039   6.300   5.640
 3406SOL     OW11116   2.118   4.001   2.260
 3406SOL    HW111117   2.187   4.032   2.194
 3406SOL    HW211118   2.055   3.939   2.214
 3407SOL     OW11119   2.216   4.121   0.914
 3407SOL    HW111120   2.269   4.062   0.975
 3407SOL    HW211121   2.197   4.073   0.829
 3408SOL     OW11122   4.547   2.564   3.816
 3408SOL    HW111123   4.455   2.584   3.849
 3408SOL    HW211124   4.599   2.517   3.888
 3409SOL     OW11125   4.013   0.071   0.435
 3409SOL    HW111126   4.017   7.004   0.469
 3409SOL    HW211127   4.095   0.121   0.463
 3410SOL     OW11128   5.967   6.496   2.650
 3410SOL    HW111129   6.017   6.436   2.588
 3410SOL    HW211130   5.875   6.461   2.663
 3411SOL     OW11131   6.640   1.739   1.125
 3411SOL    HW111132   6.573   1.696   1.185
 3411SOL    HW211133   6.617   1.720   1.029
 3412SOL     OW11134   5.422   3.684   1.669
 3412SOL    HW111135   5.421   3.602   1.611
 3412SOL    HW211136   5.333   3.695   1.714
 3413SOL     OW11137   6.507   1.758   6.539
 3413SOL    HW111138   6.449   1.677   6.526
 3413SOL    HW211139   6.455   1.840   6.518
 3414SOL     OW11140   4.076   2.754   0.218
 3414SOL    HW111141   4.020   2.736   0.137
 3414SOL    HW211142   4.170   2.775   0.189
 3415SOL     OW11143   2.635   2.463   4.371
 3415SOL    HW111144   2.602   2.532   4.307
 3415SOL    HW211145   2.693   2.398   4.323
 3416SOL     OW11146   6.358   0.326   0.072
 3416SOL    HW111147   6.342   0.265   0.150
 3416SOL    HW211148   6.290   0.399   0.073
 3417SOL     OW11149   0.268   0.357   3.390
 3417SOL    HW111150   0.193   0.353   3.324
 3417SOL    HW211151   0.335   0.425   3.359
 3418SOL     OW11152   4.306   5.308   2.614
 3418SOL    HW111153   4.328   5.213   2.592
 3418SOL    HW211154   4.259   5.350   2.537
 3419SOL     OW11155   3.656   5.771   6.033
 3419SOL    HW111156   3.694   5.679   6.027
 3419SOL    HW211157   3.564   5.773   5.993
 3420SOL     OW11158   4.699   2.804   3.883
 3420SOL    HW111159   4.645   2.720   3.880
 3420SOL    HW211160   4.786   2.789   3.835
 3421SOL     OW11161   5.540   1.786   3.520
 3421SOL    HW111162   5.615   1.850   3.503
 3421SOL    HW211163   5.452   1.833   3.510
 3422SOL     OW11164   2.344   6.971   0.503
 3422SOL    HW111165   2.282   6.994   0.577
 3422SOL    HW211166   2.410   6.903   0.534
 3423SOL     OW11167   1.064   4.532   5.322
 3423SOL    HW111168   0.965   4.546   5.317
 3423SOL    HW211169   1.106   4.568   5.238
 3424SOL     OW11170   4.291   6.763   1.242
 3424SOL    HW111171   4.235   6.846   1.235
 3424SOL    HW211172   4.378   6.777   1.194
 3425SOL     OW11173   5.375   3.998   1.501
 3425SOL    HW111174   5.367   3.940   1.582
 3425SOL    HW211175   5.378   4.094   1.528
 3426SOL     OW11176   5.525   3.454   0.820
 3426SOL    HW111177   5.591   3.383   0.795
 3426SOL    HW211178   5.566   3.544   0.805
 3427SOL     OW11179   1.530   2.364   0.950
 3427SOL    HW111180   1.519   2.419   1.033
 3427SOL    HW211181   1.627   2.360   0.926
 3428SOL     OW11182   4.795   5.474   5.828
 3428SOL    HW111183   4.818   5.387   5.872
 3428SOL    HW211184   4.837   5.549   5.878
 3429SOL     OW11185   0.172   1.045   0.978
 3429SOL    HW111186   0.160   0.955   0.937
 3429SOL    HW211187   0.269   1.066   0.983
 3430SOL     OW11188   2.289   4.847   5.484
 3430SOL    HW111189   2.203   4.800   5.505
 3430SOL    HW211190   2.363   4.780   5.476
 3431SOL     OW11191   2.210   6.182   2.494
 3431SOL    HW111192   2.275   6.117   2.457
 3431SOL    HW211193   2.231   6.200   2.590
 3432SOL     OW11194   2.143   4.994   6.841
 3432SOL    HW111195   2.164   4.984   6.744
 3432SOL    HW211196   2.135   4.903   6.883
 3433SOL     OW11197   2.550   0.828   6.343
 3433SOL    HW111198   2.623   0.884   6.302
 3433SOL    HW211199   2.590   0.758   6.402
 3434SOL     OW11200   2.946   2.001   1.812
 3434SOL    HW111201   3.000   1.995   1.896
 3434SOL    HW211202   2.984   2.071   1.752
 3435SOL     OW11203   2.132   0.719   0.163
 3435SOL    HW111204   2.066   0.761   0.100
 3435SOL    HW211205   2.224   0.725   0.125
 3436SOL     OW11206   4.204   5.165   0.562
 3436SOL    HW111207   4.226   5.092   0.498
 3436SOL    HW211208   4.104   5.170   0.573
 3437SOL     OW11209   1.473   6.331   5.728
 3437SOL    HW111210   1.548   6.279   5.688
 3437SOL    HW211211   1.455   6.297   5.821
 3438SOL     OW11212   1.065   3.661   0.939
 3438SOL    HW111213   0.974   3.685   0.906
 3438SOL    HW211214   1.126   3.739   0.925
 3439SOL     OW11215   2.386   5.961   2.531
 3439SOL    HW111216   2.482   5.965   2.559
 3439SOL    HW211217   2.328   5.988   2.608
 3440SOL     OW11218   3.817   2.882   4.925
 3440SOL    HW111219   3.845   2.886   5.020
 3440SOL    HW211220   3.821   2.788   4.892
 3441SOL     OW11221   5.712   5.639   6.010
 3441SOL    HW111222   5.740   5.735   6.006
 3441SOL    HW211223   5.730   5.603   6.102
 3442SOL     OW11224   3.099   3.727   1.647
 3442SOL    HW111225   3.047   3.757   1.727
 3442SOL    HW211226   3.144   3.640   1.667
 3443SOL     OW11227   2.989   5.727   2.776
 3443SOL    HW111228   2.949   5.675   2.701
 3443SOL    HW211229   3.077   5.765   2.747
 3444SOL     OW11230   5.858   4.661   1.284
 3444SOL    HW111231   5.824   4.681   1.192
 3444SOL    HW211232   5.823   4.730   1.347
 3445SOL     OW11233   6.158   4.783   3.835
 3445SOL    HW111234   6.245   4.802   3.881
 3445SOL    HW211235   6.107   4.714   3.887
 3446SOL     OW11236   5.413   6.989   1.643
 3446SOL    HW111237   5.505   7.013   1.675
 3446SOL    HW211238   5.355   6.969   1.721
 3447SOL     OW11239   5.160   0.329   0.288
 3447SOL    HW111240   5.158   0.229   0.291
 3447SOL    HW211241   5.095   0.362   0.220
 3448SOL     OW11242   1.248   6.540   5.425
 3448SOL    HW111243   1.254   6.464   5.361
 3448SOL    HW211244   1.236   6.626   5.374
 3449SOL     OW11245   5.987   5.150   5.135
 3449SOL    HW111246   6.017   5.179   5.045
 3449SOL    HW211247   5.993   5.050   5.142
 3450SOL     OW11248   1.287   0.245   6.676
 3450SOL    HW111249   1.237   0.205   6.599
 3450SOL    HW211250   1.262   0.341   6.685
 3451SOL     OW11251   1.659   5.980   0.637
 3451SOL    HW111252   1.703   6.019   0.717
 3451SOL    HW211253   1.561   5.971   0.654
 3452SOL     OW11254   5.580   0.988   5.025
 3452SOL    HW111255   5.504   1.043   4.990
 3452SOL    HW211256   5.573   0.981   5.124
 3453SOL     OW11257   5.368   6.411   5.735
 3453SOL    HW111258   5.292   6.419   5.800
 3453SOL    HW211259   5.375   6.495   5.681
 3454SOL     OW11260   1.638   2.758   3.077
 3454SOL    HW111261   1.711   2.742   3.010
 3454SOL    HW211262   1.678   2.784   3.165
 3455SOL     OW11263   1.848   2.853   5.143
 3455SOL    HW111264   1.935   2.874   5.189
 3455SOL    HW211265   1.824   2.927   5.081
 3456SOL     OW11266   4.536   4.479   2.231
 3456SOL    HW111267   4.580   4.544   2.169
 3456SOL    HW211268   4.463   4.431   2.181
 3457SOL     OW11269   3.494   5.309   4.954
 3457SOL    HW111270   3.554   5.257   4.893
 3457SOL    HW211271   3.405   5.264   4.959
 3458SOL     OW11272   4.818   1.819   2.357
 3458SOL    HW111273   4.822   1.918   2.345
 3458SOL    HW211274   4.792   1.775   2.271
 3459SOL     OW11275   4.005   1.390   2.564
 3459SOL    HW111276   4.050   1.415   2.650
 3459SOL    HW211277   4.050   1.437   2.488
 3460SOL     OW11278   3.862   1.706   5.581
 3460SOL    HW111279   3.843   1.713   5.483
 3460SOL    HW211280   3.793   1.757   5.632
 3461SOL     OW11281   5.635   4.976   0.020
 3461SOL    HW111282   5.702   5.025   6.991
 3461SOL    HW211283   5.621   4.884   7.009
 3462SOL     OW11284   2.354   3.128   6.782
 3462SOL    HW111285   2.278   3.159   6.724
 3462SOL    HW211286   2.405   3.208   6.815
 3463SOL     OW11287   0.133   3.866   1.253
 3463SOL    HW111288   0.201   3.852   1.182
 3463SOL    HW211289   0.045   3.889   1.211
 3464SOL     OW11290   0.433   4.349   6.324
 3464SOL    HW111291   0.506   4.338   6.391
 3464SOL    HW211292   0.352   4.385   6.370
 3465SOL     OW11293   1.839   1.084   1.474
 3465SOL    HW111294   1.896   1.165   1.459
 3465SOL    HW211295   1.747   1.101   1.439
 3466SOL     OW11296   0.071   4.482   5.818
 3466SOL    HW111297   0.109   4.433   5.897
 3466SOL    HW211298   7.023   4.542   5.850
 3467SOL     OW11299   2.521   2.395   6.526
 3467SOL    HW111300   2.483   2.400   6.434
 3467SOL    HW211301   2.450   2.415   6.593
 3468SOL     OW11302   2.912   6.028   3.648
 3468SOL    HW111303   2.940   5.970   3.571
 3468SOL    HW211304   2.822   6.066   3.630
 3469SOL     OW11305   6.713   2.331   3.782
 3469SOL    HW111306   6.797   2.385   3.794
 3469SOL    HW211307   6.707   2.300   3.687
 3470SOL     OW11308   0.396   5.514   1.293
 3470SOL    HW111309   0.306   5.472   1.308
 3470SOL    HW211310   0.435   5.539   1.381
 3471SOL     OW11311   4.095   5.982   5.025
 3471SOL    HW111312   4.050   6.010   5.110
 3471SOL    HW211313   4.039   5.913   4.979
 3472SOL     OW11314   2.310   0.677   4.416
 3472SOL    HW111315   2.401   0.683   4.374
 3472SOL    HW211316   2.317   0.692   4.514
 3473SOL     OW11317   5.993   1.618   5.674
 3473SOL    HW111318   6.028   1.533   5.634
 3473SOL    HW211319   5.897   1.606   5.699
 3474SOL     OW11320   3.513   4.981   2.066
 3474SOL    HW111321   3.417   4.974   2.039
 3474SOL    HW211322   3.563   4.901   2.034
 3475SOL     OW11323   1.127   6.569   4.088
 3475SOL    HW111324   1.198   6.599   4.024
 3475SOL    HW211325   1.144   6.474   4.115
 3476SOL     OW11326   4.679   1.340   4.488
 3476SOL    HW111327   4.737   1.402   4.540
 3476SOL    HW211328   4.698   1.246   4.515
 3477SOL     OW11329   4.240   5.950   1.080
 3477SOL    HW111330   4.248   5.850   1.072
 3477SOL    HW211331   4.177   5.984   1.010
 3478SOL     OW11332   3.201   5.928   6.169
 3478SOL    HW111333   3.238   5.901   6.258
 3478SOL    HW211334   3.159   6.019   6.177
 3479SOL     OW11335   0.522   0.918   2.023
 3479SOL    HW111336   0.458   0.989   2.053
 3479SOL    HW211337   0.475   0.830   2.019
 3480SOL     OW11338   0.085   1.220   3.723
 3480SOL    HW111339   7.016   1.231   3.752
 3480SOL    HW211340   0.103   1.124   3.701
 3481SOL     OW11341   3.169   6.721   6.484
 3481SOL    HW111342   3.080   6.703   6.443
 3481SOL    HW211343   3.208   6.804   6.445
 3482SOL     OW11344   6.393   2.058   1.471
 3482SOL    HW111345   6.345   1.975   1.501
 3482SOL    HW211346   6.439   2.041   1.384
 3483SOL     OW11347   2.092   0.814   1.756
 3483SOL    HW111348   2.160   0.883   1.728
 3483SOL    HW211349   2.001   0.843   1.726
 3484SOL     OW11350   3.444   2.905   3.289
 3484SOL    HW111351   3.407   2.884   3.379
 3484SOL    HW211352   3.375   2.882   3.219
 3485SOL     OW11353   1.814   2.353   5.212
 3485SOL    HW111354   1.811   2.438   5.160
 3485SOL    HW211355   1.763   2.364   5.298
 3486SOL     OW11356   4.479   1.226   1.656
 3486SOL    HW111357   4.495   1.311   1.705
 3486SOL    HW211358   4.390   1.229   1.611
 3487SOL     OW11359   6.113   2.012   6.040
 3487SOL    HW111360   6.094   1.921   6.001
 3487SOL    HW211361   6.041   2.037   6.104
 3488SOL     OW11362   6.391   3.698   4.113
 3488SOL    HW111363   6.469   3.636   4.103
 3488SOL    HW211364   6.352   3.689   4.204
 3489SOL     OW11365   3.762   6.624   1.320
 3489SOL    HW111366   3.807   6.666   1.399
 3489SOL    HW211367   3.678   6.577   1.350
 3490SOL     OW11368   5.550   3.768   0.197
 3490SOL    HW111369   5.503   3.755   0.109
 3490SOL    HW211370   5.483   3.759   0.271
 3491SOL     OW11371   0.066   3.011   5.751
 3491SOL    HW111372   0.120   3.085   5.709
 3491SOL    HW211373   0.128   2.939   5.783
 3492SOL     OW11374   0.475   5.602   6.822
 3492SOL    HW111375   0.451   5.508   6.847
 3492SOL    HW211376   0.464   5.661   6.902
 3493SOL     OW11377   5.801   5.241   1.505
 3493SOL    HW111378   5.864   5.163   1.502
 3493SOL    HW211379   5.779   5.270   1.412
 3494SOL     OW11380   3.549   0.391   1.810
 3494SOL    HW111381   3.563   0.368   1.906
 3494SOL    HW211382   3.565   0.489   1.795
 3495SOL     OW11383   4.167   5.467   2.101
 3495SOL    HW111384   4.088   5.428   2.053
 3495SOL    HW211385   4.251   5.445   2.051
 3496SOL     OW11386   1.798   3.101   0.718
 3496SOL    HW111387   1.887   3.071   0.684
 3496SOL    HW211388   1.729   3.032   0.697
 3497SOL     OW11389   4.177   1.472   3.064
 3497SOL    HW111390   4.106   1.414   3.023
 3497SOL    HW211391   4.199   1.438   3.156
 3498SOL     OW11392   2.643   1.085   0.961
 3498SOL    HW111393   2.710   1.065   0.889
 3498SOL    HW211394   2.571   1.015   0.960
 3499SOL     OW11395   0.270   3.092   3.939
 3499SOL    HW111396   0.368   3.103   3.924
 3499SOL    HW211397   0.234   3.023   3.877
 3500SOL     OW11398   6.021   3.937   6.326
 3500SOL    HW111399   6.035   3.847   6.366
 3500SOL    HW211400   6.047   3.935   6.229
 3501SOL     OW11401   1.785   4.679   5.204
 3501SOL    HW111402   1.778   4.600   5.264
 3501SOL    HW211403   1.829   4.652   5.118
 3502SOL     OW11404   0.193   1.690   1.536
 3502SOL    HW111405   0.237   1.741   1.463
 3502SOL    HW211406   0.174   1.752   1.613
 3503SOL     OW11407   4.562   5.515   5.427
 3503SOL    HW111408   4.585   5.607   5.461
 3503SOL    HW211409   4.614   5.497   5.343
 3504SOL     OW11410   2.551   3.458   1.394
 3504SOL    HW111411   2.620   3.386   1.394
 3504SOL    HW211412   2.596   3.547   1.389
 3505SOL     OW11413   5.573   6.064   5.166
 3505SOL    HW111414   5.533   6.007   5.238
 3505SOL    HW211415   5.658   6.021   5.134
 3506SOL     OW11416   3.999   5.384   4.125
 3506SOL    HW111417   3.905   5.412   4.106
 3506SOL    HW211418   3.999   5.291   4.162
 3507SOL     OW11419   1.185   0.807   6.568
 3507SOL    HW111420   1.102   0.754   6.551
 3507SOL    HW211421   1.220   0.842   6.481
 3508SOL     OW11422   5.310   2.699   0.440
 3508SOL    HW111423   5.313   2.781   0.496
 3508SOL    HW211424   5.238   2.638   0.473
 3509SOL     OW11425   5.923   6.135   6.845
 3509SOL    HW111426   5.959   6.205   6.784
 3509SOL    HW211427   5.923   6.170   6.939
 3510SOL     OW11428   2.049   2.452   1.367
 3510SOL    HW111429   1.976   2.401   1.321
 3510SOL    HW211430   2.126   2.463   1.305
 3511SOL     OW11431   0.127   2.640   6.578
 3511SOL    HW111432   0.123   2.672   6.673
 3511SOL    HW211433   0.192   2.695   6.527
 3512SOL     OW11434   1.854   3.614   0.363
 3512SOL    HW111435   1.929   3.628   0.298
 3512SOL    HW211436   1.780   3.563   0.318
 3513SOL     OW11437   6.531   4.282   1.054
 3513SOL    HW111438   6.584   4.357   1.014
 3513SOL    HW211439   6.562   4.265   1.147
 3514SOL     OW11440   0.548   6.458   1.508
 3514SOL    HW111441   0.499   6.499   1.585
 3514SOL    HW211442   0.483   6.441   1.433
 3515SOL     OW11443   2.603   6.189   3.047
 3515SOL    HW111444   2.693   6.159   3.015
 3515SOL    HW211445   2.537   6.115   3.036
 3516SOL     OW11446   3.586   1.005   0.418
 3516SOL    HW111447   3.502   1.028   0.369
 3516SOL    HW211448   3.659   1.066   0.389
 3517SOL     OW11449   0.780   1.441   6.943
 3517SOL    HW111450   0.758   1.383   7.022
 3517SOL    HW211451   0.880   1.450   6.936
 3518SOL     OW11452   4.435   3.420   6.801
 3518SOL    HW111453   4.433   3.443   6.898
 3518SOL    HW211454   4.397   3.495   6.748
 3519SOL     OW11455   1.315   6.627   6.571
 3519SOL    HW111456   1.217   6.632   6.592
 3519SOL    HW211457   1.362   6.703   6.617
 3520SOL     OW11458   4.025   4.662   1.200
 3520SOL    HW111459   4.050   4.590   1.265
 3520SOL    HW211460   3.940   4.637   1.154
 3521SOL     OW11461   5.702   2.906   1.943
 3521SOL    HW111462   5.673   2.835   1.880
 3521SOL    HW211463   5.679   2.879   2.037
 3522SOL     OW11464   3.175   5.080   1.902
 3522SOL    HW111465   3.161   5.152   1.971
 3522SOL    HW211466   3.128   4.997   1.931
 3523SOL     OW11467   2.954   4.852   4.825
 3523SOL    HW111468   2.880   4.903   4.782
 3523SOL    HW211469   2.928   4.756   4.835
 3524SOL     OW11470   2.454   0.375   0.949
 3524SOL    HW111471   2.434   0.285   0.911
 3524SOL    HW211472   2.479   0.437   0.875
 3525SOL     OW11473   0.828   3.079   2.117
 3525SOL    HW111474   0.883   3.106   2.196
 3525SOL    HW211475   0.791   2.987   2.132
 3526SOL     OW11476   0.763   0.765   3.138
 3526SOL    HW111477   0.768   0.832   3.212
 3526SOL    HW211478   0.822   0.793   3.063
 3527SOL     OW11479   5.416   2.794   6.314
 3527SOL    HW111480   5.473   2.826   6.238
 3527SOL    HW211481   5.320   2.794   6.285
 3528SOL     OW11482   0.593   6.114   3.355
 3528SOL    HW111483   0.571   6.166   3.438
 3528SOL    HW211484   0.513   6.063   3.326
 3529SOL     OW11485   4.798   6.891   5.398
 3529SOL    HW111486   4.867   6.920   5.331
 3529SOL    HW211487   4.827   6.805   5.440
 3530SOL     OW11488   2.959   5.437   2.336
 3530SOL    HW111489   2.944   5.340   2.359
 3530SOL    HW211490   2.923   5.455   2.245
 3531SOL     OW11491   5.942   5.004   0.997
 3531SOL    HW111492   5.968   4.922   0.945
 3531SOL    HW211493   5.980   5.085   0.952
 3532SOL     OW11494   2.640   0.558   6.804
 3532SOL    HW111495   2.634   0.472   6.754
 3532SOL    HW211496   2.673   0.541   6.897
 3533SOL     OW11497   1.189   1.982   3.710
 3533SOL    HW111498   1.117   1.995   3.779
 3533SOL    HW211499   1.167   2.037   3.629
 3534SOL     OW11500   5.661   1.961   5.173
 3534SOL    HW111501   5.631   1.986   5.081
 3534SOL    HW211502   5.582   1.926   5.225
 3535SOL     OW11503   6.034   5.319   6.024
 3535SOL    HW111504   5.941   5.345   5.997
 3535SOL    HW211505   6.047   5.336   6.121
 3536SOL     OW11506   2.123   3.280   3.105
 3536SOL    HW111507   2.085   3.370   3.084
 3536SOL    HW211508   2.126   3.225   3.021
 3537SOL     OW11509   2.384   5.567   0.679
 3537SOL    HW111510   2.468   5.525   0.645
 3537SOL    HW211511   2.380   5.558   0.778
 3538SOL     OW11512   2.926   0.007   2.552
 3538SOL    HW111513   2.996   0.026   2.621
 3538SOL    HW211514   2.961   6.966   2.487
 3539SOL     OW11515   5.426   4.972   6.435
 3539SOL    HW111516   5.463   4.923   6.356
 3539SOL    HW211517   5.326   4.969   6.432
 3540SOL     OW11518   2.600   3.242   6.534
 3540SOL    HW111519   2.583   3.249   6.632
 3540SOL    HW211520   2.677   3.301   6.509
 3541SOL     OW11521   2.636   2.603   1.186
 3541SOL    HW111522   2.587   2.615   1.099
 3541SOL    HW211523   2.584   2.541   1.245
 3542SOL     OW11524   5.230   2.481   7.016
 3542SOL    HW111525   5.214   2.530   0.076
 3542SOL    HW211526   5.325   2.493   6.988
 3543SOL     OW11527   2.249   2.930   2.990
 3543SOL    HW111528   2.273   2.867   2.916
 3543SOL    HW211529   2.239   3.022   2.954
 3544SOL     OW11530   3.005   4.606   6.375
 3544SOL    HW111531   3.046   4.539   6.437
 3544SOL    HW211532   3.078   4.657   6.328
 3545SOL     OW11533   3.873   6.522   1.112
 3545SOL    HW111534   3.972   6.532   1.101
 3545SOL    HW211535   3.841   6.582   1.186
 3546SOL     OW11536   6.692   3.721   3.316
 3546SOL    HW111537   6.614   3.673   3.357
 3546SOL    HW211538   6.695   3.701   3.218
 3547SOL     OW11539   0.167   3.536   5.101
 3547SOL    HW111540   0.184   3.449   5.145
 3547SOL    HW211541   0.245   3.597   5.115
 3548SOL     OW11542   5.224   1.652   5.933
 3548SOL    HW111543   5.225   1.655   5.833
 3548SOL    HW211544   5.136   1.683   5.967
 3549SOL     OW11545   2.982   5.719   0.102
 3549SOL    HW111546   3.027   5.638   0.063
 3549SOL    HW211547   2.930   5.766   0.031
 3550SOL     OW11548   5.150   1.984   5.462
 3550SOL    HW111549   5.142   1.958   5.558
 3550SOL    HW211550   5.061   1.973   5.417
 3551SOL     OW11551   3.827   2.093   5.617
 3551SOL    HW111552   3.751   2.146   5.578
 3551SOL    HW211553   3.795   2.042   5.696
 3552SOL     OW11554   6.732   5.828   1.963
 3552SOL    HW111555   6.698   5.889   1.892
 3552SOL    HW211556   6.783   5.752   1.921
 3553SOL     OW11557   4.016   5.644   6.097
 3553SOL    HW111558   4.086   5.585   6.138
 3553SOL    HW211559   3.962   5.686   6.170
 3554SOL     OW11560   4.231   3.517   1.655
 3554SOL    HW111561   4.288   3.574   1.714
 3554SOL    HW211562   4.193   3.442   1.708
 3555SOL     OW11563   1.756   2.405   3.808
 3555SOL    HW111564   1.838   2.383   3.755
 3555SOL    HW211565   1.768   2.375   3.903
 3556SOL     OW11566   4.279   0.650   4.992
 3556SOL    HW111567   4.261   0.665   4.895
 3556SOL    HW211568   4.273   0.738   5.040
 3557SOL     OW11569   0.225   1.200   2.315
 3557SOL    HW111570   0.280   1.144   2.377
 3557SOL    HW211571   0.145   1.148   2.285
 3558SOL     OW11572   3.309   6.629   0.686
 3558SOL    HW111573   3.232   6.587   0.637
 3558SOL    HW211574   3.353   6.697   0.626
 3559SOL     OW11575   3.740   6.577   4.840
 3559SOL    HW111576   3.653   6.533   4.816
 3559SOL    HW211577   3.804   6.508   4.874
 3560SOL     OW11578   1.291   5.328   5.070
 3560SOL    HW111579   1.262   5.418   5.037
 3560SOL    HW211580   1.212   5.279   5.106
 3561SOL     OW11581   4.892   4.596   5.178
 3561SOL    HW111582   4.927   4.572   5.268
 3561SOL    HW211583   4.793   4.606   5.182
 3562SOL     OW11584   2.436   1.388   4.895
 3562SOL    HW111585   2.527   1.424   4.915
 3562SOL    HW211586   2.429   1.368   4.797
 3563SOL     OW11587   5.827   1.911   5.684
 3563SOL    HW111588   5.755   1.977   5.662
 3563SOL    HW211589   5.873   1.883   5.600
 3564SOL     OW11590   0.316   4.583   3.046
 3564SOL    HW111591   0.231   4.588   2.993
 3564SOL    HW211592   0.299   4.616   3.139
 3565SOL     OW11593   3.283   5.453   3.407
 3565SOL    HW111594   3.362   5.417   3.356
 3565SOL    HW211595   3.313   5.486   3.496
 3566SOL     OW11596   6.438   1.142   5.578
 3566SOL    HW111597   6.403   1.062   5.626
 3566SOL    HW211598   6.530   1.164   5.612
 3567SOL     OW11599   0.530   4.446   0.031
 3567SOL    HW111600   0.617   4.398   0.045
 3567SOL    HW211601   0.495   4.426   6.965
 3568SOL     OW11602   6.634   3.605   5.989
 3568SOL    HW111603   6.538   3.617   6.015
 3568SOL    HW211604   6.692   3.616   6.069
 3569SOL     OW11605   3.096   1.782   5.497
 3569SOL    HW111606   3.022   1.848   5.510
 3569SOL    HW211607   3.061   1.703   5.446
 3570SOL     OW11608   5.687   0.784   4.113
 3570SOL    HW111609   5.633   0.772   4.030
 3570SOL    HW211610   5.728   0.875   4.113
 3571SOL     OW11611   6.677   5.812   6.399
 3571SOL    HW111612   6.700   5.893   6.453
 3571SOL    HW211613   6.633   5.841   6.314
 3572SOL     OW11614   5.383   3.530   3.689
 3572SOL    HW111615   5.466   3.568   3.649
 3572SOL    HW211616   5.303   3.581   3.657
 3573SOL     OW11617   1.304   4.804   4.218
 3573SOL    HW111618   1.242   4.773   4.146
 3573SOL    HW211619   1.359   4.881   4.184
 3574SOL     OW11620   0.152   5.010   0.482
 3574SOL    HW111621   0.212   5.013   0.562
 3574SOL    HW211622   0.102   4.923   0.480
 3575SOL     OW11623   6.032   5.266   3.059
 3575SOL    HW111624   6.069   5.173   3.060
 3575SOL    HW211625   5.938   5.265   3.094
 3576SOL     OW11626   0.637   1.303   6.324
 3576SOL    HW111627   0.606   1.247   6.401
 3576SOL    HW211628   0.583   1.387   6.320
 3577SOL     OW11629   0.793   2.502   6.485
 3577SOL    HW111630   0.775   2.448   6.568
 3577SOL    HW211631   0.707   2.539   6.451
 3578SOL     OW11632   3.370   4.167   6.710
 3578SOL    HW111633   3.465   4.157   6.738
 3578SOL    HW211634   3.311   4.125   6.780
 3579SOL     OW11635   6.638   3.488   5.091
 3579SOL    HW111636   6.631   3.395   5.055
 3579SOL    HW211637   6.734   3.512   5.105
 3580SOL     OW11638   5.408   1.830   1.660
 3580SOL    HW111639   5.483   1.836   1.726
 3580SOL    HW211640   5.369   1.738   1.663
 3581SOL     OW11641   6.527   6.989   2.815
 3581SOL    HW111642   6.609   6.961   2.864
 3581SOL    HW211643   6.493   0.049   2.852
 3582SOL     OW11644   1.412   1.128   5.815
 3582SOL    HW111645   1.465   1.050   5.782
 3582SOL    HW211646   1.447   1.158   5.903
 3583SOL     OW11647   1.222   4.628   0.103
 3583SOL    HW111648   1.322   4.625   0.093
 3583SOL    HW211649   1.199   4.623   0.200
 3584SOL     OW11650   6.151   6.332   6.000
 3584SOL    HW111651   6.099   6.409   5.964
 3584SOL    HW211652   6.188   6.356   6.090
 3585SOL     OW11653   3.378   4.967   4.971
 3585SOL    HW111654   3.459   4.966   4.912
 3585SOL    HW211655   3.349   5.061   4.986
 3586SOL     OW11656   6.362   2.787   5.331
 3586SOL    HW111657   6.372   2.745   5.421
 3586SOL    HW211658   6.268   2.775   5.299
 3587SOL     OW11659   2.837   6.972   1.219
 3587SOL    HW111660   2.782   6.901   1.262
 3587SOL    HW211661   2.860   0.016   1.286
 3588SOL     OW11662   2.032   2.012   5.704
 3588SOL    HW111663   2.014   2.093   5.648
 3588SOL    HW211664   2.088   2.039   5.782
 3589SOL     OW11665   3.828   0.741   4.360
 3589SOL    HW111666   3.808   0.818   4.299
 3589SOL    HW211667   3.855   0.775   4.450
 3590SOL     OW11668   1.294   4.529   6.553
 3590SOL    HW111669   1.388   4.561   6.552
 3590SOL    HW211670   1.253   4.541   6.462
 3591SOL     OW11671   5.689   3.001   6.233
 3591SOL    HW111672   5.651   2.936   6.167
 3591SOL    HW211673   5.678   3.094   6.198
 3592SOL     OW11674   5.372   2.967   2.673
 3592SOL    HW111675   5.358   3.066   2.678
 3592SOL    HW211676   5.446   2.940   2.734
 3593SOL     OW11677   2.501   6.414   4.475
 3593SOL    HW111678   2.404   6.397   4.455
 3593SOL    HW211679   2.514   6.511   4.495
 3594SOL     OW11680   2.444   0.898   3.341
 3594SOL    HW111681   2.535   0.903   3.300
 3594SOL    HW211682   2.446   0.831   3.416
 3595SOL     OW11683   2.251   6.286   5.417
 3595SOL    HW111684   2.338   6.330   5.438
 3595SOL    HW211685   2.181   6.355   5.402
 3596SOL     OW11686   6.489   1.207   2.693
 3596SOL    HW111687   6.569   1.259   2.663
 3596SOL    HW211688   6.516   1.112   2.712
 3597SOL     OW11689   3.700   6.261   4.231
 3597SOL    HW111690   3.640   6.338   4.209
 3597SOL    HW211691   3.765   6.247   4.157
 3598SOL     OW11692   0.712   0.490   5.615
 3598SOL    HW111693   0.793   0.439   5.587
 3598SOL    HW211694   0.731   0.536   5.702
 3599SOL     OW11695   0.308   1.763   5.911
 3599SOL    HW111696   0.328   1.678   5.959
 3599SOL    HW211697   0.381   1.829   5.929
 3600SOL     OW11698   6.558   3.384   0.752
 3600SOL    HW111699   6.498   3.404   0.674
 3600SOL    HW211700   6.504   3.386   0.836
 3601SOL     OW11701   0.118   4.205   0.809
 3601SOL    HW111702   0.149   4.199   0.714
 3601SOL    HW211703   0.182   4.155   0.868
 3602SOL     OW11704   1.817   0.898   0.373
 3602SOL    HW111705   1.816   0.962   0.450
 3602SOL    HW211706   1.723   0.871   0.351
 3603SOL     OW11707   3.770   5.515   4.174
 3603SOL    HW111708   3.724   5.469   4.098
 3603SOL    HW211709   3.777   5.453   4.252
 3604SOL     OW11710   6.974   3.011   2.980
 3604SOL    HW111711   0.017   2.972   2.920
 3604SOL    HW211712   6.996   2.988   3.075
 3605SOL     OW11713   5.955   4.280   6.127
 3605SOL    HW111714   5.868   4.244   6.163
 3605SOL    HW211715   6.006   4.207   6.083
 3606SOL     OW11716   6.984   4.922   5.862
 3606SOL    HW111717   7.026   4.958   5.779
 3606SOL    HW211718   7.005   4.824   5.870
 3607SOL     OW11719   5.051   0.402   0.579
 3607SOL    HW111720   5.078   0.368   0.489
 3607SOL    HW211721   5.050   0.502   0.578
 3608SOL     OW11722   6.663   1.498   1.800
 3608SOL    HW111723   6.753   1.539   1.814
 3608SOL    HW211724   6.627   1.467   1.889
 3609SOL     OW11725   6.904   1.003   4.317
 3609SOL    HW111726   6.895   0.962   4.408
 3609SOL    HW211727   6.828   0.973   4.259
 3610SOL     OW11728   0.603   6.934   4.762
 3610SOL    HW111729   0.687   6.984   4.743
 3610SOL    HW211730   0.625   6.849   4.811
 3611SOL     OW11731   3.689   5.001   5.470
 3611SOL    HW111732   3.710   4.905   5.453
 3611SOL    HW211733   3.637   5.038   5.393
 3612SOL     OW11734   0.715   6.190   6.229
 3612SOL    HW111735   0.622   6.224   6.220
 3612SOL    HW211736   0.779   6.259   6.196
 3613SOL     OW11737   5.205   5.212   0.690
 3613SOL    HW111738   5.271   5.142   0.718
 3613SOL    HW211739   5.131   5.215   0.757
 3614SOL     OW11740   3.862   3.435   3.119
 3614SOL    HW111741   3.848   3.427   3.217
 3614SOL    HW211742   3.930   3.506   3.101
 3615SOL     OW11743   5.918   5.642   5.778
 3615SOL    HW111744   5.819   5.638   5.771
 3615SOL    HW211745   5.946   5.624   5.872
 3616SOL     OW11746   6.584   2.282   0.083
 3616SOL    HW111747   6.547   2.297   7.017
 3616SOL    HW211748   6.547   2.349   0.146
 3617SOL     OW11749   5.216   1.671   6.467
 3617SOL    HW111750   5.239   1.674   6.564
 3617SOL    HW211751   5.133   1.725   6.451
 3618SOL     OW11752   1.394   1.628   5.694
 3618SOL    HW111753   1.367   1.724   5.683
 3618SOL    HW211754   1.380   1.579   5.608
 3619SOL     OW11755   5.964   2.389   4.021
 3619SOL    HW111756   6.009   2.350   3.940
 3619SOL    HW211757   5.870   2.414   3.998
 3620SOL     OW11758   5.378   6.637   5.559
 3620SOL    HW111759   5.439   6.697   5.507
 3620SOL    HW211760   5.300   6.611   5.501
 3621SOL     OW11761   3.225   2.725   6.037
 3621SOL    HW111762   3.170   2.772   6.107
 3621SOL    HW211763   3.177   2.728   5.949
 3622SOL     OW11764   0.728   2.029   3.452
 3622SOL    HW111765   0.706   2.030   3.355
 3622SOL    HW211766   0.646   2.052   3.505
 3623SOL     OW11767   6.486   5.108   4.208
 3623SOL    HW111768   6.416   5.056   4.257
 3623SOL    HW211769   6.528   5.174   4.270
 3624SOL     OW11770   1.942   6.067   2.596
 3624SOL    HW111771   1.992   6.130   2.537
 3624SOL    HW211772   1.894   6.117   2.668
 3625SOL     OW11773   6.191   2.983   6.190
 3625SOL    HW111774   6.143   2.912   6.242
 3625SOL    HW211775   6.251   3.034   6.251
 3626SOL     OW11776   2.572   3.538   5.337
 3626SOL    HW111777   2.537   3.623   5.376
 3626SOL    HW211778   2.668   3.527   5.362
 3627SOL     OW11779   4.154   3.550   3.386
 3627SOL    HW111780   4.173   3.586   3.477
 3627SOL    HW211781   4.087   3.609   3.340
 3628SOL     OW11782   2.093   6.695   1.878
 3628SOL    HW111783   2.035   6.631   1.928
 3628SOL    HW211784   2.040   6.777   1.855
 3629SOL     OW11785   6.442   1.924   5.201
 3629SOL    HW111786   6.361   1.881   5.161
 3629SOL    HW211787   6.487   1.981   5.132
 3630SOL     OW11788   5.703   2.735   4.144
 3630SOL    HW111789   5.761   2.708   4.222
 3630SOL    HW211790   5.748   2.808   4.093
 3631SOL     OW11791   2.524   0.232   4.630
 3631SOL    HW111792   2.542   0.222   4.728
 3631SOL    HW211793   2.582   0.304   4.593
 3632SOL     OW11794   5.021   0.664   0.735
 3632SOL    HW111795   4.976   0.660   0.645
 3632SOL    HW211796   5.024   0.759   0.767
 3633SOL     OW11797   2.981   2.189   5.668
 3633SOL    HW111798   2.912   2.233   5.726
 3633SOL    HW211799   3.032   2.259   5.618
 3634SOL     OW11800   0.597   6.016   4.266
 3634SOL    HW111801   0.580   6.026   4.364
 3634SOL    HW211802   0.598   6.106   4.223
 3635SOL     OW11803   3.508   0.826   5.577
 3635SOL    HW111804   3.522   0.735   5.617
 3635SOL    HW211805   3.556   0.832   5.490
 3636SOL     OW11806   0.488   5.837   5.690
 3636SOL    HW111807   0.578   5.799   5.709
 3636SOL    HW211808   0.427   5.765   5.658
 3637SOL     OW11809   6.171   1.850   1.194
 3637SOL    HW111810   6.226   1.815   1.270
 3637SOL    HW211811   6.178   1.950   1.190
 3638SOL     OW11812   6.206   4.645   4.344
 3638SOL    HW111813   6.205   4.555   4.387
 3638SOL    HW211814   6.247   4.711   4.406
 3639SOL     OW11815   4.013   3.736   1.215
 3639SOL    HW111816   4.058   3.768   1.298
 3639SOL    HW211817   3.992   3.814   1.156
 3640SOL     OW11818   3.528   6.529   6.599
 3640SOL    HW111819   3.542   6.495   6.506
 3640SOL    HW211820   3.445   6.490   6.637
 3641SOL     OW11821   4.160   2.226   4.930
 3641SOL    HW111822   4.180   2.239   4.833
 3641SOL    HW211823   4.180   2.311   4.979
 3642SOL     OW11824   4.744   1.692   6.052
 3642SOL    HW111825   4.819   1.755   6.034
 3642SOL    HW211826   4.774   1.622   6.117
 3643SOL     OW11827   2.969   5.963   4.637
 3643SOL    HW111828   3.045   5.902   4.617
 3643SOL    HW211829   3.003   6.047   4.680
 3644SOL     OW11830   6.806   0.942   1.352
 3644SOL    HW111831   6.789   0.855   1.400
 3644SOL    HW211832   6.902   0.946   1.325
 3645SOL     OW11833   5.634   1.197   3.890
 3645SOL    HW111834   5.668   1.291   3.892
 3645SOL    HW211835   5.664   1.149   3.973
 3646SOL     OW11836   0.435   4.745   5.944
 3646SOL    HW111837   0.506   4.683   5.978
 3646SOL    HW211838   0.459   4.839   5.968
 3647SOL     OW11839   1.509   3.836   0.509
 3647SOL    HW111840   1.528   3.820   0.412
 3647SOL    HW211841   1.567   3.910   0.543
 3648SOL     OW11842   3.452   5.542   2.833
 3648SOL    HW111843   3.470   5.458   2.884
 3648SOL    HW211844   3.538   5.592   2.821
 3649SOL     OW11845   4.225   2.810   1.314
 3649SOL    HW111846   4.314   2.777   1.283
 3649SOL    HW211847   4.201   2.893   1.264
 3650SOL     OW11848   6.478   5.697   0.926
 3650SOL    HW111849   6.540   5.767   0.960
 3650SOL    HW211850   6.474   5.702   0.826
 3651SOL     OW11851   0.880   6.053   3.087
 3651SOL    HW111852   0.876   6.079   3.183
 3651SOL    HW211853   0.858   6.132   3.029
 3652SOL     OW11854   4.864   6.433   3.611
 3652SOL    HW111855   4.896   6.488   3.534
 3652SOL    HW211856   4.873   6.336   3.589
 3653SOL     OW11857   6.567   0.686   3.055
 3653SOL    HW111858   6.470   0.663   3.046
 3653SOL    HW211859   6.595   0.676   3.151
 3654SOL     OW11860   2.021   6.338   6.853
 3654SOL    HW111861   1.995   6.400   6.778
 3654SOL    HW211862   2.098   6.281   6.823
 3655SOL     OW11863   0.945   0.052   3.810
 3655SOL    HW111864   0.912   0.012   3.724
 3655SOL    HW211865   0.989   0.140   3.791
 3656SOL     OW11866   1.413   2.887   1.377
 3656SOL    HW111867   1.420   2.828   1.296
 3656SOL    HW211868   1.440   2.980   1.353
 3657SOL     OW11869   4.648   6.217   5.963
 3657SOL    HW111870   4.693   6.133   5.993
 3657SOL    HW211871   4.699   6.257   5.887
 3658SOL     OW11872   1.053   5.505   4.430
 3658SOL    HW111873   1.015   5.597   4.424
 3658SOL    HW211874   1.151   5.507   4.406
 3659SOL     OW11875   3.171   3.809   5.985
 3659SOL    HW111876   3.202   3.736   6.046
 3659SOL    HW211877   3.086   3.781   5.941
 3660SOL     OW11878   5.120   6.025   2.211
 3660SOL    HW111879   5.057   5.976   2.272
 3660SOL    HW211880   5.163   5.960   2.149
 3661SOL     OW11881   4.252   2.444   6.594
 3661SOL    HW111882   4.322   2.466   6.526
 3661SOL    HW211883   4.184   2.383   6.553
 3662SOL     OW11884   3.534   0.685   3.935
 3662SOL    HW111885   3.493   0.724   4.018
 3662SOL    HW211886   3.479   0.711   3.856
 3663SOL     OW11887   1.339   1.479   0.545
 3663SOL    HW111888   1.422   1.493   0.599
 3663SOL    HW211889   1.348   1.525   0.457
 3664SOL     OW11890   5.183   1.657   1.151
 3664SOL    HW111891   5.200   1.641   1.248
 3664SOL    HW211892   5.162   1.754   1.136
 3665SOL     OW11893   0.614   6.070   5.357
 3665SOL    HW111894   0.649   5.978   5.376
 3665SOL    HW211895   0.674   6.114   5.291
 3666SOL     OW11896   1.810   4.177   3.578
 3666SOL    HW111897   1.736   4.222   3.627
 3666SOL    HW211898   1.887   4.162   3.641
 3667SOL     OW11899   5.949   0.020   0.559
 3667SOL    HW111900   5.868   0.062   0.599
 3667SOL    HW211901   6.027   0.083   0.565
 3668SOL     OW11902   1.488   0.083   1.399
 3668SOL    HW111903   1.587   0.073   1.407
 3668SOL    HW211904   1.465   0.115   1.307
 3669SOL     OW11905   5.869   1.232   4.318
 3669SOL    HW111906   5.961   1.206   4.287
 3669SOL    HW211907   5.863   1.331   4.323
 3670SOL     OW11908   2.114   5.258   0.868
 3670SOL    HW111909   2.149   5.318   0.940
 3670SOL    HW211910   2.083   5.172   0.909
 3671SOL     OW11911   6.194   0.578   3.112
 3671SOL    HW111912   6.137   0.659   3.127
 3671SOL    HW211913   6.217   0.537   3.200
 3672SOL     OW11914   5.754   1.445   1.287
 3672SOL    HW111915   5.725   1.541   1.293
 3672SOL    HW211916   5.704   1.390   1.354
 3673SOL     OW11917   3.261   0.411   5.815
 3673SOL    HW111918   3.244   0.450   5.906
 3673SOL    HW211919   3.349   0.363   5.816
 3674SOL     OW11920   0.442   0.676   5.761
 3674SOL    HW111921   0.382   0.598   5.745
 3674SOL    HW211922   0.524   0.645   5.810
 3675SOL     OW11923   1.823   3.089   4.876
 3675SOL    HW111924   1.841   3.132   4.788
 3675SOL    HW211925   1.900   3.106   4.938
 3676SOL     OW11926   4.132   5.109   4.549
 3676SOL    HW111927   4.181   5.075   4.469
 3676SOL    HW211928   4.059   5.170   4.520
 3677SOL     OW11929   1.074   5.993   2.813
 3677SOL    HW111930   1.025   6.079   2.819
 3677SOL    HW211931   1.022   5.922   2.861
 3678SOL     OW11932   0.972   3.264   3.977
 3678SOL    HW111933   0.891   3.274   4.035
 3678SOL    HW211934   1.046   3.224   4.031
 3679SOL     OW11935   0.836   1.182   2.812
 3679SOL    HW111936   0.763   1.125   2.849
 3679SOL    HW211937   0.912   1.185   2.876
 3680SOL     OW11938   6.367   2.866   3.733
 3680SOL    HW111939   6.278   2.864   3.778
 3680SOL    HW211940   6.383   2.779   3.687
 3681SOL     OW11941   0.417   0.422   6.238
 3681SOL    HW111942   0.490   0.487   6.261
 3681SOL    HW211943   0.355   0.464   6.171
 3682SOL     OW11944   6.517   2.641   6.082
 3682SOL    HW111945   6.457   2.631   6.162
 3682SOL    HW211946   6.478   2.709   6.020
 3683SOL     OW11947   6.998   0.504   4.652
 3683SOL    HW111948   6.989   0.412   4.693
 3683SOL    HW211949   0.067   0.521   4.628
 3684SOL     OW11950   1.455   3.573   0.396
 3684SOL    HW111951   1.495   3.636   0.330
 3684SOL    HW211952   1.428   3.624   0.478
 3685SOL     OW11953   6.329   6.242   5.825
 3685SOL    HW111954   6.260   6.272   5.891
 3685SOL    HW211955   6.289   6.241   5.734
 3686SOL     OW11956   6.333   5.434   3.265
 3686SOL    HW111957   6.370   5.509   3.320
 3686SOL    HW211958   6.246   5.463   3.225
 3687SOL     OW11959   3.118   6.130   5.675
 3687SOL    HW111960   3.050   6.106   5.744
 3687SOL    HW211961   3.088   6.211   5.625
 3688SOL     OW11962   1.293   3.766   6.769
 3688SOL    HW111963   1.383   3.809   6.764
 3688SOL    HW211964   1.294   3.679   6.719
 3689SOL     OW11965   1.236   0.605   5.731
 3689SOL    HW111966   1.252   0.591   5.634
 3689SOL    HW211967   1.205   0.520   5.773
 3690SOL     OW11968   3.944   0.201   6.025
 3690SOL    HW111969   3.997   0.131   6.073
 3690SOL    HW211970   3.893   0.255   6.091
 3691SOL     OW11971   2.185   2.929   6.849
 3691SOL    HW111972   2.250   3.004   6.843
 3691SOL    HW211973   2.224   2.847   6.806
 3692SOL     OW11974   0.992   6.377   5.190
 3692SOL    HW111975   0.951   6.327   5.266
 3692SOL    HW211976   1.091   6.367   5.193
 3693SOL     OW11977   1.810   3.225   2.683
 3693SOL    HW111978   1.860   3.299   2.637
 3693SOL    HW211979   1.831   3.227   2.781
 3694SOL     OW11980   1.009   4.849   2.591
 3694SOL    HW111981   0.951   4.868   2.670
 3694SOL    HW211982   0.961   4.873   2.507
 3695SOL     OW11983   0.432   2.514   2.732
 3695SOL    HW111984   0.469   2.422   2.740
 3695SOL    HW211985   0.435   2.559   2.821
 3696SOL     OW11986   4.021   5.591   5.095
 3696SOL    HW111987   4.030   5.601   5.194
 3696SOL    HW211988   4.101   5.543   5.059
 3697SOL     OW11989   0.030   5.618   3.893
 3697SOL    HW111990   0.111   5.578   3.937
 3697SOL    HW211991   0.056   5.651   3.802
 3698SOL     OW11992   3.545   6.297   4.968
 3698SOL    HW111993   3.547   6.373   4.904
 3698SOL    HW211994   3.512   6.215   4.922
 3699SOL     OW11995   6.607   3.779   2.915
 3699SOL    HW111996   6.542   3.826   2.976
 3699SOL    HW211997   6.582   3.797   2.820
 3700SOL     OW11998   5.889   0.569   3.826
 3700SOL    HW111999   5.944   0.499   3.872
 3700SOL    HW212000   5.943   0.610   3.752
 3701SOL     OW12001   0.665   1.059   2.977
 3701SOL    HW112002   0.572   1.094   2.993
 3701SOL    HW212003   0.659   0.968   2.936
 3702SOL     OW12004   4.274   0.482   2.425
 3702SOL    HW112005   4.186   0.501   2.383
 3702SOL    HW212006   4.329   0.566   2.428
 3703SOL     OW12007   4.082   3.436   6.473
 3703SOL    HW112008   4.140   3.503   6.426
 3703SOL    HW212009   4.086   3.349   6.425
 3704SOL     OW12010   3.082   0.719   1.674
 3704SOL    HW112011   3.010   0.669   1.627
 3704SOL    HW212012   3.047   0.758   1.759
 3705SOL     OW12013   5.023   6.506   4.326
 3705SOL    HW112014   5.098   6.523   4.262
 3705SOL    HW212015   5.049   6.435   4.391
 3706SOL     OW12016   0.719   2.890   4.663
 3706SOL    HW112017   0.755   2.840   4.584
 3706SOL    HW212018   0.656   2.960   4.631
 3707SOL     OW12019   5.385   3.459   5.058
 3707SOL    HW112020   5.311   3.486   5.119
 3707SOL    HW212021   5.454   3.531   5.056
 3708SOL     OW12022   6.442   0.667   6.579
 3708SOL    HW112023   6.392   0.752   6.564
 3708SOL    HW212024   6.472   0.630   6.491
 3709SOL     OW12025   3.810   0.881   0.081
 3709SOL    HW112026   3.866   0.892   0.163
 3709SOL    HW212027   3.713   0.884   0.105
 3710SOL     OW12028   6.794   5.813   6.952
 3710SOL    HW112029   6.758   5.756   7.025
 3710SOL    HW212030   6.809   5.757   6.870
 3711SOL     OW12031   6.954   5.984   2.245
 3711SOL    HW112032   6.913   6.046   2.178
 3711SOL    HW212033   6.941   6.021   2.337
 3712SOL     OW12034   6.931   5.728   6.536
 3712SOL    HW112035   6.872   5.790   6.484
 3712SOL    HW212036   7.015   5.775   6.560
 3713SOL     OW12037   1.386   6.124   4.806
 3713SOL    HW112038   1.429   6.086   4.725
 3713SOL    HW212039   1.450   6.186   4.852
 3714SOL     OW12040   4.920   5.886   4.857
 3714SOL    HW112041   4.924   5.798   4.903
 3714SOL    HW212042   4.850   5.884   4.786
 3715SOL     OW12043   5.954   3.529   4.549
 3715SOL    HW112044   5.866   3.538   4.503
 3715SOL    HW212045   5.996   3.620   4.557
 3716SOL     OW12046   6.937   6.811   4.493
 3716SOL    HW112047   7.013   6.747   4.496
 3716SOL    HW212048   6.876   6.795   4.571
 3717SOL     OW12049   6.384   5.667   6.826
 3717SOL    HW112050   6.460   5.604   6.844
 3717SOL    HW212051   6.346   5.699   6.912
 3718SOL     OW12052   2.404   6.545   6.002
 3718SOL    HW112053   2.340   6.476   5.967
 3718SOL    HW212054   2.398   6.627   5.946
 3719SOL     OW12055   4.952   4.170   0.520
 3719SOL    HW112056   4.931   4.149   0.616
 3719SOL    HW212057   4.870   4.207   0.476
 3720SOL     OW12058   5.639   2.130   6.191
 3720SOL    HW112059   5.586   2.114   6.274
 3720SOL    HW212060   5.626   2.053   6.128
 3721SOL     OW12061   5.290   4.809   0.531
 3721SOL    HW112062   5.312   4.769   0.620
 3721SOL    HW212063   5.264   4.736   0.467
 3722SOL     OW12064   0.231   6.947   2.626
 3722SOL    HW112065   0.238   6.939   2.726
 3722SOL    HW212066   0.278   6.870   2.583
 3723SOL     OW12067   6.549   6.468   2.041
 3723SOL    HW112068   6.488   6.423   2.107
 3723SOL    HW212069   6.643   6.459   2.071
 3724SOL     OW12070   2.463   5.339   7.010
 3724SOL    HW112071   2.480   5.436   6.996
 3724SOL    HW212072   2.499   5.287   6.933
 3725SOL     OW12073   5.370   6.165   6.652
 3725SOL    HW112074   5.341   6.069   6.653
 3725SOL    HW212075   5.465   6.172   6.683
 3726SOL     OW12076   6.536   4.601   1.604
 3726SOL    HW112077   6.513   4.698   1.596
 3726SOL    HW212078   6.533   4.559   1.513
 3727SOL     OW12079   0.176   3.131   6.093
 3727SOL    HW112080   0.262   3.081   6.085
 3727SOL    HW212081   0.174   3.180   6.180
 3728SOL     OW12082   1.558   3.762   0.248
 3728SOL    HW112083   1.521   3.803   0.165
 3728SOL    HW212084   1.645   3.717   0.228
 3729SOL     OW12085   1.009   2.495   3.972
 3729SOL    HW112086   1.006   2.395   3.977
 3729SOL    HW212087   1.103   2.527   3.985
 3730SOL     OW12088   2.853   5.882   6.913
 3730SOL    HW112089   2.782   5.932   6.962
 3730SOL    HW212090   2.890   5.939   6.839
 3731SOL     OW12091   4.597   0.196   0.494
 3731SOL    HW112092   4.534   0.194   0.572
 3731SOL    HW212093   4.546   0.179   0.409
 3732SOL     OW12094   1.779   2.810   6.237
 3732SOL    HW112095   1.782   2.790   6.335
 3732SOL    HW212096   1.717   2.747   6.192
 3733SOL     OW12097   1.878   3.715   1.473
 3733SOL    HW112098   1.952   3.658   1.439
 3733SOL    HW212099   1.885   3.807   1.433
 3734SOL     OW12100   4.202   1.707   1.769
 3734SOL    HW112101   4.265   1.764   1.822
 3734SOL    HW212102   4.114   1.753   1.762
 3735SOL     OW12103   1.545   1.782   3.543
 3735SOL    HW112104   1.644   1.787   3.531
 3735SOL    HW212105   1.502   1.863   3.503
 3736SOL     OW12106   0.509   2.968   0.766
 3736SOL    HW112107   0.434   3.014   0.720
 3736SOL    HW212108   0.474   2.888   0.815
 3737SOL     OW12109   5.076   0.150   3.171
 3737SOL    HW112110   5.022   0.113   3.246
 3737SOL    HW212111   5.024   0.145   3.086
 3738SOL     OW12112   6.442   6.620   3.309
 3738SOL    HW112113   6.451   6.583   3.216
 3738SOL    HW212114   6.383   6.561   3.363
 3739SOL     OW12115   1.534   4.354   2.434
 3739SOL    HW112116   1.545   4.299   2.517
 3739SOL    HW212117   1.561   4.299   2.354
 3740SOL     OW12118   4.471   0.635   6.942
 3740SOL    HW112119   4.498   0.566   6.875
 3740SOL    HW212120   4.408   0.700   6.900
 3741SOL     OW12121   4.763   3.282   1.717
 3741SOL    HW112122   4.707   3.222   1.774
 3741SOL    HW212123   4.735   3.273   1.622
 3742SOL     OW12124   2.798   2.166   5.334
 3742SOL    HW112125   2.849   2.251   5.326
 3742SOL    HW212126   2.704   2.180   5.303
 3743SOL     OW12127   5.608   4.815   1.150
 3743SOL    HW112128   5.641   4.769   1.067
 3743SOL    HW212129   5.662   4.897   1.167
 3744SOL     OW12130   0.583   5.765   3.283
 3744SOL    HW112131   0.652   5.829   3.247
 3744SOL    HW212132   0.513   5.816   3.333
 3745SOL     OW12133   3.325   5.437   2.619
 3745SOL    HW112134   3.390   5.479   2.683
 3745SOL    HW212135   3.256   5.386   2.670
 3746SOL     OW12136   4.599   1.421   1.831
 3746SOL    HW112137   4.691   1.431   1.867
 3746SOL    HW212138   4.560   1.511   1.812
 3747SOL     OW12139   3.035   6.950   5.763
 3747SOL    HW112140   3.004   6.865   5.719
 3747SOL    HW212141   3.118   6.931   5.816
 3748SOL     OW12142   5.664   0.430   1.846
 3748SOL    HW112143   5.627   0.523   1.851
 3748SOL    HW212144   5.588   0.365   1.839
 3749SOL     OW12145   1.748   6.455   3.764
 3749SOL    HW112146   1.789   6.522   3.826
 3749SOL    HW212147   1.796   6.456   3.676
 3750SOL     OW12148   1.969   4.271   0.067
 3750SOL    HW112149   1.879   4.260   0.026
 3750SOL    HW212150   1.964   4.339   0.141
 3751SOL     OW12151   0.110   4.037   2.810
 3751SOL    HW112152   0.029   4.036   2.752
 3751SOL    HW212153   0.090   4.089   2.893
 3752SOL     OW12154   4.942   1.298   5.249
 3752SOL    HW112155   4.873   1.317   5.319
 3752SOL    HW212156   5.028   1.342   5.274
 3753SOL     OW12157   6.131   0.263   4.988
 3753SOL    HW112158   6.051   0.213   4.954
 3753SOL    HW212159   6.208   0.247   4.926
 3754SOL     OW12160   2.057   0.946   2.115
 3754SOL    HW112161   2.133   0.982   2.170
 3754SOL    HW212162   2.079   0.853   2.086
 3755SOL     OW12163   3.160   5.541   4.677
 3755SOL    HW112164   3.179   5.614   4.612
 3755SOL    HW212165   3.148   5.579   4.768
 3756SOL     OW12166   3.225   5.768   6.845
 3756SOL    HW112167   3.310   5.770   6.792
 3756SOL    HW212168   3.174   5.853   6.829
 3757SOL     OW12169   0.134   5.189   1.904
 3757SOL    HW112170   0.204   5.216   1.970
 3757SOL    HW212171   0.094   5.102   1.933
 3758SOL     OW12172   2.060   1.304   4.673
 3758SOL    HW112173   2.125   1.229   4.683
 3758SOL    HW212174   2.106   1.383   4.631
 3759SOL     OW12175   4.573   0.667   4.820
 3759SOL    HW112176   4.522   0.687   4.904
 3759SOL    HW212177   4.598   0.753   4.774
 3760SOL     OW12178   6.822   0.344   3.435
 3760SOL    HW112179   6.888   0.402   3.387
 3760SOL    HW212180   6.833   0.355   3.533
 3761SOL     OW12181   6.553   1.132   4.471
 3761SOL    HW112182   6.569   1.121   4.373
 3761SOL    HW212183   6.628   1.184   4.512
 3762SOL     OW12184   1.359   3.971   2.073
 3762SOL    HW112185   1.372   4.068   2.091
 3762SOL    HW212186   1.282   3.937   2.127
 3763SOL     OW12187   6.417   3.974   0.641
 3763SOL    HW112188   6.426   4.047   0.709
 3763SOL    HW212189   6.392   4.014   0.553
 3764SOL     OW12190   2.163   0.591   2.850
 3764SOL    HW112191   2.108   0.578   2.933
 3764SOL    HW212192   2.111   0.643   2.783
 3765SOL     OW12193   5.809   1.922   1.539
 3765SOL    HW112194   5.867   2.001   1.560
 3765SOL    HW212195   5.797   1.866   1.621
 3766SOL     OW12196   2.121   2.544   4.363
 3766SOL    HW112197   2.022   2.541   4.350
 3766SOL    HW212198   2.145   2.622   4.421
 3767SOL     OW12199   3.684   4.271   6.131
 3767SOL    HW112200   3.602   4.253   6.076
 3767SOL    HW212201   3.701   4.193   6.191
 3768SOL     OW12202   1.059   0.586   4.650
 3768SOL    HW112203   0.992   0.636   4.596
 3768SOL    HW212204   1.150   0.627   4.638
 3769SOL     OW12205   5.522   5.212   4.989
 3769SOL    HW112206   5.593   5.150   5.023
 3769SOL    HW212207   5.435   5.163   4.985
 3770SOL     OW12208   1.350   0.947   6.918
 3770SOL    HW112209   1.302   1.034   6.916
 3770SOL    HW212210   1.432   0.955   6.975
 3771SOL     OW12211   6.108   5.088   0.340
 3771SOL    HW112212   6.058   5.014   0.385
 3771SOL    HW212213   6.185   5.116   0.397
 3772SOL     OW12214   1.640   6.451   0.370
 3772SOL    HW112215   1.567   6.511   0.338
 3772SOL    HW212216   1.729   6.493   0.352
 3773SOL     OW12217   5.559   4.214   5.668
 3773SOL    HW112218   5.524   4.128   5.705
 3773SOL    HW212219   5.505   4.290   5.704
 3774SOL     OW12220   5.864   4.926   1.954
 3774SOL    HW112221   5.873   4.934   1.855
 3774SOL    HW212222   5.771   4.898   1.976
 3775SOL     OW12223   3.759   4.942   3.848
 3775SOL    HW112224   3.843   4.890   3.859
 3775SOL    HW212225   3.779   5.040   3.854
 3776SOL     OW12226   3.528   2.998   6.532
 3776SOL    HW112227   3.571   2.979   6.444
 3776SOL    HW212228   3.598   3.016   6.601
 3777SOL     OW12229   2.600   5.884   3.239
 3777SOL    HW112230   2.527   5.916   3.179
 3777SOL    HW212231   2.645   5.804   3.198
 3778SOL     OW12232   1.619   6.566   4.449
 3778SOL    HW112233   1.542   6.613   4.492
 3778SOL    HW212234   1.607   6.567   4.349
 3779SOL     OW12235   0.413   5.351   0.390
 3779SOL    HW112236   0.378   5.432   0.342
 3779SOL    HW212237   0.424   5.373   0.487
 3780SOL     OW12238   0.157   2.945   2.842
 3780SOL    HW112239   0.210   2.919   2.922
 3780SOL    HW212240   0.167   2.876   2.771
 3781SOL     OW12241   0.824   6.745   4.776
 3781SOL    HW112242   0.754   6.674   4.765
 3781SOL    HW212243   0.871   6.731   4.864
 3782SOL     OW12244   3.712   6.367   2.374
 3782SOL    HW112245   3.751   6.374   2.466
 3782SOL    HW212246   3.782   6.389   2.306
 3783SOL     OW12247   5.440   4.768   5.184
 3783SOL    HW112248   5.343   4.791   5.177
 3783SOL    HW212249   5.475   4.745   5.093
 3784SOL     OW12250   5.135   2.539   1.918
 3784SOL    HW112251   5.070   2.574   1.850
 3784SOL    HW212252   5.210   2.493   1.870
 3785SOL     OW12253   0.717   3.311   5.062
 3785SOL    HW112254   0.644   3.368   5.102
 3785SOL    HW212255   0.800   3.366   5.052
 3786SOL     OW12256   2.112   2.586   3.263
 3786SOL    HW112257   2.016   2.582   3.236
 3786SOL    HW212258   2.168   2.542   3.192
 3787SOL     OW12259   4.583   0.488   3.152
 3787SOL    HW112260   4.525   0.503   3.073
 3787SOL    HW212261   4.660   0.551   3.150
 3788SOL     OW12262   6.793   4.326   4.816
 3788SOL    HW112263   6.722   4.387   4.780
 3788SOL    HW212264   6.761   4.282   4.900
 3789SOL     OW12265   0.520   3.320   2.760
 3789SOL    HW112266   0.584   3.274   2.699
 3789SOL    HW212267   0.565   3.342   2.846
 3790SOL     OW12268   1.052   5.716   6.512
 3790SOL    HW112269   1.060   5.738   6.415
 3790SOL    HW212270   1.068   5.798   6.566
 3791SOL     OW12271   4.995   1.817   6.371
 3791SOL    HW112272   4.958   1.909   6.355
 3791SOL    HW212273   4.931   1.765   6.428
 3792SOL     OW12274   1.385   1.232   4.013
 3792SOL    HW112275   1.363   1.310   3.955
 3792SOL    HW212276   1.314   1.162   4.003
 3793SOL     OW12277   5.314   6.267   0.966
 3793SOL    HW112278   5.409   6.295   0.955
 3793SOL    HW212279   5.287   6.275   1.062
 3794SOL     OW12280   2.420   2.938   1.398
 3794SOL    HW112281   2.428   3.005   1.473
 3794SOL    HW212282   2.493   2.870   1.407
 3795SOL     OW12283   3.371   5.588   1.032
 3795SOL    HW112284   3.319   5.671   1.012
 3795SOL    HW212285   3.390   5.585   1.130
 3796SOL     OW12286   4.137   1.857   1.196
 3796SOL    HW112287   4.093   1.849   1.285
 3796SOL    HW212288   4.076   1.819   1.125
 3797SOL     OW12289   1.025   3.549   2.827
 3797SOL    HW112290   1.035   3.597   2.740
 3797SOL    HW212291   1.083   3.467   2.826
 3798SOL     OW12292   2.811   6.613   2.250
 3798SOL    HW112293   2.778   6.558   2.327
 3798SOL    HW212294   2.827   6.706   2.281
 3799SOL     OW12295   6.880   2.446   3.502
 3799SOL    HW112296   6.796   2.394   3.488
 3799SOL    HW212297   6.931   2.405   3.578
 3800SOL     OW12298   4.865   1.937   3.090
 3800SOL    HW112299   4.964   1.926   3.097
 3800SOL    HW212300   4.841   2.032   3.111
 3801SOL     OW12301   5.220   6.938   1.893
 3801SOL    HW112302   5.179   0.002   1.876
 3801SOL    HW212303   5.187   6.904   1.982
 3802SOL     OW12304   0.642   1.984   2.822
 3802SOL    HW112305   0.738   1.991   2.848
 3802SOL    HW212306   0.619   1.887   2.809
 3803SOL     OW12307   3.438   3.610   3.972
 3803SOL    HW112308   3.453   3.708   3.983
 3803SOL    HW212309   3.425   3.589   3.875
 3804SOL     OW12310   2.798   1.427   4.263
 3804SOL    HW112311   2.745   1.456   4.343
 3804SOL    HW212312   2.782   1.490   4.188
 3805SOL     OW12313   2.173   2.675   1.560
 3805SOL    HW112314   2.137   2.591   1.517
 3805SOL    HW212315   2.270   2.663   1.581
 3806SOL     OW12316   3.581   3.839   6.691
 3806SOL    HW112317   3.643   3.781   6.744
 3806SOL    HW212318   3.604   3.935   6.706
 3807SOL     OW12319   1.297   4.700   4.613
 3807SOL    HW112320   1.310   4.627   4.680
 3807SOL    HW212321   1.363   4.773   4.630
 3808SOL     OW12322   5.019   0.251   5.723
 3808SOL    HW112323   4.960   0.184   5.767
 3808SOL    HW212324   5.016   0.337   5.773
 3809SOL     OW12325   6.083   2.145   2.011
 3809SOL    HW112326   6.077   2.209   2.088
 3809SOL    HW212327   6.098   2.196   1.926
 3810SOL     OW12328   6.685   2.679   3.350
 3810SOL    HW112329   6.625   2.598   3.356
 3810SOL    HW212330   6.771   2.653   3.307
 3811SOL     OW12331   6.989   6.078   4.712
 3811SOL    HW112332   6.941   6.121   4.635
 3811SOL    HW212333   6.992   5.979   4.699
 3812SOL     OW12334   3.273   5.185   6.142
 3812SOL    HW112335   3.186   5.137   6.157
 3812SOL    HW212336   3.254   5.279   6.113
 3813SOL     OW12337   5.820   4.175   0.836
 3813SOL    HW112338   5.805   4.209   0.928
 3813SOL    HW212339   5.909   4.129   0.832
 3814SOL     OW12340   0.131   6.906   3.810
 3814SOL    HW112341   0.074   6.926   3.730
 3814SOL    HW212342   0.075   6.907   3.892
 3815SOL     OW12343   5.312   2.697   0.846
 3815SOL    HW112344   5.244   2.728   0.913
 3815SOL    HW212345   5.325   2.768   0.777
 3816SOL     OW12346   0.762   6.035   5.090
 3816SOL    HW112347   0.840   5.989   5.133
 3816SOL    HW212348   0.795   6.116   5.041
 3817SOL     OW12349   4.887   3.673   2.222
 3817SOL    HW112350   4.978   3.676   2.265
 3817SOL    HW212351   4.848   3.765   2.223
 3818SOL     OW12352   0.041   0.577   1.076
 3818SOL    HW112353   7.011   0.602   1.155
 3818SOL    HW212354   0.137   0.579   1.102
 3819SOL     OW12355   6.290   4.168   2.653
 3819SOL    HW112356   6.244   4.083   2.630
 3819SOL    HW212357   6.250   4.243   2.600
 3820SOL     OW12358   5.144   6.409   3.800
 3820SOL    HW112359   5.163   6.326   3.851
 3820SOL    HW212360   5.140   6.388   3.702
 3821SOL     OW12361   0.766   0.822   0.705
 3821SOL    HW112362   0.722   0.740   0.668
 3821SOL    HW212363   0.776   0.813   0.805
 3822SOL     OW12364   2.831   7.009   6.526
 3822SOL    HW112365   2.831   6.910   6.511
 3822SOL    HW212366   2.785   0.028   6.450
 3823SOL     OW12367   4.702   4.354   6.740
 3823SOL    HW112368   4.737   4.428   6.682
 3823SOL    HW212369   4.636   4.391   6.805
 3824SOL     OW12370   1.126   2.360   0.675
 3824SOL    HW112371   1.210   2.348   0.622
 3824SOL    HW212372   1.121   2.454   0.709
 3825SOL     OW12373   0.989   4.005   1.162
 3825SOL    HW112374   1.079   3.963   1.148
 3825SOL    HW212375   0.981   4.035   1.257
 3826SOL     OW12376   0.061   3.801   1.698
 3826SOL    HW112377   0.156   3.774   1.714
 3826SOL    HW212378   0.021   3.834   1.784
 3827SOL     OW12379   0.700   0.455   1.356
 3827SOL    HW112380   0.774   0.508   1.398
 3827SOL    HW212381   0.738   0.374   1.311
 3828SOL     OW12382   3.438   3.958   4.395
 3828SOL    HW112383   3.478   3.952   4.486
 3828SOL    HW212384   3.407   3.868   4.365
 3829SOL     OW12385   0.459   4.770   1.980
 3829SOL    HW112386   0.367   4.799   1.954
 3829SOL    HW212387   0.495   4.707   1.911
 3830SOL     OW12388   0.304   1.295   5.409
 3830SOL    HW112389   0.242   1.234   5.360
 3830SOL    HW212390   0.342   1.362   5.345
 3831SOL     OW12391   4.401   2.135   2.936
 3831SOL    HW112392   4.474   2.198   2.910
 3831SOL    HW212393   4.312   2.180   2.923
 3832SOL     OW12394   6.675   0.506   2.317
 3832SOL    HW112395   6.749   0.481   2.379
 3832SOL    HW212396   6.660   0.432   2.251
 3833SOL     OW12397   1.564   6.901   6.298
 3833SOL    HW112398   1.534   6.838   6.227
 3833SOL    HW212399   1.504   6.891   6.378
 3834SOL     OW12400   4.274   4.132   1.109
 3834SOL    HW112401   4.257   4.077   1.028
 3834SOL    HW212402   4.316   4.219   1.083
 3835SOL     OW12403   3.942   6.033   5.264
 3835SOL    HW112404   3.952   6.091   5.344
 3835SOL    HW212405   3.846   6.032   5.235
 3836SOL     OW12406   0.673   4.708   5.675
 3836SOL    HW112407   0.633   4.632   5.623
 3836SOL    HW212408   0.773   4.705   5.667
 3837SOL     OW12409   4.400   5.194   5.153
 3837SOL    HW112410   4.312   5.161   5.186
 3837SOL    HW212411   4.421   5.281   5.198
 3838SOL     OW12412   1.366   1.964   3.413
 3838SOL    HW112413   1.273   1.928   3.425
 3838SOL    HW212414   1.399   1.942   3.322
 3839SOL     OW12415   4.386   1.439   2.731
 3839SOL    HW112416   4.288   1.459   2.742
 3839SOL    HW212417   4.425   1.413   2.818
 3840SOL     OW12418   3.049   1.939   5.995
 3840SOL    HW112419   3.024   1.926   6.091
 3840SOL    HW212420   3.141   1.976   5.988
 3841SOL     OW12421   1.269   4.079   4.840
 3841SOL    HW112422   1.209   4.084   4.920
 3841SOL    HW212423   1.362   4.103   4.866
 3842SOL     OW12424   2.370   2.689   3.897
 3842SOL    HW112425   2.302   2.627   3.858
 3842SOL    HW212426   2.454   2.639   3.915
 3843SOL     OW12427   5.334   3.400   1.024
 3843SOL    HW112428   5.386   3.369   1.104
 3843SOL    HW212429   5.398   3.425   0.951
 3844SOL     OW12430   1.535   3.855   6.655
 3844SOL    HW112431   1.602   3.875   6.726
 3844SOL    HW212432   1.574   3.792   6.589
 3845SOL     OW12433   2.777   5.615   6.307
 3845SOL    HW112434   2.787   5.702   6.356
 3845SOL    HW212435   2.727   5.630   6.222
 3846SOL     OW12436   0.904   4.175   4.079
 3846SOL    HW112437   0.982   4.145   4.024
 3846SOL    HW212438   0.938   4.225   4.159
 3847SOL     OW12439   5.023   2.669   4.704
 3847SOL    HW112440   5.086   2.746   4.714
 3847SOL    HW212441   4.944   2.682   4.762
 3848SOL     OW12442   4.881   3.966   2.060
 3848SOL    HW112443   4.926   3.911   1.990
 3848SOL    HW212444   4.938   4.046   2.080
 3849SOL     OW12445   0.849   0.807   6.016
 3849SOL    HW112446   0.773   0.872   6.023
 3849SOL    HW212447   0.894   0.817   5.927
 3850SOL     OW12448   3.298   3.158   1.740
 3850SOL    HW112449   3.322   3.254   1.757
 3850SOL    HW212450   3.212   3.153   1.689
 3851SOL     OW12451   6.915   4.726   3.261
 3851SOL    HW112452   6.941   4.806   3.206
 3851SOL    HW212453   6.815   4.717   3.260
 3852SOL     OW12454   3.350   5.914   4.000
 3852SOL    HW112455   3.449   5.917   4.013
 3852SOL    HW212456   3.321   5.995   3.950
 3853SOL     OW12457   1.180   3.030   3.054
 3853SOL    HW112458   1.242   2.973   3.000
 3853SOL    HW212459   1.226   3.115   3.080
 3854SOL     OW12460   1.053   2.725   2.773
 3854SOL    HW112461   1.150   2.742   2.793
 3854SOL    HW212462   0.997   2.757   2.849
 3855SOL     OW12463   4.381   6.199   6.625
 3855SOL    HW112464   4.430   6.154   6.550
 3855SOL    HW212465   4.283   6.182   6.616
 3856SOL     OW12466   0.370   1.414   6.178
 3856SOL    HW112467   0.386   1.328   6.129
 3856SOL    HW212468   0.383   1.491   6.116
 3857SOL     OW12469   1.305   6.324   6.561
 3857SOL    HW112470   1.402   6.301   6.554
 3857SOL    HW212471   1.294   6.424   6.561
 3858SOL     OW12472   3.667   1.444   6.144
 3858SOL    HW112473   3.636   1.450   6.049
 3858SOL    HW212474   3.743   1.379   6.150
 3859SOL     OW12475   6.301   0.658   1.827
 3859SOL    HW112476   6.368   0.598   1.781
 3859SOL    HW212477   6.350   0.731   1.875
 3860SOL     OW12478   1.634   1.257   4.412
 3860SOL    HW112479   1.646   1.339   4.355
 3860SOL    HW212480   1.560   1.272   4.478
 3861SOL     OW12481   4.788   5.904   2.904
 3861SOL    HW112482   4.694   5.901   2.870
 3861SOL    HW212483   4.801   5.986   2.958
 3862SOL     OW12484   0.532   0.771   4.909
 3862SOL    HW112485   0.582   0.787   4.994
 3862SOL    HW212486   0.569   0.690   4.863
 3863SOL     OW12487   6.320   1.753   7.024
 3863SOL    HW112488   6.233   1.802   7.023
 3863SOL    HW212489   6.395   1.818   7.016
 3864SOL     OW12490   2.328   0.517   5.209
 3864SOL    HW112491   2.266   0.468   5.148
 3864SOL    HW212492   2.294   0.511   5.303
 3865SOL     OW12493   4.046   1.264   1.349
 3865SOL    HW112494   3.969   1.211   1.385
 3865SOL    HW212495   4.014   1.355   1.324
 3866SOL     OW12496   4.061   0.760   0.251
 3866SOL    HW112497   3.967   0.726   0.258
 3866SOL    HW212498   4.068   0.849   0.295
 3867SOL     OW12499   0.919   4.560   3.351
 3867SOL    HW112500   0.994   4.514   3.304
 3867SOL    HW212501   0.857   4.600   3.284
 3868SOL     OW12502   3.484   0.045   0.453
 3868SOL    HW112503   3.543   0.103   0.397
 3868SOL    HW212504   3.417   0.101   0.501
 3869SOL     OW12505   6.638   2.958   4.016
 3869SOL    HW112506   6.657   3.027   3.946
 3869SOL    HW212507   6.698   2.973   4.094
 3870SOL     OW12508   0.084   6.447   0.459
 3870SOL    HW112509   7.021   6.431   0.501
 3870SOL    HW212510   0.078   6.434   0.360
 3871SOL     OW12511   3.451   0.818   2.973
 3871SOL    HW112512   3.371   0.862   3.015
 3871SOL    HW212513   3.428   0.725   2.947
 3872SOL     OW12514   3.232   3.192   4.121
 3872SOL    HW112515   3.320   3.240   4.120
 3872SOL    HW212516   3.186   3.208   4.208
 3873SOL     OW12517   5.834   4.297   1.100
 3873SOL    HW112518   5.902   4.228   1.122
 3873SOL    HW212519   5.796   4.335   1.184
 3874SOL     OW12520   4.400   0.246   7.002
 3874SOL    HW112521   4.374   0.176   6.936
 3874SOL    HW212522   4.342   0.326   6.990
 3875SOL     OW12523   2.132   3.391   3.346
 3875SOL    HW112524   2.167   3.344   3.265
 3875SOL    HW212525   2.121   3.488   3.326
 3876SOL     OW12526   3.950   5.389   1.126
 3876SOL    HW112527   3.852   5.383   1.148
 3876SOL    HW212528   4.001   5.411   1.209
 3877SOL     OW12529   5.737   2.430   1.482
 3877SOL    HW112530   5.705   2.487   1.407
 3877SOL    HW212531   5.659   2.390   1.529
 3878SOL     OW12532   4.584   6.253   4.821
 3878SOL    HW112533   4.637   6.266   4.737
 3878SOL    HW212534   4.538   6.338   4.845
 3879SOL     OW12535   6.207   5.705   0.860
 3879SOL    HW112536   6.288   5.704   0.918
 3879SOL    HW212537   6.125   5.706   0.918
 3880SOL     OW12538   5.121   3.925   4.654
 3880SOL    HW112539   5.154   3.880   4.570
 3880SOL    HW212540   5.099   3.856   4.722
 3881SOL     OW12541   1.636   3.642   1.316
 3881SOL    HW112542   1.595   3.564   1.364
 3881SOL    HW212543   1.728   3.659   1.351
 3882SOL     OW12544   0.716   1.289   5.785
 3882SOL    HW112545   0.700   1.328   5.876
 3882SOL    HW212546   0.705   1.190   5.789
 3883SOL     OW12547   3.887   1.396   1.987
 3883SOL    HW112548   3.866   1.433   1.897
 3883SOL    HW212549   3.982   1.418   2.010
 3884SOL     OW12550   1.116   6.148   2.110
 3884SOL    HW112551   1.133   6.055   2.079
 3884SOL    HW212552   1.074   6.147   2.200
 3885SOL     OW12553   6.482   5.578   2.569
 3885SOL    HW112554   6.569   5.554   2.612
 3885SOL    HW212555   6.453   5.668   2.601
 3886SOL     OW12556   4.743   5.728   5.086
 3886SOL    HW112557   4.653   5.765   5.062
 3886SOL    HW212558   4.779   5.676   5.008
 3887SOL     OW12559   1.168   0.489   6.959
 3887SOL    HW112560   1.262   0.457   6.974
 3887SOL    HW212561   1.143   0.471   6.863
 3888SOL     OW12562   6.580   0.275   5.523
 3888SOL    HW112563   6.481   0.260   5.521
 3888SOL    HW212564   6.600   0.368   5.493
 3889SOL     OW12565   6.763   3.928   0.368
 3889SOL    HW112566   6.746   3.871   0.449
 3889SOL    HW212567   6.700   3.901   0.295
 3890SOL     OW12568   6.420   4.699   3.127
 3890SOL    HW112569   6.351   4.757   3.083
 3890SOL    HW212570   6.393   4.681   3.222
 3891SOL     OW12571   5.581   3.707   4.236
 3891SOL    HW112572   5.573   3.719   4.137
 3891SOL    HW212573   5.526   3.628   4.264
 3892SOL     OW12574   6.840   1.742   1.485
 3892SOL    HW112575   6.848   1.773   1.580
 3892SOL    HW212576   6.830   1.642   1.483
 3893SOL     OW12577   4.197   3.861   6.830
 3893SOL    HW112578   4.258   3.927   6.875
 3893SOL    HW212579   4.176   3.787   6.893
 3894SOL     OW12580   4.307   0.623   0.419
 3894SOL    HW112581   4.363   0.627   0.502
 3894SOL    HW212582   4.214   0.651   0.439
 3895SOL     OW12583   1.535   0.592   5.630
 3895SOL    HW112584   1.588   0.618   5.550
 3895SOL    HW212585   1.596   0.555   5.700
 3896SOL     OW12586   6.957   0.977   5.191
 3896SOL    HW112587   6.977   0.915   5.115
 3896SOL    HW212588   6.864   1.014   5.180
 3897SOL     OW12589   3.836   6.110   2.614
 3897SOL    HW112590   3.801   6.081   2.525
 3897SOL    HW212591   3.822   6.037   2.681
 3898SOL     OW12592   2.861   3.088   6.080
 3898SOL    HW112593   2.780   3.030   6.081
 3898SOL    HW212594   2.943   3.031   6.086
 3899SOL     OW12595   4.506   6.692   5.346
 3899SOL    HW112596   4.573   6.764   5.326
 3899SOL    HW212597   4.425   6.733   5.389
 3900SOL     OW12598   4.848   3.112   3.565
 3900SOL    HW112599   4.885   3.019   3.567
 3900SOL    HW212600   4.816   3.133   3.473
 3901SOL     OW12601   2.786   0.507   5.462
 3901SOL    HW112602   2.718   0.474   5.397
 3901SOL    HW212603   2.760   0.481   5.555
 3902SOL     OW12604   6.183   3.091   1.816
 3902SOL    HW112605   6.203   3.136   1.729
 3902SOL    HW212606   6.086   3.067   1.819
 3903SOL     OW12607   3.855   5.849   6.549
 3903SOL    HW112608   3.789   5.781   6.582
 3903SOL    HW212609   3.948   5.815   6.566
 3904SOL     OW12610   2.753   1.411   5.555
 3904SOL    HW112611   2.663   1.452   5.570
 3904SOL    HW212612   2.742   1.315   5.528
 3905SOL     OW12613   0.561   0.207   6.453
 3905SOL    HW112614   0.626   0.234   6.382
 3905SOL    HW212615   0.497   0.139   6.417
 3906SOL     OW12616   5.852   6.085   5.445
 3906SOL    HW112617   5.755   6.060   5.438
 3906SOL    HW212618   5.907   6.003   5.456
 3907SOL     OW12619   5.882   0.980   3.612
 3907SOL    HW112620   5.808   0.941   3.557
 3907SOL    HW212621   5.896   0.924   3.693
 3908SOL     OW12622   1.427   2.292   0.291
 3908SOL    HW112623   1.386   2.220   0.236
 3908SOL    HW212624   1.511   2.324   0.247
 3909SOL     OW12625   6.813   5.940   5.580
 3909SOL    HW112626   6.795   5.877   5.504
 3909SOL    HW212627   6.750   5.921   5.655
 3910SOL     OW12628   3.591   3.460   2.597
 3910SOL    HW112629   3.604   3.374   2.646
 3910SOL    HW212630   3.664   3.473   2.531
 3911SOL     OW12631   4.486   1.747   5.960
 3911SOL    HW112632   4.494   1.845   5.977
 3911SOL    HW212633   4.575   1.703   5.969
 3912SOL     OW12634   4.804   1.082   5.175
 3912SOL    HW112635   4.866   1.152   5.211
 3912SOL    HW212636   4.803   1.087   5.076
 3913SOL     OW12637   2.404   6.564   6.611
 3913SOL    HW112638   2.391   6.465   6.617
 3913SOL    HW212639   2.316   6.608   6.590
 3914SOL     OW12640   3.291   0.851   0.784
 3914SOL    HW112641   3.313   0.860   0.881
 3914SOL    HW212642   3.372   0.872   0.729
 3915SOL     OW12643   4.519   5.283   1.801
 3915SOL    HW112644   4.450   5.268   1.731
 3915SOL    HW212645   4.486   5.351   1.867
 3916SOL     OW12646   1.256   0.116   4.137
 3916SOL    HW112647   1.219   0.024   4.149
 3916SOL    HW212648   1.330   0.113   4.070
 3917SOL     OW12649   6.208   6.087   0.097
 3917SOL    HW112650   6.159   6.132   0.022
 3917SOL    HW212651   6.272   6.153   0.138
 3918SOL     OW12652   5.092   6.200   1.378
 3918SOL    HW112653   5.068   6.123   1.319
 3918SOL    HW212654   5.038   6.280   1.352
 3919SOL     OW12655   2.959   6.411   6.589
 3919SOL    HW112656   2.924   6.482   6.528
 3919SOL    HW212657   3.058   6.401   6.576
 3920SOL     OW12658   3.518   2.956   0.726
 3920SOL    HW112659   3.496   2.964   0.823
 3920SOL    HW212660   3.500   2.862   0.695
 3921SOL     OW12661   0.591   3.412   1.194
 3921SOL    HW112662   0.554   3.413   1.287
 3921SOL    HW212663   0.690   3.424   1.198
 3922SOL     OW12664   6.590   3.653   1.700
 3922SOL    HW112665   6.651   3.581   1.668
 3922SOL    HW212666   6.619   3.683   1.791
 3923SOL     OW12667   6.235   1.482   6.841
 3923SOL    HW112668   6.173   1.435   6.903
 3923SOL    HW212669   6.273   1.562   6.887
 3924SOL     OW12670   0.539   5.031   3.462
 3924SOL    HW112671   0.475   4.961   3.429
 3924SOL    HW212672   0.529   5.042   3.561
 3925SOL     OW12673   3.206   5.035   1.119
 3925SOL    HW112674   3.122   5.044   1.172
 3925SOL    HW212675   3.255   4.954   1.149
 3926SOL     OW12676   6.914   5.877   3.306
 3926SOL    HW112677   6.830   5.863   3.358
 3926SOL    HW212678   6.960   5.789   3.293
 3927SOL     OW12679   6.378   2.675   3.540
 3927SOL    HW112680   6.382   2.757   3.483
 3927SOL    HW212681   6.439   2.605   3.503
 3928SOL     OW12682   3.532   6.486   5.658
 3928SOL    HW112683   3.573   6.472   5.567
 3928SOL    HW212684   3.478   6.406   5.682
 3929SOL     OW12685   0.125   1.101   5.358
 3929SOL    HW112686   0.068   1.064   5.284
 3929SOL    HW212687   0.179   1.027   5.398
 3930SOL     OW12688   2.440   1.725   4.027
 3930SOL    HW112689   2.406   1.663   4.098
 3930SOL    HW212690   2.428   1.682   3.937
 3931SOL     OW12691   2.083   1.309   1.933
 3931SOL    HW112692   2.100   1.405   1.912
 3931SOL    HW212693   1.988   1.287   1.910
 3932SOL     OW12694   1.644   4.612   3.451
 3932SOL    HW112695   1.616   4.542   3.517
 3932SOL    HW212696   1.744   4.611   3.442
 3933SOL     OW12697   2.222   6.093   6.804
 3933SOL    HW112698   2.300   6.032   6.785
 3933SOL    HW212699   2.154   6.084   6.732
 3934SOL     OW12700   6.791   1.477   0.547
 3934SOL    HW112701   6.783   1.480   0.647
 3934SOL    HW212702   6.888   1.479   0.522
 3935SOL     OW12703   2.696   6.632   0.269
 3935SOL    HW112704   2.661   6.539   0.279
 3935SOL    HW212705   2.793   6.635   0.294
 3936SOL     OW12706   0.534   4.977   5.334
 3936SOL    HW112707   0.442   4.942   5.316
 3936SOL    HW212708   0.601   4.923   5.281
 3937SOL     OW12709   6.737   1.225   3.337
 3937SOL    HW112710   6.661   1.267   3.287
 3937SOL    HW212711   6.708   1.202   3.430
 3938SOL     OW12712   0.478   1.732   3.826
 3938SOL    HW112713   0.461   1.692   3.915
 3938SOL    HW212714   0.536   1.671   3.772
 3939SOL     OW12715   2.276   1.769   2.833
 3939SOL    HW112716   2.358   1.796   2.883
 3939SOL    HW212717   2.207   1.840   2.841
 3940SOL     OW12718   4.797   5.395   1.406
 3940SOL    HW112719   4.800   5.298   1.384
 3940SOL    HW212720   4.847   5.411   1.491
 3941SOL     OW12721   4.190   2.929   6.519
 3941SOL    HW112722   4.215   2.837   6.489
 3941SOL    HW212723   4.258   2.962   6.585
 3942SOL     OW12724   0.350   0.019   6.978
 3942SOL    HW112725   0.261   0.023   6.933
 3942SOL    HW212726   0.341   7.006   0.043
 3943SOL     OW12727   6.787   3.627   3.064
 3943SOL    HW112728   6.882   3.656   3.054
 3943SOL    HW212729   6.731   3.675   2.997
 3944SOL     OW12730   4.798   2.916   5.080
 3944SOL    HW112731   4.734   2.938   5.154
 3944SOL    HW212732   4.892   2.927   5.112
 3945SOL     OW12733   0.114   1.704   1.185
 3945SOL    HW112734   0.212   1.711   1.202
 3945SOL    HW212735   0.096   1.707   1.087
 3946SOL     OW12736   5.586   6.053   5.489
 3946SOL    HW112737   5.513   6.121   5.493
 3946SOL    HW212738   5.554   5.973   5.438
 3947SOL     OW12739   5.845   5.762   0.588
 3947SOL    HW112740   5.750   5.782   0.565
 3947SOL    HW212741   5.851   5.731   0.682
 3948SOL     OW12742   1.361   5.726   1.633
 3948SOL    HW112743   1.354   5.819   1.671
 3948SOL    HW212744   1.440   5.679   1.672
 3949SOL     OW12745   4.808   0.346   3.495
 3949SOL    HW112746   4.825   0.444   3.479
 3949SOL    HW212747   4.862   0.315   3.572
 3950SOL     OW12748   1.852   3.967   1.329
 3950SOL    HW112749   1.765   3.953   1.282
 3950SOL    HW212750   1.855   4.059   1.368
 3951SOL     OW12751   5.885   6.370   0.782
 3951SOL    HW112752   5.931   6.457   0.796
 3951SOL    HW212753   5.952   6.300   0.756
 3952SOL     OW12754   6.298   3.332   2.846
 3952SOL    HW112755   6.385   3.380   2.860
 3952SOL    HW212756   6.314   3.234   2.847
 3953SOL     OW12757   4.031   4.498   1.683
 3953SOL    HW112758   4.124   4.463   1.696
 3953SOL    HW212759   4.031   4.598   1.693
 3954SOL     OW12760   4.536   4.962   5.161
 3954SOL    HW112761   4.481   4.887   5.196
 3954SOL    HW212762   4.482   5.047   5.161
 3955SOL     OW12763   3.183   5.629   6.552
 3955SOL    HW112764   3.141   5.619   6.643
 3955SOL    HW212765   3.257   5.563   6.542
 3956SOL     OW12766   0.181   0.965   3.668
 3956SOL    HW112767   0.267   0.998   3.630
 3956SOL    HW212768   0.177   0.865   3.660
 3957SOL     OW12769   4.471   6.304   3.943
 3957SOL    HW112770   4.427   6.255   3.867
 3957SOL    HW212771   4.570   6.301   3.933
 3958SOL     OW12772   6.140   0.886   4.794
 3958SOL    HW112773   6.067   0.852   4.735
 3958SOL    HW212774   6.107   0.962   4.849
 3959SOL     OW12775   4.271   6.606   0.501
 3959SOL    HW112776   4.309   6.548   0.429
 3959SOL    HW212777   4.232   6.689   0.461
 3960SOL     OW12778   4.691   1.702   6.753
 3960SOL    HW112779   4.620   1.726   6.686
 3960SOL    HW212780   4.659   1.628   6.811
 3961SOL     OW12781   5.362   2.163   2.547
 3961SOL    HW112782   5.417   2.246   2.545
 3961SOL    HW212783   5.367   2.117   2.458
 3962SOL     OW12784   2.558   4.238   0.239
 3962SOL    HW112785   2.527   4.313   0.298
 3962SOL    HW212786   2.619   4.275   0.169
 3963SOL     OW12787   4.424   4.900   4.133
 3963SOL    HW112788   4.330   4.931   4.148
 3963SOL    HW212789   4.433   4.805   4.164
 3964SOL     OW12790   4.385   4.911   3.498
 3964SOL    HW112791   4.307   4.904   3.436
 3964SOL    HW212792   4.446   4.985   3.467
 3965SOL     OW12793   4.832   3.263   5.899
 3965SOL    HW112794   4.831   3.301   5.992
 3965SOL    HW212795   4.782   3.325   5.838
 3966SOL     OW12796   5.338   5.902   6.605
 3966SOL    HW112797   5.262   5.837   6.602
 3966SOL    HW212798   5.422   5.854   6.630
 3967SOL     OW12799   2.016   3.592   2.121
 3967SOL    HW112800   2.099   3.628   2.078
 3967SOL    HW212801   1.961   3.668   2.156
 3968SOL     OW12802   5.060   0.787   1.361
 3968SOL    HW112803   5.076   0.696   1.323
 3968SOL    HW212804   4.999   0.779   1.440
 3969SOL     OW12805   1.633   4.274   2.189
 3969SOL    HW112806   1.623   4.277   2.090
 3969SOL    HW212807   1.730   4.280   2.213
 3970SOL     OW12808   6.345   6.255   3.872
 3970SOL    HW112809   6.375   6.167   3.838
 3970SOL    HW212810   6.371   6.265   3.968
 3971SOL     OW12811   2.687   5.031   2.320
 3971SOL    HW112812   2.659   4.995   2.409
 3971SOL    HW212813   2.781   5.062   2.326
 3972SOL     OW12814   1.531   4.645   0.827
 3972SOL    HW112815   1.495   4.612   0.739
 3972SOL    HW212816   1.619   4.602   0.845
 3973SOL     OW12817   1.767   5.205   6.838
 3973SOL    HW112818   1.845   5.179   6.895
 3973SOL    HW212819   1.689   5.148   6.861
 3974SOL     OW12820   2.013   0.646   4.497
 3974SOL    HW112821   2.078   0.720   4.482
 3974SOL    HW212822   1.920   0.681   4.487
 3975SOL     OW12823   5.437   1.214   4.889
 3975SOL    HW112824   5.370   1.182   4.823
 3975SOL    HW212825   5.509   1.265   4.842
 3976SOL     OW12826   1.956   6.413   1.581
 3976SOL    HW112827   2.001   6.327   1.557
 3976SOL    HW212828   1.882   6.432   1.516
 3977SOL     OW12829   2.675   4.061   5.557
 3977SOL    HW112830   2.588   4.101   5.527
 3977SOL    HW212831   2.657   3.973   5.601
 3978SOL     OW12832   5.902   4.900   4.506
 3978SOL    HW112833   5.852   4.935   4.426
 3978SOL    HW212834   5.872   4.807   4.525
 3979SOL     OW12835   2.761   6.831   0.967
 3979SOL    HW112836   2.808   6.885   1.037
 3979SOL    HW212837   2.756   6.883   0.882
 3980SOL     OW12838   6.095   5.918   0.305
 3980SOL    HW112839   6.130   5.964   0.224
 3980SOL    HW212840   6.162   5.852   0.338
 3981SOL     OW12841   2.499   0.850   0.376
 3981SOL    HW112842   2.594   0.829   0.400
 3981SOL    HW212843   2.454   0.767   0.343
 3982SOL     OW12844   2.261   0.051   3.584
 3982SOL    HW112845   2.358   0.036   3.563
 3982SOL    HW212846   2.252   0.125   3.651
 3983SOL     OW12847   5.407   4.899   3.893
 3983SOL    HW112848   5.415   4.995   3.919
 3983SOL    HW212849   5.439   4.841   3.968
 3984SOL     OW12850   6.333   1.574   3.402
 3984SOL    HW112851   6.383   1.610   3.323
 3984SOL    HW212852   6.296   1.484   3.379
 3985SOL     OW12853   3.047   4.512   6.718
 3985SOL    HW112854   3.065   4.445   6.646
 3985SOL    HW212855   2.948   4.522   6.730
 3986SOL     OW12856   5.605   2.565   3.188
 3986SOL    HW112857   5.634   2.658   3.168
 3986SOL    HW212858   5.556   2.528   3.109
 3987SOL     OW12859   3.445   5.182   3.850
 3987SOL    HW112860   3.440   5.086   3.874
 3987SOL    HW212861   3.411   5.196   3.757
 3988SOL     OW12862   3.612   4.169   0.011
 3988SOL    HW112863   3.661   4.155   0.097
 3988SOL    HW212864   3.524   4.212   0.029
 3989SOL     OW12865   6.336   2.672   0.143
 3989SOL    HW112866   6.377   2.601   0.200
 3989SOL    HW212867   6.408   2.717   0.090
 3990SOL     OW12868   4.991   2.360   2.483
 3990SOL    HW112869   5.046   2.302   2.423
 3990SOL    HW212870   5.025   2.454   2.478
 3991SOL     OW12871   5.634   0.924   2.775
 3991SOL    HW112872   5.702   0.861   2.736
 3991SOL    HW212873   5.679   1.010   2.799
 3992SOL     OW12874   3.781   1.998   0.268
 3992SOL    HW112875   3.756   1.985   0.364
 3992SOL    HW212876   3.806   2.093   0.253
 3993SOL     OW12877   1.428   1.871   3.137
 3993SOL    HW112878   1.411   1.939   3.066
 3993SOL    HW212879   1.357   1.801   3.134
 3994SOL     OW12880   1.829   0.451   5.557
 3994SOL    HW112881   1.779   0.379   5.605
 3994SOL    HW212882   1.896   0.492   5.619
 3995SOL     OW12883   2.365   3.543   5.858
 3995SOL    HW112884   2.335   3.599   5.935
 3995SOL    HW212885   2.453   3.500   5.880
 3996SOL     OW12886   1.388   0.229   4.344
 3996SOL    HW112887   1.340   0.247   4.429
 3996SOL    HW212888   1.327   0.182   4.280
 3997SOL     OW12889   5.284   1.644   3.957
 3997SOL    HW112890   5.326   1.599   3.878
 3997SOL    HW212891   5.326   1.609   4.041
 3998SOL     OW12892   4.375   1.448   4.095
 3998SOL    HW112893   4.374   1.534   4.147
 3998SOL    HW212894   4.420   1.377   4.149
 3999SOL     OW12895   6.179   3.479   3.985
 3999SOL    HW112896   6.273   3.511   3.998
 3999SOL    HW212897   6.172   3.385   4.015
 4000SOL     OW12898   2.961   6.454   3.184
 4000SOL    HW112899   2.915   6.476   3.269
 4000SOL    HW212900   2.944   6.358   3.161
 4001SOL     OW12901   2.466   1.904   3.673
 4001SOL    HW112902   2.465   1.811   3.709
 4001SOL    HW212903   2.376   1.946   3.686
 4002SOL     OW12904   3.018   3.956   0.540
 4002SOL    HW112905   3.066   3.935   0.454
 4002SOL    HW212906   2.931   4.000   0.520
 4003SOL     OW12907   3.200   6.739   4.055
 4003SOL    HW112908   3.202   6.658   3.995
 4003SOL    HW212909   3.259   6.723   4.134
 4004SOL     OW12910   5.083   1.877   4.692
 4004SOL    HW112911   5.030   1.851   4.612
 4004SOL    HW212912   5.179   1.854   4.678
 4005SOL     OW12913   5.060   4.624   0.061
 4005SOL    HW112914   5.106   4.687   7.025
 4005SOL    HW212915   4.996   4.567   0.011
 4006SOL     OW12916   4.524   5.402   2.307
 4006SOL    HW112917   4.588   5.414   2.383
 4006SOL    HW212918   4.535   5.311   2.267
 4007SOL     OW12919   0.295   2.261   0.682
 4007SOL    HW112920   0.332   2.286   0.772
 4007SOL    HW212921   0.327   2.169   0.658
 4008SOL     OW12922   3.048   1.925   3.806
 4008SOL    HW112923   3.003   1.900   3.720
 4008SOL    HW212924   3.142   1.954   3.787
 4009SOL     OW12925   4.067   3.396   1.458
 4009SOL    HW112926   4.130   3.455   1.509
 4009SOL    HW212927   4.118   3.319   1.420
 4010SOL     OW12928   2.891   3.109   1.211
 4010SOL    HW112929   2.985   3.088   1.185
 4010SOL    HW212930   2.828   3.056   1.154
 4011SOL     OW12931   0.797   1.041   1.920
 4011SOL    HW112932   0.737   0.961   1.918
 4011SOL    HW212933   0.862   1.035   1.844
 4012SOL     OW12934   5.442   4.931   1.806
 4012SOL    HW112935   5.429   4.861   1.875
 4012SOL    HW212936   5.508   4.999   1.838
 4013SOL     OW12937   2.956   1.577   5.383
 4013SOL    HW112938   3.012   1.499   5.356
 4013SOL    HW212939   2.887   1.547   5.450
 4014SOL     OW12940   5.250   6.672   2.443
 4014SOL    HW112941   5.263   6.586   2.394
 4014SOL    HW212942   5.287   6.748   2.389
 4015SOL     OW12943   5.233   4.712   6.104
 4015SOL    HW112944   5.236   4.797   6.157
 4015SOL    HW212945   5.232   4.734   6.007
 4016SOL     OW12946   2.648   6.090   6.354
 4016SOL    HW112947   2.706   6.016   6.387
 4016SOL    HW212948   2.585   6.054   6.285
 4017SOL     OW12949   0.173   5.699   0.538
 4017SOL    HW112950   0.236   5.766   0.577
 4017SOL    HW212951   0.217   5.610   0.533
 4018SOL     OW12952   4.415   6.570   2.896
 4018SOL    HW112953   4.403   6.592   2.993
 4018SOL    HW212954   4.391   6.649   2.840
 4019SOL     OW12955   5.813   3.411   2.846
 4019SOL    HW112956   5.735   3.460   2.885
 4019SOL    HW212957   5.888   3.474   2.828
 4020SOL     OW12958   4.727   1.583   5.704
 4020SOL    HW112959   4.745   1.532   5.788
 4020SOL    HW212960   4.810   1.632   5.676
 4021SOL     OW12961   4.021   4.865   6.325
 4021SOL    HW112962   4.023   4.823   6.416
 4021SOL    HW212963   3.927   4.895   6.305
 4022SOL     OW12964   4.781   0.812   6.630
 4022SOL    HW112965   4.781   0.881   6.703
 4022SOL    HW212966   4.689   0.804   6.591
 4023SOL     OW12967   6.021   1.522   4.441
 4023SOL    HW112968   6.018   1.523   4.541
 4023SOL    HW212969   5.931   1.498   4.405
 4024SOL     OW12970   3.778   6.748   3.413
 4024SOL    HW112971   3.755   6.706   3.325
 4024SOL    HW212972   3.867   6.792   3.407
 4025SOL     OW12973   0.805   5.358   3.512
 4025SOL    HW112974   0.776   5.435   3.569
 4025SOL    HW212975   0.836   5.283   3.571
 4026SOL     OW12976   5.284   5.566   4.355
 4026SOL    HW112977   5.363   5.506   4.343
 4026SOL    HW212978   5.279   5.631   4.278
 4027SOL     OW12979   3.835   4.410   1.520
 4027SOL    HW112980   3.779   4.490   1.495
 4027SOL    HW212981   3.903   4.438   1.587
 4028SOL     OW12982   1.515   2.416   4.199
 4028SOL    HW112983   1.597   2.447   4.151
 4028SOL    HW212984   1.536   2.404   4.296
 4029SOL     OW12985   3.023   4.141   5.682
 4029SOL    HW112986   3.089   4.213   5.658
 4029SOL    HW212987   2.931   4.179   5.683
 4030SOL     OW12988   0.851   1.902   5.873
 4030SOL    HW112989   0.794   1.951   5.807
 4030SOL    HW212990   0.939   1.948   5.882
 4031SOL     OW12991   4.788   5.459   3.638
 4031SOL    HW112992   4.696   5.496   3.630
 4031SOL    HW212993   4.795   5.405   3.722
 4032SOL     OW12994   6.467   6.572   3.620
 4032SOL    HW112995   6.527   6.558   3.699
 4032SOL    HW212996   6.372   6.581   3.651
 4033SOL     OW12997   3.450   2.884   3.840
 4033SOL    HW112998   3.371   2.836   3.879
 4033SOL    HW212999   3.518   2.900   3.912
 4034SOL     OW13000   5.691   1.201   4.767
 4034SOL    HW113001   5.692   1.110   4.808
 4034SOL    HW213002   5.785   1.230   4.746
 4035SOL     OW13003   0.169   3.839   0.327
 4035SOL    HW113004   0.126   3.914   0.378
 4035SOL    HW213005   0.259   3.869   0.295
 4036SOL     OW13006   6.118   6.224   2.404
 4036SOL    HW113007   6.096   6.197   2.498
 4036SOL    HW213008   6.059   6.300   2.377
 4037SOL     OW13009   1.461   2.910   6.622
 4037SOL    HW113010   1.470   2.834   6.686
 4037SOL    HW213011   1.551   2.949   6.603
 4038SOL     OW13012   4.981   4.655   2.690
 4038SOL    HW113013   4.987   4.579   2.625
 4038SOL    HW213014   4.886   4.670   2.715
 4039SOL     OW13015   5.278   5.447   0.417
 4039SOL    HW113016   5.373   5.478   0.423
 4039SOL    HW213017   5.263   5.401   0.329
 4040SOL     OW13018   2.813   6.975   0.690
 4040SOL    HW113019   2.764   6.926   0.618
 4040SOL    HW213020   2.900   6.927   0.710
 4041SOL     OW13021   0.987   6.062   2.356
 4041SOL    HW113022   0.933   6.000   2.300
 4041SOL    HW213023   1.024   6.013   2.434
 4042SOL     OW13024   5.959   5.616   2.311
 4042SOL    HW113025   6.026   5.642   2.242
 4042SOL    HW213026   5.956   5.516   2.319
 4043SOL     OW13027   5.532   1.918   3.111
 4043SOL    HW113028   5.513   1.999   3.056
 4043SOL    HW213029   5.602   1.939   3.179
 4044SOL     OW13030   5.672   0.141   3.600
 4044SOL    HW113031   5.660   0.172   3.695
 4044SOL    HW213032   5.704   0.218   3.544
 4045SOL     OW13033   2.902   4.142   6.150
 4045SOL    HW113034   2.996   4.115   6.172
 4045SOL    HW213035   2.903   4.226   6.096
 4046SOL     OW13036   0.943   2.248   1.764
 4046SOL    HW113037   1.042   2.251   1.752
 4046SOL    HW213038   0.903   2.337   1.743
 4047SOL     OW13039   3.005   3.813   1.430
 4047SOL    HW113040   3.043   3.774   1.514
 4047SOL    HW213041   2.912   3.844   1.447
 4048SOL     OW13042   5.525   0.561   1.351
 4048SOL    HW113043   5.624   0.556   1.359
 4048SOL    HW213044   5.498   0.547   1.255
 4049SOL     OW13045   6.423   6.149   6.151
 4049SOL    HW113046   6.438   6.248   6.145
 4049SOL    HW213047   6.357   6.129   6.223
 4050SOL     OW13048   1.820   6.147   6.909
 4050SOL    HW113049   1.894   6.214   6.915
 4050SOL    HW213050   1.803   6.107   6.999
 4051SOL     OW13051   2.908   4.274   0.730
 4051SOL    HW113052   2.827   4.258   0.674
 4051SOL    HW213053   2.907   4.214   0.810
 4052SOL     OW13054   0.784   0.452   0.984
 4052SOL    HW113055   0.853   0.462   0.913
 4052SOL    HW213056   0.693   0.469   0.945
 4053SOL     OW13057   2.967   4.795   3.870
 4053SOL    HW113058   2.948   4.867   3.804
 4053SOL    HW213059   3.065   4.794   3.891
 4054SOL     OW13060   2.632   2.671   0.606
 4054SOL    HW113061   2.569   2.744   0.636
 4054SOL    HW213062   2.608   2.586   0.653
 4055SOL     OW13063   2.610   2.577   6.261
 4055SOL    HW113064   2.536   2.591   6.195
 4055SOL    HW213065   2.578   2.604   6.352
 4056SOL     OW13066   4.077   3.489   0.056
 4056SOL    HW113067   4.171   3.481   0.088
 4056SOL    HW213068   4.014   3.477   0.133
 4057SOL     OW13069   5.198   2.985   0.306
 4057SOL    HW113070   5.193   2.909   0.240
 4057SOL    HW213071   5.239   3.064   0.263
 4058SOL     OW13072   2.219   1.536   4.644
 4058SOL    HW113073   2.180   1.587   4.721
 4058SOL    HW213074   2.319   1.545   4.644
 4059SOL     OW13075   2.280   2.255   3.943
 4059SOL    HW113076   2.238   2.256   4.034
 4059SOL    HW213077   2.374   2.288   3.949
 4060SOL     OW13078   3.772   5.307   4.369
 4060SOL    HW113079   3.823   5.319   4.454
 4060SOL    HW213080   3.725   5.219   4.370
 4061SOL     OW13081   3.438   4.557   1.662
 4061SOL    HW113082   3.422   4.460   1.682
 4061SOL    HW213083   3.443   4.608   1.748
 4062SOL     OW13084   3.509   1.580   2.461
 4062SOL    HW113085   3.531   1.673   2.431
 4062SOL    HW213086   3.589   1.539   2.504
 4063SOL     OW13087   3.355   6.749   5.617
 4063SOL    HW113088   3.327   6.653   5.628
 4063SOL    HW213089   3.433   6.754   5.555
 4064SOL     OW13090   1.634   0.774   2.638
 4064SOL    HW113091   1.645   0.691   2.692
 4064SOL    HW213092   1.688   0.847   2.677
 4065SOL     OW13093   0.412   6.769   1.244
 4065SOL    HW113094   0.416   6.715   1.159
 4065SOL    HW213095   0.481   6.841   1.241
 4066SOL     OW13096   5.483   4.608   1.681
 4066SOL    HW113097   5.480   4.641   1.586
 4066SOL    HW213098   5.578   4.592   1.707
 4067SOL     OW13099   5.343   1.902   3.373
 4067SOL    HW113100   5.289   1.823   3.346
 4067SOL    HW213101   5.424   1.908   3.314
 4068SOL     OW13102   4.788   1.159   4.904
 4068SOL    HW113103   4.731   1.233   4.941
 4068SOL    HW213104   4.884   1.185   4.911
 4069SOL     OW13105   5.191   4.677   1.103
 4069SOL    HW113106   5.239   4.752   1.149
 4069SOL    HW213107   5.099   4.707   1.076
 4070SOL     OW13108   2.090   3.811   2.931
 4070SOL    HW113109   2.144   3.871   2.990
 4070SOL    HW213110   2.116   3.826   2.836
 4071SOL     OW13111   1.215   0.784   4.884
 4071SOL    HW113112   1.206   0.821   4.977
 4071SOL    HW213113   1.172   0.846   4.819
 4072SOL     OW13114   1.841   6.720   4.194
 4072SOL    HW113115   1.814   6.675   4.109
 4072SOL    HW213116   1.890   6.655   4.252
 4073SOL     OW13117   2.456   6.007   6.164
 4073SOL    HW113118   2.504   5.993   6.078
 4073SOL    HW213119   2.458   5.922   6.217
 4074SOL     OW13120   0.619   2.227   1.873
 4074SOL    HW113121   0.596   2.251   1.778
 4074SOL    HW213122   0.689   2.156   1.874
 4075SOL     OW13123   4.079   1.885   2.493
 4075SOL    HW113124   4.022   1.966   2.477
 4075SOL    HW213125   4.169   1.900   2.452
 4076SOL     OW13126   2.191   3.752   5.090
 4076SOL    HW113127   2.282   3.712   5.103
 4076SOL    HW213128   2.201   3.848   5.064
 4077SOL     OW13129   2.989   0.143   0.925
 4077SOL    HW113130   3.019   0.220   0.869
 4077SOL    HW213131   2.999   0.058   0.872
 4078SOL     OW13132   6.585   4.223   1.725
 4078SOL    HW113133   6.572   4.225   1.626
 4078SOL    HW213134   6.623   4.135   1.752
 4079SOL     OW13135   1.102   1.320   3.419
 4079SOL    HW113136   1.124   1.328   3.322
 4079SOL    HW213137   1.009   1.285   3.430
 4080SOL     OW13138   3.146   3.601   0.729
 4080SOL    HW113139   3.076   3.593   0.800
 4080SOL    HW213140   3.230   3.559   0.761
 4081SOL     OW13141   2.599   1.348   5.259
 4081SOL    HW113142   2.607   1.448   5.253
 4081SOL    HW213143   2.504   1.322   5.243
 4082SOL     OW13144   0.933   2.506   5.752
 4082SOL    HW113145   0.909   2.504   5.655
 4082SOL    HW213146   1.030   2.529   5.762
 4083SOL     OW13147   6.011   4.477   3.537
 4083SOL    HW113148   6.037   4.519   3.450
 4083SOL    HW213149   5.914   4.452   3.535
 4084SOL     OW13150   4.613   2.306   2.902
 4084SOL    HW113151   4.594   2.404   2.910
 4084SOL    HW213152   4.671   2.290   2.822
 4085SOL     OW13153   3.541   5.507   1.710
 4085SOL    HW113154   3.590   5.556   1.782
 4085SOL    HW213155   3.480   5.570   1.662
 4086SOL     OW13156   6.674   5.552   6.315
 4086SOL    HW113157   6.689   5.650   6.331
 4086SOL    HW213158   6.662   5.506   6.403
 4087SOL     OW13159   2.442   0.162   2.494
 4087SOL    HW113160   2.379   0.129   2.423
 4087SOL    HW213161   2.527   0.109   2.490
 4088SOL     OW13162   6.672   0.922   5.468
 4088SOL    HW113163   6.628   0.995   5.520
 4088SOL    HW213164   6.648   0.930   5.372
 4089SOL     OW13165   6.890   6.255   4.518
 4089SOL    HW113166   6.953   6.297   4.582
 4089SOL    HW213167   6.820   6.322   4.492
 4090SOL     OW13168   1.911   6.572   4.836
 4090SOL    HW113169   1.992   6.572   4.777
 4090SOL    HW213170   1.856   6.653   4.817
 4091SOL     OW13171   1.192   4.905   1.078
 4091SOL    HW113172   1.200   5.004   1.080
 4091SOL    HW213173   1.231   4.870   0.993
 4092SOL     OW13174   4.851   3.255   4.878
 4092SOL    HW113175   4.868   3.283   4.972
 4092SOL    HW213176   4.777   3.311   4.839
 4093SOL     OW13177   6.067   5.243   2.750
 4093SOL    HW113178   6.021   5.272   2.834
 4093SOL    HW213179   6.099   5.324   2.701
 4094SOL     OW13180   0.325   4.928   0.029
 4094SOL    HW113181   0.390   4.874   7.001
 4094SOL    HW213182   0.282   4.870   0.097
 4095SOL     OW13183   0.277   4.432   0.453
 4095SOL    HW113184   0.308   4.357   0.510
 4095SOL    HW213185   0.327   4.516   0.478
 4096SOL     OW13186   2.083   1.676   6.680
 4096SOL    HW113187   2.015   1.604   6.694
 4096SOL    HW213188   2.158   1.639   6.625
 4097SOL     OW13189   0.356   3.813   5.064
 4097SOL    HW113190   0.385   3.907   5.046
 4097SOL    HW213191   0.327   3.770   4.978
 4098SOL     OW13192   2.208   4.560   2.826
 4098SOL    HW113193   2.199   4.620   2.746
 4098SOL    HW213194   2.281   4.493   2.809
 4099SOL     OW13195   4.238   4.132   6.648
 4099SOL    HW113196   4.316   4.125   6.586
 4099SOL    HW213197   4.266   4.101   6.739
 4100SOL     OW13198   1.478   0.885   3.584
 4100SOL    HW113199   1.536   0.935   3.648
 4100SOL    HW213200   1.432   0.811   3.632
 4101SOL     OW13201   6.628   0.680   6.790
 4101SOL    HW113202   6.573   0.671   6.708
 4101SOL    HW213203   6.724   0.691   6.765
 4102SOL     OW13204   1.808   0.432   0.050
 4102SOL    HW113205   1.719   0.465   0.081
 4102SOL    HW213206   1.859   0.394   0.127
 4103SOL     OW13207   0.704   6.717   2.284
 4103SOL    HW113208   0.757   6.792   2.245
 4103SOL    HW213209   0.751   6.630   2.267
 4104SOL     OW13210   0.307   6.230   2.795
 4104SOL    HW113211   0.388   6.190   2.751
 4104SOL    HW213212   0.252   6.157   2.836
 4105SOL     OW13213   4.680   1.238   1.177
 4105SOL    HW113214   4.581   1.227   1.170
 4105SOL    HW213215   4.720   1.158   1.222
 4106SOL     OW13216   0.057   1.923   3.730
 4106SOL    HW113217   7.002   1.955   3.779
 4106SOL    HW213218   0.099   1.848   3.782
 4107SOL     OW13219   0.770   5.606   6.158
 4107SOL    HW113220   0.709   5.661   6.215
 4107SOL    HW213221   0.830   5.667   6.106
 4108SOL     OW13222   0.216   5.117   4.164
 4108SOL    HW113223   0.146   5.081   4.225
 4108SOL    HW213224   0.272   5.184   4.213
 4109SOL     OW13225   6.510   5.683   2.922
 4109SOL    HW113226   6.587   5.620   2.913
 4109SOL    HW213227   6.540   5.768   2.965
 4110SOL     OW13228   4.640   3.158   0.278
 4110SOL    HW113229   4.582   3.085   0.315
 4110SOL    HW213230   4.654   3.142   0.180
 4111SOL     OW13231   6.365   4.375   5.868
 4111SOL    HW113232   6.276   4.393   5.827
 4111SOL    HW213233   6.435   4.433   5.825
 4112SOL     OW13234   4.635   6.962   4.743
 4112SOL    HW113235   4.657   0.026   4.781
 4112SOL    HW213236   4.720   6.909   4.731
 4113SOL     OW13237   4.442   4.624   4.796
 4113SOL    HW113238   4.413   4.587   4.885
 4113SOL    HW213239   4.388   4.705   4.775
 4114SOL     OW13240   6.312   1.791   3.574
 4114SOL    HW113241   6.323   1.707   3.522
 4114SOL    HW213242   6.282   1.769   3.667
 4115SOL     OW13243   2.734   5.337   3.595
 4115SOL    HW113244   2.636   5.320   3.608
 4115SOL    HW213245   2.753   5.353   3.498
 4116SOL     OW13246   5.398   2.583   3.487
 4116SOL    HW113247   5.396   2.662   3.425
 4116SOL    HW213248   5.358   2.504   3.441
 4117SOL     OW13249   1.486   2.427   2.553
 4117SOL    HW113250   1.405   2.459   2.504
 4117SOL    HW213251   1.467   2.339   2.597
 4118SOL     OW13252   6.309   6.003   6.424
 4118SOL    HW113253   6.242   6.055   6.476
 4118SOL    HW213254   6.339   5.923   6.477
 4119SOL     OW13255   2.555   0.689   3.526
 4119SOL    HW113256   2.487   0.619   3.505
 4119SOL    HW213257   2.645   0.658   3.496
 4120SOL     OW13258   2.690   1.424   6.608
 4120SOL    HW113259   2.774   1.409   6.557
 4120SOL    HW213260   2.672   1.522   6.616
 4121SOL     OW13261   0.224   6.947   2.902
 4121SOL    HW113262   0.244   6.866   2.958
 4121SOL    HW213263   0.153   7.001   2.946
 4122SOL     OW13264   6.784   5.392   4.700
 4122SOL    HW113265   6.828   5.479   4.719
 4122SOL    HW213266   6.685   5.407   4.688
 4123SOL     OW13267   3.639   5.228   3.227
 4123SOL    HW113268   3.705   5.153   3.227
 4123SOL    HW213269   3.686   5.315   3.244
 4124SOL     OW13270   6.430   6.190   0.532
 4124SOL    HW113271   6.346   6.244   0.533
 4124SOL    HW213272   6.423   6.118   0.464
 4125SOL     OW13273   5.465   2.473   2.244
 4125SOL    HW113274   5.414   2.559   2.236
 4125SOL    HW213275   5.479   2.451   2.340
 4126SOL     OW13276   1.396   3.096   2.100
 4126SOL    HW113277   1.399   3.048   2.012
 4126SOL    HW213278   1.329   3.052   2.160
 4127SOL     OW13279   3.888   2.231   4.083
 4127SOL    HW113280   3.972   2.192   4.121
 4127SOL    HW213281   3.812   2.210   4.144
 4128SOL     OW13282   0.686   3.210   1.664
 4128SOL    HW113283   0.754   3.232   1.594
 4128SOL    HW213284   0.639   3.294   1.693
 4129SOL     OW13285   3.497   2.701   0.619
 4129SOL    HW113286   3.551   2.708   0.536
 4129SOL    HW213287   3.471   2.606   0.635
 4130SOL     OW13288   6.256   2.883   1.540
 4130SOL    HW113289   6.239   2.867   1.637
 4130SOL    HW213290   6.220   2.807   1.486
 4131SOL     OW13291   5.248   0.449   2.132
 4131SOL    HW113292   5.321   0.513   2.106
 4131SOL    HW213293   5.188   0.433   2.054
 4132SOL     OW13294   6.677   4.297   4.221
 4132SOL    HW113295   6.771   4.262   4.224
 4132SOL    HW213296   6.633   4.265   4.137
 4133SOL     OW13297   5.464   6.593   1.312
 4133SOL    HW113298   5.548   6.591   1.259
 4133SOL    HW213299   5.437   6.688   1.329
 4134SOL     OW13300   2.732   3.242   1.400
 4134SOL    HW113301   2.788   3.206   1.325
 4134SOL    HW213302   2.789   3.297   1.461
 4135SOL     OW13303   0.208   2.245   2.683
 4135SOL    HW113304   0.190   2.147   2.672
 4135SOL    HW213305   0.259   2.279   2.604
 4136SOL     OW13306   0.278   4.137   1.233
 4136SOL    HW113307   0.344   4.101   1.167
 4136SOL    HW213308   0.320   4.138   1.324
 4137SOL     OW13309   2.054   2.986   0.506
 4137SOL    HW113310   2.125   3.048   0.540
 4137SOL    HW213311   1.984   3.038   0.458
 4138SOL     OW13312   4.579   5.715   0.730
 4138SOL    HW113313   4.672   5.714   0.768
 4138SOL    HW213314   4.528   5.791   0.770
 4139SOL     OW13315   1.659   2.020   2.772
 4139SOL    HW113316   1.725   2.081   2.816
 4139SOL    HW213317   1.704   1.933   2.751
 4140SOL     OW13318   2.762   2.314   4.190
 4140SOL    HW113319   2.855   2.282   4.173
 4140SOL    HW213320   2.698   2.259   4.135
 4141SOL     OW13321   3.988   6.567   6.574
 4141SOL    HW113322   4.020   6.563   6.668
 4141SOL    HW213323   4.047   6.628   6.521
 4142SOL     OW13324   6.477   4.147   2.305
 4142SOL    HW113325   6.435   4.170   2.217
 4142SOL    HW213326   6.565   4.194   2.314
 4143SOL     OW13327   5.653   3.206   1.107
 4143SOL    HW113328   5.587   3.260   1.158
 4143SOL    HW213329   5.653   3.112   1.141
 4144SOL     OW13330   5.513   1.592   0.734
 4144SOL    HW113331   5.537   1.689   0.742
 4144SOL    HW213332   5.569   1.538   0.796
 4145SOL     OW13333   0.856   6.422   0.422
 4145SOL    HW113334   0.944   6.376   0.406
 4145SOL    HW213335   0.862   6.517   0.394
 4146SOL     OW13336   5.510   6.482   3.523
 4146SOL    HW113337   5.527   6.479   3.621
 4146SOL    HW213338   5.489   6.575   3.495
 4147SOL     OW13339   5.120   4.300   5.906
 4147SOL    HW113340   5.142   4.281   6.002
 4147SOL    HW213341   5.037   4.355   5.901
 4148SOL     OW13342   2.842   0.462   4.943
 4148SOL    HW113343   2.890   0.401   4.879
 4148SOL    HW213344   2.744   0.455   4.928
 4149SOL     OW13345   1.709   3.212   0.956
 4149SOL    HW113346   1.776   3.204   0.882
 4149SOL    HW213347   1.620   3.232   0.918
 4150SOL     OW13348   6.340   3.073   6.403
 4150SOL    HW113349   6.376   2.995   6.455
 4150SOL    HW213350   6.301   3.140   6.466
 4151SOL     OW13351   2.169   6.853   4.845
 4151SOL    HW113352   2.198   6.945   4.872
 4151SOL    HW213353   2.217   6.785   4.900
 4152SOL     OW13354   3.474   5.248   1.828
 4152SOL    HW113355   3.388   5.213   1.867
 4152SOL    HW213356   3.467   5.347   1.816
 4153SOL     OW13357   6.729   4.827   1.497
 4153SOL    HW113358   6.726   4.905   1.435
 4153SOL    HW213359   6.822   4.791   1.501
 4154SOL     OW13360   6.867   5.383   3.835
 4154SOL    HW113361   6.782   5.430   3.811
 4154SOL    HW213362   6.938   5.451   3.853
 4155SOL     OW13363   0.530   2.316   1.623
 4155SOL    HW113364   0.559   2.404   1.583
 4155SOL    HW213365   0.448   2.284   1.576
 4156SOL     OW13366   6.856   4.540   4.963
 4156SOL    HW113367   6.885   4.465   4.904
 4156SOL    HW213368   6.931   4.564   5.026
 4157SOL     OW13369   6.826   6.821   2.266
 4157SOL    HW113370   6.758   6.895   2.262
 4157SOL    HW213371   6.913   6.857   2.301
 4158SOL     OW13372   1.989   2.180   1.721
 4158SOL    HW113373   1.967   2.116   1.796
 4158SOL    HW213374   2.089   2.189   1.714
 4159SOL     OW13375   2.828   1.911   3.022
 4159SOL    HW113376   2.835   1.842   2.950
 4159SOL    HW213377   2.744   1.896   3.075
 4160SOL     OW13378   6.638   6.760   6.839
 4160SOL    HW113379   6.732   6.728   6.852
 4160SOL    HW213380   6.638   6.851   6.798
 4161SOL     OW13381   1.937   1.736   0.854
 4161SOL    HW113382   1.844   1.755   0.884
 4161SOL    HW213383   1.983   1.821   0.831
 4162SOL     OW13384   6.515   5.734   0.654
 4162SOL    HW113385   6.431   5.784   0.629
 4162SOL    HW213386   6.540   5.672   0.581
 4163SOL     OW13387   4.793   0.125   1.808
 4163SOL    HW113388   4.717   0.112   1.744
 4163SOL    HW213389   4.795   0.049   1.873
 4164SOL     OW13390   0.059   6.628   5.542
 4164SOL    HW113391   0.130   6.686   5.501
 4164SOL    HW213392   7.006   6.623   5.480
 4165SOL     OW13393   4.219   0.739   5.621
 4165SOL    HW113394   4.208   0.667   5.553
 4165SOL    HW213395   4.177   0.824   5.587
 4166SOL     OW13396   5.678   0.699   2.382
 4166SOL    HW113397   5.649   0.791   2.355
 4166SOL    HW213398   5.642   0.677   2.472
 4167SOL     OW13399   2.648   4.873   5.821
 4167SOL    HW113400   2.681   4.809   5.752
 4167SOL    HW213401   2.716   4.944   5.836
 4168SOL     OW13402   6.963   4.800   0.163
 4168SOL    HW113403   6.918   4.825   0.249
 4168SOL    HW213404   6.985   4.884   0.113
 4169SOL     OW13405   5.484   4.143   5.391
 4169SOL    HW113406   5.536   4.218   5.349
 4169SOL    HW213407   5.511   4.133   5.486
 4170SOL     OW13408   4.780   3.079   4.658
 4170SOL    HW113409   4.860   3.036   4.616
 4170SOL    HW213410   4.809   3.131   4.739
 4171SOL     OW13411   1.195   4.507   1.242
 4171SOL    HW113412   1.217   4.549   1.154
 4171SOL    HW213413   1.114   4.450   1.232
 4172SOL     OW13414   3.289   3.335   0.895
 4172SOL    HW113415   3.336   3.273   0.832
 4172SOL    HW213416   3.250   3.282   0.970
 4173SOL     OW13417   3.854   2.745   5.601
 4173SOL    HW113418   3.886   2.738   5.506
 4173SOL    HW213419   3.833   2.654   5.637
 4174SOL     OW13420   4.495   0.555   3.751
 4174SOL    HW113421   4.424   0.494   3.715
 4174SOL    HW213422   4.453   0.629   3.802
 4175SOL     OW13423   2.144   4.421   6.120
 4175SOL    HW113424   2.082   4.480   6.068
 4175SOL    HW213425   2.143   4.329   6.080
 4176SOL     OW13426   4.839   6.315   0.030
 4176SOL    HW113427   4.855   6.337   0.126
 4176SOL    HW213428   4.885   6.383   6.998
 4177SOL     OW13429   5.166   4.736   4.785
 4177SOL    HW113430   5.201   4.643   4.800
 4177SOL    HW213431   5.078   4.746   4.831
 4178SOL     OW13432   4.659   6.689   2.772
 4178SOL    HW113433   4.605   6.632   2.834
 4178SOL    HW213434   4.690   6.633   2.695
 4179SOL     OW13435   5.675   3.863   3.496
 4179SOL    HW113436   5.747   3.883   3.563
 4179SOL    HW213437   5.594   3.916   3.519
 4180SOL     OW13438   5.647   3.228   0.568
 4180SOL    HW113439   5.669   3.134   0.543
 4180SOL    HW213440   5.666   3.241   0.666
 4181SOL     OW13441   5.475   0.374   5.793
 4181SOL    HW113442   5.464   0.465   5.751
 4181SOL    HW213443   5.544   0.378   5.865
 4182SOL     OW13444   0.249   5.510   4.019
 4182SOL    HW113445   0.312   5.434   4.002
 4182SOL    HW213446   0.182   5.482   4.089
 4183SOL     OW13447   1.977   1.321   0.825
 4183SOL    HW113448   2.022   1.235   0.803
 4183SOL    HW213449   2.035   1.373   0.888
 4184SOL     OW13450   3.817   0.572   2.105
 4184SOL    HW113451   3.874   0.491   2.093
 4184SOL    HW213452   3.873   0.654   2.095
 4185SOL     OW13453   0.555   4.171   3.244
 4185SOL    HW113454   0.524   4.219   3.161
 4185SOL    HW213455   0.499   4.198   3.321
 4186SOL     OW13456   2.795   5.831   6.477
 4186SOL    HW113457   2.849   5.864   6.554
 4186SOL    HW213458   2.697   5.843   6.497
 4187SOL     OW13459   2.179   3.566   6.824
 4187SOL    HW113460   2.243   3.529   6.757
 4187SOL    HW213461   2.162   3.662   6.805
 4188SOL     OW13462   5.577   0.635   5.233
 4188SOL    HW113463   5.549   0.597   5.145
 4188SOL    HW213464   5.671   0.606   5.252
 4189SOL     OW13465   3.732   5.302   3.655
 4189SOL    HW113466   3.691   5.212   3.638
 4189SOL    HW213467   3.822   5.306   3.611
 4190SOL     OW13468   0.500   6.591   1.050
 4190SOL    HW113469   0.480   6.641   0.965
 4190SOL    HW213470   0.599   6.591   1.065
 4191SOL     OW13471   5.164   4.241   6.179
 4191SOL    HW113472   5.249   4.287   6.205
 4191SOL    HW213473   5.099   4.245   6.255
 4192SOL     OW13474   0.992   1.635   2.207
 4192SOL    HW113475   0.934   1.707   2.170
 4192SOL    HW213476   1.065   1.613   2.142
 4193SOL     OW13477   5.425   0.414   0.264
 4193SOL    HW113478   5.325   0.405   0.272
 4193SOL    HW213479   5.467   0.324   0.267
 4194SOL     OW13480   4.426   0.208   4.871
 4194SOL    HW113481   4.360   0.260   4.926
 4194SOL    HW213482   4.488   0.272   4.824
 4195SOL     OW13483   4.383   6.561   0.945
 4195SOL    HW113484   4.428   6.628   1.004
 4195SOL    HW213485   4.373   6.598   0.853
 4196SOL     OW13486   0.182   2.733   3.465
 4196SOL    HW113487   0.223   2.684   3.542
 4196SOL    HW213488   0.083   2.723   3.468
 4197SOL     OW13489   4.042   5.614   5.366
 4197SOL    HW113490   4.112   5.678   5.396
 4197SOL    HW213491   3.952   5.647   5.394
 4198SOL     OW13492   6.605   1.125   2.353
 4198SOL    HW113493   6.584   1.090   2.444
 4198SOL    HW213494   6.704   1.134   2.343
 4199SOL     OW13495   1.037   3.029   5.901
 4199SOL    HW113496   1.063   3.008   5.995
 4199SOL    HW213497   1.009   2.945   5.854
 4200SOL     OW13498   3.109   0.235   5.591
 4200SOL    HW113499   3.059   0.322   5.588
 4200SOL    HW213500   3.193   0.247   5.645
 4201SOL     OW13501   6.215   6.791   3.027
 4201SOL    HW113502   6.310   6.818   3.012
 4201SOL    HW213503   6.169   6.784   2.938
 4202SOL     OW13504   3.770   5.579   6.581
 4202SOL    HW113505   3.683   5.560   6.626
 4202SOL    HW213506   3.776   5.526   6.496
 4203SOL     OW13507   5.001   4.699   0.628
 4203SOL    HW113508   5.017   4.773   0.694
 4203SOL    HW213509   4.985   4.738   0.538
 4204SOL     OW13510   3.886   3.395   5.401
 4204SOL    HW113511   3.849   3.457   5.333
 4204SOL    HW213512   3.817   3.376   5.470
 4205SOL     OW13513   3.692   5.081   5.176
 4205SOL    HW113514   3.775   5.088   5.232
 4205SOL    HW213515   3.711   5.028   5.094
 4206SOL     OW13516   0.107   1.620   5.013
 4206SOL    HW113517   0.051   1.537   5.009
 4206SOL    HW213518   0.194   1.603   4.967
 4207SOL     OW13519   2.531   2.501   1.434
 4207SOL    HW113520   2.594   2.434   1.474
 4207SOL    HW213521   2.567   2.593   1.446
 4208SOL     OW13522   1.073   3.534   6.112
 4208SOL    HW113523   0.985   3.508   6.074
 4208SOL    HW213524   1.077   3.633   6.125
 4209SOL     OW13525   6.940   6.089   2.799
 4209SOL    HW113526   6.964   6.043   2.885
 4209SOL    HW213527   6.840   6.096   2.792
 4210SOL     OW13528   4.151   3.503   3.012
 4210SOL    HW113529   4.144   3.593   2.969
 4210SOL    HW213530   4.168   3.514   3.110
 4211SOL     OW13531   3.852   1.967   5.214
 4211SOL    HW113532   3.774   2.027   5.198
 4211SOL    HW213533   3.935   2.008   5.177
 4212SOL     OW13534   6.534   1.691   3.973
 4212SOL    HW113535   6.516   1.746   3.892
 4212SOL    HW213536   6.490   1.601   3.963
 4213SOL     OW13537   2.452   0.250   3.196
 4213SOL    HW113538   2.406   0.332   3.163
 4213SOL    HW213539   2.540   0.241   3.150
 4214SOL     OW13540   0.302   5.707   4.768
 4214SOL    HW113541   0.292   5.702   4.867
 4214SOL    HW213542   0.306   5.615   4.729
 4215SOL     OW13543   5.320   0.038   5.467
 4215SOL    HW113544   5.290   0.122   5.514
 4215SOL    HW213545   5.405   0.056   5.419
 4216SOL     OW13546   1.461   0.564   2.314
 4216SOL    HW113547   1.546   0.602   2.276
 4216SOL    HW213548   1.469   0.558   2.414
 4217SOL     OW13549   1.029   0.505   1.768
 4217SOL    HW113550   1.118   0.471   1.798
 4217SOL    HW213551   0.957   0.443   1.800
 4218SOL     OW13552   3.198   0.731   1.228
 4218SOL    HW113553   3.256   0.651   1.247
 4218SOL    HW213554   3.217   0.763   1.135
 4219SOL     OW13555   4.660   6.365   4.490
 4219SOL    HW113556   4.588   6.301   4.462
 4219SOL    HW213557   4.657   6.447   4.434
 4220SOL     OW13558   5.865   3.490   1.938
 4220SOL    HW113559   5.920   3.554   1.884
 4220SOL    HW213560   5.775   3.532   1.956
 4221SOL     OW13561   6.371   4.551   6.397
 4221SOL    HW113562   6.286   4.511   6.431
 4221SOL    HW213563   6.412   4.609   6.468
 4222SOL     OW13564   6.169   1.401   3.751
 4222SOL    HW113565   6.233   1.430   3.680
 4222SOL    HW213566   6.172   1.302   3.761
 4223SOL     OW13567   3.902   3.519   1.295
 4223SOL    HW113568   3.953   3.470   1.365
 4223SOL    HW213569   3.959   3.592   1.256
 4224SOL     OW13570   5.336   4.512   4.839
 4224SOL    HW113571   5.291   4.443   4.896
 4224SOL    HW213572   5.427   4.531   4.876
 4225SOL     OW13573   1.807   1.931   5.566
 4225SOL    HW113574   1.716   1.971   5.580
 4225SOL    HW213575   1.869   1.962   5.637
 4226SOL     OW13576   1.340   5.679   3.680
 4226SOL    HW113577   1.381   5.700   3.768
 4226SOL    HW213578   1.249   5.722   3.674
 4227SOL     OW13579   5.248   6.015   1.538
 4227SOL    HW113580   5.247   6.111   1.565
 4227SOL    HW213581   5.277   5.959   1.616
 4228SOL     OW13582   0.403   6.500   5.364
 4228SOL    HW113583   0.474   6.477   5.297
 4228SOL    HW213584   0.353   6.417   5.390
 4229SOL     OW13585   4.607   5.689   5.751
 4229SOL    HW113586   4.620   5.600   5.795
 4229SOL    HW213587   4.696   5.730   5.733
 4230SOL     OW13588   0.891   6.529   3.426
 4230SOL    HW113589   0.860   6.466   3.355
 4230SOL    HW213590   0.820   6.539   3.495
 4231SOL     OW13591   4.836   0.309   5.480
 4231SOL    HW113592   4.811   0.239   5.412
 4231SOL    HW213593   4.885   0.266   5.556
 4232SOL     OW13594   2.036   4.987   3.680
 4232SOL    HW113595   2.120   4.975   3.627
 4232SOL    HW213596   1.970   5.040   3.627
 4233SOL     OW13597   6.878   0.396   4.982
 4233SOL    HW113598   6.946   0.446   5.035
 4233SOL    HW213599   6.922   0.349   4.906
 4234SOL     OW13600   2.188   5.287   4.913
 4234SOL    HW113601   2.112   5.222   4.914
 4234SOL    HW213602   2.156   5.375   4.877
 4235SOL     OW13603   6.630   5.143   5.909
 4235SOL    HW113604   6.540   5.116   5.873
 4235SOL    HW213605   6.662   5.074   5.973
 4236SOL     OW13606   0.225   4.601   1.761
 4236SOL    HW113607   0.253   4.594   1.665
 4236SOL    HW213608   0.268   4.529   1.814
 4237SOL     OW13609   0.130   4.014   4.028
 4237SOL    HW113610   0.145   3.920   3.998
 4237SOL    HW213611   0.153   4.023   4.125
 4238SOL     OW13612   0.983   0.382   3.102
 4238SOL    HW113613   1.057   0.315   3.102
 4238SOL    HW213614   0.896   0.337   3.081
 4239SOL     OW13615   4.321   1.210   2.336
 4239SOL    HW113616   4.270   1.142   2.390
 4239SOL    HW213617   4.274   1.224   2.249
 4240SOL     OW13618   2.538   5.177   0.311
 4240SOL    HW113619   2.564   5.094   0.262
 4240SOL    HW213620   2.612   5.244   0.305
 4241SOL     OW13621   5.111   0.854   0.527
 4241SOL    HW113622   5.201   0.863   0.571
 4241SOL    HW213623   5.105   0.766   0.481
 4242SOL     OW13624   2.806   1.980   3.972
 4242SOL    HW113625   2.736   1.979   4.043
 4242SOL    HW213626   2.893   1.947   4.010
 4243SOL     OW13627   5.122   1.759   2.750
 4243SOL    HW113628   5.056   1.796   2.815
 4243SOL    HW213629   5.206   1.813   2.753
 4244SOL     OW13630   3.794   4.260   1.294
 4244SOL    HW113631   3.725   4.304   1.237
 4244SOL    HW213632   3.802   4.311   1.380
 4245SOL     OW13633   6.466   2.360   6.877
 4245SOL    HW113634   6.430   2.270   6.854
 4245SOL    HW213635   6.541   2.382   6.815
 4246SOL     OW13636   6.435   3.951   3.414
 4246SOL    HW113637   6.413   3.875   3.476
 4246SOL    HW213638   6.503   4.010   3.458
 4247SOL     OW13639   1.688   6.378   3.318
 4247SOL    HW113640   1.600   6.422   3.298
 4247SOL    HW213641   1.675   6.307   3.387
 4248SOL     OW13642   2.914   1.800   4.667
 4248SOL    HW113643   2.833   1.831   4.716
 4248SOL    HW213644   2.996   1.817   4.723
 4249SOL     OW13645   6.642   2.886   5.048
 4249SOL    HW113646   6.619   2.927   4.959
 4249SOL    HW213647   6.718   2.936   5.088
 4250SOL     OW13648   0.364   4.890   3.303
 4250SOL    HW113649   0.312   4.804   3.306
 4250SOL    HW213650   0.308   4.964   3.341
 4251SOL     OW13651   5.915   5.268   0.627
 4251SOL    HW113652   5.959   5.332   0.564
 4251SOL    HW213653   5.841   5.315   0.674
 4252SOL     OW13654   6.049   6.787   5.568
 4252SOL    HW113655   6.014   6.712   5.512
 4252SOL    HW213656   6.124   6.753   5.625
 4253SOL     OW13657   2.887   0.486   1.583
 4253SOL    HW113658   2.883   0.492   1.483
 4253SOL    HW213659   2.967   0.433   1.610
 4254SOL     OW13660   1.130   2.613   1.724
 4254SOL    HW113661   1.031   2.611   1.740
 4254SOL    HW213662   1.152   2.688   1.661
 4255SOL     OW13663   5.852   2.668   3.325
 4255SOL    HW113664   5.949   2.650   3.343
 4255SOL    HW213665   5.843   2.750   3.269
 4256SOL     OW13666   1.304   6.588   0.727
 4256SOL    HW113667   1.220   6.607   0.778
 4256SOL    HW213668   1.383   6.618   0.780
 4257SOL     OW13669   3.964   0.557   4.862
 4257SOL    HW113670   3.882   0.597   4.821
 4257SOL    HW213671   3.954   0.458   4.867
 4258SOL     OW13672   6.003   6.685   1.744
 4258SOL    HW113673   6.067   6.609   1.756
 4258SOL    HW213674   6.031   6.740   1.665
 4259SOL     OW13675   2.960   0.360   6.700
 4259SOL    HW113676   2.941   0.400   6.790
 4259SOL    HW213677   3.005   0.271   6.712
 4260SOL     OW13678   5.235   6.442   5.002
 4260SOL    HW113679   5.283   6.518   5.044
 4260SOL    HW213680   5.224   6.368   5.068
 4261SOL     OW13681   1.843   0.496   1.623
 4261SOL    HW113682   1.844   0.398   1.605
 4261SOL    HW213683   1.937   0.529   1.633
 4262SOL     OW13684   1.112   4.658   5.565
 4262SOL    HW113685   1.092   4.599   5.487
 4262SOL    HW213686   1.211   4.673   5.572
 4263SOL     OW13687   2.659   6.619   3.587
 4263SOL    HW113688   2.727   6.546   3.578
 4263SOL    HW213689   2.623   6.643   3.497
 4264SOL     OW13690   6.735   1.969   2.358
 4264SOL    HW113691   6.724   1.884   2.409
 4264SOL    HW213692   6.808   2.023   2.399
 4265SOL     OW13693   5.710   1.296   0.036
 4265SOL    HW113694   5.781   1.255   0.094
 4265SOL    HW213695   5.620   1.265   0.067
 4266SOL     OW13696   1.769   5.514   0.947
 4266SOL    HW113697   1.814   5.602   0.964
 4266SOL    HW213698   1.806   5.474   0.863
 4267SOL     OW13699   2.020   3.643   4.898
 4267SOL    HW113700   1.937   3.595   4.927
 4267SOL    HW213701   2.086   3.643   4.972
 4268SOL     OW13702   1.854   0.185   6.523
 4268SOL    HW113703   1.930   0.146   6.470
 4268SOL    HW213704   1.887   0.263   6.577
 4269SOL     OW13705   2.104   1.473   0.163
 4269SOL    HW113706   2.159   1.397   0.128
 4269SOL    HW213707   2.114   1.479   0.263
 4270SOL     OW13708   3.050   3.392   4.062
 4270SOL    HW113709   3.011   3.409   3.972
 4270SOL    HW213710   3.091   3.301   4.065
 4271SOL     OW13711   0.106   1.266   6.439
 4271SOL    HW113712   0.018   1.297   6.402
 4271SOL    HW213713   0.125   1.316   6.524
 4272SOL     OW13714   0.472   4.709   4.661
 4272SOL    HW113715   0.524   4.794   4.673
 4272SOL    HW213716   0.496   4.668   4.573
 4273SOL     OW13717   4.839   6.474   4.711
 4273SOL    HW113718   4.806   6.568   4.706
 4273SOL    HW213719   4.800   6.421   4.636
 4274SOL     OW13720   1.283   0.571   2.651
 4274SOL    HW113721   1.269   0.584   2.749
 4274SOL    HW213722   1.330   0.651   2.613
 4275SOL     OW13723   6.726   1.609   5.396
 4275SOL    HW113724   6.669   1.684   5.429
 4275SOL    HW213725   6.745   1.622   5.298
 4276SOL     OW13726   1.347   4.409   3.692
 4276SOL    HW113727   1.328   4.358   3.775
 4276SOL    HW213728   1.268   4.466   3.668
 4277SOL     OW13729   6.405   4.347   4.282
 4277SOL    HW113730   6.339   4.328   4.355
 4277SOL    HW213731   6.495   4.315   4.310
 4278SOL     OW13732   6.998   0.783   5.004
 4278SOL    HW113733   6.917   0.735   5.038
 4278SOL    HW213734   0.012   0.731   4.929
 4279SOL     OW13735   3.260   6.487   5.590
 4279SOL    HW113736   3.299   6.414   5.646
 4279SOL    HW213737   3.241   6.452   5.499
 4280SOL     OW13738   5.233   1.327   5.315
 4280SOL    HW113739   5.256   1.230   5.329
 4280SOL    HW213740   5.246   1.350   5.218
 4281SOL     OW13741   2.705   5.041   4.473
 4281SOL    HW113742   2.725   4.943   4.481
 4281SOL    HW213743   2.606   5.055   4.475
 4282SOL     OW13744   2.913   2.579   0.654
 4282SOL    HW113745   2.911   2.485   0.689
 4282SOL    HW213746   2.824   2.602   0.616
 4283SOL     OW13747   1.629   0.737   3.767
 4283SOL    HW113748   1.704   0.739   3.832
 4283SOL    HW213749   1.543   0.755   3.815
 4284SOL     OW13750   4.891   5.869   2.278
 4284SOL    HW113751   4.945   5.850   2.361
 4284SOL    HW213752   4.808   5.919   2.304
 4285SOL     OW13753   0.654   0.525   6.372
 4285SOL    HW113754   0.708   0.461   6.316
 4285SOL    HW213755   0.680   0.516   6.468
 4286SOL     OW13756   5.188   5.266   6.756
 4286SOL    HW113757   5.157   5.277   6.662
 4286SOL    HW213758   5.258   5.335   6.777
 4287SOL     OW13759   5.945   0.958   6.270
 4287SOL    HW113760   6.032   1.005   6.256
 4287SOL    HW213761   5.887   1.014   6.330
 4288SOL     OW13762   0.790   5.804   3.074
 4288SOL    HW113763   0.834   5.894   3.079
 4288SOL    HW213764   0.859   5.732   3.085
 4289SOL     OW13765   6.434   3.297   0.991
 4289SOL    HW113766   6.478   3.278   1.078
 4289SOL    HW213767   6.372   3.375   1.001
 4290SOL     OW13768   2.623   6.465   1.763
 4290SOL    HW113769   2.566   6.514   1.829
 4290SOL    HW213770   2.688   6.407   1.812
 4291SOL     OW13771   4.469   3.527   1.507
 4291SOL    HW113772   4.484   3.582   1.589
 4291SOL    HW213773   4.396   3.460   1.524
 4292SOL     OW13774   6.639   4.682   6.047
 4292SOL    HW113775   6.552   4.638   6.070
 4292SOL    HW213776   6.714   4.628   6.083
 4293SOL     OW13777   0.130   3.100   0.304
 4293SOL    HW113778   0.135   3.117   0.205
 4293SOL    HW213779   0.086   3.012   0.320
 4294SOL     OW13780   4.178   2.651   0.465
 4294SOL    HW113781   4.174   2.683   0.370
 4294SOL    HW213782   4.191   2.552   0.466
 4295SOL     OW13783   3.440   6.049   4.887
 4295SOL    HW113784   3.519   5.989   4.900
 4295SOL    HW213785   3.379   6.042   4.966
 4296SOL     OW13786   3.313   1.548   6.987
 4296SOL    HW113787   3.237   1.484   6.990
 4296SOL    HW213788   3.397   1.500   6.965
 4297SOL     OW13789   5.290   0.756   5.868
 4297SOL    HW113790   5.190   0.755   5.863
 4297SOL    HW213791   5.327   0.701   5.793
 4298SOL     OW13792   2.497   5.556   6.478
 4298SOL    HW113793   2.568   5.487   6.484
 4298SOL    HW213794   2.421   5.532   6.539
 4299SOL     OW13795   0.762   2.771   6.982
 4299SOL    HW113796   0.758   2.686   0.009
 4299SOL    HW213797   0.676   2.784   6.933
 4300SOL     OW13798   3.779   1.286   6.701
 4300SOL    HW113799   3.731   1.199   6.690
 4300SOL    HW213800   3.860   1.288   6.642
 4301SOL     OW13801   2.438   1.532   0.392
 4301SOL    HW113802   2.418   1.591   0.314
 4301SOL    HW213803   2.535   1.536   0.414
 4302SOL     OW13804   0.758   6.435   5.883
 4302SOL    HW113805   0.824   6.439   5.809
 4302SOL    HW213806   0.688   6.367   5.862
 4303SOL     OW13807   5.583   4.593   4.358
 4303SOL    HW113808   5.665   4.600   4.415
 4303SOL    HW213809   5.521   4.668   4.381
 4304SOL     OW13810   2.919   3.727   4.320
 4304SOL    HW113811   2.940   3.805   4.379
 4304SOL    HW213812   2.914   3.758   4.225
 4305SOL     OW13813   6.145   1.116   3.788
 4305SOL    HW113814   6.063   1.060   3.774
 4305SOL    HW213815   6.181   1.098   3.880
 4306SOL     OW13816   6.157   3.855   6.618
 4306SOL    HW113817   6.132   3.949   6.596
 4306SOL    HW213818   6.128   3.794   6.544
 4307SOL     OW13819   5.009   4.176   6.452
 4307SOL    HW113820   4.982   4.267   6.420
 4307SOL    HW213821   4.932   4.134   6.500
 4308SOL     OW13822   5.685   5.453   6.247
 4308SOL    HW113823   5.648   5.504   6.324
 4308SOL    HW213824   5.619   5.383   6.219
 4309SOL     OW13825   1.161   0.127   0.466
 4309SOL    HW113826   1.139   0.151   0.560
 4309SOL    HW213827   1.146   0.206   0.407
 4310SOL     OW13828   2.048   2.230   3.220
 4310SOL    HW113829   1.976   2.293   3.190
 4310SOL    HW213830   2.137   2.274   3.209
 4311SOL     OW13831   1.031   5.727   2.923
 4311SOL    HW113832   1.096   5.694   2.854
 4311SOL    HW213833   1.049   5.682   3.011
 4312SOL     OW13834   1.780   5.292   1.396
 4312SOL    HW113835   1.843   5.333   1.329
 4312SOL    HW213836   1.686   5.305   1.365
 4313SOL     OW13837   5.265   1.541   1.882
 4313SOL    HW113838   5.184   1.592   1.853
 4313SOL    HW213839   5.299   1.486   1.806
 4314SOL     OW13840   5.501   2.308   4.060
 4314SOL    HW113841   5.435   2.239   4.086
 4314SOL    HW213842   5.455   2.396   4.050
 4315SOL     OW13843   2.150   0.855   2.507
 4315SOL    HW113844   2.164   0.894   2.598
 4315SOL    HW213845   2.105   0.766   2.515
 4316SOL     OW13846   5.284   0.026   1.007
 4316SOL    HW113847   5.256   0.070   1.092
 4316SOL    HW213848   5.211   6.992   0.974
 4317SOL     OW13849   3.737   1.051   4.513
 4317SOL    HW113850   3.811   1.059   4.580
 4317SOL    HW213851   3.755   1.112   4.436
 4318SOL     OW13852   1.260   3.272   3.180
 4318SOL    HW113853   1.237   3.279   3.278
 4318SOL    HW213854   1.317   3.350   3.154
 4319SOL     OW13855   2.313   2.689   0.546
 4319SOL    HW113856   2.389   2.648   0.495
 4319SOL    HW213857   2.274   2.620   0.607
 4320SOL     OW13858   1.095   5.993   1.669
 4320SOL    HW113859   1.057   5.944   1.748
 4320SOL    HW213860   1.195   5.988   1.672
 4321SOL     OW13861   6.844   0.161   4.419
 4321SOL    HW113862   6.871   0.094   4.487
 4321SOL    HW213863   6.841   0.252   4.461
 4322SOL     OW13864   5.992   1.935   6.473
 4322SOL    HW113865   6.045   1.952   6.556
 4322SOL    HW213866   6.001   1.838   6.447
 4323SOL     OW13867   5.474   4.287   1.896
 4323SOL    HW113868   5.427   4.209   1.939
 4323SOL    HW213869   5.412   4.366   1.894
 4324SOL     OW13870   5.595   4.740   6.866
 4324SOL    HW113871   5.580   4.713   6.771
 4324SOL    HW213872   5.564   4.667   6.927
 4325SOL     OW13873   1.444   0.383   6.962
 4325SOL    HW113874   1.471   0.297   7.004
 4325SOL    HW213875   1.468   0.459   7.023
 4326SOL     OW13876   6.141   2.956   4.550
 4326SOL    HW113877   6.198   2.906   4.615
 4326SOL    HW213878   6.079   3.018   4.600
 4327SOL     OW13879   5.948   5.272   2.362
 4327SOL    HW113880   5.887   5.244   2.289
 4327SOL    HW213881   5.896   5.322   2.432
 4328SOL     OW13882   4.697   4.104   5.599
 4328SOL    HW113883   4.764   4.115   5.526
 4328SOL    HW213884   4.648   4.017   5.587
 4329SOL     OW13885   3.731   1.978   5.831
 4329SOL    HW113886   3.663   2.000   5.901
 4329SOL    HW213887   3.689   1.918   5.762
 4330SOL     OW13888   3.234   0.758   4.663
 4330SOL    HW113889   3.216   0.713   4.751
 4330SOL    HW213890   3.241   0.857   4.677
 4331SOL     OW13891   4.700   2.935   0.865
 4331SOL    HW113892   4.690   3.020   0.916
 4331SOL    HW213893   4.620   2.877   0.881
 4332SOL     OW13894   5.381   4.524   2.704
 4332SOL    HW113895   5.430   4.446   2.665
 4332SOL    HW213896   5.312   4.556   2.638
 4333SOL     OW13897   4.023   1.485   5.329
 4333SOL    HW113898   4.011   1.433   5.413
 4333SOL    HW213899   4.117   1.519   5.323
 4334SOL     OW13900   2.222   2.458   2.435
 4334SOL    HW113901   2.184   2.493   2.349
 4334SOL    HW213902   2.315   2.425   2.419
 4335SOL     OW13903   2.924   3.850   3.498
 4335SOL    HW113904   2.923   3.777   3.566
 4335SOL    HW213905   2.836   3.896   3.497
 4336SOL     OW13906   0.941   6.497   5.686
 4336SOL    HW113907   1.040   6.491   5.703
 4336SOL    HW213908   0.924   6.558   5.609
 4337SOL     OW13909   1.169   4.787   0.518
 4337SOL    HW113910   1.122   4.726   0.454
 4337SOL    HW213911   1.267   4.776   0.508
 4338SOL     OW13912   4.948   5.856   4.333
 4338SOL    HW113913   4.869   5.801   4.309
 4338SOL    HW213914   4.933   5.951   4.304
 4339SOL     OW13915   5.938   3.392   5.277
 4339SOL    HW113916   5.930   3.293   5.280
 4339SOL    HW213917   6.006   3.418   5.207
 4340SOL     OW13918   6.145   4.395   2.518
 4340SOL    HW113919   6.053   4.356   2.515
 4340SOL    HW213920   6.182   4.402   2.425
 4341SOL     OW13921   0.944   5.469   2.064
 4341SOL    HW113922   0.953   5.461   2.164
 4341SOL    HW213923   1.008   5.407   2.020
 4342SOL     OW13924   6.779   3.321   4.012
 4342SOL    HW113925   6.700   3.272   3.976
 4342SOL    HW213926   6.857   3.311   3.949
 4343SOL     OW13927   2.498   6.511   6.268
 4343SOL    HW113928   2.450   6.512   6.181
 4343SOL    HW213929   2.584   6.461   6.257
 4344SOL     OW13930   1.966   5.365   2.859
 4344SOL    HW113931   1.953   5.266   2.868
 4344SOL    HW213932   1.878   5.408   2.838
 4345SOL     OW13933   1.781   2.544   5.848
 4345SOL    HW113934   1.792   2.524   5.751
 4345SOL    HW213935   1.723   2.625   5.860
 4346SOL     OW13936   2.028   3.141   1.556
 4346SOL    HW113937   2.059   3.050   1.581
 4346SOL    HW213938   2.105   3.204   1.554
 4347SOL     OW13939   5.950   0.959   2.448
 4347SOL    HW113940   5.898   0.937   2.365
 4347SOL    HW213941   6.045   0.978   2.424
 4348SOL     OW13942   0.559   3.108   2.381
 4348SOL    HW113943   0.594   3.015   2.389
 4348SOL    HW213944   0.494   3.126   2.456
 4349SOL     OW13945   6.464   1.660   3.172
 4349SOL    HW113946   6.542   1.703   3.126
 4349SOL    HW213947   6.382   1.670   3.116
 4350SOL     OW13948   5.041   2.375   4.799
 4350SOL    HW113949   5.091   2.373   4.886
 4350SOL    HW213950   5.048   2.466   4.759
 4351SOL     OW13951   2.100   6.358   0.739
 4351SOL    HW113952   2.063   6.266   0.721
 4351SOL    HW213953   2.047   6.425   0.687
 4352SOL     OW13954   1.150   2.525   2.177
 4352SOL    HW113955   1.196   2.546   2.090
 4352SOL    HW213956   1.054   2.552   2.171
 4353SOL     OW13957   3.282   4.377   0.710
 4353SOL    HW113958   3.231   4.368   0.796
 4353SOL    HW213959   3.227   4.340   0.635
 4354SOL     OW13960   1.725   6.452   5.535
 4354SOL    HW113961   1.631   6.478   5.514
 4354SOL    HW213962   1.727   6.397   5.619
 4355SOL     OW13963   3.620   0.372   2.067
 4355SOL    HW113964   3.684   0.449   2.070
 4355SOL    HW213965   3.580   0.358   2.157
 4356SOL     OW13966   4.644   4.453   1.774
 4356SOL    HW113967   4.623   4.550   1.785
 4356SOL    HW213968   4.586   4.399   1.835
 4357SOL     OW13969   6.479   0.036   6.864
 4357SOL    HW113970   6.572   0.038   6.901
 4357SOL    HW213971   6.413   0.035   6.940
 4358SOL     OW13972   6.793   5.938   0.410
 4358SOL    HW113973   6.862   5.942   0.338
 4358SOL    HW213974   6.834   5.903   0.494
 4359SOL     OW13975   1.490   2.189   5.529
 4359SOL    HW113976   1.554   2.264   5.508
 4359SOL    HW213977   1.531   2.130   5.598
 4360SOL     OW13978   1.517   3.280   2.667
 4360SOL    HW113979   1.609   3.246   2.650
 4360SOL    HW213980   1.480   3.236   2.749
 4361SOL     OW13981   2.871   2.673   1.729
 4361SOL    HW113982   2.787   2.719   1.754
 4361SOL    HW213983   2.875   2.583   1.774
 4362SOL     OW13984   6.471   3.965   4.197
 4362SOL    HW113985   6.433   4.027   4.128
 4362SOL    HW213986   6.481   3.874   4.158
 4363SOL     OW13987   5.449   2.560   6.710
 4363SOL    HW113988   5.466   2.526   6.803
 4363SOL    HW213989   5.471   2.487   6.644
 4364SOL     OW13990   3.293   3.830   5.155
 4364SOL    HW113991   3.237   3.853   5.076
 4364SOL    HW213992   3.311   3.912   5.209
 4365SOL     OW13993   2.376   1.958   1.934
 4365SOL    HW113994   2.437   1.880   1.938
 4365SOL    HW213995   2.383   2.002   1.844
 4366SOL     OW13996   5.445   6.807   0.256
 4366SOL    HW113997   5.525   6.774   0.306
 4366SOL    HW213998   5.463   6.806   0.158
 4367SOL     OW13999   2.047   5.201   5.357
 4367SOL    HW114000   2.027   5.156   5.444
 4367SOL    HW214001   1.980   5.274   5.341
 4368SOL     OW14002   4.332   5.497   1.247
 4368SOL    HW114003   4.342   5.499   1.347
 4368SOL    HW214004   4.382   5.418   1.211
 4369SOL     OW14005   4.211   5.378   3.087
 4369SOL    HW114006   4.203   5.477   3.070
 4369SOL    HW214007   4.177   5.328   3.008
 4370SOL     OW14008   4.658   4.239   3.039
 4370SOL    HW114009   4.590   4.288   3.094
 4370SOL    HW214010   4.689   4.299   2.965
 4371SOL     OW14011   6.745   0.711   1.471
 4371SOL    HW114012   6.764   0.687   1.566
 4371SOL    HW214013   6.652   0.685   1.448
 4372SOL     OW14014   4.474   1.411   2.990
 4372SOL    HW114015   4.533   1.433   3.068
 4372SOL    HW214016   4.386   1.457   3.000
 4373SOL     OW14017   6.946   2.862   6.908
 4373SOL    HW114018   6.872   2.907   6.957
 4373SOL    HW214019   6.908   2.789   6.851
 4374SOL     OW14020   0.836   2.006   1.714
 4374SOL    HW114021   0.856   1.977   1.620
 4374SOL    HW214022   0.865   2.100   1.727
 4375SOL     OW14023   3.392   0.791   3.692
 4375SOL    HW114024   3.329   0.713   3.689
 4375SOL    HW214025   3.473   0.771   3.637
 4376SOL     OW14026   6.839   0.158   2.906
 4376SOL    HW114027   6.785   0.204   2.977
 4376SOL    HW214028   6.804   0.185   2.816
 4377SOL     OW14029   5.788   4.254   0.385
 4377SOL    HW114030   5.886   4.270   0.394
 4377SOL    HW214031   5.739   4.298   0.461
 4378SOL     OW14032   1.591   1.375   2.989
 4378SOL    HW114033   1.600   1.377   3.088
 4378SOL    HW214034   1.657   1.309   2.951
 4379SOL     OW14035   2.367   0.986   3.783
 4379SOL    HW114036   2.452   1.017   3.826
 4379SOL    HW214037   2.303   0.957   3.854
 4380SOL     OW14038   1.326   0.225   0.956
 4380SOL    HW114039   1.266   0.270   1.023
 4380SOL    HW214040   1.290   0.241   0.864
 4381SOL     OW14041   0.843   6.328   4.326
 4381SOL    HW114042   0.853   6.422   4.357
 4381SOL    HW214043   0.849   6.266   4.404
 4382SOL     OW14044   6.856   3.662   6.212
 4382SOL    HW114045   6.869   3.637   6.116
 4382SOL    HW214046   6.911   3.743   6.234
 4383SOL     OW14047   7.021   3.837   6.316
 4383SOL    HW114048   6.970   3.914   6.354
 4383SOL    HW214049   0.034   3.783   6.390
 4384SOL     OW14050   6.099   0.399   3.946
 4384SOL    HW114051   6.075   0.305   3.922
 4384SOL    HW214052   6.191   0.420   3.913
 4385SOL     OW14053   4.545   2.502   5.435
 4385SOL    HW114054   4.623   2.553   5.397
 4385SOL    HW214055   4.537   2.414   5.387
 4386SOL     OW14056   1.478   4.060   5.316
 4386SOL    HW114057   1.489   3.996   5.392
 4386SOL    HW214058   1.567   4.081   5.276
 4387SOL     OW14059   0.103   2.529   2.214
 4387SOL    HW114060   0.009   2.555   2.191
 4387SOL    HW214061   0.136   2.461   2.149
 4388SOL     OW14062   4.038   2.523   6.089
 4388SOL    HW114063   4.087   2.492   6.008
 4388SOL    HW214064   3.996   2.612   6.071
 4389SOL     OW14065   6.782   3.761   0.581
 4389SOL    HW114066   6.742   3.729   0.667
 4389SOL    HW214067   6.855   3.698   0.554
 4390SOL     OW14068   4.559   0.102   1.332
 4390SOL    HW114069   4.629   0.040   1.367
 4390SOL    HW214070   4.505   0.056   1.261
 4391SOL     OW14071   3.023   4.953   6.884
 4391SOL    HW114072   3.026   4.897   6.967
 4391SOL    HW214073   3.024   4.893   6.804
 4392SOL     OW14074   0.804   2.153   4.828
 4392SOL    HW114075   0.765   2.204   4.905
 4392SOL    HW214076   0.773   2.194   4.742
 4393SOL     OW14077   6.563   0.484   1.971
 4393SOL    HW114078   6.619   0.565   1.954
 4393SOL    HW214079   6.511   0.462   1.888
 4394SOL     OW14080   0.198   6.333   1.742
 4394SOL    HW114081   0.153   6.302   1.658
 4394SOL    HW214082   0.250   6.416   1.723
 4395SOL     OW14083   2.168   0.348   1.473
 4395SOL    HW114084   2.214   0.262   1.495
 4395SOL    HW214085   2.179   0.367   1.375
 4396SOL     OW14086   1.738   1.650   4.104
 4396SOL    HW114087   1.815   1.693   4.057
 4396SOL    HW214088   1.656   1.657   4.047
 4397SOL     OW14089   1.832   2.858   4.588
 4397SOL    HW114090   1.885   2.916   4.526
 4397SOL    HW214091   1.877   2.855   4.678
 4398SOL     OW14092   1.741   3.114   6.154
 4398SOL    HW114093   1.781   3.026   6.129
 4398SOL    HW214094   1.703   3.158   6.073
 4399SOL     OW14095   2.834   6.653   1.876
 4399SOL    HW114096   2.923   6.638   1.918
 4399SOL    HW214097   2.793   6.565   1.852
 4400SOL     OW14098   2.149   6.616   3.694
 4400SOL    HW114099   2.217   6.545   3.678
 4400SOL    HW214100   2.059   6.574   3.706
 4401SOL     OW14101   3.888   6.416   4.987
 4401SOL    HW114102   3.826   6.380   5.057
 4401SOL    HW214103   3.937   6.340   4.944
 4402SOL     OW14104   0.763   0.226   3.110
 4402SOL    HW114105   0.666   0.253   3.111
 4402SOL    HW214106   0.770   0.127   3.099
 4403SOL     OW14107   1.586   6.587   0.837
 4403SOL    HW114108   1.662   6.575   0.901
 4403SOL    HW214109   1.570   6.502   0.788
 4404SOL     OW14110   0.899   6.254   5.440
 4404SOL    HW114111   0.936   6.247   5.533
 4404SOL    HW214112   0.822   6.318   5.439
 4405SOL     OW14113   2.222   4.901   2.461
 4405SOL    HW114114   2.126   4.929   2.461
 4405SOL    HW214115   2.232   4.814   2.412
 4406SOL     OW14116   6.858   3.436   0.723
 4406SOL    HW114117   6.915   3.475   0.795
 4406SOL    HW214118   6.764   3.426   0.756
 4407SOL     OW14119   0.151   5.382   1.334
 4407SOL    HW114120   0.098   5.418   1.257
 4407SOL    HW214121   0.109   5.411   1.420
 4408SOL     OW14122   2.387   6.303   6.734
 4408SOL    HW114123   2.400   6.274   6.640
 4408SOL    HW214124   2.315   6.247   6.777
 4409SOL     OW14125   4.753   0.967   1.313
 4409SOL    HW114126   4.772   0.934   1.220
 4409SOL    HW214127   4.730   0.889   1.372
 4410SOL     OW14128   6.488   5.949   6.920
 4410SOL    HW114129   6.399   5.942   6.876
 4410SOL    HW214130   6.546   5.873   6.890
 4411SOL     OW14131   3.316   4.553   5.345
 4411SOL    HW114132   3.226   4.591   5.325
 4411SOL    HW214133   3.362   4.609   5.414
 4412SOL     OW14134   5.198   6.605   4.155
 4412SOL    HW114135   5.233   6.590   4.063
 4412SOL    HW214136   5.161   6.698   4.162
 4413SOL     OW14137   5.121   5.975   3.589
 4413SOL    HW114138   5.134   6.012   3.681
 4413SOL    HW214139   5.208   5.943   3.553
 4414SOL     OW14140   4.245   5.693   1.015
 4414SOL    HW114141   4.277   5.621   1.076
 4414SOL    HW214142   4.168   5.660   0.960
 4415SOL     OW14143   3.903   3.576   0.571
 4415SOL    HW114144   3.900   3.480   0.541
 4415SOL    HW214145   3.813   3.617   0.557
 4416SOL     OW14146   3.916   1.459   3.626
 4416SOL    HW114147   3.861   1.409   3.693
 4416SOL    HW214148   3.925   1.555   3.654
 4417SOL     OW14149   5.857   2.942   4.019
 4417SOL    HW114150   5.954   2.919   4.027
 4417SOL    HW214151   5.835   2.963   3.924
 4418SOL     OW14152   6.306   1.825   2.314
 4418SOL    HW114153   6.237   1.867   2.255
 4418SOL    HW214154   6.397   1.854   2.286
 4419SOL     OW14155   6.689   0.200   5.888
 4419SOL    HW114156   6.612   0.141   5.865
 4419SOL    HW214157   6.682   0.228   5.984
 4420SOL     OW14158   3.380   1.374   1.167
 4420SOL    HW114159   3.331   1.402   1.085
 4420SOL    HW214160   3.380   1.274   1.172
 4421SOL     OW14161   1.981   1.934   5.351
 4421SOL    HW114162   1.918   1.953   5.427
 4421SOL    HW214163   1.928   1.917   5.268
 4422SOL     OW14164   1.051   4.604   6.907
 4422SOL    HW114165   1.113   4.626   6.982
 4422SOL    HW214166   1.101   4.607   6.820
 4423SOL     OW14167   6.860   4.531   6.193
 4423SOL    HW114168   6.839   4.502   6.287
 4423SOL    HW214169   6.931   4.471   6.155
 4424SOL     OW14170   5.376   6.076   4.984
 4424SOL    HW114171   5.469   6.083   5.021
 4424SOL    HW214172   5.310   6.093   5.057
 4425SOL     OW14173   2.088   5.139   1.276
 4425SOL    HW114174   2.052   5.094   1.194
 4425SOL    HW214175   2.014   5.152   1.342
 4426SOL     OW14176   1.188   1.455   3.889
 4426SOL    HW114177   1.225   1.487   3.976
 4426SOL    HW214178   1.189   1.530   3.822
 4427SOL     OW14179   4.356   6.313   2.574
 4427SOL    HW114180   4.318   6.404   2.590
 4427SOL    HW214181   4.298   6.244   2.615
 4428SOL     OW14182   4.733   1.050   4.406
 4428SOL    HW114183   4.732   1.007   4.316
 4428SOL    HW214184   4.828   1.057   4.438
 4429SOL     OW14185   2.606   6.548   2.538
 4429SOL    HW114186   2.594   6.634   2.589
 4429SOL    HW214187   2.696   6.511   2.557
 4430SOL     OW14188   5.199   4.531   4.386
 4430SOL    HW114189   5.205   4.631   4.391
 4430SOL    HW214190   5.258   4.491   4.456
 4431SOL     OW14191   2.699   0.953   3.228
 4431SOL    HW114192   2.693   1.006   3.143
 4431SOL    HW214193   2.761   0.876   3.214
 4432SOL     OW14194   2.090   3.206   6.679
 4432SOL    HW114195   1.998   3.238   6.701
 4432SOL    HW214196   2.084   3.117   6.633
 4433SOL     OW14197   0.356   2.703   4.758
 4433SOL    HW114198   0.425   2.634   4.782
 4433SOL    HW214199   0.393   2.794   4.778
 4434SOL     OW14200   5.451   1.706   2.642
 4434SOL    HW114201   5.382   1.777   2.651
 4434SOL    HW214202   5.537   1.746   2.612
 4435SOL     OW14203   3.982   3.722   1.636
 4435SOL    HW114204   4.074   3.705   1.599
 4435SOL    HW214205   3.926   3.767   1.568
 4436SOL     OW14206   3.742   1.301   1.106
 4436SOL    HW114207   3.677   1.325   1.033
 4436SOL    HW214208   3.734   1.204   1.127
 4437SOL     OW14209   0.698   3.169   2.624
 4437SOL    HW114210   0.715   3.138   2.530
 4437SOL    HW214211   0.773   3.229   2.653
 4438SOL     OW14212   5.062   6.649   5.821
 4438SOL    HW114213   5.083   6.562   5.866
 4438SOL    HW214214   5.061   6.723   5.889
 4439SOL     OW14215   0.650   5.015   2.512
 4439SOL    HW114216   0.622   4.936   2.567
 4439SOL    HW214217   0.733   5.056   2.550
 4440SOL     OW14218   2.439   4.954   0.606
 4440SOL    HW114219   2.506   4.972   0.678
 4440SOL    HW214220   2.374   5.029   0.602
 4441SOL     OW14221   6.957   1.279   0.781
 4441SOL    HW114222   6.942   1.181   0.768
 4441SOL    HW214223   0.028   1.301   0.768
 4442SOL     OW14224   1.253   5.413   5.583
 4442SOL    HW114225   1.166   5.456   5.560
 4442SOL    HW214226   1.327   5.462   5.537
 4443SOL     OW14227   1.009   4.062   6.132
 4443SOL    HW114228   1.103   4.090   6.117
 4443SOL    HW214229   0.987   4.068   6.230
 4444SOL     OW14230   4.470   3.967   0.568
 4444SOL    HW114231   4.438   3.873   0.587
 4444SOL    HW214232   4.522   4.000   0.647
 4445SOL     OW14233   1.419   6.075   7.004
 4445SOL    HW114234   1.384   6.030   6.922
 4445SOL    HW214235   1.447   6.168   6.981
 4446SOL     OW14236   5.516   1.536   0.133
 4446SOL    HW114237   5.517   1.437   0.148
 4446SOL    HW214238   5.609   1.569   0.119
 4447SOL     OW14239   6.199   3.658   4.888
 4447SOL    HW114240   6.195   3.758   4.901
 4447SOL    HW214241   6.275   3.635   4.828
 4448SOL     OW14242   3.188   6.682   1.427
 4448SOL    HW114243   3.137   6.669   1.511
 4448SOL    HW214244   3.231   6.596   1.400
 4449SOL     OW14245   4.671   1.130   6.477
 4449SOL    HW114246   4.596   1.111   6.413
 4449SOL    HW214247   4.649   1.211   6.531
 4450SOL     OW14248   3.231   1.239   7.009
 4450SOL    HW114249   3.155   1.187   0.020
 4450SOL    HW214250   3.230   1.234   6.909
 4451SOL     OW14251   4.275   5.287   4.702
 4451SOL    HW114252   4.328   5.242   4.774
 4451SOL    HW214253   4.203   5.226   4.669
 4452SOL     OW14254   6.452   5.248   4.644
 4452SOL    HW114255   6.509   5.222   4.565
 4452SOL    HW214256   6.433   5.346   4.640
 4453SOL     OW14257   1.352   2.996   1.855
 4453SOL    HW114258   1.341   3.050   1.771
 4453SOL    HW214259   1.263   2.988   1.901
 4454SOL     OW14260   1.026   1.505   0.189
 4454SOL    HW114261   0.990   1.433   0.247
 4454SOL    HW214262   1.017   1.479   0.093
 4455SOL     OW14263   5.283   5.431   5.105
 4455SOL    HW114264   5.188   5.427   5.136
 4455SOL    HW214265   5.342   5.390   5.175
 4456SOL     OW14266   2.468   5.649   3.415
 4456SOL    HW114267   2.512   5.710   3.349
 4456SOL    HW214268   2.427   5.703   3.488
 4457SOL     OW14269   2.215   1.801   4.422
 4457SOL    HW114270   2.197   1.834   4.330
 4457SOL    HW214271   2.136   1.822   4.481
 4458SOL     OW14272   2.572   3.704   1.634
 4458SOL    HW114273   2.474   3.721   1.627
 4458SOL    HW214274   2.588   3.606   1.642
 4459SOL     OW14275   2.704   1.614   4.057
 4459SOL    HW114276   2.789   1.666   4.046
 4459SOL    HW214277   2.627   1.678   4.065
 4460SOL     OW14278   0.897   2.934   6.508
 4460SOL    HW114279   0.925   2.842   6.480
 4460SOL    HW214280   0.804   2.931   6.545
 4461SOL     OW14281   1.800   1.014   0.671
 4461SOL    HW114282   1.802   0.931   0.728
 4461SOL    HW214283   1.710   1.058   0.681
 4462SOL     OW14284   6.393   4.259   2.094
 4462SOL    HW114285   6.451   4.315   2.036
 4462SOL    HW214286   6.330   4.207   2.037
 4463SOL     OW14287   5.206   1.668   1.428
 4463SOL    HW114288   5.259   1.594   1.470
 4463SOL    HW214289   5.148   1.711   1.497
 4464SOL     OW14290   0.653   5.945   0.096
 4464SOL    HW114291   0.583   6.003   0.055
 4464SOL    HW214292   0.731   5.939   0.034
 4465SOL     OW14293   2.698   5.009   0.161
 4465SOL    HW114294   2.764   4.976   0.228
 4465SOL    HW214295   2.745   5.067   0.094
 4466SOL     OW14296   1.024   2.346   2.561
 4466SOL    HW114297   1.024   2.252   2.528
 4466SOL    HW214298   1.101   2.396   2.522
 4467SOL     OW14299   2.402   5.489   3.821
 4467SOL    HW114300   2.308   5.453   3.825
 4467SOL    HW214301   2.402   5.586   3.841
 4468SOL     OW14302   1.257   4.601   0.963
 4468SOL    HW114303   1.357   4.600   0.953
 4468SOL    HW214304   1.219   4.674   0.907
 4469SOL     OW14305   2.874   0.965   1.674
 4469SOL    HW114306   2.918   0.900   1.737
 4469SOL    HW214307   2.870   0.925   1.583
 4470SOL     OW14308   0.814   1.832   2.146
 4470SOL    HW114309   0.844   1.858   2.054
 4470SOL    HW214310   0.816   1.913   2.205
 4471SOL     OW14311   2.020   2.489   0.041
 4471SOL    HW114312   2.010   2.537   6.980
 4471SOL    HW214313   2.084   2.413   0.031
 4472SOL     OW14314   1.116   1.893   0.795
 4472SOL    HW114315   1.108   1.810   0.740
 4472SOL    HW214316   1.082   1.971   0.742
 4473SOL     OW14317   5.656   3.301   3.729
 4473SOL    HW114318   5.727   3.265   3.789
 4473SOL    HW214319   5.566   3.283   3.769
 4474SOL     OW14320   2.578   6.880   2.277
 4474SOL    HW114321   2.601   6.827   2.195
 4474SOL    HW214322   2.499   6.838   2.322
 4475SOL     OW14323   0.803   3.674   1.668
 4475SOL    HW114324   0.723   3.709   1.716
 4475SOL    HW214325   0.775   3.637   1.579
 4476SOL     OW14326   6.150   0.801   4.449
 4476SOL    HW114327   6.134   0.887   4.496
 4476SOL    HW214328   6.132   0.725   4.512
 4477SOL     OW14329   1.805   0.389   4.975
 4477SOL    HW114330   1.822   0.396   5.073
 4477SOL    HW214331   1.773   0.477   4.940
 4478SOL     OW14332   1.104   0.201   1.574
 4478SOL    HW114333   1.198   0.198   1.608
 4478SOL    HW214334   1.044   0.155   1.640
 4479SOL     OW14335   1.309   1.622   1.101
 4479SOL    HW114336   1.280   1.550   1.037
 4479SOL    HW214337   1.406   1.609   1.124
 4480SOL     OW14338   0.612   4.598   5.048
 4480SOL    HW114339   0.679   4.550   5.105
 4480SOL    HW214340   0.634   4.583   4.952
 4481SOL     OW14341   2.418   5.277   4.751
 4481SOL    HW114342   2.347   5.284   4.821
 4481SOL    HW214343   2.485   5.351   4.764
 4482SOL     OW14344   2.537   3.095   5.644
 4482SOL    HW114345   2.617   3.087   5.585
 4482SOL    HW214346   2.458   3.123   5.590
 4483SOL     OW14347   0.514   2.714   2.090
 4483SOL    HW114348   0.464   2.633   2.119
 4483SOL    HW214349   0.451   2.790   2.078
 4484SOL     OW14350   2.665   3.101   0.044
 4484SOL    HW114351   2.704   3.193   0.049
 4484SOL    HW214352   2.677   3.055   0.132
 4485SOL     OW14353   4.571   2.859   5.290
 4485SOL    HW114354   4.526   2.778   5.253
 4485SOL    HW214355   4.506   2.911   5.344
 4486SOL     OW14356   5.718   5.001   5.039
 4486SOL    HW114357   5.648   4.929   5.036
 4486SOL    HW214358   5.777   4.986   5.118
 4487SOL     OW14359   2.451   2.936   0.054
 4487SOL    HW114360   2.513   3.011   0.033
 4487SOL    HW214361   2.441   2.928   0.154
 4488SOL     OW14362   1.034   3.716   4.512
 4488SOL    HW114363   1.035   3.780   4.590
 4488SOL    HW214364   1.036   3.768   4.427
 4489SOL     OW14365   5.043   5.368   5.215
 4489SOL    HW114366   4.992   5.418   5.286
 4489SOL    HW214367   4.979   5.313   5.162
 4490SOL     OW14368   4.851   2.404   1.405
 4490SOL    HW114369   4.790   2.480   1.382
 4490SOL    HW214370   4.906   2.379   1.325
 4491SOL     OW14371   0.914   3.377   3.191
 4491SOL    HW114372   0.908   3.293   3.245
 4491SOL    HW214373   0.951   3.355   3.100
 4492SOL     OW14374   5.939   2.623   2.123
 4492SOL    HW114375   5.914   2.678   2.203
 4492SOL    HW214376   6.015   2.666   2.075
 4493SOL     OW14377   5.807   6.610   4.677
 4493SOL    HW114378   5.721   6.580   4.717
 4493SOL    HW214379   5.884   6.569   4.727
 4494SOL     OW14380   1.154   0.550   6.105
 4494SOL    HW114381   1.118   0.626   6.159
 4494SOL    HW214382   1.252   0.563   6.089
 4495SOL     OW14383   4.142   0.336   2.956
 4495SOL    HW114384   4.158   0.263   2.889
 4495SOL    HW214385   4.223   0.395   2.960
 4496SOL     OW14386   5.204   6.330   0.192
 4496SOL    HW114387   5.178   6.403   0.129
 4496SOL    HW214388   5.212   6.367   0.285
 4497SOL     OW14389   3.739   2.927   6.737
 4497SOL    HW114390   3.775   3.004   6.685
 4497SOL    HW214391   3.746   2.947   6.835
 4498SOL     OW14392   6.707   4.877   6.444
 4498SOL    HW114393   6.650   4.800   6.472
 4498SOL    HW214394   6.650   4.950   6.406
 4499SOL     OW14395   5.884   2.067   3.887
 4499SOL    HW114396   5.788   2.076   3.861
 4499SOL    HW214397   5.940   2.127   3.829
 4500SOL     OW14398   3.668   4.544   6.806
 4500SOL    HW114399   3.706   4.632   6.834
 4500SOL    HW214400   3.719   4.470   6.849
 4501SOL     OW14401   5.862   2.714   2.941
 4501SOL    HW114402   5.780   2.740   2.992
 4501SOL    HW214403   5.899   2.794   2.894
 4502SOL     OW14404   1.131   3.974   6.852
 4502SOL    HW114405   1.185   3.890   6.846
 4502SOL    HW214406   1.184   4.051   6.817
 4503SOL     OW14407   3.047   0.169   2.041
 4503SOL    HW114408   3.033   0.127   1.951
 4503SOL    HW214409   2.962   0.161   2.095
 4504SOL     OW14410   6.158   2.316   4.627
 4504SOL    HW114411   6.184   2.396   4.681
 4504SOL    HW214412   6.059   2.308   4.623
 4505SOL     OW14413   6.569   4.391   1.935
 4505SOL    HW114414   6.650   4.367   1.987
 4505SOL    HW214415   6.562   4.333   1.855
 4506SOL     OW14416   5.192   2.791   3.831
 4506SOL    HW114417   5.237   2.843   3.759
 4506SOL    HW214418   5.242   2.707   3.848
 4507SOL     OW14419   0.228   2.887   3.758
 4507SOL    HW114420   0.313   2.922   3.718
 4507SOL    HW214421   0.238   2.790   3.779
 4508SOL     OW14422   1.495   4.681   0.014
 4508SOL    HW114423   1.475   4.740   6.962
 4508SOL    HW214424   1.580   4.632   7.024
 4509SOL     OW14425   4.766   2.623   3.155
 4509SOL    HW114426   4.866   2.621   3.155
 4509SOL    HW214427   4.731   2.545   3.103
 4510SOL     OW14428   4.503   1.286   4.260
 4510SOL    HW114429   4.553   1.307   4.344
 4510SOL    HW214430   4.497   1.187   4.249
 4511SOL     OW14431   6.073   3.395   0.579
 4511SOL    HW114432   6.020   3.348   0.509
 4511SOL    HW214433   6.012   3.427   0.652
 4512SOL     OW14434   3.608   1.804   5.633
 4512SOL    HW114435   3.599   1.823   5.535
 4512SOL    HW214436   3.517   1.791   5.673
 4513SOL     OW14437   0.751   5.832   6.367
 4513SOL    HW114438   0.839   5.793   6.394
 4513SOL    HW214439   0.760   5.931   6.358
 4514SOL     OW14440   3.506   2.646   6.924
 4514SOL    HW114441   3.534   2.740   6.906
 4514SOL    HW214442   3.451   2.642   7.008
 4515SOL     OW14443   5.246   1.533   4.862
 4515SOL    HW114444   5.311   1.591   4.814
 4515SOL    HW214445   5.292   1.451   4.895
 4516SOL     OW14446   2.257   0.490   5.466
 4516SOL    HW114447   2.302   0.405   5.493
 4516SOL    HW214448   2.183   0.510   5.530
 4517SOL     OW14449   4.525   6.409   6.505
 4517SOL    HW114450   4.480   6.330   6.547
 4517SOL    HW214451   4.456   6.467   6.461
 4518SOL     OW14452   1.015   6.708   1.561
 4518SOL    HW114453   0.940   6.671   1.507
 4518SOL    HW214454   1.102   6.687   1.517
 4519SOL     OW14455   4.934   6.452   6.573
 4519SOL    HW114456   5.020   6.446   6.524
 4519SOL    HW214457   4.921   6.369   6.628
 4520SOL     OW14458   4.295   5.707   5.705
 4520SOL    HW114459   4.389   5.679   5.726
 4520SOL    HW214460   4.273   5.790   5.757
 4521SOL     OW14461   5.118   2.177   5.248
 4521SOL    HW114462   5.089   2.084   5.229
 4521SOL    HW214463   5.201   2.175   5.305
 4522SOL     OW14464   6.223   3.936   2.952
 4522SOL    HW114465   6.293   3.973   3.012
 4522SOL    HW214466   6.133   3.970   2.980
 4523SOL     OW14467   1.776   4.148   6.696
 4523SOL    HW114468   1.860   4.186   6.656
 4523SOL    HW214469   1.790   4.052   6.721
 4524SOL     OW14470   6.813   3.603   2.182
 4524SOL    HW114471   6.833   3.508   2.156
 4524SOL    HW214472   6.822   3.613   2.281
 4525SOL     OW14473   3.272   1.973   5.506
 4525SOL    HW114474   3.362   1.942   5.476
 4525SOL    HW214475   3.202   1.907   5.476
 4526SOL     OW14476   0.094   1.041   0.047
 4526SOL    HW114477   0.137   1.112   0.102
 4526SOL    HW214478   0.131   0.952   0.073
 4527SOL     OW14479   6.473   0.300   2.868
 4527SOL    HW114480   6.434   0.359   2.798
 4527SOL    HW214481   6.403   0.238   2.904
 4528SOL     OW14482   4.372   0.873   6.315
 4528SOL    HW114483   4.398   0.827   6.230
 4528SOL    HW214484   4.389   0.971   6.306
 4529SOL     OW14485   2.978   1.518   5.888
 4529SOL    HW114486   2.941   1.600   5.844
 4529SOL    HW214487   2.980   1.443   5.822
 4530SOL     OW14488   2.519   5.330   4.056
 4530SOL    HW114489   2.563   5.411   4.017
 4530SOL    HW214490   2.440   5.305   4.000
 4531SOL     OW14491   1.155   3.823   6.435
 4531SOL    HW114492   1.126   3.916   6.413
 4531SOL    HW214493   1.083   3.778   6.489
 4532SOL     OW14494   5.020   0.958   2.820
 4532SOL    HW114495   5.116   0.984   2.827
 4532SOL    HW214496   5.013   0.872   2.769
 4533SOL     OW14497   1.637   1.575   3.310
 4533SOL    HW114498   1.545   1.537   3.318
 4533SOL    HW214499   1.700   1.525   3.369
 4534SOL     OW14500   4.396   2.328   5.230
 4534SOL    HW114501   4.349   2.354   5.145
 4534SOL    HW214502   4.448   2.245   5.215
 4535SOL     OW14503   3.403   1.091   1.289
 4535SOL    HW114504   3.456   1.014   1.325
 4535SOL    HW214505   3.335   1.119   1.357
 4536SOL     OW14506   3.101   1.363   5.279
 4536SOL    HW114507   3.091   1.307   5.197
 4536SOL    HW214508   3.107   1.304   5.360
 4537SOL     OW14509   4.010   3.738   2.581
 4537SOL    HW114510   3.933   3.773   2.529
 4537SOL    HW214511   4.020   3.640   2.564
 4538SOL     OW14512   1.919   1.854   2.429
 4538SOL    HW114513   1.909   1.799   2.512
 4538SOL    HW214514   1.994   1.919   2.441
 4539SOL     OW14515   2.252   5.556   4.487
 4539SOL    HW114516   2.348   5.542   4.512
 4539SOL    HW214517   2.234   5.653   4.474
 4540SOL     OW14518   1.324   1.415   0.901
 4540SOL    HW114519   1.397   1.444   0.839
 4540SOL    HW214520   1.247   1.478   0.894
 4541SOL     OW14521   4.776   1.276   6.905
 4541SOL    HW114522   4.851   1.223   6.947
 4541SOL    HW214523   4.701   1.285   6.971
 4542SOL     OW14524   0.068   1.920   1.404
 4542SOL    HW114525   0.040   1.824   1.402
 4542SOL    HW214526   7.021   1.977   1.367
 4543SOL     OW14527   4.368   2.329   0.775
 4543SOL    HW114528   4.281   2.379   0.779
 4543SOL    HW214529   4.360   2.243   0.826
 4544SOL     OW14530   4.216   4.582   0.974
 4544SOL    HW114531   4.131   4.530   0.958
 4544SOL    HW214532   4.198   4.655   1.039
 4545SOL     OW14533   0.367   3.425   5.399
 4545SOL    HW114534   0.336   3.520   5.391
 4545SOL    HW214535   0.289   3.367   5.422
 4546SOL     OW14536   3.039   6.869   5.386
 4546SOL    HW114537   3.115   6.927   5.418
 4546SOL    HW214538   3.014   6.895   5.293
 4547SOL     OW14539   6.335   0.644   0.107
 4547SOL    HW114540   6.344   0.698   0.023
 4547SOL    HW214541   6.292   0.701   0.177
 4548SOL     OW14542   2.598   1.989   3.450
 4548SOL    HW114543   2.578   1.947   3.539
 4548SOL    HW214544   2.652   2.072   3.464
 4549SOL     OW14545   5.282   4.257   2.156
 4549SOL    HW114546   5.286   4.177   2.215
 4549SOL    HW214547   5.227   4.236   2.075
 4550SOL     OW14548   1.094   4.544   3.616
 4550SOL    HW114549   1.008   4.495   3.623
 4550SOL    HW214550   1.107   4.575   3.521
 4551SOL     OW14551   0.830   3.655   5.461
 4551SOL    HW114552   0.793   3.586   5.524
 4551SOL    HW214553   0.760   3.725   5.446
 4552SOL     OW14554   5.950   2.188   1.546
 4552SOL    HW114555   5.858   2.220   1.567
 4552SOL    HW214556   5.962   2.184   1.447
 4553SOL     OW14557   5.166   4.222   6.950
 4553SOL    HW114558   5.197   4.317   6.948
 4553SOL    HW214559   5.067   4.219   6.960
 4554SOL     OW14560   0.231   0.097   1.499
 4554SOL    HW114561   0.322   0.062   1.474
 4554SOL    HW214562   0.202   0.056   1.585
 4555SOL     OW14563   1.237   1.281   6.640
 4555SOL    HW114564   1.228   1.279   6.540
 4555SOL    HW214565   1.309   1.345   6.666
 4556SOL     OW14566   6.117   3.135   5.467
 4556SOL    HW114567   6.050   3.088   5.410
 4556SOL    HW214568   6.117   3.095   5.559
 4557SOL     OW14569   6.139   4.847   4.681
 4557SOL    HW114570   6.087   4.880   4.603
 4557SOL    HW214571   6.189   4.924   4.722
 4558SOL     OW14572   6.707   3.230   5.017
 4558SOL    HW114573   6.802   3.261   5.014
 4558SOL    HW214574   6.688   3.189   5.105
 4559SOL     OW14575   0.713   3.602   2.569
 4559SOL    HW114576   0.677   3.683   2.616
 4559SOL    HW214577   0.637   3.540   2.550
 4560SOL     OW14578   6.414   4.590   2.228
 4560SOL    HW114579   6.461   4.662   2.176
 4560SOL    HW214580   6.364   4.531   2.165
 4561SOL     OW14581   3.650   1.692   3.721
 4561SOL    HW114582   3.571   1.735   3.678
 4561SOL    HW214583   3.730   1.752   3.712
 4562SOL     OW14584   1.893   6.565   0.315
 4562SOL    HW114585   1.927   6.512   0.238
 4562SOL    HW214586   1.894   6.662   0.291
 4563SOL     OW14587   6.648   3.511   1.085
 4563SOL    HW114588   6.656   3.502   1.185
 4563SOL    HW214589   6.693   3.434   1.041
 4564SOL     OW14590   6.915   4.505   2.332
 4564SOL    HW114591   6.944   4.491   2.426
 4564SOL    HW214592   6.987   4.554   2.281
 4565SOL     OW14593   1.380   1.653   4.703
 4565SOL    HW114594   1.296   1.602   4.684
 4565SOL    HW214595   1.433   1.664   4.619
 4566SOL     OW14596   0.453   3.450   0.951
 4566SOL    HW114597   0.495   3.409   1.032
 4566SOL    HW214598   0.524   3.484   0.890
 4567SOL     OW14599   0.063   0.530   0.048
 4567SOL    HW114600   0.080   0.624   0.077
 4567SOL    HW214601   0.028   0.530   6.980
 4568SOL     OW14602   0.930   4.567   4.941
 4568SOL    HW114603   0.982   4.527   4.865
 4568SOL    HW214604   0.865   4.499   4.976
 4569SOL     OW14605   2.793   0.343   2.537
 4569SOL    HW114606   2.819   0.267   2.597
 4569SOL    HW214607   2.855   0.345   2.458
 4570SOL     OW14608   6.381   6.335   2.244
 4570SOL    HW114609   6.307   6.363   2.183
 4570SOL    HW214610   6.366   6.241   2.273
 4571SOL     OW14611   4.152   3.464   6.825
 4571SOL    HW114612   4.122   3.472   6.920
 4571SOL    HW214613   4.230   3.402   6.820
 4572SOL     OW14614   1.963   1.810   6.446
 4572SOL    HW114615   1.964   1.757   6.360
 4572SOL    HW214616   1.993   1.751   6.521
 4573SOL     OW14617   0.810   0.088   0.558
 4573SOL    HW114618   0.839   0.011   0.615
 4573SOL    HW214619   0.820   0.063   0.462
 4574SOL     OW14620   5.935   4.123   6.780
 4574SOL    HW114621   5.950   4.105   6.877
 4574SOL    HW214622   5.904   4.217   6.768
 4575SOL     OW14623   5.904   0.869   4.647
 4575SOL    HW114624   5.840   0.886   4.572
 4575SOL    HW214625   5.853   0.856   4.732
 4576SOL     OW14626   2.477   4.598   5.357
 4576SOL    HW114627   2.569   4.560   5.342
 4576SOL    HW214628   2.465   4.678   5.299
 4577SOL     OW14629   1.469   2.530   3.105
 4577SOL    HW114630   1.377   2.561   3.127
 4577SOL    HW214631   1.532   2.608   3.104
 4578SOL     OW14632   0.806   1.063   3.839
 4578SOL    HW114633   0.824   1.145   3.893
 4578SOL    HW214634   0.723   1.075   3.785
 4579SOL     OW14635   5.002   1.467   1.405
 4579SOL    HW114636   4.936   1.499   1.336
 4579SOL    HW214637   5.091   1.507   1.387
 4580SOL     OW14638   5.587   4.416   0.976
 4580SOL    HW114639   5.639   4.365   1.045
 4580SOL    HW214640   5.490   4.400   0.989
 4581SOL     OW14641   2.576   6.243   2.232
 4581SOL    HW114642   2.492   6.200   2.198
 4581SOL    HW214643   2.648   6.236   2.163
 4582SOL     OW14644   4.585   1.109   3.075
 4582SOL    HW114645   4.524   1.123   3.153
 4582SOL    HW214646   4.586   1.191   3.018
 4583SOL     OW14647   2.175   1.215   6.204
 4583SOL    HW114648   2.134   1.136   6.249
 4583SOL    HW214649   2.272   1.221   6.230
 4584SOL     OW14650   1.781   6.258   5.727
 4584SOL    HW114651   1.735   6.218   5.806
 4584SOL    HW214652   1.799   6.187   5.659
 4585SOL     OW14653   1.551   4.110   3.374
 4585SOL    HW114654   1.549   4.142   3.469
 4585SOL    HW214655   1.554   4.010   3.372
 4586SOL     OW14656   5.446   3.935   0.670
 4586SOL    HW114657   5.470   3.924   0.767
 4586SOL    HW214658   5.486   4.019   0.635
 4587SOL     OW14659   3.694   3.280   4.279
 4587SOL    HW114660   3.700   3.188   4.319
 4587SOL    HW214661   3.640   3.275   4.194
 4588SOL     OW14662   3.419   3.427   6.002
 4588SOL    HW114663   3.337   3.372   6.018
 4588SOL    HW214664   3.496   3.390   6.054
 4589SOL     OW14665   5.701   6.570   1.811
 4589SOL    HW114666   5.782   6.602   1.761
 4589SOL    HW214667   5.717   6.477   1.845
 4590SOL     OW14668   3.561   6.224   1.607
 4590SOL    HW114669   3.649   6.187   1.638
 4590SOL    HW214670   3.564   6.237   1.508
 4591SOL     OW14671   1.769   0.915   4.414
 4591SOL    HW114672   1.807   1.004   4.441
 4591SOL    HW214673   1.702   0.885   4.482
 4592SOL     OW14674   2.771   1.912   3.688
 4592SOL    HW114675   2.802   1.932   3.781
 4592SOL    HW214676   2.672   1.895   3.688
 4593SOL     OW14677   6.341   5.867   2.553
 4593SOL    HW114678   6.435   5.840   2.574
 4593SOL    HW214679   6.285   5.861   2.636
 4594SOL     OW14680   3.408   0.259   3.000
 4594SOL    HW114681   3.486   0.198   2.987
 4594SOL    HW214682   3.377   0.253   3.095
 4595SOL     OW14683   4.606   2.874   6.048
 4595SOL    HW114684   4.627   2.940   6.120
 4595SOL    HW214685   4.535   2.812   6.079
 4596SOL     OW14686   6.819   0.718   2.221
 4596SOL    HW114687   6.748   0.667   2.271
 4596SOL    HW214688   6.903   0.663   2.218
 4597SOL     OW14689   2.914   5.611   6.749
 4597SOL    HW114690   2.814   5.610   6.744
 4597SOL    HW214691   2.945   5.701   6.780
 4598SOL     OW14692   2.228   5.791   1.277
 4598SOL    HW114693   2.287   5.791   1.196
 4598SOL    HW214694   2.195   5.699   1.295
 4599SOL     OW14695   1.630   3.976   2.112
 4599SOL    HW114696   1.541   3.931   2.103
 4599SOL    HW214697   1.641   4.008   2.206
 4600SOL     OW14698   0.481   0.206   5.856
 4600SOL    HW114699   0.399   0.260   5.835
 4600SOL    HW214700   0.531   0.187   5.772
 4601SOL     OW14701   0.726   1.742   5.396
 4601SOL    HW114702   0.708   1.834   5.432
 4601SOL    HW214703   0.753   1.682   5.471
 4602SOL     OW14704   2.994   0.032   6.264
 4602SOL    HW114705   3.073   0.020   6.324
 4602SOL    HW214706   2.926   0.088   6.310
 4603SOL     OW14707   3.600   6.014   0.831
 4603SOL    HW114708   3.634   5.954   0.759
 4603SOL    HW214709   3.512   5.979   0.865
 4604SOL     OW14710   5.114   6.827   6.034
 4604SOL    HW114711   5.115   6.925   6.012
 4604SOL    HW214712   5.207   6.793   6.041
 4605SOL     OW14713   2.218   0.439   1.919
 4605SOL    HW114714   2.211   0.341   1.934
 4605SOL    HW214715   2.185   0.461   1.827
 4606SOL     OW14716   6.835   0.089   2.394
 4606SOL    HW114717   6.903   0.160   2.377
 4606SOL    HW214718   6.784   0.070   2.310
 4607SOL     OW14719   2.135   3.679   3.241
 4607SOL    HW114720   2.045   3.720   3.255
 4607SOL    HW214721   2.201   3.722   3.302
 4608SOL     OW14722   0.520   3.886   3.622
 4608SOL    HW114723   0.513   3.845   3.530
 4608SOL    HW214724   0.429   3.893   3.662
 4609SOL     OW14725   4.910   5.097   0.049
 4609SOL    HW114726   4.952   5.176   0.093
 4609SOL    HW214727   4.882   5.122   6.982
 4610SOL     OW14728   4.730   2.177   6.698
 4610SOL    HW114729   4.655   2.122   6.661
 4610SOL    HW214730   4.817   2.129   6.685
 4611SOL     OW14731   0.380   0.954   5.806
 4611SOL    HW114732   0.357   0.974   5.901
 4611SOL    HW214733   0.382   0.855   5.793
 4612SOL     OW14734   2.341   6.579   1.863
 4612SOL    HW114735   2.248   6.607   1.886
 4612SOL    HW214736   2.388   6.654   1.816
 4613SOL     OW14737   1.509   5.532   2.210
 4613SOL    HW114738   1.557   5.603   2.262
 4613SOL    HW214739   1.552   5.521   2.120
 4614SOL     OW14740   6.134   3.208   3.772
 4614SOL    HW114741   6.196   3.258   3.711
 4614SOL    HW214742   6.052   3.181   3.723
 4615SOL     OW14743   1.350   0.712   1.589
 4615SOL    HW114744   1.261   0.671   1.572
 4615SOL    HW214745   1.410   0.646   1.634
 4616SOL     OW14746   6.138   2.872   3.994
 4616SOL    HW114747   6.211   2.876   4.063
 4616SOL    HW214748   6.120   2.776   3.970
 4617SOL     OW14749   1.452   2.125   2.148
 4617SOL    HW114750   1.528   2.153   2.207
 4617SOL    HW214751   1.374   2.186   2.161
 4618SOL     OW14752   2.785   3.279   5.437
 4618SOL    HW114753   2.700   3.250   5.393
 4618SOL    HW214754   2.767   3.358   5.495
 4619SOL     OW14755   3.714   6.593   3.905
 4619SOL    HW114756   3.691   6.631   3.815
 4619SOL    HW214757   3.721   6.494   3.899
 4620SOL     OW14758   0.501   5.179   1.240
 4620SOL    HW114759   0.562   5.253   1.269
 4620SOL    HW214760   0.552   5.112   1.187
 4621SOL     OW14761   5.336   0.311   2.365
 4621SOL    HW114762   5.305   0.354   2.280
 4621SOL    HW214763   5.280   0.231   2.385
 4622SOL     OW14764   4.385   4.854   1.416
 4622SOL    HW114765   4.337   4.850   1.328
 4622SOL    HW214766   4.443   4.774   1.426
 4623SOL     OW14767   3.752   5.822   0.704
 4623SOL    HW114768   3.747   5.746   0.638
 4623SOL    HW214769   3.847   5.846   0.720
 4624SOL     OW14770   3.392   1.183   3.201
 4624SOL    HW114771   3.346   1.210   3.117
 4624SOL    HW214772   3.350   1.230   3.279
 4625SOL     OW14773   2.273   6.128   1.662
 4625SOL    HW114774   2.321   6.158   1.745
 4625SOL    HW214775   2.332   6.143   1.583
 4626SOL     OW14776   4.206   3.744   1.440
 4626SOL    HW114777   4.258   3.769   1.358
 4626SOL    HW214778   4.270   3.721   1.514
 4627SOL     OW14779   0.400   6.190   5.096
 4627SOL    HW114780   0.313   6.159   5.136
 4627SOL    HW214781   0.456   6.110   5.075
 4628SOL     OW14782   4.838   4.628   4.222
 4628SOL    HW114783   4.757   4.639   4.165
 4628SOL    HW214784   4.890   4.549   4.190
 4629SOL     OW14785   2.588   5.030   6.459
 4629SOL    HW114786   2.628   5.038   6.367
 4629SOL    HW214787   2.655   4.990   6.521
 4630SOL     OW14788   2.340   5.286   2.390
 4630SOL    HW114789   2.413   5.261   2.326
 4630SOL    HW214790   2.375   5.282   2.484
 4631SOL     OW14791   0.854   6.898   3.584
 4631SOL    HW114792   0.885   6.840   3.659
 4631SOL    HW214793   0.844   6.843   3.501
 4632SOL     OW14794   2.367   5.291   2.675
 4632SOL    HW114795   2.434   5.342   2.730
 4632SOL    HW214796   2.374   5.194   2.696
 4633SOL     OW14797   5.092   1.418   4.293
 4633SOL    HW114798   5.014   1.478   4.277
 4633SOL    HW214799   5.069   1.325   4.265
 4634SOL     OW14800   2.996   3.804   4.872
 4634SOL    HW114801   2.923   3.827   4.936
 4634SOL    HW214802   3.037   3.717   4.897
 4635SOL     OW14803   4.359   4.270   1.397
 4635SOL    HW114804   4.367   4.227   1.487
 4635SOL    HW214805   4.444   4.256   1.346
 4636SOL     OW14806   1.984   5.058   1.020
 4636SOL    HW114807   1.894   5.029   1.052
 4636SOL    HW214808   2.033   4.979   0.981
 4637SOL     OW14809   0.807   6.735   0.336
 4637SOL    HW114810   0.822   6.697   0.245
 4637SOL    HW214811   0.825   6.833   0.336
 4638SOL     OW14812   3.582   5.256   6.832
 4638SOL    HW114813   3.526   5.213   6.762
 4638SOL    HW214814   3.676   5.222   6.824
 4639SOL     OW14815   2.545   2.720   6.505
 4639SOL    HW114816   2.622   2.668   6.542
 4639SOL    HW214817   2.542   2.810   6.548
 4640SOL     OW14818   6.358   2.953   4.154
 4640SOL    HW114819   6.452   2.946   4.121
 4640SOL    HW214820   6.358   2.950   4.254
 4641SOL     OW14821   1.982   6.920   3.686
 4641SOL    HW114822   1.953   6.886   3.596
 4641SOL    HW214823   1.903   6.957   3.735
 4642SOL     OW14824   1.687   0.623   3.368
 4642SOL    HW114825   1.781   0.588   3.375
 4642SOL    HW214826   1.688   0.720   3.345
 4643SOL     OW14827   6.654   2.401   0.634
 4643SOL    HW114828   6.591   2.479   0.634
 4643SOL    HW214829   6.635   2.343   0.713
 4644SOL     OW14830   6.540   0.877   5.978
 4644SOL    HW114831   6.480   0.926   6.041
 4644SOL    HW214832   6.635   0.904   5.995
 4645SOL     OW14833   1.415   0.836   4.359
 4645SOL    HW114834   1.339   0.900   4.342
 4645SOL    HW214835   1.483   0.846   4.287
 4646SOL     OW14836   2.793   5.160   4.234
 4646SOL    HW114837   2.795   5.127   4.328
 4646SOL    HW214838   2.710   5.127   4.188
 4647SOL     OW14839   1.148   0.724   3.353
 4647SOL    HW114840   1.086   0.661   3.308
 4647SOL    HW214841   1.228   0.741   3.295
 4648SOL     OW14842   2.571   0.676   4.325
 4648SOL    HW114843   2.572   0.767   4.366
 4648SOL    HW214844   2.633   0.675   4.246
 4649SOL     OW14845   5.564   0.728   1.076
 4649SOL    HW114846   5.613   0.706   0.992
 4649SOL    HW214847   5.605   0.809   1.119
 4650SOL     OW14848   4.538   6.121   1.599
 4650SOL    HW114849   4.459   6.160   1.645
 4650SOL    HW214850   4.582   6.191   1.542
 4651SOL     OW14851   6.001   3.677   6.791
 4651SOL    HW114852   6.057   3.722   6.722
 4651SOL    HW214853   5.908   3.664   6.756
 4652SOL     OW14854   6.190   6.301   4.757
 4652SOL    HW114855   6.285   6.335   4.760
 4652SOL    HW214856   6.139   6.339   4.834
 4653SOL     OW14857   5.112   5.295   0.231
 4653SOL    HW114858   5.162   5.210   0.216
 4653SOL    HW214859   5.105   5.345   0.145
 4654SOL     OW14860   6.870   6.756   5.854
 4654SOL    HW114861   6.770   6.743   5.855
 4654SOL    HW214862   6.893   6.822   5.782
 4655SOL     OW14863   4.724   3.849   1.738
 4655SOL    HW114864   4.756   3.852   1.644
 4655SOL    HW214865   4.781   3.786   1.791
 4656SOL     OW14866   1.010   0.383   1.401
 4656SOL    HW114867   1.037   0.339   1.486
 4656SOL    HW214868   0.971   0.473   1.421
 4657SOL     OW14869   5.501   6.116   2.067
 4657SOL    HW114870   5.589   6.162   2.055
 4657SOL    HW214871   5.453   6.155   2.146
 4658SOL     OW14872   2.761   2.780   5.453
 4658SOL    HW114873   2.787   2.827   5.537
 4658SOL    HW214874   2.828   2.708   5.433
 4659SOL     OW14875   3.381   4.292   1.064
 4659SOL    HW114876   3.331   4.220   1.111
 4659SOL    HW214877   3.318   4.345   1.007
 4660SOL     OW14878   1.612   6.759   3.944
 4660SOL    HW114879   1.556   6.808   4.011
 4660SOL    HW214880   1.564   6.755   3.857
 4661SOL     OW14881   2.850   4.689   5.967
 4661SOL    HW114882   2.778   4.731   6.022
 4661SOL    HW214883   2.831   4.705   5.870
 4662SOL     OW14884   3.017   0.313   4.740
 4662SOL    HW114885   2.973   0.374   4.675
 4662SOL    HW214886   3.032   0.223   4.698
 4663SOL     OW14887   0.236   6.956   0.573
 4663SOL    HW114888   0.332   6.962   0.545
 4663SOL    HW214889   0.187   0.011   0.541
 4664SOL     OW14890   6.839   0.670   0.591
 4664SOL    HW114891   6.867   0.634   0.680
 4664SOL    HW214892   6.884   0.618   0.518
 4665SOL     OW14893   2.618   0.467   6.201
 4665SOL    HW114894   2.702   0.415   6.214
 4665SOL    HW214895   2.558   0.419   6.136
 4666SOL     OW14896   2.349   2.480   6.761
 4666SOL    HW114897   2.375   2.569   6.799
 4666SOL    HW214898   2.343   2.413   6.834
 4667SOL     OW14899   6.821   4.136   2.049
 4667SOL    HW114900   6.801   4.230   2.075
 4667SOL    HW214901   6.786   4.074   2.120
 4668SOL     OW14902   4.424   1.879   4.904
 4668SOL    HW114903   4.464   1.912   4.989
 4668SOL    HW214904   4.325   1.898   4.904
 4669SOL     OW14905   5.585   0.011   6.892
 4669SOL    HW114906   5.612   6.954   6.845
 4669SOL    HW214907   5.651   0.032   6.964
 4670SOL     OW14908   1.472   3.396   6.987
 4670SOL    HW114909   1.461   3.325   0.032
 4670SOL    HW214910   1.389   3.452   6.984
 4671SOL     OW14911   0.983   3.127   0.684
 4671SOL    HW114912   0.893   3.087   0.667
 4671SOL    HW214913   1.030   3.140   0.597
 4672SOL     OW14914   4.171   4.553   5.976
 4672SOL    HW114915   4.175   4.624   5.906
 4672SOL    HW214916   4.125   4.589   6.057
 4673SOL     OW14917   5.132   0.038   0.216
 4673SOL    HW114918   5.187   7.018   0.146
 4673SOL    HW214919   5.043   0.064   0.177
 4674SOL     OW14920   5.715   1.808   0.198
 4674SOL    HW114921   5.777   1.886   0.198
 4674SOL    HW214922   5.665   1.806   0.285
 4675SOL     OW14923   3.871   6.974   6.899
 4675SOL    HW114924   3.806   6.989   6.974
 4675SOL    HW214925   3.822   6.950   6.816
 4676SOL     OW14926   0.563   6.669   4.481
 4676SOL    HW114927   0.564   6.579   4.524
 4676SOL    HW214928   0.563   6.659   4.382
 4677SOL     OW14929   3.182   0.532   0.235
 4677SOL    HW114930   3.241   0.452   0.221
 4677SOL    HW214931   3.103   0.506   0.290
 4678SOL     OW14932   2.083   5.239   2.283
 4678SOL    HW114933   2.170   5.236   2.332
 4678SOL    HW214934   2.096   5.203   2.191
 4679SOL     OW14935   3.896   1.653   6.022
 4679SOL    HW114936   3.807   1.619   5.992
 4679SOL    HW214937   3.926   1.602   6.102
 4680SOL     OW14938   2.399   6.472   1.575
 4680SOL    HW114939   2.331   6.520   1.630
 4680SOL    HW214940   2.483   6.461   1.629
 4681SOL     OW14941   6.338   6.529   4.165
 4681SOL    HW114942   6.250   6.571   4.145
 4681SOL    HW214943   6.334   6.483   4.254
 4682SOL     OW14944   4.313   5.428   7.016
 4682SOL    HW114945   4.258   5.442   6.933
 4682SOL    HW214946   4.269   5.360   0.048
 4683SOL     OW14947   5.280   4.377   2.459
 4683SOL    HW114948   5.200   4.378   2.519
 4683SOL    HW214949   5.339   4.299   2.482
 4684SOL     OW14950   0.450   2.421   4.597
 4684SOL    HW114951   0.509   2.435   4.677
 4684SOL    HW214952   0.367   2.477   4.607
 4685SOL     OW14953   6.647   5.313   4.393
 4685SOL    HW114954   6.648   5.390   4.329
 4685SOL    HW214955   6.728   5.257   4.379
 4686SOL     OW14956   5.204   5.713   0.346
 4686SOL    HW114957   5.274   5.769   0.301
 4686SOL    HW214958   5.244   5.625   0.374
 4687SOL     OW14959   6.348   4.113   5.210
 4687SOL    HW114960   6.366   4.084   5.116
 4687SOL    HW214961   6.384   4.046   5.274
 4688SOL     OW14962   0.099   3.077   6.489
 4688SOL    HW114963   0.089   3.091   6.587
 4688SOL    HW214964   0.151   2.993   6.471
 4689SOL     OW14965   5.928   0.398   6.235
 4689SOL    HW114966   5.848   0.402   6.294
 4689SOL    HW214967   5.967   0.490   6.224
 4690SOL     OW14968   0.907   0.877   6.801
 4690SOL    HW114969   0.906   0.854   6.898
 4690SOL    HW214970   0.956   0.963   6.788
 4691SOL     OW14971   2.767   3.889   1.634
 4691SOL    HW114972   2.691   3.831   1.661
 4691SOL    HW214973   2.735   3.983   1.623
 4692SOL     OW14974   6.882   5.292   2.940
 4692SOL    HW114975   6.909   5.231   3.015
 4692SOL    HW214976   6.822   5.243   2.877
 4693SOL     OW14977   0.581   1.000   4.605
 4693SOL    HW114978   0.665   0.958   4.640
 4693SOL    HW214979   0.569   1.090   4.646
 4694SOL     OW14980   3.178   0.800   0.293
 4694SOL    HW114981   3.089   0.842   0.308
 4694SOL    HW214982   3.166   0.706   0.263
 4695SOL     OW14983   3.287   3.176   2.010
 4695SOL    HW114984   3.269   3.272   2.032
 4695SOL    HW214985   3.308   3.167   1.913
 4696SOL     OW14986   1.091   4.692   6.113
 4696SOL    HW114987   1.027   4.751   6.064
 4696SOL    HW214988   1.135   4.744   6.186
 4697SOL     OW14989   1.789   3.561   0.779
 4697SOL    HW114990   1.692   3.540   0.768
 4697SOL    HW214991   1.843   3.504   0.717
 4698SOL     OW14992   4.676   4.549   2.625
 4698SOL    HW114993   4.645   4.495   2.703
 4698SOL    HW214994   4.651   4.501   2.540
 4699SOL     OW14995   0.717   0.269   2.487
 4699SOL    HW114996   0.767   0.241   2.569
 4699SOL    HW214997   0.619   0.264   2.506
 4700SOL     OW14998   5.572   1.573   1.718
 4700SOL    HW114999   5.654   1.522   1.692
 4700SOL    HW215000   5.598   1.660   1.758
 4701SOL     OW15001   1.373   1.512   6.986
 4701SOL    HW115002   1.331   1.593   0.001
 4701SOL    HW215003   1.366   1.516   6.887
 4702SOL     OW15004   4.123   4.367   6.557
 4702SOL    HW115005   4.149   4.281   6.600
 4702SOL    HW215006   4.203   4.407   6.513
 4703SOL     OW15007   0.609   2.056   2.546
 4703SOL    HW115008   0.621   2.010   2.634
 4703SOL    HW215009   0.649   2.148   2.551
 4704SOL     OW15010   6.905   6.109   1.089
 4704SOL    HW115011   6.856   6.085   1.006
 4704SOL    HW215012   7.002   6.083   1.079
 4705SOL     OW15013   3.316   2.899   3.004
 4705SOL    HW115014   3.267   2.829   2.952
 4705SOL    HW215015   3.368   2.957   2.941
 4706SOL     OW15016   4.220   5.903   6.316
 4706SOL    HW115017   4.282   5.981   6.323
 4706SOL    HW215018   4.189   5.893   6.221
 4707SOL     OW15019   2.386   5.830   1.026
 4707SOL    HW115020   2.316   5.893   0.994
 4707SOL    HW215021   2.476   5.862   0.997
 4708SOL     OW15022   2.477   2.859   0.712
 4708SOL    HW115023   2.456   2.855   0.810
 4708SOL    HW215024   2.398   2.828   0.660
 4709SOL     OW15025   4.003   5.310   5.297
 4709SOL    HW115026   4.014   5.410   5.300
 4709SOL    HW215027   3.967   5.278   5.384
 4710SOL     OW15028   4.384   1.155   6.336
 4710SOL    HW115029   4.423   1.200   6.255
 4710SOL    HW215030   4.392   1.217   6.415
 4711SOL     OW15031   4.565   0.644   2.617
 4711SOL    HW115032   4.608   0.729   2.648
 4711SOL    HW215033   4.573   0.575   2.689
 4712SOL     OW15034   2.397   4.691   0.836
 4712SOL    HW115035   2.430   4.598   0.824
 4712SOL    HW215036   2.421   4.746   0.755
 4713SOL     OW15037   2.831   4.544   0.857
 4713SOL    HW115038   2.870   4.480   0.792
 4713SOL    HW215039   2.842   4.509   0.950
 4714SOL     OW15040   2.275   2.069   0.111
 4714SOL    HW115041   2.232   2.024   0.189
 4714SOL    HW215042   2.295   2.001   0.040
 4715SOL     OW15043   6.560   3.884   2.178
 4715SOL    HW115044   6.535   3.802   2.230
 4715SOL    HW215045   6.567   3.962   2.239
 4716SOL     OW15046   3.678   5.053   6.288
 4716SOL    HW115047   3.636   5.002   6.363
 4716SOL    HW215048   3.742   4.994   6.239
 4717SOL     OW15049   1.265   5.765   2.399
 4717SOL    HW115050   1.227   5.778   2.307
 4717SOL    HW215051   1.361   5.739   2.391
 4718SOL     OW15052   5.547   1.570   6.823
 4718SOL    HW115053   5.644   1.594   6.815
 4718SOL    HW215054   5.498   1.643   6.870
 4719SOL     OW15055   4.921   3.101   2.664
 4719SOL    HW115056   4.948   3.185   2.712
 4719SOL    HW215057   4.880   3.038   2.730
 4720SOL     OW15058   2.574   6.598   5.609
 4720SOL    HW115059   2.568   6.612   5.510
 4720SOL    HW215060   2.571   6.687   5.655
 4721SOL     OW15061   0.215   2.325   2.061
 4721SOL    HW115062   0.210   2.356   1.966
 4721SOL    HW215063   0.310   2.304   2.085
 4722SOL     OW15064   1.761   5.961   6.669
 4722SOL    HW115065   1.733   5.870   6.639
 4722SOL    HW215066   1.766   5.962   6.769
 4723SOL     OW15067   1.644   5.789   6.025
 4723SOL    HW115068   1.673   5.805   5.930
 4723SOL    HW215069   1.722   5.756   6.078
 4724SOL     OW15070   4.345   6.586   2.569
 4724SOL    HW115071   4.443   6.565   2.563
 4724SOL    HW215072   4.311   6.612   2.478
 4725SOL     OW15073   5.273   6.643   3.068
 4725SOL    HW115074   5.290   6.590   3.151
 4725SOL    HW215075   5.352   6.703   3.051
 4726SOL     OW15076   1.094   3.314   6.446
 4726SOL    HW115077   1.138   3.235   6.489
 4726SOL    HW215078   1.154   3.352   6.376
 4727SOL     OW15079   0.134   5.853   6.651
 4727SOL    HW115080   0.121   5.847   6.750
 4727SOL    HW215081   0.223   5.814   6.626
 4728SOL     OW15082   5.054   1.223   0.712
 4728SOL    HW115083   5.110   1.303   0.732
 4728SOL    HW215084   5.017   1.186   0.797
 4729SOL     OW15085   2.252   1.124   2.939
 4729SOL    HW115086   2.302   1.209   2.920
 4729SOL    HW215087   2.290   1.082   3.021
 4730SOL     OW15088   2.324   6.050   5.532
 4730SOL    HW115089   2.256   6.026   5.601
 4730SOL    HW215090   2.301   6.139   5.492
 4731SOL     OW15091   5.427   0.614   5.651
 4731SOL    HW115092   5.378   0.579   5.571
 4731SOL    HW215093   5.521   0.634   5.626
 4732SOL     OW15094   6.820   3.129   6.644
 4732SOL    HW115095   6.832   3.042   6.596
 4732SOL    HW215096   6.762   3.116   6.724
 4733SOL     OW15097   1.189   3.978   3.297
 4733SOL    HW115098   1.217   3.889   3.262
 4733SOL    HW215099   1.208   4.048   3.229
 4734SOL     OW15100   5.450   2.781   6.972
 4734SOL    HW115101   5.549   2.793   6.978
 4734SOL    HW215102   5.422   2.780   6.876
 4735SOL     OW15103   1.176   4.807   3.391
 4735SOL    HW115104   1.176   4.727   3.331
 4735SOL    HW215105   1.082   4.828   3.418
 4736SOL     OW15106   0.187   1.422   6.667
 4736SOL    HW115107   0.186   1.371   6.753
 4736SOL    HW215108   0.244   1.504   6.678
 4737SOL     OW15109   2.507   4.880   2.504
 4737SOL    HW115110   2.480   4.845   2.594
 4737SOL    HW215111   2.426   4.915   2.457
 4738SOL     OW15112   0.251   6.105   2.210
 4738SOL    HW115113   0.178   6.080   2.145
 4738SOL    HW215114   0.211   6.116   2.301
 4739SOL     OW15115   4.524   0.215   2.139
 4739SOL    HW115116   4.489   0.122   2.131
 4739SOL    HW215117   4.565   0.228   2.229
 4740SOL     OW15118   0.426   1.515   2.425
 4740SOL    HW115119   0.489   1.440   2.407
 4740SOL    HW215120   0.469   1.602   2.399
 4741SOL     OW15121   3.615   2.522   1.039
 4741SOL    HW115122   3.683   2.532   1.112
 4741SOL    HW215123   3.589   2.426   1.032
 4742SOL     OW15124   1.905   6.846   6.824
 4742SOL    HW115125   1.837   6.889   6.765
 4742SOL    HW215126   1.979   6.910   6.842
 4743SOL     OW15127   2.037   3.517   2.951
 4743SOL    HW115128   1.955   3.534   2.897
 4743SOL    HW215129   2.085   3.604   2.967
 4744SOL     OW15130   1.940   5.409   0.724
 4744SOL    HW115131   2.005   5.349   0.772
 4744SOL    HW215132   1.990   5.475   0.669
 4745SOL     OW15133   2.705   3.806   0.156
 4745SOL    HW115134   2.709   3.835   0.060
 4745SOL    HW215135   2.798   3.805   0.194
 4746SOL     OW15136   3.925   5.689   3.876
 4746SOL    HW115137   3.966   5.735   3.955
 4746SOL    HW215138   3.979   5.607   3.855
 4747SOL     OW15139   1.296   2.983   0.594
 4747SOL    HW115140   1.314   2.888   0.621
 4747SOL    HW215141   1.269   3.036   0.675
 4748SOL     OW15142   1.741   6.727   1.786
 4748SOL    HW115143   1.684   6.756   1.863
 4748SOL    HW215144   1.783   6.638   1.808
 4749SOL     OW15145   2.287   6.902   6.840
 4749SOL    HW115146   2.300   6.935   6.747
 4749SOL    HW215147   2.345   6.823   6.856
 4750SOL     OW15148   6.491   3.975   5.402
 4750SOL    HW115149   6.578   4.022   5.418
 4750SOL    HW215150   6.508   3.877   5.389
 4751SOL     OW15151   5.077   2.053   2.894
 4751SOL    HW115152   5.021   2.136   2.893
 4751SOL    HW215153   5.098   2.029   2.989
 4752SOL     OW15154   4.327   1.346   0.760
 4752SOL    HW115155   4.320   1.342   0.860
 4752SOL    HW215156   4.359   1.436   0.733
 4753SOL     OW15157   1.186   6.602   4.538
 4753SOL    HW115158   1.269   6.655   4.556
 4753SOL    HW215159   1.210   6.522   4.482
 4754SOL     OW15160   4.579   3.958   5.991
 4754SOL    HW115161   4.530   3.873   5.977
 4754SOL    HW215162   4.677   3.941   5.988
 4755SOL     OW15163   1.992   0.908   0.942
 4755SOL    HW115164   2.037   0.973   0.881
 4755SOL    HW215165   1.999   0.940   1.036
 4756SOL     OW15166   6.870   4.248   6.721
 4756SOL    HW115167   6.909   4.289   6.803
 4756SOL    HW215168   6.916   4.285   6.640
 4757SOL     OW15169   1.421   2.725   1.715
 4757SOL    HW115170   1.460   2.665   1.645
 4757SOL    HW215171   1.349   2.781   1.674
 4758SOL     OW15172   1.237   6.958   3.556
 4758SOL    HW115173   1.233   0.032   3.551
 4758SOL    HW215174   1.202   6.927   3.644
 4759SOL     OW15175   0.665   5.521   0.134
 4759SOL    HW115176   0.729   5.488   0.065
 4759SOL    HW215177   0.713   5.579   0.199
 4760SOL     OW15178   1.277   6.888   0.793
 4760SOL    HW115179   1.205   6.894   0.723
 4760SOL    HW215180   1.365   6.869   0.749
 4761SOL     OW15181   6.911   0.258   0.749
 4761SOL    HW115182   6.848   0.236   0.675
 4761SOL    HW215183   6.898   0.353   0.778
 4762SOL     OW15184   1.787   5.373   1.764
 4762SOL    HW115185   1.858   5.379   1.834
 4762SOL    HW215186   1.758   5.465   1.738
 4763SOL     OW15187   4.698   6.050   2.333
 4763SOL    HW115188   4.601   6.045   2.359
 4763SOL    HW215189   4.708   6.112   2.255
 4764SOL     OW15190   4.862   3.692   5.363
 4764SOL    HW115191   4.871   3.782   5.407
 4764SOL    HW215192   4.789   3.696   5.295
 4765SOL     OW15193   3.500   1.033   5.734
 4765SOL    HW115194   3.503   0.943   5.690
 4765SOL    HW215195   3.593   1.066   5.749
 4766SOL     OW15196   6.074   0.123   4.454
 4766SOL    HW115197   6.109   0.057   4.387
 4766SOL    HW215198   5.992   0.167   4.418
 4767SOL     OW15199   2.179   5.689   5.188
 4767SOL    HW115200   2.233   5.729   5.262
 4767SOL    HW215201   2.239   5.670   5.110
 4768SOL     OW15202   4.423   3.193   6.646
 4768SOL    HW115203   4.429   3.216   6.549
 4768SOL    HW215204   4.428   3.277   6.701
 4769SOL     OW15205   2.847   6.073   0.904
 4769SOL    HW115206   2.943   6.099   0.898
 4769SOL    HW215207   2.791   6.156   0.917
 4770SOL     OW15208   6.714   2.122   5.428
 4770SOL    HW115209   6.787   2.185   5.452
 4770SOL    HW215210   6.740   2.070   5.347
 4771SOL     OW15211   2.240   6.915   5.141
 4771SOL    HW115212   2.158   6.954   5.100
 4771SOL    HW215213   2.214   6.838   5.200
 4772SOL     OW15214   2.964   4.701   0.496
 4772SOL    HW115215   3.021   4.762   0.552
 4772SOL    HW215216   2.977   4.606   0.526
 4773SOL     OW15217   1.300   5.842   4.199
 4773SOL    HW115218   1.352   5.790   4.267
 4773SOL    HW215219   1.358   5.857   4.118
 4774SOL     OW15220   1.750   4.406   0.395
 4774SOL    HW115221   1.663   4.363   0.369
 4774SOL    HW215222   1.797   4.439   0.313
 4775SOL     OW15223   5.140   6.852   4.833
 4775SOL    HW115224   5.223   6.840   4.779
 4775SOL    HW215225   5.105   6.763   4.862
 4776SOL     OW15226   1.462   0.992   5.055
 4776SOL    HW115227   1.470   0.895   5.076
 4776SOL    HW215228   1.542   1.021   5.001
 4777SOL     OW15229   1.554   5.881   0.398
 4777SOL    HW115230   1.596   5.792   0.386
 4777SOL    HW215231   1.597   5.930   0.474
 4778SOL     OW15232   0.797   2.656   4.787
 4778SOL    HW115233   0.780   2.754   4.785
 4778SOL    HW215234   0.856   2.631   4.711
 4779SOL     OW15235   6.213   0.563   4.124
 4779SOL    HW115236   6.181   0.495   4.058
 4779SOL    HW215237   6.143   0.634   4.133
 4780SOL     OW15238   5.773   2.579   5.860
 4780SOL    HW115239   5.748   2.507   5.795
 4780SOL    HW215240   5.832   2.646   5.816
 4781SOL     OW15241   2.530   5.933   2.245
 4781SOL    HW115242   2.543   5.972   2.337
 4781SOL    HW215243   2.443   5.884   2.242
 4782SOL     OW15244   6.016   5.403   5.595
 4782SOL    HW115245   6.115   5.404   5.610
 4782SOL    HW215246   5.975   5.483   5.638
 4783SOL     OW15247   5.864   3.989   0.339
 4783SOL    HW115248   5.919   3.967   0.258
 4783SOL    HW215249   5.853   4.089   0.345
 4784SOL     OW15250   6.115   2.324   6.241
 4784SOL    HW115251   6.070   2.359   6.158
 4784SOL    HW215252   6.063   2.247   6.276
 4785SOL     OW15253   0.354   6.298   3.343
 4785SOL    HW115254   0.266   6.302   3.392
 4785SOL    HW215255   0.415   6.369   3.379
 4786SOL     OW15256   2.821   0.385   1.026
 4786SOL    HW115257   2.813   0.287   1.044
 4786SOL    HW215258   2.880   0.399   0.946
 4787SOL     OW15259   4.726   2.378   4.409
 4787SOL    HW115260   4.643   2.409   4.455
 4787SOL    HW215261   4.720   2.279   4.393
 4788SOL     OW15262   6.000   5.765   6.843
 4788SOL    HW115263   6.013   5.678   6.795
 4788SOL    HW215264   5.975   5.836   6.778
 4789SOL     OW15265   5.026   1.970   2.095
 4789SOL    HW115266   4.963   2.048   2.098
 4789SOL    HW215267   5.069   1.959   2.184
 4790SOL     OW15268   5.510   1.761   5.602
 4790SOL    HW115269   5.593   1.706   5.609
 4790SOL    HW215270   5.495   1.811   5.687
 4791SOL     OW15271   0.282   2.792   0.599
 4791SOL    HW115272   0.371   2.801   0.642
 4791SOL    HW215273   0.294   2.786   0.499
 4792SOL     OW15274   1.567   5.134   4.656
 4792SOL    HW115275   1.559   5.040   4.624
 4792SOL    HW215276   1.637   5.139   4.727
 4793SOL     OW15277   1.130   3.809   6.042
 4793SOL    HW115278   1.072   3.882   6.077
 4793SOL    HW215279   1.213   3.803   6.098
 4794SOL     OW15280   4.683   0.403   3.895
 4794SOL    HW115281   4.732   0.453   3.967
 4794SOL    HW215282   4.627   0.467   3.842
 4795SOL     OW15283   0.013   1.669   4.319
 4795SOL    HW115284   0.065   1.592   4.281
 4795SOL    HW215285   6.942   1.657   4.299
 4796SOL     OW15286   3.802   1.052   5.862
 4796SOL    HW115287   3.783   1.073   5.766
 4796SOL    HW215288   3.789   0.954   5.878
 4797SOL     OW15289   0.126   5.867   4.640
 4797SOL    HW115290   0.167   5.954   4.613
 4797SOL    HW215291   0.198   5.804   4.669
 4798SOL     OW15292   5.507   4.881   6.189
 4798SOL    HW115293   5.511   4.861   6.091
 4798SOL    HW215294   5.577   4.827   6.237
 4799SOL     OW15295   3.443   1.709   6.725
 4799SOL    HW115296   3.403   1.772   6.792
 4799SOL    HW215297   3.376   1.689   6.654
 4800SOL     OW15298   1.891   4.568   0.178
 4800SOL    HW115299   1.964   4.563   0.246
 4800SOL    HW215300   1.860   4.662   0.169
 4801SOL     OW15301   4.570   2.489   0.883
 4801SOL    HW115302   4.559   2.589   0.876
 4801SOL    HW215303   4.501   2.445   0.826
 4802SOL     OW15304   6.907   6.385   2.146
 4802SOL    HW115305   6.902   6.468   2.201
 4802SOL    HW215306   6.993   6.384   2.094
 4803SOL     OW15307   5.788   5.009   0.583
 4803SOL    HW115308   5.845   5.090   0.589
 4803SOL    HW215309   5.736   4.998   0.668
 4804SOL     OW15310   5.284   1.634   0.248
 4804SOL    HW115311   5.207   1.628   0.185
 4804SOL    HW215312   5.357   1.571   0.219
 4805SOL     OW15313   6.360   1.789   1.964
 4805SOL    HW115314   6.411   1.828   2.040
 4805SOL    HW215315   6.262   1.791   1.985
 4806SOL     OW15316   1.233   3.718   3.220
 4806SOL    HW115317   1.284   3.645   3.175
 4806SOL    HW215318   1.135   3.705   3.206
 4807SOL     OW15319   1.457   3.527   6.463
 4807SOL    HW115320   1.476   3.446   6.517
 4807SOL    HW215321   1.419   3.500   6.374
 4808SOL     OW15322   4.125   5.982   0.813
 4808SOL    HW115323   4.058   6.053   0.836
 4808SOL    HW215324   4.116   5.959   0.716
 4809SOL     OW15325   3.769   4.684   1.465
 4809SOL    HW115326   3.862   4.714   1.443
 4809SOL    HW215327   3.704   4.732   1.407
 4810SOL     OW15328   0.776   3.989   4.582
 4810SOL    HW115329   0.869   3.984   4.545
 4810SOL    HW215330   0.715   4.032   4.516
 4811SOL     OW15331   3.963   3.860   3.993
 4811SOL    HW115332   3.926   3.770   3.970
 4811SOL    HW215333   4.021   3.893   3.919
 4812SOL     OW15334   0.954   0.005   1.717
 4812SOL    HW115335   0.862   7.017   1.680
 4812SOL    HW215336   0.948   0.040   1.810
 4813SOL     OW15337   5.714   1.791   6.966
 4813SOL    HW115338   5.683   1.807   0.034
 4813SOL    HW215339   5.765   1.706   6.961
 4814SOL     OW15340   0.056   3.778   2.610
 4814SOL    HW115341   0.152   3.803   2.622
 4814SOL    HW215342   0.029   3.715   2.683
 4815SOL     OW15343   4.970   5.109   2.930
 4815SOL    HW115344   4.967   5.199   2.975
 4815SOL    HW215345   4.944   5.119   2.834
 4816SOL     OW15346   1.763   0.261   1.292
 4816SOL    HW115347   1.670   0.294   1.276
 4816SOL    HW215348   1.785   0.268   1.389
 4817SOL     OW15349   3.892   0.651   1.696
 4817SOL    HW115350   3.880   0.735   1.749
 4817SOL    HW215351   3.891   0.672   1.598
 4818SOL     OW15352   2.235   0.246   4.299
 4818SOL    HW115353   2.230   0.214   4.205
 4818SOL    HW215354   2.323   0.290   4.315
 4819SOL     OW15355   3.053   2.090   0.976
 4819SOL    HW115356   3.033   2.187   0.966
 4819SOL    HW215357   3.139   2.069   0.929
 4820SOL     OW15358   6.798   3.290   0.994
 4820SOL    HW115359   6.896   3.287   0.977
 4820SOL    HW215360   6.751   3.233   0.926
 4821SOL     OW15361   6.383   5.489   1.708
 4821SOL    HW115362   6.390   5.489   1.808
 4821SOL    HW215363   6.296   5.450   1.680
 4822SOL     OW15364   1.700   3.241   3.798
 4822SOL    HW115365   1.792   3.238   3.838
 4822SOL    HW215366   1.708   3.255   3.699
 4823SOL     OW15367   0.376   0.078   3.799
 4823SOL    HW115368   0.350   0.155   3.858
 4823SOL    HW215369   0.315   0.001   3.816
 4824SOL     OW15370   5.320   2.347   3.339
 4824SOL    HW115371   5.288   2.278   3.404
 4824SOL    HW215372   5.414   2.326   3.312
 4825SOL     OW15373   1.581   2.755   4.393
 4825SOL    HW115374   1.561   2.850   4.419
 4825SOL    HW215375   1.618   2.753   4.300
 4826SOL     OW15376   0.202   6.473   0.690
 4826SOL    HW115377   0.129   6.446   0.753
 4826SOL    HW215378   0.172   6.455   0.596
 4827SOL     OW15379   5.081   0.974   1.728
 4827SOL    HW115380   5.001   0.916   1.718
 4827SOL    HW215381   5.056   1.069   1.708
 4828SOL     OW15382   5.820   4.332   1.842
 4828SOL    HW115383   5.778   4.423   1.845
 4828SOL    HW215384   5.842   4.308   1.748
 4829SOL     OW15385   3.814   6.807   6.087
 4829SOL    HW115386   3.796   6.835   6.181
 4829SOL    HW215387   3.747   6.849   6.026
 4830SOL     OW15388   4.907   5.619   4.003
 4830SOL    HW115389   4.931   5.529   3.969
 4830SOL    HW215390   4.904   5.684   3.927
 4831SOL     OW15391   6.899   4.992   5.379
 4831SOL    HW115392   6.822   4.992   5.442
 4831SOL    HW215393   6.874   4.945   5.294
 4832SOL     OW15394   3.068   2.419   5.853
 4832SOL    HW115395   2.986   2.362   5.858
 4832SOL    HW215396   3.068   2.472   5.768
 4833SOL     OW15397   4.889   1.769   2.901
 4833SOL    HW115398   4.837   1.802   2.822
 4833SOL    HW215399   4.876   1.831   2.978
 4834SOL     OW15400   3.834   6.963   1.001
 4834SOL    HW115401   3.802   0.020   0.956
 4834SOL    HW215402   3.759   6.921   1.052
 4835SOL     OW15403   1.798   6.975   6.191
 4835SOL    HW115404   1.717   6.943   6.239
 4835SOL    HW215405   1.830   6.904   6.128
 4836SOL     OW15406   4.409   2.088   3.675
 4836SOL    HW115407   4.352   2.041   3.607
 4836SOL    HW215408   4.489   2.032   3.696
 4837SOL     OW15409   3.203   2.823   1.893
 4837SOL    HW115410   3.286   2.807   1.947
 4837SOL    HW215411   3.190   2.747   1.829
 4838SOL     OW15412   2.982   4.823   2.302
 4838SOL    HW115413   2.915   4.824   2.228
 4838SOL    HW215414   2.935   4.825   2.390
 4839SOL     OW15415   0.505   4.065   5.720
 4839SOL    HW115416   0.601   4.039   5.723
 4839SOL    HW215417   0.486   4.132   5.791
 4840SOL     OW15418   6.551   6.888   6.459
 4840SOL    HW115419   6.575   6.923   6.368
 4840SOL    HW215420   6.630   6.898   6.520
 4841SOL     OW15421   3.689   5.623   1.910
 4841SOL    HW115422   3.782   5.657   1.907
 4841SOL    HW215423   3.657   5.621   2.005
 4842SOL     OW15424   3.427   5.118   1.485
 4842SOL    HW115425   3.390   5.155   1.400
 4842SOL    HW215426   3.490   5.184   1.525
 4843SOL     OW15427   6.122   4.022   0.770
 4843SOL    HW115428   6.071   4.024   0.683
 4843SOL    HW215429   6.218   4.044   0.752
 4844SOL     OW15430   6.893   3.621   6.766
 4844SOL    HW115431   6.842   3.683   6.707
 4844SOL    HW215432   6.841   3.536   6.779
 4845SOL     OW15433   6.906   5.174   4.551
 4845SOL    HW115434   6.873   5.268   4.546
 4845SOL    HW215435   6.829   5.111   4.547
 4846SOL     OW15436   6.992   3.581   0.983
 4846SOL    HW115437   6.965   3.553   1.075
 4846SOL    HW215438   0.058   3.546   0.963
 4847SOL     OW15439   3.809   1.689   5.301
 4847SOL    HW115440   3.818   1.772   5.247
 4847SOL    HW215441   3.875   1.621   5.269
 4848SOL     OW15442   1.483   1.286   4.635
 4848SOL    HW115443   1.543   1.327   4.704
 4848SOL    HW215444   1.473   1.189   4.653
 4849SOL     OW15445   1.861   6.747   0.072
 4849SOL    HW115446   1.868   6.788   7.007
 4849SOL    HW215447   1.929   6.674   0.081
 4850SOL     OW15448   3.832   0.839   1.940
 4850SOL    HW115449   3.855   0.830   2.037
 4850SOL    HW215450   3.792   0.929   1.923
 4851SOL     OW15451   3.677   6.097   5.127
 4851SOL    HW115452   3.642   6.178   5.080
 4851SOL    HW215453   3.687   6.022   5.062
 4852SOL     OW15454   1.421   0.576   6.444
 4852SOL    HW115455   1.477   0.567   6.527
 4852SOL    HW215456   1.459   0.518   6.372
 4853SOL     OW15457   3.573   1.829   2.426
 4853SOL    HW115458   3.628   1.882   2.491
 4853SOL    HW215459   3.517   1.891   2.372
 4854SOL     OW15460   4.591   6.298   2.691
 4854SOL    HW115461   4.588   6.290   2.790
 4854SOL    HW215462   4.500   6.281   2.653
 4855SOL     OW15463   5.802   2.448   1.984
 4855SOL    HW115464   5.852   2.368   2.017
 4855SOL    HW215465   5.838   2.530   2.028
 4856SOL     OW15466   2.195   4.253   3.006
 4856SOL    HW115467   2.118   4.314   2.989
 4856SOL    HW215468   2.237   4.226   2.920
 4857SOL     OW15469   1.302   1.667   5.948
 4857SOL    HW115470   1.333   1.634   5.859
 4857SOL    HW215471   1.305   1.767   5.949
 4858SOL     OW15472   1.872   0.740   3.946
 4858SOL    HW115473   1.928   0.819   3.920
 4858SOL    HW215474   1.917   0.690   4.020
 4859SOL     OW15475   1.223   6.302   4.139
 4859SOL    HW115476   1.282   6.245   4.196
 4859SOL    HW215477   1.136   6.256   4.122
 4860SOL     OW15478   3.675   5.240   2.393
 4860SOL    HW115479   3.621   5.160   2.368
 4860SOL    HW215480   3.694   5.238   2.491
 4861SOL     OW15481   5.513   5.136   0.345
 4861SOL    HW115482   5.498   5.152   0.247
 4861SOL    HW215483   5.425   5.129   0.391
 4862SOL     OW15484   1.970   5.206   4.077
 4862SOL    HW115485   2.029   5.143   4.028
 4862SOL    HW215486   1.912   5.255   4.013
 4863SOL     OW15487   5.768   4.994   0.310
 4863SOL    HW115488   5.779   4.992   0.409
 4863SOL    HW215489   5.679   5.034   0.288
 4864SOL     OW15490   3.524   1.285   4.230
 4864SOL    HW115491   3.553   1.210   4.170
 4864SOL    HW215492   3.424   1.291   4.230
 4865SOL     OW15493   1.715   0.106   5.001
 4865SOL    HW115494   1.739   0.201   4.981
 4865SOL    HW215495   1.670   0.066   4.921
 4866SOL     OW15496   6.430   3.892   1.344
 4866SOL    HW115497   6.480   3.968   1.386
 4866SOL    HW215498   6.434   3.900   1.244
 4867SOL     OW15499   4.520   5.807   2.083
 4867SOL    HW115500   4.594   5.783   2.146
 4867SOL    HW215501   4.498   5.904   2.093
 4868SOL     OW15502   6.721   4.765   2.322
 4868SOL    HW115503   6.659   4.826   2.274
 4868SOL    HW215504   6.681   4.673   2.325
 4869SOL     OW15505   1.520   1.565   0.733
 4869SOL    HW115506   1.552   1.642   0.677
 4869SOL    HW215507   1.586   1.547   0.806
 4870SOL     OW15508   0.238   6.089   1.490
 4870SOL    HW115509   0.260   6.045   1.577
 4870SOL    HW215510   0.260   6.027   1.415
 4871SOL     OW15511   1.182   0.364   4.063
 4871SOL    HW115512   1.139   0.425   4.129
 4871SOL    HW215513   1.189   0.272   4.101
 4872SOL     OW15514   6.536   6.844   3.107
 4872SOL    HW115515   6.578   6.882   3.025
 4872SOL    HW215516   6.524   6.745   3.096
 4873SOL     OW15517   6.645   5.828   4.408
 4873SOL    HW115518   6.658   5.841   4.506
 4873SOL    HW215519   6.623   5.732   4.390
 4874SOL     OW15520   5.063   3.145   2.430
 4874SOL    HW115521   5.011   3.127   2.514
 4874SOL    HW215522   4.999   3.167   2.356
 4875SOL     OW15523   5.450   0.102   0.260
 4875SOL    HW115524   5.393   0.148   0.192
 4875SOL    HW215525   5.444   0.003   0.247
 4876SOL     OW15526   6.929   0.813   3.837
 4876SOL    HW115527   6.964   0.829   3.929
 4876SOL    HW215528   6.836   0.776   3.843
 4877SOL     OW15529   0.534   2.316   5.646
 4877SOL    HW115530   0.505   2.273   5.561
 4877SOL    HW215531   0.615   2.269   5.681
 4878SOL     OW15532   6.854   1.858   2.073
 4878SOL    HW115533   6.869   1.955   2.087
 4878SOL    HW215534   6.935   1.806   2.102
 4879SOL     OW15535   4.435   2.361   1.902
 4879SOL    HW115536   4.361   2.386   1.841
 4879SOL    HW215537   4.492   2.290   1.859
 4880SOL     OW15538   6.331   3.735   0.111
 4880SOL    HW115539   6.242   3.763   0.073
 4880SOL    HW215540   6.350   3.641   0.084
 4881SOL     OW15541   1.685   1.538   6.791
 4881SOL    HW115542   1.765   1.502   6.744
 4881SOL    HW215543   1.702   1.540   6.890
 4882SOL     OW15544   4.029   1.953   5.457
 4882SOL    HW115545   3.976   1.978   5.538
 4882SOL    HW215546   3.967   1.941   5.379
 4883SOL     OW15547   5.316   4.324   0.854
 4883SOL    HW115548   5.237   4.352   0.800
 4883SOL    HW215549   5.312   4.226   0.871
 4884SOL     OW15550   3.656   5.429   1.231
 4884SOL    HW115551   3.578   5.489   1.213
 4884SOL    HW215552   3.647   5.389   1.323
 4885SOL     OW15553   2.408   4.273   1.469
 4885SOL    HW115554   2.397   4.370   1.490
 4885SOL    HW215555   2.349   4.219   1.529
 4886SOL     OW15556   3.093   6.958   1.571
 4886SOL    HW115557   3.062   6.865   1.553
 4886SOL    HW215558   3.188   6.968   1.542
 4887SOL     OW15559   0.359   6.025   1.726
 4887SOL    HW115560   0.414   5.969   1.788
 4887SOL    HW215561   0.414   6.101   1.693
 4888SOL     OW15562   2.567   6.840   2.911
 4888SOL    HW115563   2.485   6.804   2.867
 4888SOL    HW215564   2.595   6.924   2.865
 4889SOL     OW15565   6.493   1.761   5.406
 4889SOL    HW115566   6.464   1.668   5.385
 4889SOL    HW215567   6.480   1.819   5.326
 4890SOL     OW15568   0.503   1.608   5.384
 4890SOL    HW115569   0.450   1.665   5.447
 4890SOL    HW215570   0.600   1.630   5.392
 4891SOL     OW15571   3.083   5.026   0.329
 4891SOL    HW115572   3.010   4.979   0.379
 4891SOL    HW215573   3.150   4.960   0.297
 4892SOL     OW15574   5.496   5.697   2.138
 4892SOL    HW115575   5.435   5.731   2.066
 4892SOL    HW215576   5.486   5.754   2.219
 4893SOL     OW15577   6.434   3.505   1.923
 4893SOL    HW115578   6.450   3.462   1.834
 4893SOL    HW215579   6.449   3.604   1.915
 4894SOL     OW15580   3.396   0.391   2.604
 4894SOL    HW115581   3.337   0.438   2.670
 4894SOL    HW215582   3.340   0.339   2.540
 4895SOL     OW15583   0.983   4.834   3.637
 4895SOL    HW115584   0.936   4.747   3.649
 4895SOL    HW215585   1.079   4.824   3.666
 4896SOL     OW15586   2.457   4.791   2.743
 4896SOL    HW115587   2.497   4.699   2.740
 4896SOL    HW215588   2.486   4.836   2.828
 4897SOL     OW15589   1.650   5.864   5.091
 4897SOL    HW115590   1.720   5.812   5.140
 4897SOL    HW215591   1.565   5.812   5.090
 4898SOL     OW15592   4.143   1.015   4.923
 4898SOL    HW115593   4.128   1.099   4.870
 4898SOL    HW215594   4.160   0.939   4.861
 4899SOL     OW15595   6.634   4.986   3.103
 4899SOL    HW115596   6.535   4.975   3.118
 4899SOL    HW215597   6.664   4.921   3.033
 4900SOL     OW15598   4.110   5.910   6.085
 4900SOL    HW115599   4.042   5.957   6.028
 4900SOL    HW215600   4.101   5.812   6.073
 4901SOL     OW15601   2.256   1.240   5.834
 4901SOL    HW115602   2.240   1.241   5.735
 4901SOL    HW215603   2.172   1.268   5.882
 4902SOL     OW15604   1.066   1.050   5.593
 4902SOL    HW115605   1.079   1.144   5.625
 4902SOL    HW215606   1.136   1.028   5.525
 4903SOL     OW15607   4.517   5.450   0.775
 4903SOL    HW115608   4.526   5.542   0.736
 4903SOL    HW215609   4.421   5.422   0.772
 4904SOL     OW15610   2.092   0.768   5.538
 4904SOL    HW115611   2.019   0.757   5.470
 4904SOL    HW215612   2.060   0.733   5.626
 4905SOL     OW15613   2.144   0.711   3.560
 4905SOL    HW115614   2.068   0.676   3.613
 4905SOL    HW215615   2.109   0.763   3.482
 4906SOL     OW15616   4.452   2.907   6.302
 4906SOL    HW115617   4.426   2.817   6.336
 4906SOL    HW215618   4.381   2.941   6.240
 4907SOL     OW15619   4.824   0.659   1.188
 4907SOL    HW115620   4.786   0.724   1.122
 4907SOL    HW215621   4.920   0.642   1.166
 4908SOL     OW15622   5.141   6.588   0.097
 4908SOL    HW115623   5.055   6.598   0.046
 4908SOL    HW215624   5.212   6.645   0.055
 4909SOL     OW15625   6.682   5.254   3.491
 4909SOL    HW115626   6.649   5.228   3.400
 4909SOL    HW215627   6.625   5.328   3.527
 4910SOL     OW15628   5.690   0.535   4.214
 4910SOL    HW115629   5.740   0.547   4.300
 4910SOL    HW215630   5.695   0.620   4.161
 4911SOL     OW15631   1.726   3.608   3.393
 4911SOL    HW115632   1.702   3.656   3.309
 4911SOL    HW215633   1.750   3.513   3.372
 4912SOL     OW15634   5.464   1.839   5.872
 4912SOL    HW115635   5.533   1.863   5.940
 4912SOL    HW215636   5.374   1.832   5.916
 4913SOL     OW15637   4.638   3.722   5.614
 4913SOL    HW115638   4.559   3.715   5.674
 4913SOL    HW215639   4.617   3.678   5.526
 4914SOL     OW15640   4.299   6.919   5.290
 4914SOL    HW115641   4.366   6.974   5.240
 4914SOL    HW215642   4.240   6.978   5.344
 4915SOL     OW15643   2.968   6.542   5.653
 4915SOL    HW115644   3.065   6.565   5.641
 4915SOL    HW215645   2.949   6.455   5.608
 4916SOL     OW15646   0.451   0.963   3.903
 4916SOL    HW115647   0.514   0.885   3.900
 4916SOL    HW215648   0.387   0.951   3.980
 4917SOL     OW15649   4.013   5.840   0.574
 4917SOL    HW115650   4.022   5.901   0.495
 4917SOL    HW215651   4.092   5.777   0.576
 4918SOL     OW15652   6.037   6.146   2.111
 4918SOL    HW115653   6.052   6.202   2.192
 4918SOL    HW215654   6.025   6.050   2.138
 4919SOL     OW15655   3.528   2.989   2.596
 4919SOL    HW115656   3.476   3.002   2.681
 4919SOL    HW215657   3.621   2.959   2.618
 4920SOL     OW15658   5.821   0.365   5.067
 4920SOL    HW115659   5.825   0.267   5.086
 4920SOL    HW215660   5.746   0.385   5.004
 4921SOL     OW15661   1.681   5.051   0.076
 4921SOL    HW115662   1.631   5.068   7.017
 4921SOL    HW215663   1.617   5.038   0.151
 4922SOL     OW15664   3.304   2.145   4.790
 4922SOL    HW115665   3.296   2.210   4.866
 4922SOL    HW215666   3.232   2.163   4.723
 4923SOL     OW15667   2.468   1.302   2.890
 4923SOL    HW115668   2.401   1.304   2.816
 4923SOL    HW215669   2.520   1.387   2.892
 4924SOL     OW15670   2.676   1.905   4.710
 4924SOL    HW115671   2.581   1.904   4.677
 4924SOL    HW215672   2.723   1.986   4.675
 4925SOL     OW15673   4.930   0.441   2.939
 4925SOL    HW115674   4.897   0.505   3.007
 4925SOL    HW215675   4.875   0.357   2.942
 4926SOL     OW15676   5.647   2.144   1.543
 4926SOL    HW115677   5.587   2.169   1.467
 4926SOL    HW215678   5.694   2.058   1.522
 4927SOL     OW15679   3.209   3.051   5.758
 4927SOL    HW115680   3.291   3.060   5.814
 4927SOL    HW215681   3.235   3.017   5.667
 4928SOL     OW15682   1.352   0.711   6.777
 4928SOL    HW115683   1.361   0.791   6.836
 4928SOL    HW215684   1.298   0.735   6.697
 4929SOL     OW15685   6.591   7.023   3.641
 4929SOL    HW115686   6.636   7.021   3.730
 4929SOL    HW215687   6.500   0.037   3.650
 4930SOL     OW15688   5.832   0.293   2.890
 4930SOL    HW115689   5.794   0.304   2.798
 4930SOL    HW215690   5.898   0.367   2.908
 4931SOL     OW15691   6.344   6.624   1.407
 4931SOL    HW115692   6.359   6.645   1.310
 4931SOL    HW215693   6.281   6.547   1.415
 4932SOL     OW15694   3.772   3.821   3.205
 4932SOL    HW115695   3.683   3.783   3.179
 4932SOL    HW215696   3.760   3.887   3.279
 4933SOL     OW15697   2.248   6.568   2.811
 4933SOL    HW115698   2.321   6.510   2.847
 4933SOL    HW215699   2.162   6.516   2.808
 4934SOL     OW15700   3.781   6.532   2.601
 4934SOL    HW115701   3.725   6.590   2.542
 4934SOL    HW215702   3.752   6.545   2.696
 4935SOL     OW15703   1.728   1.787   6.730
 4935SOL    HW115704   1.676   1.808   6.648
 4935SOL    HW215705   1.730   1.688   6.745
 4936SOL     OW15706   2.659   5.144   0.891
 4936SOL    HW115707   2.751   5.109   0.908
 4936SOL    HW215708   2.637   5.134   0.794
 4937SOL     OW15709   4.846   2.998   5.473
 4937SOL    HW115710   4.820   3.030   5.564
 4937SOL    HW215711   4.797   2.912   5.453
 4938SOL     OW15712   2.980   5.437   5.849
 4938SOL    HW115713   3.048   5.416   5.919
 4938SOL    HW215714   2.944   5.529   5.865
 4939SOL     OW15715   5.369   2.284   4.814
 4939SOL    HW115716   5.358   2.237   4.727
 4939SOL    HW215717   5.466   2.287   4.838
 4940SOL     OW15718   1.155   0.967   4.697
 4940SOL    HW115719   1.100   1.048   4.718
 4940SOL    HW215720   1.251   0.986   4.715
 4941SOL     OW15721   3.599   2.059   6.040
 4941SOL    HW115722   3.612   2.020   6.131
 4941SOL    HW215723   3.502   2.057   6.017
 4942SOL     OW15724   4.913   3.534   5.572
 4942SOL    HW115725   4.846   3.551   5.645
 4942SOL    HW215726   4.895   3.595   5.495
 4943SOL     OW15727   4.104   2.446   0.160
 4943SOL    HW115728   4.099   2.545   0.175
 4943SOL    HW215729   4.200   2.418   0.155
 4944SOL     OW15730   2.221   4.011   3.104
 4944SOL    HW115731   2.212   4.086   3.039
 4944SOL    HW215732   2.218   4.046   3.197
 4945SOL     OW15733   1.110   1.031   3.615
 4945SOL    HW115734   1.021   1.071   3.636
 4945SOL    HW215735   1.181   1.101   3.623
 4946SOL     OW15736   0.619   3.007   1.498
 4946SOL    HW115737   0.640   3.068   1.573
 4946SOL    HW215738   0.684   3.021   1.424
 4947SOL     OW15739   1.319   6.433   1.060
 4947SOL    HW115740   1.390   6.368   1.087
 4947SOL    HW215741   1.260   6.391   0.991
 4948SOL     OW15742   2.675   0.830   2.413
 4948SOL    HW115743   2.727   0.916   2.418
 4948SOL    HW215744   2.581   0.850   2.387
 4949SOL     OW15745   4.524   0.834   5.545
 4949SOL    HW115746   4.433   0.873   5.530
 4949SOL    HW215747   4.518   0.762   5.614
 4950SOL     OW15748   3.002   5.489   3.613
 4950SOL    HW115749   2.910   5.449   3.613
 4950SOL    HW215750   3.003   5.571   3.556
 4951SOL     OW15751   4.982   1.476   4.831
 4951SOL    HW115752   5.073   1.515   4.847
 4951SOL    HW215753   4.966   1.402   4.896
 4952SOL     OW15754   0.280   0.126   5.251
 4952SOL    HW115755   0.356   0.190   5.265
 4952SOL    HW215756   0.196   0.177   5.233
 4953SOL     OW15757   2.439   5.626   1.913
 4953SOL    HW115758   2.492   5.703   1.949
 4953SOL    HW215759   2.378   5.658   1.841
 4954SOL     OW15760   4.339   4.543   0.064
 4954SOL    HW115761   4.278   4.465   0.050
 4954SOL    HW215762   4.337   4.602   7.009
 4955SOL     OW15763   1.927   5.666   6.549
 4955SOL    HW115764   1.950   5.692   6.643
 4955SOL    HW215765   2.011   5.650   6.497
 4956SOL     OW15766   4.105   0.258   5.180
 4956SOL    HW115767   4.009   0.286   5.181
 4956SOL    HW215768   4.113   0.170   5.134
 4957SOL     OW15769   6.879   1.195   3.903
 4957SOL    HW115770   6.781   1.219   3.902
 4957SOL    HW215771   6.928   1.259   3.963
 4958SOL     OW15772   0.374   6.429   6.294
 4958SOL    HW115773   0.314   6.370   6.241
 4958SOL    HW215774   0.377   6.520   6.252
 4959SOL     OW15775   0.707   1.310   0.132
 4959SOL    HW115776   0.703   1.210   0.132
 4959SOL    HW215777   0.632   1.346   0.188
 4960SOL     OW15778   3.423   6.256   4.437
 4960SOL    HW115779   3.351   6.317   4.469
 4960SOL    HW215780   3.384   6.183   4.381
 4961SOL     OW15781   5.334   1.368   5.080
 4961SOL    HW115782   5.417   1.402   5.124
 4961SOL    HW215783   5.356   1.285   5.028
 4962SOL     OW15784   5.932   3.206   2.032
 4962SOL    HW115785   5.950   3.302   2.009
 4962SOL    HW215786   5.834   3.188   2.025
 4963SOL     OW15787   6.290   5.982   1.490
 4963SOL    HW115788   6.334   6.033   1.417
 4963SOL    HW215789   6.196   6.014   1.502
 4964SOL     OW15790   3.404   6.366   2.784
 4964SOL    HW115791   3.405   6.273   2.748
 4964SOL    HW215792   3.478   6.419   2.743
 4965SOL     OW15793   0.361   6.954   5.055
 4965SOL    HW115794   0.349   0.002   5.121
 4965SOL    HW215795   0.314   6.977   4.970
 4966SOL     OW15796   1.954   5.794   4.609
 4966SOL    HW115797   1.975   5.819   4.704
 4966SOL    HW215798   1.970   5.872   4.549
 4967SOL     OW15799   3.755   3.381   6.799
 4967SOL    HW115800   3.816   3.414   6.728
 4967SOL    HW215801   3.777   3.426   6.886
 4968SOL     OW15802   5.252   3.117   3.269
 4968SOL    HW115803   5.250   3.209   3.230
 4968SOL    HW215804   5.269   3.123   3.368
 4969SOL     OW15805   1.849   0.901   2.777
 4969SOL    HW115806   1.872   0.991   2.813
 4969SOL    HW215807   1.815   0.843   2.851
 4970SOL     OW15808   1.279   2.317   4.997
 4970SOL    HW115809   1.300   2.335   5.093
 4970SOL    HW215810   1.354   2.350   4.940
 4971SOL     OW15811   6.256   5.470   3.619
 4971SOL    HW115812   6.270   5.376   3.652
 4971SOL    HW215813   6.242   5.531   3.697
 4972SOL     OW15814   2.535   3.212   0.401
 4972SOL    HW115815   2.520   3.292   0.344
 4972SOL    HW215816   2.532   3.240   0.498
 4973SOL     OW15817   6.657   6.482   1.784
 4973SOL    HW115818   6.595   6.434   1.845
 4973SOL    HW215819   6.701   6.557   1.833
 4974SOL     OW15820   6.063   5.073   1.468
 4974SOL    HW115821   6.126   5.004   1.504
 4974SOL    HW215822   6.105   5.120   1.391
 4975SOL     OW15823   6.129   6.179   0.993
 4975SOL    HW115824   6.085   6.189   0.903
 4975SOL    HW215825   6.204   6.114   0.986
 4976SOL     OW15826   3.266   0.558   3.679
 4976SOL    HW115827   3.243   0.520   3.769
 4976SOL    HW215828   3.245   0.492   3.608
 4977SOL     OW15829   5.109   3.611   0.674
 4977SOL    HW115830   5.120   3.537   0.609
 4977SOL    HW215831   5.035   3.588   0.738
 4978SOL     OW15832   6.829   3.644   5.405
 4978SOL    HW115833   6.831   3.743   5.413
 4978SOL    HW215834   6.823   3.603   5.496
 4979SOL     OW15835   6.612   2.386   4.978
 4979SOL    HW115836   6.651   2.294   4.993
 4979SOL    HW215837   6.649   2.424   4.894
 4980SOL     OW15838   4.082   6.912   3.059
 4980SOL    HW115839   4.130   6.894   2.974
 4980SOL    HW215840   4.147   6.912   3.135
 4981SOL     OW15841   4.623   6.273   5.575
 4981SOL    HW115842   4.593   6.352   5.628
 4981SOL    HW215843   4.543   6.218   5.549
 4982SOL     OW15844   2.484   1.670   6.809
 4982SOL    HW115845   2.577   1.648   6.780
 4982SOL    HW215846   2.438   1.586   6.841
 4983SOL     OW15847   5.257   3.360   4.065
 4983SOL    HW115848   5.260   3.460   4.073
 4983SOL    HW215849   5.246   3.319   4.156
 4984SOL     OW15850   5.478   3.714   4.519
 4984SOL    HW115851   5.476   3.615   4.534
 4984SOL    HW215852   5.400   3.741   4.463
 4985SOL     OW15853   6.020   5.925   4.064
 4985SOL    HW115854   6.021   6.008   4.010
 4985SOL    HW215855   6.114   5.892   4.076
 4986SOL     OW15856   6.082   4.469   2.984
 4986SOL    HW115857   6.044   4.457   3.076
 4986SOL    HW215858   6.145   4.394   2.964
 4987SOL     OW15859   0.727   2.228   1.172
 4987SOL    HW115860   0.820   2.217   1.208
 4987SOL    HW215861   0.693   2.140   1.141
 4988SOL     OW15862   6.671   1.355   3.943
 4988SOL    HW115863   6.708   1.371   3.852
 4988SOL    HW215864   6.573   1.371   3.943
 4989SOL     OW15865   5.370   1.483   1.574
 4989SOL    HW115866   5.444   1.519   1.631
 4989SOL    HW215867   5.373   1.383   1.576
 4990SOL     OW15868   0.962   2.461   6.251
 4990SOL    HW115869   0.883   2.478   6.310
 4990SOL    HW215870   1.034   2.527   6.273
 4991SOL     OW15871   0.511   3.247   4.009
 4991SOL    HW115872   0.468   3.278   4.094
 4991SOL    HW215873   0.559   3.161   4.026
 4992SOL     OW15874   4.242   0.549   4.390
 4992SOL    HW115875   4.272   0.511   4.302
 4992SOL    HW215876   4.286   0.637   4.406
 4993SOL     OW15877   2.709   4.672   3.798
 4993SOL    HW115878   2.735   4.725   3.879
 4993SOL    HW215879   2.623   4.625   3.816
 4994SOL     OW15880   1.402   0.007   2.509
 4994SOL    HW115881   1.338   0.047   2.574
 4994SOL    HW215882   1.457   6.964   2.556
 4995SOL     OW15883   6.975   2.955   6.075
 4995SOL    HW115884   6.926   2.984   6.158
 4995SOL    HW215885   0.033   3.008   6.066
 4996SOL     OW15886   0.684   0.528   1.774
 4996SOL    HW115887   0.586   0.541   1.762
 4996SOL    HW215888   0.730   0.616   1.765
 4997SOL     OW15889   6.925   2.305   2.935
 4997SOL    HW115890   7.009   2.355   2.955
 4997SOL    HW215891   6.920   2.223   2.992
 4998SOL     OW15892   2.164   4.920   5.194
 4998SOL    HW115893   2.118   4.974   5.123
 4998SOL    HW215894   2.120   4.936   5.282
 4999SOL     OW15895   5.068   5.751   1.522
 4999SOL    HW115896   5.087   5.849   1.528
 4999SOL    HW215897   5.037   5.717   1.611
 5000SOL     OW15898   0.637   0.804   4.250
 5000SOL    HW115899   0.670   0.898   4.236
 5000SOL    HW215900   0.700   0.740   4.206
 5001SOL     OW15901   1.917   3.972   6.009
 5001SOL    HW115902   1.890   3.974   6.105
 5001SOL    HW215903   2.007   3.931   6.000
 5002SOL     OW15904   1.227   2.662   3.189
 5002SOL    HW115905   1.292   2.734   3.167
 5002SOL    HW215906   1.144   2.674   3.134
 5003SOL     OW15907   0.503   6.515   3.437
 5003SOL    HW115908   0.464   6.605   3.416
 5003SOL    HW215909   0.565   6.523   3.515
 5004SOL     OW15910   2.935   5.836   5.693
 5004SOL    HW115911   2.923   5.764   5.761
 5004SOL    HW215912   2.921   5.926   5.736
 5005SOL     OW15913   3.461   1.979   0.592
 5005SOL    HW115914   3.390   1.972   0.522
 5005SOL    HW215915   3.469   1.891   0.640
 5006SOL     OW15916   5.696   6.999   5.960
 5006SOL    HW115917   5.599   7.018   5.945
 5006SOL    HW215918   5.751   0.040   5.912
 5007SOL     OW15919   2.891   0.375   5.996
 5007SOL    HW115920   2.963   0.310   5.974
 5007SOL    HW215921   2.924   0.469   5.983
 5008SOL     OW15922   6.074   0.843   3.181
 5008SOL    HW115923   5.999   0.898   3.219
 5008SOL    HW215924   6.072   0.848   3.082
 5009SOL     OW15925   1.627   6.162   1.730
 5009SOL    HW115926   1.703   6.098   1.721
 5009SOL    HW215927   1.639   6.218   1.812
 5010SOL     OW15928   2.983   3.810   4.060
 5010SOL    HW115929   3.022   3.895   4.026
 5010SOL    HW215930   3.052   3.738   4.056
 5011SOL     OW15931   1.975   3.314   2.164
 5011SOL    HW115932   2.024   3.266   2.236
 5011SOL    HW215933   2.030   3.390   2.130
 5012SOL     OW15934   6.358   2.894   5.974
 5012SOL    HW115935   6.440   2.950   5.970
 5012SOL    HW215936   6.305   2.919   6.055
 5013SOL     OW15937   4.545   0.802   6.044
 5013SOL    HW115938   4.482   0.759   5.979
 5013SOL    HW215939   4.591   0.732   6.097
 5014SOL     OW15940   6.331   5.996   0.919
 5014SOL    HW115941   6.295   5.963   0.832
 5014SOL    HW215942   6.413   6.050   0.903
 5015SOL     OW15943   4.658   1.668   3.776
 5015SOL    HW115944   4.642   1.597   3.708
 5015SOL    HW215945   4.755   1.694   3.775
 5016SOL     OW15946   2.010   1.206   2.973
 5016SOL    HW115947   1.995   1.252   2.886
 5016SOL    HW215948   2.105   1.174   2.978
 5017SOL     OW15949   2.275   2.420   0.749
 5017SOL    HW115950   2.248   2.356   0.677
 5017SOL    HW215951   2.200   2.431   0.814
 5018SOL     OW15952   0.676   4.124   2.282
 5018SOL    HW115953   0.602   4.190   2.273
 5018SOL    HW215954   0.726   4.118   2.195
 5019SOL     OW15955   2.089   4.380   0.344
 5019SOL    HW115956   2.136   4.440   0.408
 5019SOL    HW215957   2.055   4.299   0.392
 5020SOL     OW15958   5.966   5.852   5.583
 5020SOL    HW115959   5.942   5.840   5.680
 5020SOL    HW215960   5.901   5.802   5.526
 5021SOL     OW15961   1.168   4.527   6.298
 5021SOL    HW115962   1.082   4.508   6.343
 5021SOL    HW215963   1.157   4.605   6.236
 5022SOL     OW15964   1.966   6.884   0.389
 5022SOL    HW115965   2.046   6.841   0.347
 5022SOL    HW215966   1.918   6.938   0.320
 5023SOL     OW15967   6.466   2.502   1.227
 5023SOL    HW115968   6.447   2.585   1.278
 5023SOL    HW215969   6.448   2.422   1.284
 5024SOL     OW15970   6.910   4.105   2.657
 5024SOL    HW115971   6.943   4.054   2.577
 5024SOL    HW215972   6.810   4.108   2.655
 5025SOL     OW15973   4.653   2.053   2.308
 5025SOL    HW115974   4.695   2.128   2.359
 5025SOL    HW215975   4.604   2.090   2.228
 5026SOL     OW15976   6.203   5.964   5.718
 5026SOL    HW115977   6.160   5.874   5.716
 5026SOL    HW215978   6.239   5.981   5.810
 5027SOL     OW15979   0.809   6.978   3.112
 5027SOL    HW115980   0.900   6.978   3.155
 5027SOL    HW215981   0.749   6.914   3.160
 5028SOL     OW15982   0.475   5.830   1.950
 5028SOL    HW115983   0.395   5.793   1.997
 5028SOL    HW215984   0.542   5.756   1.936
 5029SOL     OW15985   6.896   2.803   2.671
 5029SOL    HW115986   6.929   2.896   2.689
 5029SOL    HW215987   6.796   2.802   2.671
 5030SOL     OW15988   0.022   6.958   6.994
 5030SOL    HW115989   0.082   6.896   6.944
 5030SOL    HW215990   6.997   7.014   6.928
 5031SOL     OW15991   5.804   0.979   4.419
 5031SOL    HW115992   5.856   0.946   4.340
 5031SOL    HW215993   5.795   1.078   4.414
 5032SOL     OW15994   1.255   4.846   0.829
 5032SOL    HW115995   1.353   4.828   0.817
 5032SOL    HW215996   1.214   4.868   0.741
 5033SOL     OW15997   2.918   5.472   5.407
 5033SOL    HW115998   2.857   5.484   5.329
 5033SOL    HW215999   2.913   5.377   5.440
 5034SOL     OW16000   6.663   3.256   1.761
 5034SOL    HW116001   6.572   3.281   1.729
 5034SOL    HW216002   6.681   3.300   1.849
 5035SOL     OW16003   5.389   5.020   0.797
 5035SOL    HW116004   5.488   5.020   0.795
 5035SOL    HW216005   5.356   4.927   0.815
 5036SOL     OW16006   1.429   6.077   6.294
 5036SOL    HW116007   1.350   6.040   6.245
 5036SOL    HW216008   1.441   6.173   6.271
 5037SOL     OW16009   4.287   1.875   3.322
 5037SOL    HW116010   4.307   1.964   3.281
 5037SOL    HW216011   4.369   1.840   3.368
 5038SOL     OW16012   1.390   6.145   5.907
 5038SOL    HW116013   1.295   6.161   5.934
 5038SOL    HW216014   1.394   6.065   5.847
 5039SOL     OW16015   2.069   3.016   5.000
 5039SOL    HW116016   2.067   2.980   5.093
 5039SOL    HW216017   2.164   3.024   4.969
 5040SOL     OW16018   2.493   3.356   6.873
 5040SOL    HW116019   2.579   3.402   6.849
 5040SOL    HW216020   2.448   3.407   6.947
 5041SOL     OW16021   0.720   4.141   1.315
 5041SOL    HW116022   0.694   4.219   1.373
 5041SOL    HW216023   0.796   4.091   1.358
 5042SOL     OW16024   6.413   3.006   6.818
 5042SOL    HW116025   6.448   2.977   6.729
 5042SOL    HW216026   6.313   3.014   6.814
 5043SOL     OW16027   3.750   1.510   4.961
 5043SOL    HW116028   3.847   1.501   4.982
 5043SOL    HW216029   3.725   1.445   4.889
 5044SOL     OW16030   6.111   6.133   3.895
 5044SOL    HW116031   6.202   6.170   3.876
 5044SOL    HW216032   6.044   6.177   3.836
 5045SOL     OW16033   5.600   3.299   0.195
 5045SOL    HW116034   5.600   3.370   0.265
 5045SOL    HW216035   5.647   3.218   0.230
 5046SOL     OW16036   3.542   2.890   4.996
 5046SOL    HW116037   3.625   2.915   4.947
 5046SOL    HW216038   3.565   2.862   5.089
 5047SOL     OW16039   5.573   1.033   2.522
 5047SOL    HW116040   5.576   0.979   2.606
 5047SOL    HW216041   5.619   1.121   2.537
 5048SOL     OW16042   6.773   2.560   2.475
 5048SOL    HW116043   6.760   2.657   2.495
 5048SOL    HW216044   6.799   2.511   2.558
 5049SOL     OW16045   0.601   1.478   2.980
 5049SOL    HW116046   0.654   1.421   3.043
 5049SOL    HW216047   0.553   1.420   2.915
 5050SOL     OW16048   0.062   1.720   2.175
 5050SOL    HW116049   0.128   1.790   2.148
 5050SOL    HW216050   0.109   1.634   2.193
 5051SOL     OW16051   2.997   3.994   1.205
 5051SOL    HW116052   3.038   3.920   1.259
 5051SOL    HW216053   3.069   4.045   1.158
 5052SOL     OW16054   3.515   4.481   0.591
 5052SOL    HW116055   3.558   4.436   0.513
 5052SOL    HW216056   3.437   4.427   0.622
 5053SOL     OW16057   2.030   4.458   2.442
 5053SOL    HW116058   1.998   4.495   2.530
 5053SOL    HW216059   1.958   4.402   2.402
 5054SOL     OW16060   3.547   5.612   5.439
 5054SOL    HW116061   3.568   5.514   5.445
 5054SOL    HW216062   3.614   5.657   5.379
 5055SOL     OW16063   0.499   1.997   5.042
 5055SOL    HW116064   0.498   1.976   4.944
 5055SOL    HW216065   0.520   1.914   5.093
 5056SOL     OW16066   0.116   3.997   6.626
 5056SOL    HW116067   0.038   4.051   6.593
 5056SOL    HW216068   0.098   3.900   6.610
 5057SOL     OW16069   1.136   5.167   3.187
 5057SOL    HW116070   1.092   5.093   3.136
 5057SOL    HW216071   1.154   5.244   3.126
 5058SOL     OW16072   3.579   3.901   0.060
 5058SOL    HW116073   3.508   3.877   7.020
 5058SOL    HW216074   3.623   3.986   0.031
 5059SOL     OW16075   4.543   2.551   4.563
 5059SOL    HW116076   4.575   2.646   4.567
 5059SOL    HW216077   4.537   2.514   4.656
 5060SOL     OW16078   6.967   3.058   5.394
 5060SOL    HW116079   0.012   3.008   5.443
 5060SOL    HW216080   6.887   3.070   5.453
 5061SOL     OW16081   2.939   3.460   4.351
 5061SOL    HW116082   2.878   3.538   4.363
 5061SOL    HW216083   2.950   3.441   4.253
 5062SOL     OW16084   4.993   1.682   2.509
 5062SOL    HW116085   4.940   1.751   2.459
 5062SOL    HW216086   5.028   1.722   2.594
 5063SOL     OW16087   1.585   6.723   1.560
 5063SOL    HW116088   1.651   6.740   1.633
 5063SOL    HW216089   1.497   6.763   1.584
 5064SOL     OW16090   4.587   5.117   1.017
 5064SOL    HW116091   4.608   5.019   1.022
 5064SOL    HW216092   4.617   5.152   0.928
 5065SOL     OW16093   1.473   0.442   3.293
 5065SOL    HW116094   1.433   0.438   3.202
 5065SOL    HW216095   1.542   0.514   3.297
 5066SOL     OW16096   2.277   4.133   2.019
 5066SOL    HW116097   2.265   4.037   1.991
 5066SOL    HW216098   2.351   4.174   1.966
 5067SOL     OW16099   4.067   2.130   1.917
 5067SOL    HW116100   4.042   2.036   1.937
 5067SOL    HW216101   4.159   2.133   1.877
 5068SOL     OW16102   3.369   5.893   0.511
 5068SOL    HW116103   3.346   5.990   0.504
 5068SOL    HW216104   3.292   5.838   0.479
 5069SOL     OW16105   2.262   3.594   6.129
 5069SOL    HW116106   2.305   3.559   6.212
 5069SOL    HW216107   2.173   3.552   6.117
 5070SOL     OW16108   5.860   3.253   3.912
 5070SOL    HW116109   5.879   3.303   3.996
 5070SOL    HW216110   5.912   3.167   3.912
 5071SOL     OW16111   3.963   1.713   3.671
 5071SOL    HW116112   3.934   1.730   3.577
 5071SOL    HW216113   4.052   1.756   3.687
 5072SOL     OW16114   1.387   0.988   0.806
 5072SOL    HW116115   1.295   0.960   0.831
 5072SOL    HW216116   1.442   0.907   0.783
 5073SOL     OW16117   2.169   6.402   2.236
 5073SOL    HW116118   2.108   6.325   2.254
 5073SOL    HW216119   2.187   6.452   2.321
 5074SOL     OW16120   3.415   1.446   1.792
 5074SOL    HW116121   3.369   1.528   1.758
 5074SOL    HW216122   3.348   1.383   1.830
 5075SOL     OW16123   0.945   2.992   0.265
 5075SOL    HW116124   1.032   2.966   0.306
 5075SOL    HW216125   0.953   2.989   0.165
 5076SOL     OW16126   5.161   0.362   6.969
 5076SOL    HW116127   5.194   0.413   6.890
 5076SOL    HW216128   5.079   0.406   7.005
 5077SOL     OW16129   1.592   3.725   5.202
 5077SOL    HW116130   1.553   3.730   5.110
 5077SOL    HW216131   1.655   3.801   5.215
 5078SOL     OW16132   0.420   1.382   4.413
 5078SOL    HW116133   0.366   1.435   4.478
 5078SOL    HW216134   0.510   1.425   4.401
 5079SOL     OW16135   2.026   1.730   5.857
 5079SOL    HW116136   1.952   1.794   5.876
 5079SOL    HW216137   2.037   1.720   5.758
 5080SOL     OW16138   6.301   5.446   5.408
 5080SOL    HW116139   6.319   5.437   5.506
 5080SOL    HW216140   6.203   5.432   5.391
 5081SOL     OW16141   2.798   5.030   4.978
 5081SOL    HW116142   2.855   4.948   4.975
 5081SOL    HW216143   2.727   5.019   5.047
 5082SOL     OW16144   4.633   6.627   6.944
 5082SOL    HW116145   4.592   6.602   0.006
 5082SOL    HW216146   4.604   6.562   6.874
 5083SOL     OW16147   3.001   0.806   1.919
 5083SOL    HW116148   3.043   0.852   1.998
 5083SOL    HW216149   2.920   0.755   1.949
 5084SOL     OW16150   0.867   4.842   4.871
 5084SOL    HW116151   0.885   4.748   4.898
 5084SOL    HW216152   0.941   4.875   4.812
 5085SOL     OW16153   1.127   2.723   5.974
 5085SOL    HW116154   1.036   2.756   5.998
 5085SOL    HW216155   1.172   2.687   6.055
 5086SOL     OW16156   0.555   4.377   2.264
 5086SOL    HW116157   0.588   4.406   2.175
 5086SOL    HW216158   0.608   4.423   2.336
 5087SOL     OW16159   6.817   5.302   2.588
 5087SOL    HW116160   6.820   5.219   2.644
 5087SOL    HW216161   6.766   5.283   2.504
 5088SOL     OW16162   4.523   5.904   2.831
 5088SOL    HW116163   4.492   5.902   2.736
 5088SOL    HW216164   4.462   5.963   2.884
 5089SOL     OW16165   5.938   4.476   4.205
 5089SOL    HW116166   5.990   4.521   4.132
 5089SOL    HW216167   5.853   4.438   4.168
 5090SOL     OW16168   2.170   0.338   3.460
 5090SOL    HW116169   2.102   0.304   3.395
 5090SOL    HW216170   2.157   0.293   3.549
 5091SOL     OW16171   6.502   0.059   0.735
 5091SOL    HW116172   6.486   0.141   0.790
 5091SOL    HW216173   6.469   7.005   0.785
 5092SOL     OW16174   3.942   3.428   4.244
 5092SOL    HW116175   4.006   3.378   4.184
 5092SOL    HW216176   3.857   3.377   4.251
 5093SOL     OW16177   2.317   1.604   2.411
 5093SOL    HW116178   2.395   1.545   2.435
 5093SOL    HW216179   2.251   1.552   2.357
 5094SOL     OW16180   2.278   6.129   6.346
 5094SOL    HW116181   2.189   6.169   6.367
 5094SOL    HW216182   2.286   6.115   6.247
 5095SOL     OW16183   0.399   1.652   3.507
 5095SOL    HW116184   0.346   1.575   3.541
 5095SOL    HW216185   0.368   1.736   3.553
 5096SOL     OW16186   5.779   4.552   6.460
 5096SOL    HW116187   5.768   4.464   6.414
 5096SOL    HW216188   5.872   4.559   6.497
 5097SOL     OW16189   6.442   6.934   0.251
 5097SOL    HW116190   6.401   6.926   0.161
 5097SOL    HW216191   6.381   6.988   0.310
 5098SOL     OW16192   3.984   2.293   1.531
 5098SOL    HW116193   4.003   2.387   1.504
 5098SOL    HW216194   3.945   2.291   1.623
 5099SOL     OW16195   0.073   6.306   1.390
 5099SOL    HW116196   0.121   6.225   1.426
 5099SOL    HW216197   0.109   6.388   1.435
 5100SOL     OW16198   4.523   5.636   2.943
 5100SOL    HW116199   4.601   5.646   3.005
 5100SOL    HW216200   4.506   5.724   2.897
 5101SOL     OW16201   4.247   0.527   4.665
 5101SOL    HW116202   4.167   0.509   4.723
 5101SOL    HW216203   4.223   0.513   4.569
 5102SOL     OW16204   5.002   5.341   4.134
 5102SOL    HW116205   4.924   5.388   4.173
 5102SOL    HW216206   5.071   5.325   4.205
 5103SOL     OW16207   0.575   0.684   4.483
 5103SOL    HW116208   0.496   0.739   4.507
 5103SOL    HW216209   0.607   0.709   4.392
 5104SOL     OW16210   3.571   5.868   1.957
 5104SOL    HW116211   3.590   5.774   1.929
 5104SOL    HW216212   3.644   5.928   1.923
 5105SOL     OW16213   3.056   3.231   0.241
 5105SOL    HW116214   3.131   3.290   0.212
 5105SOL    HW216215   3.075   3.136   0.215
 5106SOL     OW16216   3.645   1.760   0.904
 5106SOL    HW116217   3.696   1.719   0.829
 5106SOL    HW216218   3.564   1.705   0.923
 5107SOL     OW16219   5.612   2.952   1.234
 5107SOL    HW116220   5.575   2.979   1.323
 5107SOL    HW216221   5.695   2.898   1.247
 5108SOL     OW16222   4.424   4.238   5.580
 5108SOL    HW116223   4.455   4.168   5.644
 5108SOL    HW216224   4.355   4.198   5.518
 5109SOL     OW16225   1.534   2.424   0.692
 5109SOL    HW116226   1.522   2.403   0.789
 5109SOL    HW216227   1.612   2.485   0.681
 5110SOL     OW16228   0.377   0.011   6.382
 5110SOL    HW116229   0.443   6.962   6.391
 5110SOL    HW216230   0.379   0.047   6.289
 5111SOL     OW16231   0.785   0.002   4.322
 5111SOL    HW116232   0.781   6.956   4.391
 5111SOL    HW216233   0.736   0.082   4.355
 5112SOL     OW16234   0.114   0.580   2.599
 5112SOL    HW116235   0.149   0.671   2.579
 5112SOL    HW216236   0.046   0.585   2.672
 5113SOL     OW16237   1.517   5.654   1.020
 5113SOL    HW116238   1.598   5.597   1.033
 5113SOL    HW216239   1.469   5.664   1.107
 5114SOL     OW16240   3.914   6.846   0.279
 5114SOL    HW116241   3.847   6.916   0.258
 5114SOL    HW216242   3.933   6.792   0.198
 5115SOL     OW16243   1.857   3.673   1.879
 5115SOL    HW116244   1.927   3.605   1.856
 5115SOL    HW216245   1.779   3.663   1.818
 5116SOL     OW16246   2.489   6.016   6.826
 5116SOL    HW116247   2.540   6.007   6.912
 5116SOL    HW216248   2.530   6.090   6.772
 5117SOL     OW16249   0.902   3.510   4.140
 5117SOL    HW116250   1.000   3.488   4.138
 5117SOL    HW216251   0.864   3.499   4.048
 5118SOL     OW16252   6.031   6.781   0.205
 5118SOL    HW116253   6.108   6.782   0.269
 5118SOL    HW216254   6.021   6.689   0.166
 5119SOL     OW16255   4.924   1.235   0.967
 5119SOL    HW116256   4.921   1.334   0.981
 5119SOL    HW216257   4.832   1.197   0.981
 5120SOL     OW16258   4.753   7.023   5.077
 5120SOL    HW116259   4.831   6.960   5.084
 5120SOL    HW216260   4.771   0.063   5.005
 5121SOL     OW16261   3.371   3.624   0.369
 5121SOL    HW116262   3.294   3.587   0.421
 5121SOL    HW216263   3.339   3.655   0.279
 5122SOL     OW16264   3.650   5.989   2.835
 5122SOL    HW116265   3.558   6.024   2.819
 5122SOL    HW216266   3.672   5.994   2.932
 5123SOL     OW16267   5.672   2.550   2.795
 5123SOL    HW116268   5.747   2.580   2.854
 5123SOL    HW216269   5.699   2.467   2.746
 5124SOL     OW16270   2.145   6.188   3.044
 5124SOL    HW116271   2.180   6.277   3.071
 5124SOL    HW216272   2.055   6.173   3.085
 5125SOL     OW16273   0.364   2.268   3.095
 5125SOL    HW116274   0.282   2.326   3.101
 5125SOL    HW216275   0.418   2.296   3.016
 5126SOL     OW16276   1.137   6.364   6.894
 5126SOL    HW116277   1.101   6.416   6.971
 5126SOL    HW216278   1.237   6.366   6.894
 5127SOL     OW16279   1.295   5.526   6.940
 5127SOL    HW116280   1.226   5.540   6.868
 5127SOL    HW216281   1.341   5.613   6.959
 5128SOL     OW16282   0.001   6.129   0.698
 5128SOL    HW116283   6.953   6.073   0.733
 5128SOL    HW216284   6.992   6.193   0.630
 5129SOL     OW16285   5.105   6.460   1.592
 5129SOL    HW116286   5.036   6.415   1.649
 5129SOL    HW216287   5.115   6.555   1.622
 5130SOL     OW16288   0.180   4.760   2.776
 5130SOL    HW116289   0.240   4.790   2.702
 5130SOL    HW216290   0.204   4.809   2.860
 5131SOL     OW16291   1.453   3.450   4.130
 5131SOL    HW116292   1.461   3.539   4.175
 5131SOL    HW216293   1.524   3.441   4.060
 5132SOL     OW16294   4.048   3.129   6.438
 5132SOL    HW116295   4.107   3.062   6.483
 5132SOL    HW216296   4.023   3.201   6.503
 5133SOL     OW16297   3.435   4.779   0.537
 5133SOL    HW116298   3.461   4.683   0.527
 5133SOL    HW216299   3.342   4.785   0.574
 5134SOL     OW16300   0.399   2.889   1.553
 5134SOL    HW116301   0.489   2.915   1.518
 5134SOL    HW216302   0.405   2.873   1.652
 5135SOL     OW16303   6.185   1.971   5.485
 5135SOL    HW116304   6.218   2.015   5.569
 5135SOL    HW216305   6.155   2.041   5.420
 5136SOL     OW16306   5.165   0.545   5.501
 5136SOL    HW116307   5.066   0.535   5.484
 5136SOL    HW216308   5.201   0.620   5.446
 5137SOL     OW16309   5.699   3.238   6.577
 5137SOL    HW116310   5.748   3.214   6.660
 5137SOL    HW216311   5.601   3.247   6.597
 5138SOL     OW16312   3.720   3.135   6.279
 5138SOL    HW116313   3.634   3.128   6.228
 5138SOL    HW216314   3.775   3.053   6.263
 5139SOL     OW16315   1.169   6.920   3.861
 5139SOL    HW116316   1.124   6.832   3.875
 5139SOL    HW216317   1.101   6.993   3.866
 5140SOL     OW16318   2.888   1.714   6.844
 5140SOL    HW116319   2.841   1.656   6.910
 5140SOL    HW216320   2.980   1.734   6.877
 5141SOL     OW16321   6.047   3.254   0.932
 5141SOL    HW116322   6.073   3.198   1.010
 5141SOL    HW216323   6.016   3.195   0.857
 5142SOL     OW16324   5.925   1.689   4.130
 5142SOL    HW116325   5.964   1.658   4.043
 5142SOL    HW216326   5.957   1.782   4.148
 5143SOL     OW16327   0.773   4.392   4.010
 5143SOL    HW116328   0.847   4.441   3.963
 5143SOL    HW216329   0.806   4.301   4.037
 5144SOL     OW16330   1.596   6.510   6.374
 5144SOL    HW116331   1.530   6.454   6.325
 5144SOL    HW216332   1.662   6.548   6.309
 5145SOL     OW16333   2.765   5.328   6.230
 5145SOL    HW116334   2.780   5.424   6.256
 5145SOL    HW216335   2.836   5.271   6.272
 5146SOL     OW16336   4.484   3.784   6.518
 5146SOL    HW116337   4.551   3.756   6.449
 5146SOL    HW216338   4.441   3.703   6.558
 5147SOL     OW16339   0.038   4.225   1.950
 5147SOL    HW116340   6.983   4.178   1.983
 5147SOL    HW216341   0.038   4.224   1.850
 5148SOL     OW16342   0.321   6.288   1.194
 5148SOL    HW116343   0.337   6.340   1.110
 5148SOL    HW216344   0.307   6.352   1.270
 5149SOL     OW16345   6.123   0.074   3.997
 5149SOL    HW116346   6.190   0.018   3.949
 5149SOL    HW216347   6.169   0.124   4.071
 5150SOL     OW16348   2.047   5.749   3.756
 5150SOL    HW116349   2.005   5.659   3.739
 5150SOL    HW216350   1.979   5.820   3.740
 5151SOL     OW16351   5.396   0.877   0.085
 5151SOL    HW116352   5.444   0.957   0.123
 5151SOL    HW216353   5.426   0.863   7.016
 5152SOL     OW16354   2.302   4.898   6.328
 5152SOL    HW116355   2.360   4.931   6.254
 5152SOL    HW216356   2.206   4.915   6.307
 5153SOL     OW16357   2.475   1.056   6.531
 5153SOL    HW116358   2.496   0.975   6.476
 5153SOL    HW216359   2.433   1.126   6.473
 5154SOL     OW16360   2.024   3.063   6.211
 5154SOL    HW116361   1.932   3.073   6.249
 5154SOL    HW216362   2.045   2.966   6.201
 5155SOL     OW16363   4.460   6.577   1.972
 5155SOL    HW116364   4.546   6.606   1.931
 5155SOL    HW216365   4.395   6.653   1.972
 5156SOL     OW16366   6.715   2.469   6.392
 5156SOL    HW116367   6.678   2.536   6.329
 5156SOL    HW216368   6.663   2.384   6.386
 5157SOL     OW16369   4.947   2.720   3.783
 5157SOL    HW116370   5.041   2.752   3.793
 5157SOL    HW216371   4.916   2.735   3.689
 5158SOL     OW16372   3.030   1.589   1.358
 5158SOL    HW116373   3.130   1.589   1.364
 5158SOL    HW216374   2.999   1.672   1.311
 5159SOL     OW16375   0.904   3.501   5.009
 5159SOL    HW116376   0.914   3.489   4.910
 5159SOL    HW216377   0.827   3.563   5.027
 5160SOL     OW16378   1.398   3.831   4.584
 5160SOL    HW116379   1.340   3.819   4.503
 5160SOL    HW216380   1.350   3.795   4.664
 5161SOL     OW16381   1.224   4.342   5.059
 5161SOL    HW116382   1.219   4.441   5.072
 5161SOL    HW216383   1.148   4.311   5.002
 5162SOL     OW16384   0.104   5.437   4.239
 5162SOL    HW116385   0.011   5.402   4.225
 5162SOL    HW216386   0.164   5.362   4.266
 5163SOL     OW16387   4.176   5.063   1.446
 5163SOL    HW116388   4.180   5.159   1.471
 5163SOL    HW216389   4.268   5.025   1.440
 5164SOL     OW16390   5.906   2.652   6.140
 5164SOL    HW116391   5.858   2.664   6.053
 5164SOL    HW216392   5.846   2.606   6.205
 5165SOL     OW16393   5.907   4.531   4.943
 5165SOL    HW116394   5.883   4.474   4.864
 5165SOL    HW216395   5.914   4.626   4.915
 5166SOL     OW16396   1.547   5.287   1.691
 5166SOL    HW116397   1.642   5.297   1.721
 5166SOL    HW216398   1.545   5.247   1.599
 5167SOL     OW16399   5.881   0.157   5.473
 5167SOL    HW116400   5.846   0.113   5.555
 5167SOL    HW216401   5.807   0.162   5.405
 5168SOL     OW16402   5.050   2.509   3.655
 5168SOL    HW116403   5.133   2.466   3.692
 5168SOL    HW216404   5.025   2.587   3.713
 5169SOL     OW16405   3.432   3.311   6.310
 5169SOL    HW116406   3.401   3.405   6.322
 5169SOL    HW216407   3.423   3.261   6.397
 5170SOL     OW16408   6.886   4.026   6.472
 5170SOL    HW116409   6.787   4.038   6.463
 5170SOL    HW216410   6.927   4.111   6.505
 5171SOL     OW16411   2.441   4.554   4.657
 5171SOL    HW116412   2.523   4.570   4.711
 5171SOL    HW216413   2.384   4.486   4.702
 5172SOL     OW16414   1.288   3.405   1.713
 5172SOL    HW116415   1.205   3.415   1.657
 5172SOL    HW216416   1.343   3.330   1.676
 5173SOL     OW16417   5.792   4.069   6.226
 5173SOL    HW116418   5.871   4.027   6.270
 5173SOL    HW216419   5.731   4.107   6.295
 5174SOL     OW16420   1.863   4.737   4.420
 5174SOL    HW116421   1.928   4.664   4.438
 5174SOL    HW216422   1.840   4.784   4.505
 5175SOL     OW16423   2.066   4.259   6.709
 5175SOL    HW116424   2.082   4.328   6.779
 5175SOL    HW216425   2.025   4.301   6.628
 5176SOL     OW16426   3.800   3.004   0.690
 5176SOL    HW116427   3.846   2.962   0.768
 5176SOL    HW216428   3.703   2.979   0.691
 5177SOL     OW16429   5.073   0.549   5.771
 5177SOL    HW116430   5.141   0.490   5.814
 5177SOL    HW216431   5.100   0.567   5.676
 5178SOL     OW16432   2.578   2.314   1.003
 5178SOL    HW116433   2.536   2.404   1.016
 5178SOL    HW216434   2.602   2.301   0.907
 5179SOL     OW16435   4.782   5.765   5.355
 5179SOL    HW116436   4.751   5.749   5.261
 5179SOL    HW216437   4.836   5.850   5.357
 5180SOL     OW16438   3.144   2.648   6.702
 5180SOL    HW116439   3.070   2.687   6.647
 5180SOL    HW216440   3.109   2.622   6.792
 5181SOL     OW16441   3.949   1.366   2.944
 5181SOL    HW116442   3.872   1.377   3.007
 5181SOL    HW216443   3.925   1.298   2.875
 5182SOL     OW16444   5.493   5.048   1.377
 5182SOL    HW116445   5.480   5.113   1.452
 5182SOL    HW216446   5.551   5.088   1.307
 5183SOL     OW16447   4.679   6.735   1.845
 5183SOL    HW116448   4.600   6.796   1.836
 5183SOL    HW216449   4.760   6.780   1.807
 5184SOL     OW16450   0.778   1.832   3.846
 5184SOL    HW116451   0.698   1.887   3.823
 5184SOL    HW216452   0.765   1.738   3.814
 5185SOL     OW16453   4.366   0.528   2.939
 5185SOL    HW116454   4.323   0.611   2.905
 5185SOL    HW216455   4.447   0.507   2.884
 5186SOL     OW16456   6.427   4.202   0.813
 5186SOL    HW116457   6.356   4.263   0.778
 5186SOL    HW216458   6.477   4.247   0.886
 5187SOL     OW16459   6.512   1.026   3.881
 5187SOL    HW116460   6.597   1.028   3.828
 5187SOL    HW216461   6.478   0.932   3.885
 5188SOL     OW16462   0.111   5.362   0.849
 5188SOL    HW116463   0.100   5.265   0.867
 5188SOL    HW216464   0.208   5.383   0.835
 5189SOL     OW16465   4.603   5.295   0.257
 5189SOL    HW116466   4.684   5.336   0.298
 5189SOL    HW216467   4.521   5.326   0.305
 5190SOL     OW16468   1.074   2.107   4.555
 5190SOL    HW116469   1.069   2.046   4.634
 5190SOL    HW216470   1.024   2.192   4.575
 5191SOL     OW16471   3.666   1.038   1.655
 5191SOL    HW116472   3.606   0.959   1.664
 5191SOL    HW216473   3.674   1.084   1.743
 5192SOL     OW16474   4.781   5.708   2.567
 5192SOL    HW116475   4.819   5.701   2.659
 5192SOL    HW216476   4.823   5.787   2.520
 5193SOL     OW16477   4.606   4.393   3.618
 5193SOL    HW116478   4.543   4.423   3.690
 5193SOL    HW216479   4.690   4.447   3.623
 5194SOL     OW16480   5.216   0.350   5.902
 5194SOL    HW116481   5.307   0.351   5.862
 5194SOL    HW216482   5.222   0.336   6.000
 5195SOL     OW16483   6.258   6.642   4.697
 5195SOL    HW116484   6.195   6.638   4.774
 5195SOL    HW216485   6.218   6.697   4.624
 5196SOL     OW16486   0.961   4.094   1.444
 5196SOL    HW116487   0.935   4.103   1.540
 5196SOL    HW216488   1.040   4.153   1.425
 5197SOL     OW16489   1.752   6.165   3.803
 5197SOL    HW116490   1.700   6.250   3.815
 5197SOL    HW216491   1.833   6.184   3.747
 5198SOL     OW16492   2.738   6.986   4.976
 5198SOL    HW116493   2.728   0.038   5.037
 5198SOL    HW216494   2.675   6.995   4.899
 5199SOL     OW16495   2.498   5.447   1.378
 5199SOL    HW116496   2.409   5.403   1.389
 5199SOL    HW216497   2.529   5.436   1.283
 5200SOL     OW16498   1.001   2.353   4.965
 5200SOL    HW116499   1.099   2.375   4.960
 5200SOL    HW216500   0.972   2.314   4.877
 5201SOL     OW16501   5.426   5.150   4.640
 5201SOL    HW116502   5.393   5.181   4.551
 5201SOL    HW216503   5.448   5.053   4.635
 5202SOL     OW16504   5.396   3.082   0.002
 5202SOL    HW116505   5.304   3.052   7.000
 5202SOL    HW216506   5.388   3.153   0.072
 5203SOL     OW16507   1.731   0.533   5.892
 5203SOL    HW116508   1.695   0.461   5.952
 5203SOL    HW216509   1.831   0.535   5.898
 5204SOL     OW16510   3.058   6.890   6.906
 5204SOL    HW116511   2.991   6.831   6.861
 5204SOL    HW216512   3.062   6.869   7.003
 5205SOL     OW16513   6.722   5.694   0.178
 5205SOL    HW116514   6.780   5.685   0.258
 5205SOL    HW216515   6.632   5.728   0.205
 5206SOL     OW16516   0.764   4.554   5.303
 5206SOL    HW116517   0.731   4.542   5.397
 5206SOL    HW216518   0.792   4.649   5.290
 5207SOL     OW16519   6.846   0.269   4.179
 5207SOL    HW116520   6.837   0.226   4.269
 5207SOL    HW216521   6.862   0.367   4.191
 5208SOL     OW16522   4.807   2.759   0.004
 5208SOL    HW116523   4.722   2.762   6.978
 5208SOL    HW216524   4.795   2.808   0.091
 5209SOL     OW16525   4.799   0.201   2.965
 5209SOL    HW116526   4.812   0.108   2.930
 5209SOL    HW216527   4.793   0.199   3.065
 5210SOL     OW16528   5.211   4.246   1.279
 5210SOL    HW116529   5.240   4.312   1.209
 5210SOL    HW216530   5.229   4.285   1.370
 5211SOL     OW16531   4.981   2.293   4.359
 5211SOL    HW116532   4.995   2.232   4.436
 5211SOL    HW216533   4.904   2.354   4.378
 5212SOL     OW16534   1.499   2.123   0.692
 5212SOL    HW116535   1.556   2.152   0.769
 5212SOL    HW216536   1.425   2.189   0.679
 5213SOL     OW16537   3.987   3.702   2.194
 5213SOL    HW116538   4.033   3.660   2.116
 5213SOL    HW216539   3.972   3.799   2.176
 5214SOL     OW16540   4.883   4.422   6.345
 5214SOL    HW116541   4.821   4.403   6.268
 5214SOL    HW216542   4.957   4.482   6.314
 5215SOL     OW16543   6.976   3.324   4.197
 5215SOL    HW116544   0.042   3.310   4.159
 5215SOL    HW216545   6.908   3.315   4.124
 5216SOL     OW16546   4.982   5.321   0.987
 5216SOL    HW116547   4.937   5.406   0.961
 5216SOL    HW216548   5.080   5.328   0.968
 5217SOL     OW16549   3.419   5.303   4.075
 5217SOL    HW116550   3.399   5.272   3.982
 5217SOL    HW216551   3.348   5.270   4.137
 5218SOL     OW16552   0.383   1.443   0.861
 5218SOL    HW116553   0.359   1.388   0.781
 5218SOL    HW216554   0.379   1.540   0.838
 5219SOL     OW16555   3.599   1.588   4.579
 5219SOL    HW116556   3.515   1.640   4.596
 5219SOL    HW216557   3.610   1.575   4.480
 5220SOL     OW16558   1.690   5.142   3.222
 5220SOL    HW116559   1.741   5.061   3.250
 5220SOL    HW216560   1.596   5.117   3.201
 5221SOL     OW16561   0.077   0.328   1.431
 5221SOL    HW116562   0.121   0.241   1.451
 5221SOL    HW216563   0.006   0.315   1.361
 5222SOL     OW16564   4.109   5.234   1.878
 5222SOL    HW116565   4.090   5.144   1.917
 5222SOL    HW216566   4.040   5.300   1.909
 5223SOL     OW16567   0.326   2.379   0.923
 5223SOL    HW116568   0.421   2.405   0.944
 5223SOL    HW216569   0.268   2.460   0.925
 5224SOL     OW16570   0.735   1.646   4.546
 5224SOL    HW116571   0.831   1.621   4.535
 5224SOL    HW216572   0.704   1.695   4.465
 5225SOL     OW16573   6.564   1.690   4.458
 5225SOL    HW116574   6.535   1.784   4.470
 5225SOL    HW216575   6.485   1.632   4.443
 5226SOL     OW16576   0.283   5.382   3.747
 5226SOL    HW116577   0.284   5.294   3.698
 5226SOL    HW216578   0.188   5.407   3.767
 5227SOL     OW16579   0.196   3.856   5.819
 5227SOL    HW116580   0.100   3.836   5.837
 5227SOL    HW216581   0.204   3.942   5.769
 5228SOL     OW16582   1.171   2.501   6.866
 5228SOL    HW116583   1.110   2.579   6.852
 5228SOL    HW216584   1.265   2.528   6.847
 5229SOL     OW16585   3.435   6.051   6.706
 5229SOL    HW116586   3.475   5.993   6.634
 5229SOL    HW216587   3.477   6.029   6.794
 5230SOL     OW16588   0.019   0.302   2.442
 5230SOL    HW116589   0.037   0.231   2.511
 5230SOL    HW216590   6.982   0.369   2.480
 5231SOL     OW16591   5.569   1.476   3.450
 5231SOL    HW116592   5.591   1.542   3.521
 5231SOL    HW216593   5.513   1.520   3.380
 5232SOL     OW16594   1.601   3.799   5.964
 5232SOL    HW116595   1.700   3.787   5.977
 5232SOL    HW216596   1.575   3.768   5.873
 5233SOL     OW16597   3.374   1.311   2.349
 5233SOL    HW116598   3.279   1.320   2.319
 5233SOL    HW216599   3.397   1.386   2.411
 5234SOL     OW16600   2.125   3.309   0.285
 5234SOL    HW116601   2.030   3.296   0.255
 5234SOL    HW216602   2.186   3.288   0.209
 5235SOL     OW16603   2.232   2.309   0.479
 5235SOL    HW116604   2.189   2.235   0.428
 5235SOL    HW216605   2.328   2.316   0.453
 5236SOL     OW16606   3.029   4.884   2.001
 5236SOL    HW116607   2.974   4.880   1.918
 5236SOL    HW216608   2.968   4.891   2.080
 5237SOL     OW16609   1.901   1.860   4.831
 5237SOL    HW116610   1.816   1.821   4.867
 5237SOL    HW216611   1.881   1.949   4.790
 5238SOL     OW16612   1.127   4.571   2.405
 5238SOL    HW116613   1.101   4.545   2.498
 5238SOL    HW216614   1.221   4.544   2.387
 5239SOL     OW16615   3.607   4.107   1.057
 5239SOL    HW116616   3.580   4.010   1.054
 5239SOL    HW216617   3.525   4.164   1.049
 5240SOL     OW16618   2.757   2.869   5.753
 5240SOL    HW116619   2.687   2.805   5.783
 5240SOL    HW216620   2.748   2.955   5.804
 5241SOL     OW16621   1.467   6.058   2.268
 5241SOL    HW116622   1.533   6.125   2.233
 5241SOL    HW216623   1.476   6.052   2.368
 5242SOL     OW16624   5.144   0.432   1.663
 5242SOL    HW116625   5.071   0.497   1.644
 5242SOL    HW216626   5.224   0.454   1.608
 5243SOL     OW16627   2.380   6.270   1.878
 5243SOL    HW116628   2.358   6.365   1.859
 5243SOL    HW216629   2.325   6.237   1.955
 5244SOL     OW16630   4.768   3.523   0.442
 5244SOL    HW116631   4.783   3.466   0.361
 5244SOL    HW216632   4.728   3.467   0.515
 5245SOL     OW16633   3.930   4.113   0.441
 5245SOL    HW116634   3.926   4.179   0.516
 5245SOL    HW216635   4.014   4.059   0.449
 5246SOL     OW16636   6.635   2.304   2.461
 5246SOL    HW116637   6.627   2.304   2.361
 5246SOL    HW216638   6.665   2.394   2.492
 5247SOL     OW16639   3.724   1.372   5.265
 5247SOL    HW116640   3.736   1.467   5.234
 5247SOL    HW216641   3.810   1.323   5.255
 5248SOL     OW16642   6.929   2.040   3.031
 5248SOL    HW116643   6.940   1.947   2.996
 5248SOL    HW216644   7.005   2.061   3.092
 5249SOL     OW16645   1.340   5.270   6.943
 5249SOL    HW116646   1.260   5.236   6.895
 5249SOL    HW216647   1.344   5.370   6.937
 5250SOL     OW16648   1.652   5.616   0.405
 5250SOL    HW116649   1.602   5.554   0.465
 5250SOL    HW216650   1.664   5.573   0.315
 5251SOL     OW16651   0.716   4.663   1.181
 5251SOL    HW116652   0.779   4.703   1.115
 5251SOL    HW216653   0.713   4.720   1.263
 5252SOL     OW16654   2.844   0.094   2.221
 5252SOL    HW116655   2.816   0.040   2.142
 5252SOL    HW216656   2.772   0.091   2.291
 5253SOL     OW16657   5.899   4.388   5.164
 5253SOL    HW116658   5.909   4.446   5.084
 5253SOL    HW216659   5.891   4.445   5.246
 5254SOL     OW16660   5.465   0.411   3.596
 5254SOL    HW116661   5.536   0.371   3.538
 5254SOL    HW216662   5.388   0.348   3.602
 5255SOL     OW16663   5.385   2.167   4.554
 5255SOL    HW116664   5.317   2.225   4.510
 5255SOL    HW216665   5.407   2.090   4.494
 5256SOL     OW16666   5.018   1.489   3.272
 5256SOL    HW116667   4.920   1.503   3.289
 5256SOL    HW216668   5.032   1.399   3.231
 5257SOL     OW16669   4.777   0.001   0.544
 5257SOL    HW116670   4.791   6.951   0.481
 5257SOL    HW216671   4.729   0.075   0.497
 5258SOL     OW16672   5.629   2.041   2.773
 5258SOL    HW116673   5.584   2.107   2.832
 5258SOL    HW216674   5.581   1.953   2.778
 5259SOL     OW16675   5.092   5.445   2.802
 5259SOL    HW116676   5.016   5.511   2.799
 5259SOL    HW216677   5.092   5.391   2.719
 5260SOL     OW16678   3.147   5.305   0.055
 5260SOL    HW116679   3.130   5.337   0.148
 5260SOL    HW216680   3.155   5.383   7.019
 5261SOL     OW16681   0.036   4.742   0.476
 5261SOL    HW116682   0.074   4.717   0.565
 5261SOL    HW216683   0.006   4.659   0.428
 5262SOL     OW16684   2.245   0.780   3.085
 5262SOL    HW116685   2.208   0.869   3.111
 5262SOL    HW216686   2.314   0.792   3.014
 5263SOL     OW16687   1.932   1.364   3.225
 5263SOL    HW116688   2.004   1.410   3.173
 5263SOL    HW216689   1.930   1.267   3.199
 5264SOL     OW16690   6.514   1.966   2.184
 5264SOL    HW116691   6.600   1.968   2.235
 5264SOL    HW216692   6.522   2.025   2.103
 5265SOL     OW16693   5.818   2.863   4.588
 5265SOL    HW116694   5.721   2.855   4.613
 5265SOL    HW216695   5.854   2.951   4.622
 5266SOL     OW16696   2.347   6.815   1.421
 5266SOL    HW116697   2.284   6.796   1.496
 5266SOL    HW216698   2.295   6.835   1.338
 5267SOL     OW16699   4.766   2.277   4.841
 5267SOL    HW116700   4.858   2.305   4.868
 5267SOL    HW216701   4.735   2.202   4.901
 5268SOL     OW16702   5.246   0.543   6.767
 5268SOL    HW116703   5.307   0.620   6.784
 5268SOL    HW216704   5.154   0.577   6.750
 5269SOL     OW16705   0.640   6.625   2.530
 5269SOL    HW116706   0.655   6.674   2.444
 5269SOL    HW216707   0.716   6.644   2.592
 5270SOL     OW16708   5.298   1.807   0.912
 5270SOL    HW116709   5.257   1.716   0.914
 5270SOL    HW216710   5.234   1.872   0.871
 5271SOL     OW16711   6.344   4.795   5.058
 5271SOL    HW116712   6.344   4.696   5.041
 5271SOL    HW216713   6.414   4.838   5.002
 5272SOL     OW16714   3.841   6.169   0.884
 5272SOL    HW116715   3.759   6.114   0.902
 5272SOL    HW216716   3.893   6.181   0.969
 5273SOL     OW16717   0.945   3.072   2.744
 5273SOL    HW116718   0.903   3.019   2.670
 5273SOL    HW216719   1.039   3.095   2.720
 5274SOL     OW16720   5.238   6.438   2.768
 5274SOL    HW116721   5.184   6.482   2.840
 5274SOL    HW216722   5.334   6.435   2.796
 5275SOL     OW16723   2.938   0.779   1.126
 5275SOL    HW116724   3.011   0.748   1.186
 5275SOL    HW216725   2.940   0.879   1.119
 5276SOL     OW16726   2.449   0.584   2.274
 5276SOL    HW116727   2.486   0.536   2.353
 5276SOL    HW216728   2.502   0.559   2.192
 5277SOL     OW16729   3.085   0.916   2.626
 5277SOL    HW116730   3.026   0.840   2.653
 5277SOL    HW216731   3.134   0.949   2.707
 5278SOL     OW16732   4.813   4.565   3.624
 5278SOL    HW116733   4.907   4.538   3.602
 5278SOL    HW216734   4.787   4.643   3.566
 5279SOL     OW16735   2.707   5.488   1.004
 5279SOL    HW116736   2.785   5.490   1.066
 5279SOL    HW216737   2.734   5.445   0.918
 5280SOL     OW16738   2.731   6.400   5.060
 5280SOL    HW116739   2.803   6.469   5.064
 5280SOL    HW216740   2.643   6.440   5.086
 5281SOL     OW16741   6.888   2.128   2.133
 5281SOL    HW116742   6.980   2.158   2.160
 5281SOL    HW216743   6.832   2.116   2.215
 5282SOL     OW16744   2.399   1.393   3.552
 5282SOL    HW116745   2.417   1.298   3.576
 5282SOL    HW216746   2.452   1.418   3.471
 5283SOL     OW16747   5.309   6.309   1.246
 5283SOL    HW116748   5.335   6.397   1.285
 5283SOL    HW216749   5.234   6.270   1.299
 5284SOL     OW16750   5.674   4.479   2.647
 5284SOL    HW116751   5.624   4.553   2.691
 5284SOL    HW216752   5.707   4.414   2.716
 5285SOL     OW16753   3.208   4.931   3.999
 5285SOL    HW116754   3.297   4.958   4.035
 5285SOL    HW216755   3.168   5.008   3.949
 5286SOL     OW16756   2.399   4.352   1.144
 5286SOL    HW116757   2.399   4.445   1.179
 5286SOL    HW216758   2.330   4.298   1.192
 5287SOL     OW16759   2.754   1.807   0.595
 5287SOL    HW116760   2.763   1.894   0.546
 5287SOL    HW216761   2.774   1.821   0.692
 5288SOL     OW16762   3.808   0.310   1.452
 5288SOL    HW116763   3.904   0.339   1.460
 5288SOL    HW216764   3.761   0.368   1.386
 5289SOL     OW16765   0.836   5.286   0.258
 5289SOL    HW116766   0.923   5.254   0.298
 5289SOL    HW216767   0.780   5.207   0.233
 5290SOL     OW16768   3.725   5.803   6.831
 5290SOL    HW116769   3.812   5.809   6.782
 5290SOL    HW216770   3.649   5.814   6.766
 5291SOL     OW16771   2.453   5.401   5.937
 5291SOL    HW116772   2.362   5.378   5.903
 5291SOL    HW216773   2.477   5.340   6.012
 5292SOL     OW16774   5.292   3.335   6.848
 5292SOL    HW116775   5.229   3.257   6.842
 5292SOL    HW216776   5.298   3.366   6.942
 5293SOL     OW16777   0.956   1.144   4.735
 5293SOL    HW116778   0.893   1.195   4.677
 5293SOL    HW216779   0.917   1.055   4.758
 5294SOL     OW16780   5.680   2.824   6.491
 5294SOL    HW116781   5.588   2.831   6.529
 5294SOL    HW216782   5.687   2.880   6.408
 5295SOL     OW16783   5.134   1.349   2.896
 5295SOL    HW116784   5.172   1.307   2.814
 5295SOL    HW216785   5.185   1.432   2.918
 5296SOL     OW16786   1.824   4.834   0.139
 5296SOL    HW116787   1.801   4.819   0.235
 5296SOL    HW216788   1.776   4.914   0.105
 5297SOL     OW16789   2.108   1.560   0.715
 5297SOL    HW116790   2.052   1.631   0.757
 5297SOL    HW216791   2.051   1.507   0.652
 5298SOL     OW16792   6.580   4.907   2.116
 5298SOL    HW116793   6.534   4.866   2.037
 5298SOL    HW216794   6.676   4.924   2.094
 5299SOL     OW16795   2.455   0.850   1.622
 5299SOL    HW116796   2.509   0.879   1.542
 5299SOL    HW216797   2.380   0.914   1.636
 5300SOL     OW16798   0.108   5.565   3.483
 5300SOL    HW116799   0.205   5.566   3.460
 5300SOL    HW216800   0.065   5.485   3.440
 5301SOL     OW16801   4.278   1.515   7.003
 5301SOL    HW116802   4.181   1.520   0.001
 5301SOL    HW216803   4.332   1.495   0.059
 5302SOL     OW16804   0.056   4.552   2.930
 5302SOL    HW116805   0.069   4.640   2.885
 5302SOL    HW216806   0.022   4.485   2.865
 5303SOL     OW16807   6.469   4.673   3.874
 5303SOL    HW116808   6.561   4.696   3.907
 5303SOL    HW216809   6.406   4.668   3.952
 5304SOL     OW16810   4.905   2.053   6.012
 5304SOL    HW116811   4.952   2.127   6.059
 5304SOL    HW216812   4.877   2.084   5.921
 5305SOL     OW16813   2.262   0.577   4.071
 5305SOL    HW116814   2.308   0.554   3.985
 5305SOL    HW216815   2.169   0.540   4.069
 5306SOL     OW16816   2.333   6.464   5.614
 5306SOL    HW116817   2.422   6.510   5.622
 5306SOL    HW216818   2.318   6.408   5.696
 5307SOL     OW16819   4.379   6.570   6.335
 5307SOL    HW116820   4.435   6.653   6.345
 5307SOL    HW216821   4.326   6.576   6.250
 5308SOL     OW16822   6.896   0.338   3.702
 5308SOL    HW116823   6.933   0.426   3.732
 5308SOL    HW216824   6.938   0.265   3.755
 5309SOL     OW16825   3.600   3.634   3.561
 5309SOL    HW116826   3.600   3.685   3.475
 5309SOL    HW216827   3.690   3.594   3.577
 5310SOL     OW16828   5.531   2.640   1.459
 5310SOL    HW116829   5.433   2.659   1.465
 5310SOL    HW216830   5.582   2.725   1.477
 5311SOL     OW16831   2.591   5.592   0.026
 5311SOL    HW116832   2.655   5.516   0.040
 5311SOL    HW216833   2.605   5.631   6.961
 5312SOL     OW16834   1.413   4.660   2.583
 5312SOL    HW116835   1.407   4.630   2.488
 5312SOL    HW216836   1.383   4.755   2.590
 5313SOL     OW16837   1.039   5.950   6.641
 5313SOL    HW116838   0.950   5.969   6.682
 5313SOL    HW216839   1.070   6.029   6.589
 5314SOL     OW16840   4.600   5.382   7.010
 5314SOL    HW116841   4.504   5.407   7.016
 5314SOL    HW216842   4.636   5.364   0.076
 5315SOL     OW16843   5.657   4.049   1.661
 5315SOL    HW116844   5.592   4.102   1.715
 5315SOL    HW216845   5.721   4.003   1.722
 5316SOL     OW16846   6.978   4.864   4.695
 5316SOL    HW116847   7.016   4.951   4.664
 5316SOL    HW216848   7.012   4.790   4.637
 5317SOL     OW16849   5.528   0.666   2.614
 5317SOL    HW116850   5.449   0.720   2.586
 5317SOL    HW216851   5.512   0.569   2.591
 5318SOL     OW16852   0.099   2.820   4.780
 5318SOL    HW116853   0.182   2.766   4.789
 5318SOL    HW216854   0.120   2.917   4.795
 5319SOL     OW16855   5.684   0.326   7.018
 5319SOL    HW116856   5.688   0.240   0.042
 5319SOL    HW216857   5.608   0.323   6.953
 5320SOL     OW16858   5.462   3.702   6.993
 5320SOL    HW116859   5.374   3.748   6.987
 5320SOL    HW216860   5.473   3.639   6.916
 5321SOL     OW16861   1.810   5.696   5.239
 5321SOL    HW116862   1.862   5.632   5.183
 5321SOL    HW216863   1.761   5.646   5.311
 5322SOL     OW16864   4.399   5.664   6.435
 5322SOL    HW116865   4.386   5.757   6.400
 5322SOL    HW216866   4.414   5.667   6.533
 5323SOL     OW16867   3.894   1.923   7.010
 5323SOL    HW116868   3.878   1.959   0.075
 5323SOL    HW216869   3.816   1.944   6.951
 5324SOL     OW16870   4.097   3.077   1.240
 5324SOL    HW116871   4.044   3.062   1.323
 5324SOL    HW216872   4.073   3.166   1.201
 5325SOL     OW16873   5.032   6.560   2.091
 5325SOL    HW116874   4.963   6.588   2.157
 5325SOL    HW216875   4.988   6.545   2.002
 5326SOL     OW16876   6.791   5.607   1.821
 5326SOL    HW116877   6.710   5.566   1.779
 5326SOL    HW216878   6.861   5.537   1.831
 5327SOL     OW16879   6.580   6.716   4.524
 5327SOL    HW116880   6.600   6.694   4.620
 5327SOL    HW216881   6.580   6.815   4.512
 5328SOL     OW16882   3.851   3.769   6.823
 5328SOL    HW116883   3.890   3.836   6.887
 5328SOL    HW216884   3.901   3.773   6.737
 5329SOL     OW16885   0.574   4.421   0.704
 5329SOL    HW116886   0.578   4.363   0.785
 5329SOL    HW216887   0.529   4.507   0.726
 5330SOL     OW16888   3.480   3.922   1.441
 5330SOL    HW116889   3.466   3.875   1.529
 5330SOL    HW216890   3.438   3.869   1.368
 5331SOL     OW16891   4.327   1.854   0.304
 5331SOL    HW116892   4.342   1.786   0.232
 5331SOL    HW216893   4.409   1.861   0.361
 5332SOL     OW16894   6.161   5.444   0.695
 5332SOL    HW116895   6.186   5.528   0.743
 5332SOL    HW216896   6.141   5.372   0.762
 5333SOL     OW16897   1.611   1.515   3.733
 5333SOL    HW116898   1.664   1.580   3.677
 5333SOL    HW216899   1.569   1.446   3.674
 5334SOL     OW16900   4.666   4.306   3.344
 5334SOL    HW116901   4.700   4.213   3.340
 5334SOL    HW216902   4.641   4.328   3.439
 5335SOL     OW16903   0.113   4.908   1.578
 5335SOL    HW116904   0.082   4.996   1.542
 5335SOL    HW216905   0.204   4.888   1.541
 5336SOL     OW16906   2.135   2.064   4.306
 5336SOL    HW116907   2.165   2.076   4.401
 5336SOL    HW216908   2.153   2.148   4.255
 5337SOL     OW16909   6.697   4.277   1.302
 5337SOL    HW116910   6.778   4.218   1.298
 5337SOL    HW216911   6.721   4.363   1.347
 5338SOL     OW16912   6.229   3.047   0.094
 5338SOL    HW116913   6.230   2.971   0.029
 5338SOL    HW216914   6.322   3.067   0.124
 5339SOL     OW16915   6.127   2.345   2.871
 5339SOL    HW116916   6.227   2.346   2.875
 5339SOL    HW216917   6.097   2.293   2.791
 5340SOL     OW16918   5.661   2.831   2.248
 5340SOL    HW116919   5.650   2.732   2.251
 5340SOL    HW216920   5.590   2.874   2.304
 5341SOL     OW16921   4.612   4.757   3.514
 5341SOL    HW116922   4.650   4.731   3.425
 5341SOL    HW216923   4.520   4.795   3.501
 5342SOL     OW16924   6.029   6.918   5.299
 5342SOL    HW116925   6.004   6.931   5.395
 5342SOL    HW216926   6.128   6.933   5.289
 5343SOL     OW16927   3.943   3.705   5.506
 5343SOL    HW116928   3.975   3.799   5.524
 5343SOL    HW216929   3.983   3.673   5.421
 5344SOL     OW16930   0.343   1.663   6.715
 5344SOL    HW116931   0.341   1.731   6.788
 5344SOL    HW216932   0.349   1.709   6.627
 5345SOL     OW16933   5.527   1.047   6.891
 5345SOL    HW116934   5.524   1.136   6.846
 5345SOL    HW216935   5.584   1.053   6.973
 5346SOL     OW16936   2.813   5.184   3.854
 5346SOL    HW116937   2.804   5.223   3.762
 5346SOL    HW216938   2.803   5.257   3.922
 5347SOL     OW16939   6.171   2.151   4.247
 5347SOL    HW116940   6.134   2.242   4.268
 5347SOL    HW216941   6.269   2.158   4.230
 5348SOL     OW16942   5.319   2.124   4.056
 5348SOL    HW116943   5.234   2.155   4.015
 5348SOL    HW216944   5.334   2.028   4.033
 5349SOL     OW16945   1.187   2.834   1.565
 5349SOL    HW116946   1.251   2.876   1.501
 5349SOL    HW216947   1.101   2.885   1.565
 5350SOL     OW16948   2.031   6.635   5.924
 5350SOL    HW116949   2.066   6.707   5.984
 5350SOL    HW216950   2.066   6.649   5.831
 5351SOL     OW16951   0.268   5.550   1.605
 5351SOL    HW116952   0.269   5.634   1.659
 5351SOL    HW216953   0.359   5.508   1.606
 5352SOL     OW16954   1.757   3.857   3.689
 5352SOL    HW116955   1.665   3.876   3.657
 5352SOL    HW216956   1.820   3.851   3.611
 5353SOL     OW16957   4.440   5.532   3.292
 5353SOL    HW116958   4.386   5.448   3.292
 5353SOL    HW216959   4.527   5.515   3.246
 5354SOL     OW16960   3.912   5.541   0.630
 5354SOL    HW116961   3.930   5.503   0.721
 5354SOL    HW216962   3.963   5.627   0.620
 5355SOL     OW16963   5.563   5.064   5.287
 5355SOL    HW116964   5.505   5.136   5.325
 5355SOL    HW216965   5.509   4.979   5.279
 5356SOL     OW16966   0.389   4.550   1.539
 5356SOL    HW116967   0.344   4.461   1.534
 5356SOL    HW216968   0.476   4.546   1.491
 5357SOL     OW16969   4.587   5.069   1.936
 5357SOL    HW116970   4.567   4.987   1.881
 5357SOL    HW216971   4.589   5.149   1.877
 5358SOL     OW16972   4.358   1.242   6.931
 5358SOL    HW116973   4.334   1.338   6.918
 5358SOL    HW216974   4.292   1.199   6.993
 5359SOL     OW16975   1.812   1.942   0.263
 5359SOL    HW116976   1.831   1.903   0.353
 5359SOL    HW216977   1.771   2.033   0.273
 5360SOL     OW16978   5.630   4.566   3.919
 5360SOL    HW116979   5.702   4.601   3.858
 5360SOL    HW216980   5.574   4.499   3.870
 5361SOL     OW16981   3.471   6.474   2.460
 5361SOL    HW116982   3.486   6.573   2.454
 5361SOL    HW216983   3.546   6.426   2.414
 5362SOL     OW16984   5.283   0.053   2.139
 5362SOL    HW116985   5.312   0.008   2.224
 5362SOL    HW216986   5.355   0.042   2.070
 5363SOL     OW16987   5.706   5.401   4.927
 5363SOL    HW116988   5.671   5.495   4.919
 5363SOL    HW216989   5.629   5.339   4.942
 5364SOL     OW16990   4.696   0.819   2.736
 5364SOL    HW116991   4.679   0.842   2.831
 5364SOL    HW216992   4.747   0.894   2.692
 5365SOL     OW16993   3.206   3.594   4.115
 5365SOL    HW116994   3.135   3.525   4.102
 5365SOL    HW216995   3.291   3.563   4.072
 5366SOL     OW16996   6.424   6.824   1.586
 5366SOL    HW116997   6.380   6.747   1.540
 5366SOL    HW216998   6.500   6.857   1.530
 5367SOL     OW16999   6.983   6.385   0.826
 5367SOL    HW117000   6.995   6.288   0.805
 5367SOL    HW217001   6.968   6.395   0.925
 5368SOL     OW17002   6.562   5.632   3.334
 5368SOL    HW117003   6.619   5.698   3.383
 5368SOL    HW217004   6.600   5.617   3.243
 5369SOL     OW17005   2.820   5.470   2.103
 5369SOL    HW117006   2.796   5.401   2.035
 5369SOL    HW217007   2.851   5.553   2.056
 5370SOL     OW17008   3.297   3.905   1.673
 5370SOL    HW117009   3.351   3.834   1.718
 5370SOL    HW217010   3.204   3.873   1.660
 5371SOL     OW17011   6.852   5.192   5.757
 5371SOL    HW117012   6.892   5.104   5.784
 5371SOL    HW217013   6.764   5.203   5.803
 5372SOL     OW17014   0.785   0.570   2.422
 5372SOL    HW117015   0.880   0.573   2.390
 5372SOL    HW217016   0.772   0.487   2.477
 5373SOL     OW17017   4.125   6.992   5.764
 5373SOL    HW117018   4.050   0.008   5.714
 5373SOL    HW217019   4.089   6.920   5.824
 5374SOL     OW17020   2.967   5.055   1.241
 5374SOL    HW117021   2.979   4.996   1.320
 5374SOL    HW217022   2.870   5.076   1.229
 5375SOL     OW17023   0.473   5.955   4.990
 5375SOL    HW117024   0.569   5.981   5.002
 5375SOL    HW217025   0.449   5.886   5.058
 5376SOL     OW17026   1.394   1.660   0.351
 5376SOL    HW117027   1.339   1.657   0.268
 5376SOL    HW217028   1.427   1.753   0.365
 5377SOL     OW17029   2.274   0.521   3.167
 5377SOL    HW117030   2.260   0.604   3.113
 5377SOL    HW217031   2.309   0.545   3.257
 5378SOL     OW17032   5.915   0.750   1.574
 5378SOL    HW117033   5.890   0.846   1.560
 5378SOL    HW217034   5.898   0.726   1.670
 5379SOL     OW17035   0.543   3.036   6.084
 5379SOL    HW117036   0.550   3.135   6.091
 5379SOL    HW217037   0.621   3.000   6.034
 5380SOL     OW17038   4.988   0.053   1.450
 5380SOL    HW117039   4.964   0.146   1.423
 5380SOL    HW217040   5.028   0.053   1.542
 5381SOL     OW17041   5.025   6.751   2.975
 5381SOL    HW117042   5.104   6.722   3.029
 5381SOL    HW217043   4.971   6.817   3.028
 5382SOL     OW17044   4.194   1.709   2.181
 5382SOL    HW117045   4.272   1.674   2.129
 5382SOL    HW217046   4.170   1.645   2.253
 5383SOL     OW17047   1.771   3.145   4.296
 5383SOL    HW117048   1.866   3.119   4.281
 5383SOL    HW217049   1.711   3.088   4.240
 5384SOL     OW17050   4.552   5.786   5.515
 5384SOL    HW117051   4.573   5.767   5.611
 5384SOL    HW217052   4.638   5.798   5.464
 5385SOL     OW17053   6.005   2.662   5.748
 5385SOL    HW117054   5.992   2.607   5.666
 5385SOL    HW217055   6.077   2.621   5.805
 5386SOL     OW17056   6.671   4.159   3.988
 5386SOL    HW117057   6.758   4.117   3.962
 5386SOL    HW217058   6.603   4.140   3.917
 5387SOL     OW17059   2.082   1.123   2.402
 5387SOL    HW117060   2.095   1.036   2.450
 5387SOL    HW217061   2.169   1.153   2.364
 5388SOL     OW17062   0.812   6.920   2.494
 5388SOL    HW117063   0.723   6.921   2.448
 5388SOL    HW217064   0.884   6.907   2.426
 5389SOL     OW17065   4.780   1.977   4.214
 5389SOL    HW117066   4.874   1.990   4.182
 5389SOL    HW217067   4.719   2.037   4.162
 5390SOL     OW17068   6.569   3.387   3.607
 5390SOL    HW117069   6.634   3.325   3.564
 5390SOL    HW217070   6.549   3.463   3.544
 5391SOL     OW17071   2.184   2.661   0.214
 5391SOL    HW117072   2.144   2.593   0.152
 5391SOL    HW217073   2.268   2.624   0.254
 5392SOL     OW17074   5.133   1.636   3.694
 5392SOL    HW117075   5.088   1.645   3.783
 5392SOL    HW217076   5.146   1.726   3.653
 5393SOL     OW17077   3.655   1.387   5.563
 5393SOL    HW117078   3.685   1.419   5.474
 5393SOL    HW217079   3.564   1.424   5.583
 5394SOL     OW17080   2.251   0.246   0.683
 5394SOL    HW117081   2.266   0.174   0.616
 5394SOL    HW217082   2.264   0.335   0.639
 5395SOL     OW17083   5.012   2.324   1.198
 5395SOL    HW117084   5.056   2.260   1.134
 5395SOL    HW217085   5.073   2.402   1.213
 5396SOL     OW17086   5.968   5.572   2.625
 5396SOL    HW117087   5.913   5.520   2.560
 5396SOL    HW217088   6.057   5.594   2.584
 5397SOL     OW17089   6.295   1.312   3.303
 5397SOL    HW117090   6.197   1.295   3.311
 5397SOL    HW217091   6.342   1.227   3.278
 5398SOL     OW17092   4.910   2.492   3.429
 5398SOL    HW117093   4.844   2.418   3.414
 5398SOL    HW217094   4.952   2.480   3.520
 5399SOL     OW17095   1.910   6.923   5.355
 5399SOL    HW117096   1.844   6.849   5.341
 5399SOL    HW217097   1.919   6.975   5.270
 5400SOL     OW17098   3.651   3.241   1.497
 5400SOL    HW117099   3.639   3.148   1.533
 5400SOL    HW217100   3.748   3.263   1.494
 5401SOL     OW17101   5.690   4.323   2.426
 5401SOL    HW117102   5.675   4.380   2.507
 5401SOL    HW217103   5.647   4.367   2.346
 5402SOL     OW17104   2.060   0.124   0.877
 5402SOL    HW117105   2.017   0.189   0.939
 5402SOL    HW217106   2.124   0.172   0.817
 5403SOL     OW17107   4.890   3.355   0.252
 5403SOL    HW117108   4.911   3.260   0.227
 5403SOL    HW217109   4.967   3.413   0.225
 5404SOL     OW17110   6.334   1.050   1.011
 5404SOL    HW117111   6.359   0.959   1.043
 5404SOL    HW217112   6.379   1.119   1.068
 5405SOL     OW17113   5.342   5.471   0.059
 5405SOL    HW117114   5.421   5.532   0.070
 5405SOL    HW217115   5.363   5.381   0.097
 5406SOL     OW17116   2.742   0.220   4.130
 5406SOL    HW117117   2.764   0.293   4.065
 5406SOL    HW217118   2.665   0.249   4.188
 5407SOL     OW17119   2.358   0.607   1.509
 5407SOL    HW117120   2.311   0.642   1.428
 5407SOL    HW217121   2.411   0.680   1.551
 5408SOL     OW17122   2.583   2.535   4.649
 5408SOL    HW117123   2.582   2.527   4.549
 5408SOL    HW217124   2.601   2.445   4.689
 5409SOL     OW17125   1.077   2.886   1.300
 5409SOL    HW117126   1.088   2.787   1.307
 5409SOL    HW217127   1.105   2.917   1.209
 5410SOL     OW17128   1.047   2.184   0.887
 5410SOL    HW117129   1.084   2.238   0.811
 5410SOL    HW217130   0.957   2.148   0.862
 5411SOL     OW17131   3.773   5.029   6.930
 5411SOL    HW117132   3.814   5.073   6.850
 5411SOL    HW217133   3.844   4.983   6.983
 5412SOL     OW17134   0.384   2.242   6.094
 5412SOL    HW117135   0.372   2.143   6.101
 5412SOL    HW217136   0.370   2.270   5.999
 5413SOL     OW17137   6.750   6.528   5.222
 5413SOL    HW117138   6.676   6.497   5.162
 5413SOL    HW217139   6.795   6.448   5.262
 5414SOL     OW17140   6.595   4.499   5.758
 5414SOL    HW117141   6.676   4.540   5.799
 5414SOL    HW217142   6.614   4.403   5.735
 5415SOL     OW17143   3.346   0.375   0.877
 5415SOL    HW117144   3.347   0.278   0.856
 5415SOL    HW217145   3.413   0.422   0.819
 5416SOL     OW17146   3.406   4.887   5.269
 5416SOL    HW117147   3.364   4.796   5.262
 5416SOL    HW217148   3.421   4.923   5.177
 5417SOL     OW17149   4.724   6.152   3.641
 5417SOL    HW117150   4.671   6.089   3.698
 5417SOL    HW217151   4.713   6.127   3.545
 5418SOL     OW17152   6.221   4.176   4.441
 5418SOL    HW117153   6.218   4.084   4.401
 5418SOL    HW217154   6.273   4.173   4.526
 5419SOL     OW17155   3.735   6.952   6.649
 5419SOL    HW117156   3.708   6.858   6.627
 5419SOL    HW217157   3.830   6.967   6.621
 5420SOL     OW17158   1.592   1.199   1.084
 5420SOL    HW117159   1.496   1.221   1.072
 5420SOL    HW217160   1.602   1.124   1.149
 5421SOL     OW17161   3.544   4.988   2.355
 5421SOL    HW117162   3.517   4.921   2.424
 5421SOL    HW217163   3.471   4.997   2.287
 5422SOL     OW17164   2.124   6.032   4.067
 5422SOL    HW117165   2.081   5.943   4.080
 5422SOL    HW217166   2.134   6.051   3.969
 5423SOL     OW17167   6.639   6.080   2.758
 5423SOL    HW117168   6.620   6.135   2.677
 5423SOL    HW217169   6.598   6.124   2.838
 5424SOL     OW17170   4.609   4.315   5.195
 5424SOL    HW117171   4.575   4.221   5.194
 5424SOL    HW217172   4.643   4.340   5.105
 5425SOL     OW17173   0.267   3.556   6.446
 5425SOL    HW117174   0.272   3.607   6.360
 5425SOL    HW217175   0.223   3.468   6.430
 5426SOL     OW17176   5.762   5.422   2.498
 5426SOL    HW117177   5.706   5.356   2.548
 5426SOL    HW217178   5.712   5.454   2.418
 5427SOL     OW17179   4.752   2.444   6.631
 5427SOL    HW117180   4.753   2.347   6.655
 5427SOL    HW217181   4.834   2.466   6.578
 5428SOL     OW17182   6.549   5.271   3.241
 5428SOL    HW117183   6.483   5.340   3.213
 5428SOL    HW217184   6.562   5.205   3.167
 5429SOL     OW17185   2.706   0.108   3.840
 5429SOL    HW117186   2.698   0.126   3.742
 5429SOL    HW217187   2.637   0.162   3.889
 5430SOL     OW17188   2.401   3.819   6.348
 5430SOL    HW117189   2.359   3.857   6.430
 5430SOL    HW217190   2.482   3.767   6.373
 5431SOL     OW17191   3.254   5.070   5.546
 5431SOL    HW117192   3.265   4.973   5.568
 5431SOL    HW217193   3.180   5.109   5.601
 5432SOL     OW17194   5.615   5.805   1.253
 5432SOL    HW117195   5.526   5.762   1.265
 5432SOL    HW217196   5.611   5.871   1.177
 5433SOL     OW17197   1.551   0.094   0.877
 5433SOL    HW117198   1.573   0.001   0.908
 5433SOL    HW217199   1.472   0.128   0.927
 5434SOL     OW17200   4.932   0.857   5.293
 5434SOL    HW117201   4.876   0.798   5.351
 5434SOL    HW217202   4.881   0.939   5.269
 5435SOL     OW17203   6.164   3.957   1.069
 5435SOL    HW117204   6.141   3.972   0.973
 5435SOL    HW217205   6.264   3.948   1.078
 5436SOL     OW17206   1.687   5.039   2.905
 5436SOL    HW117207   1.610   5.040   2.969
 5436SOL    HW217208   1.771   5.015   2.953
 5437SOL     OW17209   3.709   5.734   0.141
 5437SOL    HW117210   3.761   5.814   0.111
 5437SOL    HW217211   3.690   5.741   0.239
 5438SOL     OW17212   4.508   4.446   2.837
 5438SOL    HW117213   4.557   4.375   2.887
 5438SOL    HW217214   4.430   4.478   2.892
 5439SOL     OW17215   1.042   4.823   1.367
 5439SOL    HW117216   1.131   4.804   1.326
 5439SOL    HW217217   0.994   4.737   1.384
 5440SOL     OW17218   5.365   6.182   3.548
 5440SOL    HW117219   5.365   6.113   3.620
 5440SOL    HW217220   5.459   6.201   3.519
 5441SOL     OW17221   4.567   2.391   3.572
 5441SOL    HW117222   4.612   2.306   3.599
 5441SOL    HW217223   4.512   2.426   3.648
 5442SOL     OW17224   5.133   0.079   4.727
 5442SOL    HW117225   5.044   0.101   4.686
 5442SOL    HW217226   5.126   7.018   4.776
 5443SOL     OW17227   4.886   0.153   4.601
 5443SOL    HW117228   4.888   0.236   4.546
 5443SOL    HW217229   4.870   0.074   4.542
 5444SOL     OW17230   0.216   0.945   4.100
 5444SOL    HW117231   0.129   0.897   4.088
 5444SOL    HW217232   0.238   0.950   4.197
 5445SOL     OW17233   5.235   5.693   5.487
 5445SOL    HW117234   5.306   5.628   5.461
 5445SOL    HW217235   5.219   5.757   5.413
 5446SOL     OW17236   0.796   4.332   5.708
 5446SOL    HW117237   0.824   4.328   5.804
 5446SOL    HW217238   0.754   4.245   5.682
 5447SOL     OW17239   1.155   1.250   0.654
 5447SOL    HW117240   1.190   1.326   0.599
 5447SOL    HW217241   1.197   1.252   0.745
 5448SOL     OW17242   3.905   5.720   3.604
 5448SOL    HW117243   3.851   5.705   3.687
 5448SOL    HW217244   3.843   5.743   3.529
 5449SOL     OW17245   3.137   1.581   1.988
 5449SOL    HW117246   3.061   1.631   1.946
 5449SOL    HW217247   3.201   1.645   2.029
 5450SOL     OW17248   4.216   5.730   1.879
 5450SOL    HW117249   4.172   5.737   1.789
 5450SOL    HW217250   4.311   5.702   1.867
 5451SOL     OW17251   1.265   0.475   3.083
 5451SOL    HW117252   1.272   0.558   3.027
 5451SOL    HW217253   1.168   0.454   3.100
 5452SOL     OW17254   2.148   4.599   2.139
 5452SOL    HW117255   2.049   4.584   2.132
 5452SOL    HW217256   2.190   4.520   2.184
 5453SOL     OW17257   5.662   4.207   3.076
 5453SOL    HW117258   5.703   4.216   3.167
 5453SOL    HW217259   5.676   4.114   3.042
 5454SOL     OW17260   6.015   5.324   3.595
 5454SOL    HW117261   6.048   5.230   3.593
 5454SOL    HW217262   6.088   5.386   3.563
 5455SOL     OW17263   0.382   1.957   2.962
 5455SOL    HW117264   0.469   1.969   2.915
 5455SOL    HW217265   0.371   2.029   3.030
 5456SOL     OW17266   5.165   1.095   6.472
 5456SOL    HW117267   5.265   1.096   6.478
 5456SOL    HW217268   5.129   1.021   6.530
 5457SOL     OW17269   6.187   2.237   0.622
 5457SOL    HW117270   6.183   2.157   0.682
 5457SOL    HW217271   6.095   2.256   0.586
 5458SOL     OW17272   6.033   4.765   0.899
 5458SOL    HW117273   6.106   4.707   0.862
 5458SOL    HW217274   5.949   4.751   0.847
 5459SOL     OW17275   2.148   4.407   5.671
 5459SOL    HW117276   2.244   4.388   5.694
 5459SOL    HW217277   2.126   4.363   5.584
 5460SOL     OW17278   1.725   0.217   0.412
 5460SOL    HW117279   1.773   0.169   0.340
 5460SOL    HW217280   1.747   0.177   0.501
 5461SOL     OW17281   6.846   1.267   6.802
 5461SOL    HW117282   6.812   1.205   6.873
 5461SOL    HW217283   6.940   1.244   6.780
 5462SOL     OW17284   4.968   6.154   6.440
 5462SOL    HW117285   4.939   6.060   6.422
 5462SOL    HW217286   5.065   6.155   6.464
 5463SOL     OW17287   0.106   2.780   0.096
 5463SOL    HW117288   0.056   2.804   0.179
 5463SOL    HW217289   0.070   2.832   0.019
 5464SOL     OW17290   5.940   6.589   5.394
 5464SOL    HW117291   5.987   6.508   5.360
 5464SOL    HW217292   5.858   6.605   5.340
 5465SOL     OW17293   0.099   6.309   3.489
 5465SOL    HW117294   0.006   6.312   3.451
 5465SOL    HW217295   0.123   6.214   3.509
 5466SOL     OW17296   6.096   2.771   5.287
 5466SOL    HW117297   6.073   2.738   5.379
 5466SOL    HW217298   6.013   2.781   5.233
 5467SOL     OW17299   5.558   3.628   3.408
 5467SOL    HW117300   5.493   3.650   3.336
 5467SOL    HW217301   5.603   3.712   3.439
 5468SOL     OW17302   6.721   1.741   2.496
 5468SOL    HW117303   6.664   1.709   2.572
 5468SOL    HW217304   6.807   1.690   2.495
 5469SOL     OW17305   1.839   0.894   5.459
 5469SOL    HW117306   1.835   0.917   5.556
 5469SOL    HW217307   1.912   0.947   5.415
 5470SOL     OW17308   3.960   5.373   4.541
 5470SOL    HW117309   3.962   5.382   4.640
 5470SOL    HW217310   4.012   5.447   4.499
 5471SOL     OW17311   4.906   0.087   2.439
 5471SOL    HW117312   4.946   0.045   2.520
 5471SOL    HW217313   4.915   0.186   2.444
 5472SOL     OW17314   3.258   1.609   5.943
 5472SOL    HW117315   3.164   1.578   5.933
 5472SOL    HW217316   3.319   1.530   5.949
 5473SOL     OW17317   2.002   4.719   1.524
 5473SOL    HW117318   1.918   4.702   1.472
 5473SOL    HW217319   2.054   4.792   1.479
 5474SOL     OW17320   0.464   5.499   3.371
 5474SOL    HW117321   0.483   5.583   3.423
 5474SOL    HW217322   0.516   5.423   3.410
 5475SOL     OW17323   0.098   1.871   6.689
 5475SOL    HW117324   0.176   1.933   6.697
 5475SOL    HW217325   0.025   1.901   6.751
 5476SOL     OW17326   2.673   6.384   5.928
 5476SOL    HW117327   2.614   6.451   5.973
 5476SOL    HW217328   2.768   6.417   5.930
 5477SOL     OW17329   2.283   5.165   4.329
 5477SOL    HW117330   2.311   5.069   4.334
 5477SOL    HW217331   2.230   5.188   4.411
 5478SOL     OW17332   5.923   4.877   6.371
 5478SOL    HW117333   5.987   4.815   6.326
 5478SOL    HW217334   5.955   4.972   6.359
 5479SOL     OW17335   4.416   2.065   4.639
 5479SOL    HW117336   4.509   2.089   4.612
 5479SOL    HW217337   4.401   1.967   4.623
 5480SOL     OW17338   6.507   4.462   5.170
 5480SOL    HW117339   6.526   4.497   5.078
 5480SOL    HW217340   6.523   4.363   5.172
 5481SOL     OW17341   4.114   1.076   6.114
 5481SOL    HW117342   4.018   1.086   6.087
 5481SOL    HW217343   4.124   1.100   6.210
 5482SOL     OW17344   3.417   3.395   1.793
 5482SOL    HW117345   3.516   3.378   1.799
 5482SOL    HW217346   3.387   3.441   1.876
 5483SOL     OW17347   6.448   3.197   5.734
 5483SOL    HW117348   6.380   3.254   5.781
 5483SOL    HW217349   6.500   3.254   5.670
 5484SOL     OW17350   6.759   6.286   4.052
 5484SOL    HW117351   6.803   6.217   4.110
 5484SOL    HW217352   6.777   6.377   4.088
 5485SOL     OW17353   3.810   0.000   4.946
 5485SOL    HW117354   3.794   0.058   5.026
 5485SOL    HW217355   3.756   6.943   4.953
 5486SOL     OW17356   1.684   0.491   3.631
 5486SOL    HW117357   1.644   0.565   3.685
 5486SOL    HW217358   1.661   0.504   3.534
 5487SOL     OW17359   6.079   4.807   0.507
 5487SOL    HW117360   6.177   4.812   0.527
 5487SOL    HW217361   6.029   4.867   0.569
 5488SOL     OW17362   4.796   2.101   6.994
 5488SOL    HW117363   4.777   2.132   6.900
 5488SOL    HW217364   4.714   2.055   0.004
 5489SOL     OW17365   1.574   4.208   2.669
 5489SOL    HW117366   1.588   4.248   2.759
 5489SOL    HW217367   1.547   4.112   2.679
 5490SOL     OW17368   3.544   0.482   0.654
 5490SOL    HW117369   3.628   0.428   0.658
 5490SOL    HW217370   3.477   0.435   0.596
 5491SOL     OW17371   1.445   4.814   0.515
 5491SOL    HW117372   1.483   4.725   0.491
 5491SOL    HW217373   1.513   4.866   0.566
 5492SOL     OW17374   1.245   1.783   6.426
 5492SOL    HW117375   1.149   1.811   6.415
 5492SOL    HW217376   1.248   1.685   6.445
 5493SOL     OW17377   3.662   3.064   5.763
 5493SOL    HW117378   3.739   3.126   5.780
 5493SOL    HW217379   3.680   3.011   5.680
 5494SOL     OW17380   6.743   3.735   0.872
 5494SOL    HW117381   6.668   3.789   0.911
 5494SOL    HW217382   6.777   3.671   0.940
 5495SOL     OW17383   3.654   3.844   1.692
 5495SOL    HW117384   3.670   3.929   1.741
 5495SOL    HW217385   3.719   3.837   1.616
 5496SOL     OW17386   3.823   5.968   1.852
 5496SOL    HW117387   3.830   5.993   1.755
 5496SOL    HW217388   3.861   5.877   1.867
 5497SOL     OW17389   0.668   2.025   3.177
 5497SOL    HW117390   0.739   2.030   3.108
 5497SOL    HW217391   0.608   1.948   3.158
 5498SOL     OW17392   4.531   0.998   5.861
 5498SOL    HW117393   4.433   1.008   5.840
 5498SOL    HW217394   4.544   0.921   5.923
 5499SOL     OW17395   0.266   0.704   3.712
 5499SOL    HW117396   0.311   0.715   3.800
 5499SOL    HW217397   0.248   0.607   3.695
 5500SOL     OW17398   2.165   5.578   0.047
 5500SOL    HW117399   2.091   5.549   0.107
 5500SOL    HW217400   2.235   5.507   0.045
 5501SOL     OW17401   2.595   0.268   2.174
 5501SOL    HW117402   2.532   0.324   2.119
 5501SOL    HW217403   2.622   0.320   2.255
 5502SOL     OW17404   5.933   3.825   5.703
 5502SOL    HW117405   5.931   3.924   5.708
 5502SOL    HW217406   5.989   3.796   5.625
 5503SOL     OW17407   1.128   4.458   3.077
 5503SOL    HW117408   1.061   4.529   3.058
 5503SOL    HW217409   1.207   4.470   3.016
 5504SOL     OW17410   3.592   0.684   4.562
 5504SOL    HW117411   3.655   0.607   4.573
 5504SOL    HW217412   3.597   0.718   4.468
 5505SOL     OW17413   2.129   6.173   4.680
 5505SOL    HW117414   2.127   6.232   4.760
 5505SOL    HW217415   2.209   6.113   4.685
 5506SOL     OW17416   6.848   0.716   4.724
 5506SOL    HW117417   6.888   0.625   4.707
 5506SOL    HW217418   6.895   0.784   4.667
 5507SOL     OW17419   2.215   6.196   2.787
 5507SOL    HW117420   2.153   6.173   2.861
 5507SOL    HW217421   2.303   6.227   2.825
 5508SOL     OW17422   2.522   0.449   6.483
 5508SOL    HW117423   2.552   0.459   6.388
 5508SOL    HW217424   2.537   0.534   6.532
 5509SOL     OW17425   5.890   6.239   0.078
 5509SOL    HW117426   5.823   6.206   0.144
 5509SOL    HW217427   5.874   6.337   0.061
 5510SOL     OW17428   4.166   6.711   6.409
 5510SOL    HW117429   4.232   6.643   6.377
 5510SOL    HW217430   4.195   6.802   6.379
 5511SOL     OW17431   0.970   0.317   2.392
 5511SOL    HW117432   0.876   0.315   2.425
 5511SOL    HW217433   1.014   0.402   2.422
 5512SOL     OW17434   6.795   2.103   0.651
 5512SOL    HW117435   6.879   2.155   0.660
 5512SOL    HW217436   6.796   2.025   0.713
 5513SOL     OW17437   4.608   4.425   4.627
 5513SOL    HW117438   4.689   4.483   4.618
 5513SOL    HW217439   4.552   4.458   4.704
 5514SOL     OW17440   5.964   4.961   3.093
 5514SOL    HW117441   5.901   4.924   3.025
 5514SOL    HW217442   5.912   5.008   3.164
 5515SOL     OW17443   6.737   2.702   1.660
 5515SOL    HW117444   6.723   2.779   1.722
 5515SOL    HW217445   6.835   2.687   1.647
 5516SOL     OW17446   1.719   2.788   6.959
 5516SOL    HW117447   1.810   2.813   6.926
 5516SOL    HW217448   1.711   2.688   6.961
 5517SOL     OW17449   3.415   2.412   1.531
 5517SOL    HW117450   3.441   2.467   1.611
 5517SOL    HW217451   3.495   2.364   1.496
 5518SOL     OW17452   5.440   5.117   6.086
 5518SOL    HW117453   5.506   5.096   6.013
 5518SOL    HW217454   5.434   5.038   6.148
 5519SOL     OW17455   5.138   3.831   3.110
 5519SOL    HW117456   5.091   3.774   3.042
 5519SOL    HW217457   5.168   3.774   3.186
 5520SOL     OW17458   1.642   4.323   2.895
 5520SOL    HW117459   1.735   4.289   2.885
 5520SOL    HW217460   1.602   4.287   2.979
 5521SOL     OW17461   5.111   6.224   1.996
 5521SOL    HW117462   5.085   6.152   2.061
 5521SOL    HW217463   5.182   6.189   1.935
 5522SOL     OW17464   2.247   3.430   1.292
 5522SOL    HW117465   2.248   3.488   1.211
 5522SOL    HW217466   2.338   3.430   1.334
 5523SOL     OW17467   3.425   6.747   2.933
 5523SOL    HW117468   3.456   6.810   3.004
 5523SOL    HW217469   3.387   6.665   2.976
 5524SOL     OW17470   0.291   5.368   5.098
 5524SOL    HW117471   0.337   5.346   5.184
 5524SOL    HW217472   0.287   5.287   5.040
 5525SOL     OW17473   6.490   5.025   0.006
 5525SOL    HW117474   6.552   5.094   0.045
 5525SOL    HW217475   6.485   4.946   0.067
 5526SOL     OW17476   6.194   3.797   3.961
 5526SOL    HW117477   6.274   3.759   4.007
 5526SOL    HW217478   6.117   3.798   4.024
 5527SOL     OW17479   0.575   2.832   2.374
 5527SOL    HW117480   0.655   2.780   2.404
 5527SOL    HW217481   0.556   2.810   2.278
 5528SOL     OW17482   0.080   2.430   5.616
 5528SOL    HW117483   0.085   2.509   5.678
 5528SOL    HW217484   0.156   2.368   5.635
 5529SOL     OW17485   2.212   0.084   4.888
 5529SOL    HW117486   2.155   0.135   4.824
 5529SOL    HW217487   2.276   0.147   4.933
 5530SOL     OW17488   0.200   2.506   1.561
 5530SOL    HW117489   0.203   2.480   1.464
 5530SOL    HW217490   0.243   2.596   1.573
 5531SOL     OW17491   4.071   3.428   4.557
 5531SOL    HW117492   4.135   3.434   4.634
 5531SOL    HW217493   4.085   3.505   4.496
 5532SOL     OW17494   1.339   0.937   0.408
 5532SOL    HW117495   1.302   0.845   0.416
 5532SOL    HW217496   1.272   0.996   0.362
 5533SOL     OW17497   2.633   1.090   2.997
 5533SOL    HW117498   2.566   1.160   2.973
 5533SOL    HW217499   2.624   1.012   2.935
 5534SOL     OW17500   0.907   3.011   7.016
 5534SOL    HW117501   0.837   3.082   7.011
 5534SOL    HW217502   0.865   2.922   6.998
 5535SOL     OW17503   6.759   3.092   2.846
 5535SOL    HW117504   6.836   3.056   2.900
 5535SOL    HW217505   6.680   3.105   2.906
 5536SOL     OW17506   2.309   0.838   4.190
 5536SOL    HW117507   2.276   0.835   4.284
 5536SOL    HW217508   2.310   0.746   4.151
 5537SOL     OW17509   3.771   0.484   4.581
 5537SOL    HW117510   3.840   0.488   4.509
 5537SOL    HW217511   3.767   0.391   4.618
 5538SOL     OW17512   4.219   0.427   5.406
 5538SOL    HW117513   4.186   0.350   5.352
 5538SOL    HW217514   4.201   0.512   5.356
 5539SOL     OW17515   0.643   1.829   1.818
 5539SOL    HW117516   0.662   1.732   1.803
 5539SOL    HW217517   0.706   1.884   1.763
 5540SOL     OW17518   5.041   3.116   1.505
 5540SOL    HW117519   5.031   3.135   1.603
 5540SOL    HW217520   5.035   3.201   1.454
 5541SOL     OW17521   5.091   3.331   5.429
 5541SOL    HW117522   5.025   3.282   5.372
 5541SOL    HW217523   5.042   3.379   5.502
 5542SOL     OW17524   5.680   5.602   5.629
 5542SOL    HW117525   5.586   5.637   5.627
 5542SOL    HW217526   5.729   5.634   5.548
 5543SOL     OW17527   2.651   5.697   6.774
 5543SOL    HW117528   2.600   5.744   6.702
 5543SOL    HW217529   2.693   5.765   6.834
 5544SOL     OW17530   5.552   5.081   5.635
 5544SOL    HW117531   5.568   5.126   5.723
 5544SOL    HW217532   5.633   5.091   5.578
 5545SOL     OW17533   4.440   1.587   2.498
 5545SOL    HW117534   4.413   1.526   2.572
 5545SOL    HW217535   4.534   1.619   2.513
 5546SOL     OW17536   0.618   6.629   4.207
 5546SOL    HW117537   0.554   6.652   4.133
 5546SOL    HW217538   0.712   6.642   4.174
 5547SOL     OW17539   3.597   0.975   5.105
 5547SOL    HW117540   3.516   1.021   5.142
 5547SOL    HW217541   3.629   1.024   5.024
 5548SOL     OW17542   6.612   4.057   6.011
 5548SOL    HW117543   6.514   4.052   6.030
 5548SOL    HW217544   6.661   4.079   6.096
 5549SOL     OW17545   4.189   3.280   1.748
 5549SOL    HW117546   4.261   3.211   1.737
 5549SOL    HW217547   4.115   3.242   1.804
 5550SOL     OW17548   2.617   4.653   3.008
 5550SOL    HW117549   2.609   4.586   3.083
 5550SOL    HW217550   2.562   4.734   3.030
 5551SOL     OW17551   1.130   6.569   2.539
 5551SOL    HW117552   1.105   6.476   2.512
 5551SOL    HW217553   1.189   6.564   2.620
 5552SOL     OW17554   6.006   0.686   6.280
 5552SOL    HW117555   5.962   0.776   6.281
 5552SOL    HW217556   6.003   0.648   6.372
 5553SOL     OW17557   4.298   6.937   6.324
 5553SOL    HW117558   4.354   6.942   6.241
 5553SOL    HW217559   4.303   7.024   6.372
 5554SOL     OW17560   5.179   3.205   1.993
 5554SOL    HW117561   5.114   3.196   1.918
 5554SOL    HW217562   5.250   3.135   1.984
 5555SOL     OW17563   1.169   3.216   2.230
 5555SOL    HW117564   1.267   3.222   2.248
 5555SOL    HW217565   1.145   3.274   2.152
 5556SOL     OW17566   6.422   0.739   3.851
 5556SOL    HW117567   6.518   0.740   3.878
 5556SOL    HW217568   6.390   0.645   3.841
 5557SOL     OW17569   3.930   5.433   1.912
 5557SOL    HW117570   3.902   5.529   1.904
 5557SOL    HW217571   3.867   5.375   1.859
 5558SOL     OW17572   3.556   3.412   0.108
 5558SOL    HW117573   3.618   3.486   0.082
 5558SOL    HW217574   3.529   3.361   0.026
 5559SOL     OW17575   1.517   0.538   1.968
 5559SOL    HW117576   1.511   0.446   2.008
 5559SOL    HW217577   1.585   0.592   2.018
 5560SOL     OW17578   0.253   5.685   1.164
 5560SOL    HW117579   0.289   5.612   1.222
 5560SOL    HW217580   0.314   5.700   1.086
 5561SOL     OW17581   2.601   0.483   4.509
 5561SOL    HW117582   2.548   0.512   4.588
 5561SOL    HW217583   2.591   0.551   4.436
 5562SOL     OW17584   4.452   3.338   0.463
 5562SOL    HW117585   4.526   3.285   0.421
 5562SOL    HW217586   4.480   3.434   0.471
 5563SOL     OW17587   2.910   5.286   2.977
 5563SOL    HW117588   2.886   5.377   3.010
 5563SOL    HW217589   2.982   5.248   3.035
 5564SOL     OW17590   4.535   0.081   6.298
 5564SOL    HW117591   4.505   0.149   6.364
 5564SOL    HW217592   4.617   0.035   6.332
 5565SOL     OW17593   3.652   2.465   6.281
 5565SOL    HW117594   3.739   2.433   6.317
 5565SOL    HW217595   3.617   2.538   6.340
 5566SOL     OW17596   2.074   4.509   6.937
 5566SOL    HW117597   1.982   4.472   6.953
 5566SOL    HW217598   2.134   4.485   7.013
 5567SOL     OW17599   0.060   4.216   1.697
 5567SOL    HW117600   0.049   4.305   1.653
 5567SOL    HW217601   0.057   4.143   1.628
 5568SOL     OW17602   4.551   1.235   3.542
 5568SOL    HW117603   4.643   1.222   3.506
 5568SOL    HW217604   4.551   1.215   3.640
 5569SOL     OW17605   1.669   1.949   2.454
 5569SOL    HW117606   1.650   1.937   2.551
 5569SOL    HW217607   1.768   1.947   2.439
 5570SOL     OW17608   5.964   3.774   3.676
 5570SOL    HW117609   5.946   3.872   3.670
 5570SOL    HW217610   5.964   3.746   3.773
 5571SOL     OW17611   6.439   5.716   2.125
 5571SOL    HW117612   6.486   5.713   2.213
 5571SOL    HW217613   6.500   5.754   2.056
 5572SOL     OW17614   1.025   4.632   4.560
 5572SOL    HW117615   0.948   4.695   4.548
 5572SOL    HW217616   1.110   4.684   4.566
 5573SOL     OW17617   1.287   5.952   5.011
 5573SOL    HW117618   1.201   5.980   4.967
 5573SOL    HW217619   1.323   6.028   5.064
 5574SOL     OW17620   0.304   2.842   0.901
 5574SOL    HW117621   0.269   2.872   0.812
 5574SOL    HW217622   0.284   2.744   0.913
 5575SOL     OW17623   6.439   1.171   0.599
 5575SOL    HW117624   6.419   1.241   0.530
 5575SOL    HW217625   6.488   1.213   0.675
 5576SOL     OW17626   1.372   4.546   2.346
 5576SOL    HW117627   1.442   4.481   2.376
 5576SOL    HW217628   1.398   4.584   2.257
 5577SOL     OW17629   2.741   2.526   6.644
 5577SOL    HW117630   2.683   2.456   6.602
 5577SOL    HW217631   2.829   2.530   6.596
 5578SOL     OW17632   3.786   4.044   2.153
 5578SOL    HW117633   3.878   4.019   2.122
 5578SOL    HW217634   3.793   4.100   2.236
 5579SOL     OW17635   0.774   4.024   0.482
 5579SOL    HW117636   0.768   3.978   0.394
 5579SOL    HW217637   0.747   4.120   0.472
 5580SOL     OW17638   4.944   1.756   5.642
 5580SOL    HW117639   4.910   1.836   5.692
 5580SOL    HW217640   5.043   1.765   5.630
 5581SOL     OW17641   1.539   0.844   1.865
 5581SOL    HW117642   1.632   0.875   1.845
 5581SOL    HW217643   1.542   0.748   1.895
 5582SOL     OW17644   3.314   4.136   6.451
 5582SOL    HW117645   3.369   4.164   6.373
 5582SOL    HW217646   3.358   4.165   6.536
 5583SOL     OW17647   4.536   1.213   2.763
 5583SOL    HW117648   4.626   1.237   2.799
 5583SOL    HW217649   4.485   1.297   2.743
 5584SOL     OW17650   6.837   3.928   4.607
 5584SOL    HW117651   6.882   3.839   4.595
 5584SOL    HW217652   6.850   3.983   4.525
 5585SOL     OW17653   5.774   5.664   3.180
 5585SOL    HW117654   5.872   5.647   3.174
 5585SOL    HW217655   5.734   5.600   3.246
 5586SOL     OW17656   0.378   3.830   6.051
 5586SOL    HW117657   0.323   3.887   5.990
 5586SOL    HW217658   0.469   3.818   6.013
 5587SOL     OW17659   4.288   6.717   0.248
 5587SOL    HW117660   4.283   6.801   0.195
 5587SOL    HW217661   4.212   6.657   0.222
 5588SOL     OW17662   2.173   5.673   2.969
 5588SOL    HW117663   2.132   5.751   2.920
 5588SOL    HW217664   2.200   5.603   2.903
 5589SOL     OW17665   6.290   3.730   5.730
 5589SOL    HW117666   6.335   3.806   5.778
 5589SOL    HW217667   6.311   3.735   5.633
 5590SOL     OW17668   0.049   6.004   3.831
 5590SOL    HW117669   0.148   5.999   3.816
 5590SOL    HW217670   0.023   6.099   3.847
 5591SOL     OW17671   6.419   2.177   1.775
 5591SOL    HW117672   6.449   2.090   1.736
 5591SOL    HW217673   6.339   2.162   1.833
 5592SOL     OW17674   2.150   5.441   3.514
 5592SOL    HW117675   2.070   5.495   3.488
 5592SOL    HW217676   2.148   5.424   3.613
 5593SOL     OW17677   0.698   3.193   7.019
 5593SOL    HW117678   0.649   3.129   0.052
 5593SOL    HW217679   0.648   3.203   6.933
 5594SOL     OW17680   5.630   0.959   5.612
 5594SOL    HW117681   5.530   0.961   5.599
 5594SOL    HW217682   5.660   0.864   5.626
 5595SOL     OW17683   0.768   1.828   4.777
 5595SOL    HW117684   0.851   1.883   4.783
 5595SOL    HW217685   0.766   1.780   4.689
 5596SOL     OW17686   4.268   0.759   2.841
 5596SOL    HW117687   4.205   0.720   2.774
 5596SOL    HW217688   4.326   0.827   2.797
 5597SOL     OW17689   4.742   2.855   4.837
 5597SOL    HW117690   4.752   2.866   4.936
 5597SOL    HW217691   4.701   2.937   4.798
 5598SOL     OW17692   5.193   3.749   4.390
 5598SOL    HW117693   5.177   3.784   4.298
 5598SOL    HW217694   5.115   3.694   4.420
 5599SOL     OW17695   1.011   1.948   3.922
 5599SOL    HW117696   1.030   1.877   3.991
 5599SOL    HW217697   0.915   1.943   3.895
 5600SOL     OW17698   0.917   1.453   1.834
 5600SOL    HW117699   0.973   1.437   1.916
 5600SOL    HW217700   0.823   1.472   1.861
 5601SOL     OW17701   2.173   0.774   5.186
 5601SOL    HW117702   2.264   0.800   5.218
 5601SOL    HW217703   2.174   0.678   5.158
 5602SOL     OW17704   6.126   1.579   1.577
 5602SOL    HW117705   6.134   1.564   1.478
 5602SOL    HW217706   6.031   1.600   1.600
 5603SOL     OW17707   5.708   1.919   6.545
 5603SOL    HW117708   5.803   1.889   6.538
 5603SOL    HW217709   5.687   1.942   6.640
 5604SOL     OW17710   6.178   1.830   4.688
 5604SOL    HW117711   6.180   1.806   4.591
 5604SOL    HW217712   6.102   1.781   4.732
 5605SOL     OW17713   0.409   1.024   4.980
 5605SOL    HW117714   0.436   0.936   4.942
 5605SOL    HW217715   0.488   1.069   5.020
 5606SOL     OW17716   4.912   6.575   6.951
 5606SOL    HW117717   4.823   6.609   6.980
 5606SOL    HW217718   4.940   6.621   6.867
 5607SOL     OW17719   5.306   0.747   2.501
 5607SOL    HW117720   5.249   0.828   2.513
 5607SOL    HW217721   5.269   0.690   2.428
 5608SOL     OW17722   4.786   0.165   4.871
 5608SOL    HW117723   4.815   0.163   4.775
 5608SOL    HW217724   4.770   0.260   4.898
 5609SOL     OW17725   2.942   6.515   1.292
 5609SOL    HW117726   2.873   6.518   1.365
 5609SOL    HW217727   3.002   6.437   1.307
 5610SOL     OW17728   4.044   6.625   0.710
 5610SOL    HW117729   4.142   6.628   0.728
 5610SOL    HW217730   3.994   6.628   0.797
 5611SOL     OW17731   1.101   5.510   2.559
 5611SOL    HW117732   1.155   5.465   2.488
 5611SOL    HW217733   1.038   5.575   2.517
 5612SOL     OW17734   3.918   2.226   6.913
 5612SOL    HW117735   4.004   2.263   6.877
 5612SOL    HW217736   3.921   2.228   7.013
 5613SOL     OW17737   5.715   4.004   3.914
 5613SOL    HW117738   5.713   4.099   3.881
 5613SOL    HW217739   5.717   4.005   4.014
 5614SOL     OW17740   4.653   2.473   4.046
 5614SOL    HW117741   4.742   2.436   4.074
 5614SOL    HW217742   4.629   2.550   4.105
 5615SOL     OW17743   0.268   1.549   4.559
 5615SOL    HW117744   0.287   1.495   4.641
 5615SOL    HW217745   0.169   1.559   4.546
 5616SOL     OW17746   2.562   1.904   4.967
 5616SOL    HW117747   2.612   1.910   4.880
 5616SOL    HW217748   2.625   1.916   5.043
 5617SOL     OW17749   3.223   0.476   6.082
 5617SOL    HW117750   3.148   0.541   6.068
 5617SOL    HW217751   3.229   0.453   6.179
 5618SOL     OW17752   0.090   4.455   3.892
 5618SOL    HW117753   0.068   4.394   3.817
 5618SOL    HW217754   0.065   4.413   3.979
 5619SOL     OW17755   2.838   3.970   5.827
 5619SOL    HW117756   2.886   3.888   5.857
 5619SOL    HW217757   2.905   4.041   5.802
 5620SOL     OW17758   4.152   2.882   1.022
 5620SOL    HW117759   4.157   2.798   0.969
 5620SOL    HW217760   4.056   2.906   1.039
 5621SOL     OW17761   1.606   2.115   6.502
 5621SOL    HW117762   1.642   2.175   6.431
 5621SOL    HW217763   1.645   2.023   6.491
 5622SOL     OW17764   4.976   0.362   6.156
 5622SOL    HW117765   5.072   0.363   6.182
 5622SOL    HW217766   4.946   0.455   6.134
 5623SOL     OW17767   2.488   6.139   4.930
 5623SOL    HW117768   2.532   6.050   4.941
 5623SOL    HW217769   2.469   6.178   5.020
 5624SOL     OW17770   0.734   4.359   3.488
 5624SOL    HW117771   0.706   4.273   3.530
 5624SOL    HW217772   0.798   4.341   3.413
 5625SOL     OW17773   6.666   1.258   4.881
 5625SOL    HW117774   6.647   1.353   4.905
 5625SOL    HW217775   6.670   1.249   4.782
 5626SOL     OW17776   2.540   6.376   3.784
 5626SOL    HW117777   2.612   6.428   3.739
 5626SOL    HW217778   2.574   6.284   3.806
 5627SOL     OW17779   0.934   5.446   6.512
 5627SOL    HW117780   0.835   5.459   6.508
 5627SOL    HW217781   0.981   5.534   6.510
 5628SOL     OW17782   1.354   2.723   0.112
 5628SOL    HW117783   1.375   2.787   0.037
 5628SOL    HW217784   1.260   2.691   0.101
 5629SOL     OW17785   3.396   3.911   2.479
 5629SOL    HW117786   3.391   3.814   2.456
 5629SOL    HW217787   3.437   3.922   2.569
 5630SOL     OW17788   2.090   4.738   0.740
 5630SOL    HW117789   2.140   4.746   0.826
 5630SOL    HW217790   2.055   4.827   0.713
 5631SOL     OW17791   4.457   1.518   0.214
 5631SOL    HW117792   4.518   1.456   0.164
 5631SOL    HW217793   4.493   1.532   0.307
 5632SOL     OW17794   3.384   2.456   5.854
 5632SOL    HW117795   3.361   2.477   5.949
 5632SOL    HW217796   3.323   2.384   5.821
 5633SOL     OW17797   6.879   3.541   4.306
 5633SOL    HW117798   6.932   3.466   4.268
 5633SOL    HW217799   6.788   3.542   4.265
 5634SOL     OW17800   2.530   5.546   4.548
 5634SOL    HW117801   2.588   5.549   4.629
 5634SOL    HW217802   2.530   5.453   4.510
 5635SOL     OW17803   1.881   3.964   5.579
 5635SOL    HW117804   1.937   3.946   5.498
 5635SOL    HW217805   1.819   3.887   5.594
 5636SOL     OW17806   3.836   6.788   4.039
 5636SOL    HW117807   3.832   6.872   3.984
 5636SOL    HW217808   3.778   6.718   3.998
 5637SOL     OW17809   4.831   6.790   3.617
 5637SOL    HW117810   4.754   6.729   3.598
 5637SOL    HW217811   4.916   6.749   3.582
 5638SOL     OW17812   6.125   3.625   1.483
 5638SOL    HW117813   6.062   3.696   1.452
 5638SOL    HW217814   6.197   3.667   1.539
 5639SOL     OW17815   0.855   0.561   0.308
 5639SOL    HW117816   0.907   0.532   0.389
 5639SOL    HW217817   0.761   0.529   0.316
 5640SOL     OW17818   2.863   0.418   3.970
 5640SOL    HW117819   2.948   0.416   4.022
 5640SOL    HW217820   2.882   0.399   3.873
 5641SOL     OW17821   0.876   5.430   5.197
 5641SOL    HW117822   0.816   5.353   5.177
 5641SOL    HW217823   0.942   5.403   5.267
 5642SOL     OW17824   2.136   6.964   5.828
 5642SOL    HW117825   2.136   6.903   5.749
 5642SOL    HW217826   2.066   0.008   5.816
 5643SOL     OW17827   4.598   1.707   5.245
 5643SOL    HW117828   4.662   1.634   5.223
 5643SOL    HW217829   4.517   1.700   5.185
 5644SOL     OW17830   3.444   0.126   4.880
 5644SOL    HW117831   3.473   0.208   4.830
 5644SOL    HW217832   3.473   0.045   4.830
 5645SOL     OW17833   6.584   4.151   3.688
 5645SOL    HW117834   6.635   4.065   3.689
 5645SOL    HW217835   6.582   4.187   3.595
 5646SOL     OW17836   1.572   5.433   3.165
 5646SOL    HW117837   1.510   5.440   3.087
 5646SOL    HW217838   1.618   5.344   3.162
 5647SOL     OW17839   5.107   6.803   0.942
 5647SOL    HW117840   5.078   6.708   0.951
 5647SOL    HW217841   5.027   6.862   0.931
 5648SOL     OW17842   1.790   5.629   2.736
 5648SOL    HW117843   1.737   5.666   2.660
 5648SOL    HW217844   1.747   5.545   2.769
 5649SOL     OW17845   0.957   6.724   3.776
 5649SOL    HW117846   0.980   6.632   3.745
 5649SOL    HW217847   0.885   6.719   3.846
 5650SOL     OW17848   1.071   5.028   1.586
 5650SOL    HW117849   0.979   5.061   1.605
 5650SOL    HW217850   1.071   4.972   1.504
 5651SOL     OW17851   1.584   0.828   0.295
 5651SOL    HW117852   1.504   0.870   0.340
 5651SOL    HW217853   1.576   0.729   0.301
 5652SOL     OW17854   6.786   6.050   0.866
 5652SOL    HW117855   6.778   5.956   0.901
 5652SOL    HW217856   6.696   6.081   0.833
 5653SOL     OW17857   0.097   6.144   6.911
 5653SOL    HW117858   0.008   6.189   6.897
 5653SOL    HW217859   0.082   6.048   6.936
 5654SOL     OW17860   0.803   5.582   4.275
 5654SOL    HW117861   0.839   5.501   4.322
 5654SOL    HW217862   0.816   5.571   4.177
 5655SOL     OW17863   6.965   2.869   3.234
 5655SOL    HW117864   0.030   2.877   3.275
 5655SOL    HW217865   6.950   2.774   3.206
 5656SOL     OW17866   6.739   3.818   6.642
 5656SOL    HW117867   6.643   3.826   6.617
 5656SOL    HW217868   6.796   3.843   6.565
 5657SOL     OW17869   4.831   4.175   5.339
 5657SOL    HW117870   4.765   4.246   5.363
 5657SOL    HW217871   4.905   4.215   5.285
 5658SOL     OW17872   2.841   3.458   5.687
 5658SOL    HW117873   2.858   3.556   5.679
 5658SOL    HW217874   2.928   3.409   5.685
 5659SOL     OW17875   3.903   3.734   6.357
 5659SOL    HW117876   3.808   3.726   6.387
 5659SOL    HW217877   3.923   3.829   6.332
 5660SOL     OW17878   4.249   6.637   6.090
 5660SOL    HW117879   4.327   6.632   6.027
 5660SOL    HW217880   4.181   6.700   6.054
 5661SOL     OW17881   1.775   5.452   4.699
 5661SOL    HW117882   1.768   5.532   4.640
 5661SOL    HW217883   1.861   5.404   4.680
 5662SOL     OW17884   2.538   0.437   2.468
 5662SOL    HW117885   2.480   0.357   2.458
 5662SOL    HW217886   2.629   0.409   2.499
 5663SOL     OW17887   2.441   2.094   0.580
 5663SOL    HW117888   2.369   2.036   0.542
 5663SOL    HW217889   2.528   2.075   0.534
 5664SOL     OW17890   6.527   3.244   3.855
 5664SOL    HW117891   6.436   3.203   3.856
 5664SOL    HW217892   6.557   3.256   3.760
 5665SOL     OW17893   1.072   6.274   0.380
 5665SOL    HW117894   1.156   6.300   0.332
 5665SOL    HW217895   1.088   6.190   0.432
 5666SOL     OW17896   6.198   0.170   3.565
 5666SOL    HW117897   6.236   0.106   3.632
 5666SOL    HW217898   6.226   0.263   3.588
 5667SOL     OW17899   0.985   5.331   4.893
 5667SOL    HW117900   1.010   5.394   4.819
 5667SOL    HW217901   0.904   5.366   4.940
 5668SOL     OW17902   6.115   2.952   3.208
 5668SOL    HW117903   6.133   2.859   3.175
 5668SOL    HW217904   6.122   2.955   3.307
 5669SOL     OW17905   6.661   5.251   0.597
 5669SOL    HW117906   6.721   5.172   0.609
 5669SOL    HW217907   6.582   5.242   0.657
 5670SOL     OW17908   1.534   3.089   3.929
 5670SOL    HW117909   1.603   3.133   3.872
 5670SOL    HW217910   1.461   3.154   3.950
 5671SOL     OW17911   6.491   5.793   5.588
 5671SOL    HW117912   6.554   5.848   5.643
 5671SOL    HW217913   6.426   5.747   5.649
 5672SOL     OW17914   5.203   4.180   5.391
 5672SOL    HW117915   5.160   4.172   5.481
 5672SOL    HW217916   5.299   4.151   5.397
 5673SOL     OW17917   1.176   6.335   1.276
 5673SOL    HW117918   1.218   6.392   1.206
 5673SOL    HW217919   1.154   6.246   1.238
 5674SOL     OW17920   2.209   4.662   4.918
 5674SOL    HW117921   2.276   4.592   4.943
 5674SOL    HW217922   2.125   4.648   4.970
 5675SOL     OW17923   4.837   2.253   0.195
 5675SOL    HW117924   4.859   2.192   0.118
 5675SOL    HW217925   4.810   2.198   0.274
 5676SOL     OW17926   2.697   1.883   2.361
 5676SOL    HW117927   2.688   1.981   2.343
 5676SOL    HW217928   2.711   1.834   2.275
 5677SOL     OW17929   0.557   0.518   0.352
 5677SOL    HW117930   0.588   0.424   0.361
 5677SOL    HW217931   0.465   0.527   0.390
 5678SOL     OW17932   4.612   1.194   2.191
 5678SOL    HW117933   4.576   1.150   2.273
 5678SOL    HW217934   4.616   1.293   2.205
 5679SOL     OW17935   5.351   1.459   4.181
 5679SOL    HW117936   5.405   1.451   4.265
 5679SOL    HW217937   5.254   1.449   4.202
 5680SOL     OW17938   2.062   5.409   6.864
 5680SOL    HW117939   2.070   5.506   6.883
 5680SOL    HW217940   2.053   5.394   6.765
 5681SOL     OW17941   0.536   3.780   2.368
 5681SOL    HW117942   0.505   3.845   2.436
 5681SOL    HW217943   0.510   3.687   2.396
 5682SOL     OW17944   2.371   5.640   4.091
 5682SOL    HW117945   2.333   5.563   4.143
 5682SOL    HW217946   2.470   5.644   4.104
 5683SOL     OW17947   3.785   2.412   6.015
 5683SOL    HW117948   3.874   2.457   6.006
 5683SOL    HW217949   3.760   2.406   6.112
 5684SOL     OW17950   1.819   3.604   6.195
 5684SOL    HW117951   1.820   3.704   6.193
 5684SOL    HW217952   1.887   3.570   6.130
 5685SOL     OW17953   2.286   2.137   3.392
 5685SOL    HW117954   2.207   2.109   3.338
 5685SOL    HW217955   2.354   2.063   3.393
 5686SOL     OW17956   3.279   1.415   4.586
 5686SOL    HW117957   3.215   1.404   4.510
 5686SOL    HW217958   3.265   1.504   4.629
 5687SOL     OW17959   1.154   6.022   6.090
 5687SOL    HW117960   1.217   5.944   6.092
 5687SOL    HW217961   1.088   6.012   6.164
 5688SOL     OW17962   1.843   2.684   2.879
 5688SOL    HW117963   1.880   2.626   2.806
 5688SOL    HW217964   1.819   2.773   2.841
 5689SOL     OW17965   2.582   0.701   1.813
 5689SOL    HW117966   2.558   0.758   1.734
 5689SOL    HW217967   2.502   0.694   1.874
 5690SOL     OW17968   1.488   5.249   6.570
 5690SOL    HW117969   1.566   5.187   6.585
 5690SOL    HW217970   1.491   5.322   6.638
 5691SOL     OW17971   3.606   1.188   2.449
 5691SOL    HW117972   3.516   1.214   2.415
 5691SOL    HW217973   3.655   1.270   2.480
 5692SOL     OW17974   4.938   4.682   1.020
 5692SOL    HW117975   4.907   4.598   0.976
 5692SOL    HW217976   4.858   4.736   1.049
 5693SOL     OW17977   4.191   0.161   1.609
 5693SOL    HW117978   4.263   0.229   1.599
 5693SOL    HW217979   4.142   0.150   1.523
 5694SOL     OW17980   0.421   0.223   2.527
 5694SOL    HW117981   0.436   0.285   2.605
 5694SOL    HW217982   0.342   0.254   2.474
 5695SOL     OW17983   1.078   1.317   2.815
 5695SOL    HW117984   1.140   1.267   2.755
 5695SOL    HW217985   1.131   1.364   2.886
 5696SOL     OW17986   1.423   0.113   3.893
 5696SOL    HW117987   1.432   0.023   3.850
 5696SOL    HW217988   1.358   0.168   3.841
 5697SOL     OW17989   5.895   2.193   2.341
 5697SOL    HW117990   5.965   2.255   2.305
 5697SOL    HW217991   5.822   2.183   2.272
 5698SOL     OW17992   1.627   4.450   4.454
 5698SOL    HW117993   1.610   4.543   4.421
 5698SOL    HW217994   1.542   4.399   4.455
 5699SOL     OW17995   2.211   2.740   2.754
 5699SOL    HW117996   2.126   2.686   2.758
 5699SOL    HW217997   2.269   2.703   2.681
 5700SOL     OW17998   6.436   6.878   3.467
 5700SOL    HW117999   6.524   6.899   3.508
 5700SOL    HW218000   6.435   6.784   3.434
 5701SOL     OW18001   6.956   0.651   1.297
 5701SOL    HW118002   6.997   0.687   1.381
 5701SOL    HW218003   6.857   0.640   1.309
 5702SOL     OW18004   1.461   6.549   4.221
 5702SOL    HW118005   1.397   6.486   4.265
 5702SOL    HW218006   1.529   6.496   4.170
 5703SOL     OW18007   6.600   4.175   6.679
 5703SOL    HW118008   6.696   4.189   6.706
 5703SOL    HW218009   6.598   4.128   6.590
 5704SOL     OW18010   4.913   3.764   2.974
 5704SOL    HW118011   4.853   3.841   2.995
 5704SOL    HW218012   4.873   3.680   3.012
 5705SOL     OW18013   5.352   5.533   6.540
 5705SOL    HW118014   5.408   5.451   6.543
 5705SOL    HW218015   5.340   5.570   6.632
 5706SOL     OW18016   5.317   2.716   1.663
 5706SOL    HW118017   5.374   2.637   1.688
 5706SOL    HW218018   5.223   2.686   1.648
 5707SOL     OW18019   6.215   0.390   0.598
 5707SOL    HW118020   6.189   0.459   0.530
 5707SOL    HW218021   6.265   0.435   0.673
 5708SOL     OW18022   5.115   6.371   2.530
 5708SOL    HW118023   5.038   6.309   2.520
 5708SOL    HW218024   5.142   6.376   2.627
 5709SOL     OW18025   0.703   0.804   2.818
 5709SOL    HW118026   0.698   0.875   2.748
 5709SOL    HW218027   0.751   0.725   2.782
 5710SOL     OW18028   3.042   1.657   0.309
 5710SOL    HW118029   3.055   1.586   0.378
 5710SOL    HW218030   3.122   1.660   0.249
 5711SOL     OW18031   5.062   0.528   1.937
 5711SOL    HW118032   5.105   0.607   1.892
 5711SOL    HW218033   5.040   0.459   1.868
 5712SOL     OW18034   6.420   6.607   0.150
 5712SOL    HW118035   6.469   6.671   0.091
 5712SOL    HW218036   6.486   6.561   0.211
 5713SOL     OW18037   3.315   4.777   1.272
 5713SOL    HW118038   3.255   4.698   1.259
 5713SOL    HW218039   3.319   4.800   1.370
 5714SOL     OW18040   6.888   6.230   0.489
 5714SOL    HW118041   6.799   6.271   0.468
 5714SOL    HW218042   6.888   6.135   0.458
 5715SOL     OW18043   6.799   0.523   3.021
 5715SOL    HW118044   6.768   0.428   3.027
 5715SOL    HW218045   6.720   0.585   3.024
 5716SOL     OW18046   0.938   5.813   6.020
 5716SOL    HW118047   0.906   5.905   6.041
 5716SOL    HW218048   0.939   5.800   5.921
 5717SOL     OW18049   2.141   5.487   1.754
 5717SOL    HW118050   2.137   5.512   1.851
 5717SOL    HW218051   2.098   5.398   1.741
 5718SOL     OW18052   1.255   3.540   7.025
 5718SOL    HW118053   1.230   3.483   0.077
 5718SOL    HW218054   1.244   3.636   0.022
 5719SOL     OW18055   2.894   3.777   0.738
 5719SOL    HW118056   2.933   3.866   0.715
 5719SOL    HW218057   2.880   3.772   0.837
 5720SOL     OW18058   1.794   6.414   4.604
 5720SOL    HW118059   1.727   6.449   4.539
 5720SOL    HW218060   1.809   6.481   4.677
 5721SOL     OW18061   5.726   4.514   0.572
 5721SOL    HW118062   5.730   4.545   0.477
 5721SOL    HW218063   5.630   4.511   0.602
 5722SOL     OW18064   6.907   2.359   5.199
 5722SOL    HW118065   7.004   2.368   5.176
 5722SOL    HW218066   6.865   2.449   5.203
 5723SOL     OW18067   4.221   3.830   0.106
 5723SOL    HW118068   4.172   3.774   0.173
 5723SOL    HW218069   4.319   3.829   0.127
 5724SOL     OW18070   5.924   3.135   3.572
 5724SOL    HW118071   6.001   3.078   3.544
 5724SOL    HW218072   5.868   3.086   3.638
 5725SOL     OW18073   6.691   4.998   4.500
 5725SOL    HW118074   6.708   4.928   4.431
 5725SOL    HW218075   6.606   4.978   4.549
 5726SOL     OW18076   6.192   5.141   4.219
 5726SOL    HW118077   6.211   5.204   4.144
 5726SOL    HW218078   6.164   5.193   4.300
 5727SOL     OW18079   0.059   2.352   4.940
 5727SOL    HW118080   0.001   2.417   4.889
 5727SOL    HW218081   0.138   2.400   4.977
 5728SOL     OW18082   5.181   5.849   4.959
 5728SOL    HW118083   5.246   5.918   4.928
 5728SOL    HW218084   5.096   5.856   4.906
 5729SOL     OW18085   1.264   2.025   6.066
 5729SOL    HW118086   1.184   2.011   6.124
 5729SOL    HW218087   1.346   2.029   6.124
 5730SOL     OW18088   6.240   4.190   6.426
 5730SOL    HW118089   6.213   4.166   6.520
 5730SOL    HW218090   6.187   4.136   6.361
 5731SOL     OW18091   0.133   0.287   2.174
 5731SOL    HW118092   0.114   0.327   2.264
 5731SOL    HW218093   0.148   0.189   2.184
 5732SOL     OW18094   1.096   6.741   3.346
 5732SOL    HW118095   1.024   6.682   3.383
 5732SOL    HW218096   1.072   6.837   3.360
 5733SOL     OW18097   4.137   6.459   5.274
 5733SOL    HW118098   4.061   6.420   5.325
 5733SOL    HW218099   4.223   6.434   5.318
 5734SOL     OW18100   1.255   6.898   4.864
 5734SOL    HW118101   1.179   6.957   4.835
 5734SOL    HW218102   1.221   6.807   4.886
 5735SOL     OW18103   2.964   1.279   1.121
 5735SOL    HW118104   2.883   1.335   1.138
 5735SOL    HW218105   2.999   1.244   1.207
 5736SOL     OW18106   0.290   4.494   0.152
 5736SOL    HW118107   0.280   4.452   0.242
 5736SOL    HW218108   0.381   4.473   0.116
 5737SOL     OW18109   5.395   6.635   6.928
 5737SOL    HW118110   5.469   6.588   6.976
 5737SOL    HW218111   5.342   6.569   6.875
 5738SOL     OW18112   1.451   3.234   6.524
 5738SOL    HW118113   1.479   3.205   6.432
 5738SOL    HW218114   1.362   3.194   6.546
 5739SOL     OW18115   1.684   1.275   6.263
 5739SOL    HW118116   1.687   1.320   6.352
 5739SOL    HW218117   1.775   1.276   6.222
 5740SOL     OW18118   4.425   5.751   0.367
 5740SOL    HW118119   4.389   5.814   0.297
 5740SOL    HW218120   4.489   5.800   0.426
 5741SOL     OW18121   6.703   5.489   4.188
 5741SOL    HW118122   6.774   5.555   4.162
 5741SOL    HW218123   6.621   5.505   4.134
 5742SOL     OW18124   5.254   6.421   2.300
 5742SOL    HW118125   5.210   6.391   2.385
 5742SOL    HW218126   5.184   6.443   2.233
 5743SOL     OW18127   2.956   6.987   4.815
 5743SOL    HW118128   2.878   0.018   4.839
 5743SOL    HW218129   2.941   6.894   4.849
 5744SOL     OW18130   4.522   0.712   0.625
 5744SOL    HW118131   4.572   0.629   0.601
 5744SOL    HW218132   4.554   0.788   0.568
 5745SOL     OW18133   2.693   1.506   4.496
 5745SOL    HW118134   2.616   1.553   4.538
 5745SOL    HW218135   2.776   1.525   4.549
 5746SOL     OW18136   4.910   0.629   0.473
 5746SOL    HW118137   4.876   0.691   0.402
 5746SOL    HW218138   4.840   0.560   0.494
 5747SOL     OW18139   0.311   5.441   2.720
 5747SOL    HW118140   0.222   5.410   2.688
 5747SOL    HW218141   0.321   5.539   2.703
 5748SOL     OW18142   2.072   4.686   1.806
 5748SOL    HW118143   2.062   4.688   1.707
 5748SOL    HW218144   2.063   4.591   1.839
 5749SOL     OW18145   2.115   1.249   4.250
 5749SOL    HW118146   2.100   1.169   4.308
 5749SOL    HW218147   2.195   1.234   4.192
 5750SOL     OW18148   5.890   5.102   4.810
 5750SOL    HW118149   5.819   5.087   4.878
 5750SOL    HW218150   5.847   5.129   4.723
 5751SOL     OW18151   2.229   2.509   4.871
 5751SOL    HW118152   2.175   2.527   4.953
 5751SOL    HW218153   2.324   2.536   4.888
 5752SOL     OW18154   6.535   0.605   5.929
 5752SOL    HW118155   6.440   0.579   5.947
 5752SOL    HW218156   6.544   0.704   5.935
 5753SOL     OW18157   3.363   3.231   6.561
 5753SOL    HW118158   3.268   3.224   6.593
 5753SOL    HW218159   3.404   3.139   6.559
 5754SOL     OW18160   5.845   5.456   2.015
 5754SOL    HW118161   5.894   5.398   1.951
 5754SOL    HW218162   5.823   5.543   1.971
 5755SOL     OW18163   2.809   3.675   6.575
 5755SOL    HW118164   2.867   3.683   6.494
 5755SOL    HW218165   2.780   3.766   6.605
 5756SOL     OW18166   6.391   4.472   3.411
 5756SOL    HW118167   6.371   4.514   3.499
 5756SOL    HW218168   6.490   4.474   3.395
 5757SOL     OW18169   6.422   6.146   1.323
 5757SOL    HW118170   6.378   6.221   1.275
 5757SOL    HW218171   6.508   6.177   1.363
 5758SOL     OW18172   2.632   2.256   4.802
 5758SOL    HW118173   2.689   2.266   4.883
 5758SOL    HW218174   2.687   2.221   4.726
 5759SOL     OW18175   4.881   2.304   6.266
 5759SOL    HW118176   4.977   2.316   6.243
 5759SOL    HW218177   4.828   2.381   6.231
 5760SOL     OW18178   1.537   6.204   2.530
 5760SOL    HW118179   1.582   6.287   2.561
 5760SOL    HW218180   1.439   6.220   2.520
 5761SOL     OW18181   5.748   0.077   5.093
 5761SOL    HW118182   5.648   0.079   5.084
 5761SOL    HW218183   5.773   0.022   5.172
 5762SOL     OW18184   5.643   6.746   0.426
 5762SOL    HW118185   5.677   6.732   0.519
 5762SOL    HW218186   5.710   6.797   0.372
 5763SOL     OW18187   0.927   6.779   0.605
 5763SOL    HW118188   1.013   6.806   0.563
 5763SOL    HW218189   0.873   6.725   0.541
 5764SOL     OW18190   5.955   4.428   5.648
 5764SOL    HW118191   5.908   4.502   5.695
 5764SOL    HW218192   6.051   4.451   5.636
 5765SOL     OW18193   6.171   4.150   6.675
 5765SOL    HW118194   6.079   4.128   6.708
 5765SOL    HW218195   6.209   4.225   6.730
 5766SOL     OW18196   3.238   1.300   1.932
 5766SOL    HW118197   3.186   1.251   1.863
 5766SOL    HW218198   3.196   1.389   1.949
 5767SOL     OW18199   1.133   6.245   0.869
 5767SOL    HW118200   1.043   6.283   0.891
 5767SOL    HW218201   1.127   6.145   0.870
 5768SOL     OW18202   6.961   0.498   3.267
 5768SOL    HW118203   7.022   0.421   3.248
 5768SOL    HW218204   6.919   0.530   3.182
 5769SOL     OW18205   2.683   6.439   3.143
 5769SOL    HW118206   2.636   6.363   3.098
 5769SOL    HW218207   2.736   6.490   3.075
 5770SOL     OW18208   6.960   6.773   0.965
 5770SOL    HW118209   6.985   6.770   1.062
 5770SOL    HW218210   0.001   6.826   0.914
 5771SOL     OW18211   1.384   0.612   0.874
 5771SOL    HW118212   1.478   0.609   0.840
 5771SOL    HW218213   1.383   0.658   0.963
 5772SOL     OW18214   5.917   2.308   0.566
 5772SOL    HW118215   5.920   2.333   0.469
 5772SOL    HW218216   5.928   2.390   0.622
 5773SOL     OW18217   5.544   6.741   4.113
 5773SOL    HW118218   5.586   6.655   4.142
 5773SOL    HW218219   5.447   6.725   4.095
 5774SOL     OW18220   2.541   4.487   3.231
 5774SOL    HW118221   2.560   4.556   3.301
 5774SOL    HW218222   2.500   4.407   3.274
 5775SOL     OW18223   0.081   0.241   0.386
 5775SOL    HW118224   0.086   0.230   0.486
 5775SOL    HW218225   0.071   0.151   0.344
 5776SOL     OW18226   5.356   0.677   6.488
 5776SOL    HW118227   5.335   0.706   6.394
 5776SOL    HW218228   5.455   0.673   6.500
 5777SOL     OW18229   5.990   0.980   4.095
 5777SOL    HW118230   5.958   0.969   4.001
 5777SOL    HW218231   6.007   0.890   4.135
 5778SOL     OW18232   1.651   0.342   2.595
 5778SOL    HW118233   1.703   0.279   2.653
 5778SOL    HW218234   1.713   0.413   2.561
 5779SOL     OW18235   3.702   1.041   1.163
 5779SOL    HW118236   3.621   1.025   1.106
 5779SOL    HW218237   3.771   0.972   1.142
 5780SOL     OW18238   6.432   4.728   1.959
 5780SOL    HW118239   6.334   4.711   1.954
 5780SOL    HW218240   6.478   4.678   1.885
 5781SOL     OW18241   1.803   4.113   4.978
 5781SOL    HW118242   1.821   4.097   4.881
 5781SOL    HW218243   1.778   4.209   4.992
 5782SOL     OW18244   1.859   0.879   1.649
 5782SOL    HW118245   1.873   0.960   1.592
 5782SOL    HW218246   1.806   0.811   1.599
 5783SOL     OW18247   1.408   0.228   0.650
 5783SOL    HW118248   1.453   0.168   0.717
 5783SOL    HW218249   1.423   0.193   0.558
 5784SOL     OW18250   0.726   6.402   0.052
 5784SOL    HW118251   0.753   6.452   6.996
 5784SOL    HW218252   0.806   6.363   0.096
 5785SOL     OW18253   1.119   0.839   0.940
 5785SOL    HW118254   1.099   0.911   1.005
 5785SOL    HW218255   1.145   0.755   0.989
 5786SOL     OW18256   1.628   3.383   1.676
 5786SOL    HW118257   1.583   3.352   1.760
 5786SOL    HW218258   1.681   3.309   1.636
 5787SOL     OW18259   6.066   2.869   4.300
 5787SOL    HW118260   6.080   2.905   4.392
 5787SOL    HW218261   5.992   2.801   4.302
 5788SOL     OW18262   3.080   0.659   2.193
 5788SOL    HW118263   3.108   0.658   2.289
 5788SOL    HW218264   3.102   0.748   2.153
 5789SOL     OW18265   3.614   3.678   0.588
 5789SOL    HW118266   3.580   3.588   0.562
 5789SOL    HW218267   3.607   3.740   0.510
 5790SOL     OW18268   5.677   5.255   4.674
 5790SOL    HW118269   5.690   5.294   4.765
 5790SOL    HW218270   5.583   5.222   4.665
 5791SOL     OW18271   3.717   1.382   2.599
 5791SOL    HW118272   3.813   1.391   2.571
 5791SOL    HW218273   3.711   1.329   2.683
 5792SOL     OW18274   4.958   3.334   2.828
 5792SOL    HW118275   4.906   3.383   2.758
 5792SOL    HW218276   4.903   3.327   2.912
 5793SOL     OW18277   6.181   2.806   4.902
 5793SOL    HW118278   6.116   2.731   4.917
 5793SOL    HW218279   6.139   2.892   4.932
 5794SOL     OW18280   2.530   6.841   5.717
 5794SOL    HW118281   2.456   6.849   5.783
 5794SOL    HW218282   2.609   6.893   5.750
 5795SOL     OW18283   0.802   5.111   1.568
 5795SOL    HW118284   0.759   5.064   1.491
 5795SOL    HW218285   0.737   5.174   1.609
 5796SOL     OW18286   4.290   1.317   6.041
 5796SOL    HW118287   4.206   1.289   6.088
 5796SOL    HW218288   4.268   1.348   5.949
 5797SOL     OW18289   4.958   1.751   6.800
 5797SOL    HW118290   4.863   1.721   6.795
 5797SOL    HW218291   4.968   1.821   6.871
 5798SOL     OW18292   1.200   3.583   5.067
 5798SOL    HW118293   1.109   3.541   5.056
 5798SOL    HW218294   1.237   3.605   4.977
 5799SOL     OW18295   1.411   6.561   3.356
 5799SOL    HW118296   1.364   6.562   3.268
 5799SOL    HW218297   1.346   6.586   3.429
 5800SOL     OW18298   0.164   6.908   0.847
 5800SOL    HW118299   0.187   6.938   0.754
 5800SOL    HW218300   0.247   6.900   0.901
 5801SOL     OW18301   2.308   2.811   2.351
 5801SOL    HW118302   2.330   2.718   2.319
 5801SOL    HW218303   2.367   2.834   2.428
 5802SOL     OW18304   6.667   1.702   2.977
 5802SOL    HW118305   6.613   1.751   2.909
 5802SOL    HW218306   6.764   1.718   2.961
 5803SOL     OW18307   1.030   5.510   4.707
 5803SOL    HW118308   1.114   5.498   4.654
 5803SOL    HW218309   1.006   5.607   4.710
 5804SOL     OW18310   5.905   6.284   3.497
 5804SOL    HW118311   5.937   6.366   3.448
 5804SOL    HW218312   5.972   6.211   3.487
 5805SOL     OW18313   2.456   3.378   0.617
 5805SOL    HW118314   2.376   3.412   0.569
 5805SOL    HW218315   2.502   3.454   0.664
 5806SOL     OW18316   0.705   3.116   3.602
 5806SOL    HW118317   0.767   3.050   3.645
 5806SOL    HW218318   0.725   3.120   3.504
 5807SOL     OW18319   1.342   6.317   0.272
 5807SOL    HW118320   1.405   6.393   0.291
 5807SOL    HW218321   1.375   6.266   0.193
 5808SOL     OW18322   6.017   0.748   4.235
 5808SOL    HW118323   5.962   0.671   4.268
 5808SOL    HW218324   6.081   0.776   4.307
 5809SOL     OW18325   0.210   2.647   6.237
 5809SOL    HW118326   0.131   2.692   6.195
 5809SOL    HW218327   0.189   2.550   6.251
 5810SOL     OW18328   4.210   6.827   4.714
 5810SOL    HW118329   4.158   6.863   4.637
 5810SOL    HW218330   4.271   6.754   4.682
 5811SOL     OW18331   3.225   3.245   6.050
 5811SOL    HW118332   3.279   3.181   5.995
 5811SOL    HW218333   3.201   3.202   6.137
 5812SOL     OW18334   5.665   2.777   0.608
 5812SOL    HW118335   5.599   2.702   0.620
 5812SOL    HW218336   5.699   2.806   0.697
 5813SOL     OW18337   4.542   5.975   0.825
 5813SOL    HW118338   4.481   6.040   0.779
 5813SOL    HW218339   4.529   5.981   0.924
 5814SOL     OW18340   5.880   1.954   2.475
 5814SOL    HW118341   5.930   1.977   2.558
 5814SOL    HW218342   5.862   2.037   2.422
 5815SOL     OW18343   6.687   0.915   4.155
 5815SOL    HW118344   6.656   0.837   4.101
 5815SOL    HW218345   6.612   0.945   4.215
 5816SOL     OW18346   0.315   4.314   2.729
 5816SOL    HW118347   0.216   4.329   2.729
 5816SOL    HW218348   0.334   4.222   2.764
 5817SOL     OW18349   5.683   4.140   4.397
 5817SOL    HW118350   5.763   4.189   4.364
 5817SOL    HW218351   5.604   4.162   4.340
 5818SOL     OW18352   1.630   6.920   4.565
 5818SOL    HW118353   1.660   6.918   4.469
 5818SOL    HW218354   1.618   7.015   4.594
 5819SOL     OW18355   4.073   4.929   0.036
 5819SOL    HW118356   4.156   4.952   0.087
 5819SOL    HW218357   4.098   4.898   6.970
 5820SOL     OW18358   5.604   5.040   2.508
 5820SOL    HW118359   5.600   5.128   2.554
 5820SOL    HW218360   5.512   5.007   2.489
 5821SOL     OW18361   6.370   0.823   1.171
 5821SOL    HW118362   6.274   0.831   1.198
 5821SOL    HW218363   6.427   0.871   1.237
 5822SOL     OW18364   1.231   2.529   2.455
 5822SOL    HW118365   1.186   2.601   2.507
 5822SOL    HW218366   1.195   2.528   2.361
 5823SOL     OW18367   2.300   6.413   3.647
 5823SOL    HW118368   2.371   6.400   3.717
 5823SOL    HW218369   2.342   6.408   3.556
 5824SOL     OW18370   1.159   0.126   2.389
 5824SOL    HW118371   1.254   0.158   2.387
 5824SOL    HW218372   1.098   0.205   2.386
 5825SOL     OW18373   6.363   0.521   4.364
 5825SOL    HW118374   6.325   0.519   4.272
 5825SOL    HW218375   6.289   0.538   4.430
 5826SOL     OW18376   6.922   0.169   5.316
 5826SOL    HW118377   6.911   0.198   5.411
 5826SOL    HW218378   6.860   0.221   5.257
 5827SOL     OW18379   1.868   4.168   5.340
 5827SOL    HW118380   1.955   4.210   5.367
 5827SOL    HW218381   1.806   4.168   5.419
 5828SOL     OW18382   4.857   0.005   4.099
 5828SOL    HW118383   4.802   7.004   4.020
 5828SOL    HW218384   4.821   0.090   4.138
 5829SOL     OW18385   2.637   0.465   3.753
 5829SOL    HW118386   2.606   0.399   3.684
 5829SOL    HW218387   2.558   0.508   3.796
 5830SOL     OW18388   3.576   5.740   5.155
 5830SOL    HW118389   3.502   5.677   5.130
 5830SOL    HW218390   3.612   5.784   5.073
 5831SOL     OW18391   1.638   1.290   5.157
 5831SOL    HW118392   1.731   1.323   5.170
 5831SOL    HW218393   1.602   1.257   5.245
 5832SOL     OW18394   3.594   4.787   1.294
 5832SOL    HW118395   3.498   4.807   1.274
 5832SOL    HW218396   3.642   4.873   1.316
 5833SOL     OW18397   4.183   3.615   5.649
 5833SOL    HW118398   4.092   3.657   5.648
 5833SOL    HW218399   4.198   3.568   5.562
 5834SOL     OW18400   6.518   4.537   0.073
 5834SOL    HW118401   6.496   4.439   0.079
 5834SOL    HW218402   6.611   4.548   0.040
 5835SOL     OW18403   5.894   0.835   2.674
 5835SOL    HW118404   5.917   0.893   2.596
 5835SOL    HW218405   5.901   0.739   2.648
 5836SOL     OW18406   4.756   6.950   1.452
 5836SOL    HW118407   4.766   6.856   1.485
 5836SOL    HW218408   4.842   7.000   1.467
 5837SOL     OW18409   3.217   4.169   0.434
 5837SOL    HW118410   3.267   4.236   0.379
 5837SOL    HW218411   3.123   4.162   0.401
 5838SOL     OW18412   2.903   1.799   1.270
 5838SOL    HW118413   2.806   1.781   1.254
 5838SOL    HW218414   2.912   1.883   1.325
 5839SOL     OW18415   1.570   2.467   2.033
 5839SOL    HW118416   1.578   2.454   2.132
 5839SOL    HW218417   1.661   2.472   1.992
 5840SOL     OW18418   0.603   3.360   2.290
 5840SOL    HW118419   0.696   3.369   2.325
 5840SOL    HW218420   0.573   3.265   2.297
 5841SOL     OW18421   4.518   1.122   0.443
 5841SOL    HW118422   4.532   1.219   0.425
 5841SOL    HW218423   4.447   1.110   0.511
 5842SOL     OW18424   3.031   1.320   0.740
 5842SOL    HW118425   3.076   1.232   0.756
 5842SOL    HW218426   2.948   1.325   0.796
 5843SOL     OW18427   1.776   3.304   1.217
 5843SOL    HW118428   1.774   3.266   1.125
 5843SOL    HW218429   1.814   3.397   1.214
 5844SOL     OW18430   0.677   0.533   4.868
 5844SOL    HW118431   0.773   0.559   4.879
 5844SOL    HW218432   0.666   0.482   4.783
 5845SOL     OW18433   0.806   6.256   1.746
 5845SOL    HW118434   0.789   6.215   1.835
 5845SOL    HW218435   0.893   6.306   1.748
 5846SOL     OW18436   6.701   3.846   5.858
 5846SOL    HW118437   6.652   3.771   5.902
 5846SOL    HW218438   6.684   3.931   5.909
 5847SOL     OW18439   2.717   2.989   0.758
 5847SOL    HW118440   2.621   2.965   0.746
 5847SOL    HW218441   2.744   3.057   0.690
 5848SOL     OW18442   1.949   6.219   3.649
 5848SOL    HW118443   2.019   6.223   3.721
 5848SOL    HW218444   1.992   6.233   3.560
 5849SOL     OW18445   2.088   6.099   5.280
 5849SOL    HW118446   2.003   6.139   5.245
 5849SOL    HW218447   2.121   6.153   5.358
 5850SOL     OW18448   1.655   2.336   1.616
 5850SOL    HW118449   1.754   2.350   1.622
 5850SOL    HW218450   1.607   2.407   1.667
 5851SOL     OW18451   5.762   3.372   4.768
 5851SOL    HW118452   5.704   3.298   4.734
 5851SOL    HW218453   5.834   3.392   4.702
 5852SOL     OW18454   4.995   5.241   3.317
 5852SOL    HW118455   4.942   5.256   3.234
 5852SOL    HW218456   5.073   5.183   3.296
 5853SOL     OW18457   3.499   4.931   5.671
 5853SOL    HW118458   3.570   4.978   5.619
 5853SOL    HW218459   3.436   4.998   5.710
 5854SOL     OW18460   2.554   4.589   6.220
 5854SOL    HW118461   2.646   4.584   6.258
 5854SOL    HW218462   2.539   4.680   6.181
 5855SOL     OW18463   2.124   2.515   3.800
 5855SOL    HW118464   2.115   2.505   3.899
 5855SOL    HW218465   2.131   2.424   3.759
 5856SOL     OW18466   1.657   6.809   2.999
 5856SOL    HW118467   1.666   6.755   3.083
 5856SOL    HW218468   1.577   6.868   3.006
 5857SOL     OW18469   0.733   3.541   6.147
 5857SOL    HW118470   0.710   3.561   6.242
 5857SOL    HW218471   0.716   3.623   6.091
 5858SOL     OW18472   2.176   1.824   3.358
 5858SOL    HW118473   2.099   1.888   3.349
 5858SOL    HW218474   2.209   1.799   3.267
 5859SOL     OW18475   6.062   0.048   2.739
 5859SOL    HW118476   6.003   0.105   2.683
 5859SOL    HW218477   6.092   6.995   2.687
 5860SOL     OW18478   0.306   3.234   3.563
 5860SOL    HW118479   0.357   3.296   3.503
 5860SOL    HW218480   0.270   3.286   3.641
 5861SOL     OW18481   6.015   1.182   4.858
 5861SOL    HW118482   5.989   1.150   4.949
 5861SOL    HW218483   6.079   1.258   4.867
 5862SOL     OW18484   0.068   5.345   2.645
 5862SOL    HW118485   7.004   5.349   2.602
 5862SOL    HW218486   0.062   5.294   2.731
 5863SOL     OW18487   3.428   0.404   4.739
 5863SOL    HW118488   3.478   0.362   4.664
 5863SOL    HW218489   3.410   0.500   4.717
 5864SOL     OW18490   3.510   3.777   3.123
 5864SOL    HW118491   3.489   3.751   3.028
 5864SOL    HW218492   3.520   3.876   3.129
 5865SOL     OW18493   6.143   1.025   5.514
 5865SOL    HW118494   6.168   1.119   5.494
 5865SOL    HW218495   6.100   1.020   5.604
 5866SOL     OW18496   4.112   3.268   2.062
 5866SOL    HW118497   4.107   3.173   2.092
 5866SOL    HW218498   4.100   3.328   2.141
 5867SOL     OW18499   2.503   2.054   1.297
 5867SOL    HW118500   2.592   2.048   1.252
 5867SOL    HW218501   2.461   2.142   1.275
 5868SOL     OW18502   0.136   1.636   6.296
 5868SOL    HW118503   0.236   1.630   6.289
 5868SOL    HW218504   0.109   1.636   6.392
 5869SOL     OW18505   0.833   4.781   4.159
 5869SOL    HW118506   0.809   4.692   4.198
 5869SOL    HW218507   0.777   4.799   4.078
 5870SOL     OW18508   4.361   4.764   5.225
 5870SOL    HW118509   4.284   4.776   5.288
 5870SOL    HW218510   4.327   4.732   5.137
 5871SOL     OW18511   3.332   2.900   3.550
 5871SOL    HW118512   3.367   2.886   3.642
 5871SOL    HW218513   3.265   2.974   3.551
 5872SOL     OW18514   4.411   6.289   2.316
 5872SOL    HW118515   4.320   6.312   2.283
 5872SOL    HW218516   4.411   6.288   2.416
 5873SOL     OW18517   3.586   4.908   2.796
 5873SOL    HW118518   3.522   4.927   2.870
 5873SOL    HW218519   3.535   4.890   2.712
 5874SOL     OW18520   2.052   3.880   5.380
 5874SOL    HW118521   2.062   3.942   5.303
 5874SOL    HW218522   2.141   3.841   5.404
 5875SOL     OW18523   3.308   1.672   0.194
 5875SOL    HW118524   3.312   1.636   0.100
 5875SOL    HW218525   3.355   1.760   0.197
 5876SOL     OW18526   4.061   2.892   1.780
 5876SOL    HW118527   4.130   2.961   1.759
 5876SOL    HW218528   4.003   2.925   1.855
 5877SOL     OW18529   5.914   6.005   1.124
 5877SOL    HW118530   6.002   6.032   1.086
 5877SOL    HW218531   5.929   5.944   1.202
 5878SOL     OW18532   1.847   4.787   2.513
 5878SOL    HW118533   1.784   4.815   2.586
 5878SOL    HW218534   1.890   4.868   2.474
 5879SOL     OW18535   6.214   3.987   0.185
 5879SOL    HW118536   6.117   3.973   0.164
 5879SOL    HW218537   6.261   3.898   0.185
 5880SOL     OW18538   3.264   6.412   1.622
 5880SOL    HW118539   3.222   6.500   1.643
 5880SOL    HW218540   3.302   6.413   1.529
 5881SOL     OW18541   0.605   4.540   3.821
 5881SOL    HW118542   0.603   4.473   3.895
 5881SOL    HW218543   0.512   4.555   3.787
 5882SOL     OW18544   5.266   0.580   0.885
 5882SOL    HW118545   5.184   0.617   0.842
 5882SOL    HW218546   5.243   0.497   0.937
 5883SOL     OW18547   6.819   2.674   6.738
 5883SOL    HW118548   6.851   2.609   6.670
 5883SOL    HW218549   6.768   2.625   6.809
 5884SOL     OW18550   1.258   1.275   3.669
 5884SOL    HW118551   1.246   1.338   3.745
 5884SOL    HW218552   1.204   1.306   3.591
 5885SOL     OW18553   6.616   6.895   1.152
 5885SOL    HW118554   6.649   6.861   1.240
 5885SOL    HW218555   6.606   6.994   1.156
 5886SOL     OW18556   0.546   2.582   5.314
 5886SOL    HW118557   0.511   2.597   5.407
 5886SOL    HW218558   0.605   2.658   5.287
 5887SOL     OW18559   3.793   0.729   4.026
 5887SOL    HW118560   3.807   0.658   4.095
 5887SOL    HW218561   3.704   0.716   3.982
 5888SOL     OW18562   1.809   6.209   2.795
 5888SOL    HW118563   1.844   6.177   2.883
 5888SOL    HW218564   1.710   6.222   2.801
 5889SOL     OW18565   2.176   0.446   1.186
 5889SOL    HW118566   2.164   0.544   1.201
 5889SOL    HW218567   2.262   0.430   1.138
 5890SOL     OW18568   1.199   6.774   5.262
 5890SOL    HW118569   1.265   6.845   5.286
 5890SOL    HW218570   1.212   6.749   5.166
 5891SOL     OW18571   3.777   3.570   6.994
 5891SOL    HW118572   3.772   3.635   6.918
 5891SOL    HW218573   3.810   3.618   0.050
 5892SOL     OW18574   1.051   6.130   1.162
 5892SOL    HW118575   0.952   6.146   1.161
 5892SOL    HW218576   1.073   6.055   1.224
 5893SOL     OW18577   1.402   2.869   3.106
 5893SOL    HW118578   1.490   2.829   3.081
 5893SOL    HW218579   1.416   2.939   3.177
 5894SOL     OW18580   1.750   4.609   3.760
 5894SOL    HW118581   1.734   4.626   3.858
 5894SOL    HW218582   1.839   4.645   3.734
 5895SOL     OW18583   5.397   2.557   4.829
 5895SOL    HW118584   5.368   2.463   4.812
 5895SOL    HW218585   5.394   2.575   4.927
 5896SOL     OW18586   3.674   2.363   6.662
 5896SOL    HW118587   3.671   2.396   6.757
 5896SOL    HW218588   3.757   2.309   6.649
 5897SOL     OW18589   3.961   0.070   1.396
 5897SOL    HW118590   3.926   7.020   1.451
 5897SOL    HW218591   3.903   0.150   1.408
 5898SOL     OW18592   1.001   6.960   1.406
 5898SOL    HW118593   1.023   6.870   1.445
 5898SOL    HW218594   0.953   7.015   1.474
 5899SOL     OW18595   5.946   6.810   5.041
 5899SOL    HW118596   5.975   6.862   5.121
 5899SOL    HW218597   5.978   6.855   4.957
 5900SOL     OW18598   4.592   5.151   2.869
 5900SOL    HW118599   4.590   5.227   2.804
 5900SOL    HW218600   4.682   5.145   2.911
 5901SOL     OW18601   1.949   6.575   6.735
 5901SOL    HW118602   1.854   6.554   6.716
 5901SOL    HW218603   1.955   6.662   6.785
 5902SOL     OW18604   6.976   2.425   0.801
 5902SOL    HW118605   6.972   2.368   0.719
 5902SOL    HW218606   7.009   2.370   0.878
 5903SOL     OW18607   5.676   4.593   0.303
 5903SOL    HW118608   5.636   4.684   0.288
 5903SOL    HW218609   5.605   4.523   0.293
 5904SOL     OW18610   0.453   3.523   2.473
 5904SOL    HW118611   0.492   3.445   2.423
 5904SOL    HW218612   0.358   3.503   2.496
 5905SOL     OW18613   6.807   6.454   2.840
 5905SOL    HW118614   6.737   6.494   2.782
 5905SOL    HW218615   6.897   6.464   2.797
 5906SOL     OW18616   5.447   0.621   3.959
 5906SOL    HW118617   5.376   0.565   4.002
 5906SOL    HW218618   5.511   0.562   3.911
 5907SOL     OW18619   1.481   6.491   1.379
 5907SOL    HW118620   1.524   6.422   1.320
 5907SOL    HW218621   1.551   6.552   1.415
 5908SOL     OW18622   0.801   2.027   5.647
 5908SOL    HW118623   0.714   1.994   5.613
 5908SOL    HW218624   0.876   1.978   5.602
 5909SOL     OW18625   1.108   5.825   0.020
 5909SOL    HW118626   1.144   5.772   0.097
 5909SOL    HW218627   1.120   5.773   6.961
 5910SOL     OW18628   0.797   3.173   3.339
 5910SOL    HW118629   0.865   3.099   3.345
 5910SOL    HW218630   0.733   3.153   3.265
 5911SOL     OW18631   6.958   5.987   6.225
 5911SOL    HW118632   6.866   6.026   6.226
 5911SOL    HW218633   7.007   6.016   6.307
 5912SOL     OW18634   5.765   1.514   5.324
 5912SOL    HW118635   5.856   1.491   5.360
 5912SOL    HW218636   5.774   1.586   5.255
 5913SOL     OW18637   5.502   2.650   0.257
 5913SOL    HW118638   5.533   2.744   0.243
 5913SOL    HW218639   5.423   2.650   0.318
 5914SOL     OW18640   1.003   6.736   6.837
 5914SOL    HW118641   0.998   6.656   6.776
 5914SOL    HW218642   1.075   6.720   6.905
 5915SOL     OW18643   3.107   6.354   0.052
 5915SOL    HW118644   3.168   6.428   0.025
 5915SOL    HW218645   3.069   6.373   0.142
 5916SOL     OW18646   0.604   6.520   1.856
 5916SOL    HW118647   0.621   6.422   1.853
 5916SOL    HW218648   0.691   6.569   1.856
 5917SOL     OW18649   2.856   3.885   6.257
 5917SOL    HW118650   2.846   3.972   6.210
 5917SOL    HW218651   2.793   3.818   6.218
 5918SOL     OW18652   2.569   6.049   5.688
 5918SOL    HW118653   2.486   6.028   5.637
 5918SOL    HW218654   2.596   6.144   5.671
 5919SOL     OW18655   2.974   3.334   3.442
 5919SOL    HW118656   3.051   3.394   3.463
 5919SOL    HW218657   2.995   3.241   3.474
 5920SOL     OW18658   5.519   1.019   6.196
 5920SOL    HW118659   5.557   1.001   6.105
 5920SOL    HW218660   5.493   1.115   6.203
 5921SOL     OW18661   4.059   4.665   0.094
 5921SOL    HW118662   4.102   4.742   0.047
 5921SOL    HW218663   4.036   4.692   0.187
 5922SOL     OW18664   6.422   3.792   3.629
 5922SOL    HW118665   6.340   3.743   3.658
 5922SOL    HW218666   6.447   3.860   3.698
 5923SOL     OW18667   6.298   1.031   1.445
 5923SOL    HW118668   6.304   1.046   1.544
 5923SOL    HW218669   6.389   1.018   1.407
 5924SOL     OW18670   5.466   6.790   2.947
 5924SOL    HW118671   5.548   6.740   2.973
 5924SOL    HW218672   5.493   6.879   2.909
 5925SOL     OW18673   4.109   5.936   1.498
 5925SOL    HW118674   4.201   5.951   1.463
 5925SOL    HW218675   4.047   5.919   1.421
 5926SOL     OW18676   4.115   4.859   3.385
 5926SOL    HW118677   4.103   4.810   3.298
 5926SOL    HW218678   4.105   4.957   3.370
 5927SOL     OW18679   1.630   4.139   1.893
 5927SOL    HW118680   1.699   4.106   1.829
 5927SOL    HW218681   1.617   4.070   1.965
 5928SOL     OW18682   4.056   6.950   1.171
 5928SOL    HW118683   4.022   7.002   1.250
 5928SOL    HW218684   3.984   6.941   1.103
 5929SOL     OW18685   6.685   0.510   5.409
 5929SOL    HW118686   6.624   0.583   5.379
 5929SOL    HW218687   6.759   0.549   5.464
 5930SOL     OW18688   1.369   3.165   1.630
 5930SOL    HW118689   1.453   3.147   1.579
 5930SOL    HW218690   1.290   3.139   1.575
 5931SOL     OW18691   6.252   6.286   2.906
 5931SOL    HW118692   6.208   6.287   2.816
 5931SOL    HW218693   6.184   6.309   2.976
 5932SOL     OW18694   3.274   0.159   6.570
 5932SOL    HW118695   3.349   0.127   6.628
 5932SOL    HW218696   3.187   0.144   6.616
 5933SOL     OW18697   6.908   5.631   4.145
 5933SOL    HW118698   6.986   5.660   4.200
 5933SOL    HW218699   6.935   5.624   4.049
 5934SOL     OW18700   3.878   3.656   6.004
 5934SOL    HW118701   3.817   3.732   6.027
 5934SOL    HW218702   3.837   3.599   5.933
 5935SOL     OW18703   0.401   6.087   5.520
 5935SOL    HW118704   0.454   6.038   5.590
 5935SOL    HW218705   0.458   6.100   5.439
 5936SOL     OW18706   3.092   3.147   2.660
 5936SOL    HW118707   3.124   3.070   2.605
 5936SOL    HW218708   3.021   3.196   2.611
 5937SOL     OW18709   6.871   2.564   2.214
 5937SOL    HW118710   6.820   2.548   2.299
 5937SOL    HW218711   6.822   2.632   2.159
 5938SOL     OW18712   6.030   5.592   5.101
 5938SOL    HW118713   6.040   5.521   5.170
 5938SOL    HW218714   5.934   5.600   5.075
 5939SOL     OW18715   3.593   6.009   4.394
 5939SOL    HW118716   3.625   6.066   4.318
 5939SOL    HW218717   3.644   5.923   4.395
 5940SOL     OW18718   4.621   5.246   3.146
 5940SOL    HW118719   4.548   5.225   3.081
 5940SOL    HW218720   4.657   5.161   3.184
 5941SOL     OW18721   5.941   2.575   2.546
 5941SOL    HW118722   6.041   2.570   2.535
 5941SOL    HW218723   5.917   2.551   2.639
 5942SOL     OW18724   5.810   3.203   5.853
 5942SOL    HW118725   5.744   3.224   5.926
 5942SOL    HW218726   5.841   3.289   5.811
 5943SOL     OW18727   4.301   3.758   0.632
 5943SOL    HW118728   4.291   3.702   0.714
 5943SOL    HW218729   4.225   3.738   0.569
 5944SOL     OW18730   0.973   2.490   0.323
 5944SOL    HW118731   0.962   2.443   0.236
 5944SOL    HW218732   0.890   2.477   0.379
 5945SOL     OW18733   0.599   6.364   5.037
 5945SOL    HW118734   0.594   6.441   5.101
 5945SOL    HW218735   0.542   6.289   5.072
 5946SOL     OW18736   3.342   4.923   0.022
 5946SOL    HW118737   3.330   4.828   7.022
 5946SOL    HW218738   3.374   4.976   6.969
 5947SOL     OW18739   3.146   3.003   4.563
 5947SOL    HW118740   3.233   3.026   4.606
 5947SOL    HW218741   3.072   3.015   4.629
 5948SOL     OW18742   4.869   4.396   1.937
 5948SOL    HW118743   4.808   4.408   1.859
 5948SOL    HW218744   4.823   4.342   2.008
 5949SOL     OW18745   5.874   5.494   1.611
 5949SOL    HW118746   5.850   5.398   1.594
 5949SOL    HW218747   5.791   5.546   1.630
 5950SOL     OW18748   5.344   2.326   5.389
 5950SOL    HW118749   5.378   2.310   5.296
 5950SOL    HW218750   5.271   2.394   5.387
 5951SOL     OW18751   0.652   5.546   5.192
 5951SOL    HW118752   0.736   5.494   5.202
 5951SOL    HW218753   0.632   5.560   5.095
 5952SOL     OW18754   3.921   5.303   2.868
 5952SOL    HW118755   3.864   5.286   2.788
 5952SOL    HW218756   4.015   5.274   2.850
 5953SOL     OW18757   6.143   3.351   4.428
 5953SOL    HW118758   6.073   3.400   4.480
 5953SOL    HW218759   6.099   3.283   4.369
 5954SOL     OW18760   0.310   5.051   5.558
 5954SOL    HW118761   0.406   5.082   5.562
 5954SOL    HW218762   0.307   4.951   5.552
 5955SOL     OW18763   4.496   5.198   1.397
 5955SOL    HW118764   4.451   5.172   1.311
 5955SOL    HW218765   4.593   5.178   1.392
 5956SOL     OW18766   5.293   2.324   4.302
 5956SOL    HW118767   5.291   2.257   4.227
 5956SOL    HW218768   5.204   2.368   4.309
 5957SOL     OW18769   1.492   1.155   3.205
 5957SOL    HW118770   1.446   1.171   3.118
 5957SOL    HW218771   1.424   1.131   3.275
 5958SOL     OW18772   3.977   0.512   3.072
 5958SOL    HW118773   4.015   0.428   3.035
 5958SOL    HW218774   3.927   0.492   3.156
 5959SOL     OW18775   4.630   2.487   5.687
 5959SOL    HW118776   4.577   2.487   5.603
 5959SOL    HW218777   4.629   2.578   5.728
 5960SOL     OW18778   3.219   6.403   4.705
 5960SOL    HW118779   3.214   6.379   4.608
 5960SOL    HW218780   3.217   6.319   4.759
 5961SOL     OW18781   4.016   1.893   2.098
 5961SOL    HW118782   3.945   1.919   2.164
 5961SOL    HW218783   4.066   1.814   2.133
 5962SOL     OW18784   5.320   5.968   5.919
 5962SOL    HW118785   5.411   5.952   5.881
 5962SOL    HW218786   5.320   5.946   6.016
 5963SOL     OW18787   3.296   4.676   6.982
 5963SOL    HW118788   3.258   4.586   7.005
 5963SOL    HW218789   3.296   4.688   6.883
 5964SOL     OW18790   2.389   6.817   3.125
 5964SOL    HW118791   2.403   6.868   3.209
 5964SOL    HW218792   2.456   6.845   3.057
 5965SOL     OW18793   1.928   0.512   6.626
 5965SOL    HW118794   1.910   0.527   6.723
 5965SOL    HW218795   1.909   0.595   6.574
 5966SOL     OW18796   1.732   0.107   5.555
 5966SOL    HW118797   1.649   0.161   5.568
 5966SOL    HW218798   1.794   0.155   5.493
 5967SOL     OW18799   2.800   1.931   5.111
 5967SOL    HW118800   2.858   1.994   5.163
 5967SOL    HW218801   2.838   1.839   5.117
 5968SOL     OW18802   5.539   2.065   0.449
 5968SOL    HW118803   5.471   2.024   0.388
 5968SOL    HW218804   5.534   2.019   0.538
 5969SOL     OW18805   4.725   0.532   6.445
 5969SOL    HW118806   4.818   0.552   6.414
 5969SOL    HW218807   4.670   0.616   6.443
 5970SOL     OW18808   0.246   4.483   0.770
 5970SOL    HW118809   0.232   4.456   0.675
 5970SOL    HW218810   0.247   4.402   0.828
 5971SOL     OW18811   6.024   0.403   2.092
 5971SOL    HW118812   5.993   0.443   2.178
 5971SOL    HW218813   5.962   0.329   2.065
 5972SOL     OW18814   5.493   5.031   6.709
 5972SOL    HW118815   5.592   5.017   6.706
 5972SOL    HW218816   5.455   5.018   6.617
 5973SOL     OW18817   2.190   3.758   2.680
 5973SOL    HW118818   2.249   3.697   2.733
 5973SOL    HW218819   2.172   3.717   2.590
 5974SOL     OW18820   4.656   0.400   0.221
 5974SOL    HW118821   4.608   0.488   0.216
 5974SOL    HW218822   4.589   0.325   0.222
 5975SOL     OW18823   5.078   5.256   1.267
 5975SOL    HW118824   5.015   5.200   1.214
 5975SOL    HW218825   5.101   5.339   1.216
 5976SOL     OW18826   3.519   3.580   5.817
 5976SOL    HW118827   3.492   3.553   5.725
 5976SOL    HW218828   3.491   3.510   5.883
 5977SOL     OW18829   0.899   5.483   7.023
 5977SOL    HW118830   0.923   5.471   0.093
 5977SOL    HW218831   0.976   5.456   6.965
 5978SOL     OW18832   3.566   5.123   0.655
 5978SOL    HW118833   3.506   5.114   0.575
 5978SOL    HW218834   3.523   5.080   0.734
 5979SOL     OW18835   6.369   0.354   2.121
 5979SOL    HW118836   6.397   0.303   2.203
 5979SOL    HW218837   6.432   0.430   2.106
 5980SOL     OW18838   3.211   2.940   2.184
 5980SOL    HW118839   3.215   3.002   2.106
 5980SOL    HW218840   3.171   2.853   2.156
 5981SOL     OW18841   4.811   1.764   0.338
 5981SOL    HW118842   4.904   1.799   0.331
 5981SOL    HW218843   4.799   1.689   0.274
 5982SOL     OW18844   5.740   2.178   2.132
 5982SOL    HW118845   5.640   2.187   2.133
 5982SOL    HW218846   5.770   2.163   2.038
 5983SOL     OW18847   1.156   0.786   3.996
 5983SOL    HW118848   1.142   0.703   4.051
 5983SOL    HW218849   1.173   0.760   3.901
 5984SOL     OW18850   5.578   6.548   3.824
 5984SOL    HW118851   5.658   6.598   3.792
 5984SOL    HW218852   5.606   6.461   3.866
 5985SOL     OW18853   6.234   2.351   3.887
 5985SOL    HW118854   6.238   2.257   3.921
 5985SOL    HW218855   6.305   2.405   3.933
 5986SOL     OW18856   4.206   3.983   5.775
 5986SOL    HW118857   4.299   3.946   5.778
 5986SOL    HW218858   4.166   3.980   5.867
 5987SOL     OW18859   6.428   0.848   4.379
 5987SOL    HW118860   6.430   0.832   4.477
 5987SOL    HW218861   6.334   0.870   4.351
 5988SOL     OW18862   3.197   1.199   6.746
 5988SOL    HW118863   3.144   1.269   6.698
 5988SOL    HW218864   3.290   1.196   6.709
 5989SOL     OW18865   1.856   5.377   6.263
 5989SOL    HW118866   1.861   5.360   6.361
 5989SOL    HW218867   1.771   5.337   6.227
 5990SOL     OW18868   3.974   3.904   0.979
 5990SOL    HW118869   4.061   3.898   0.931
 5990SOL    HW218870   3.923   3.983   0.947
 5991SOL     OW18871   4.327   5.709   0.045
 5991SOL    HW118872   4.232   5.701   0.014
 5991SOL    HW218873   4.358   5.622   0.083
 5992SOL     OW18874   2.676   0.016   2.474
 5992SOL    HW118875   2.654   6.996   2.388
 5992SOL    HW218876   2.775   0.011   2.490
 5993SOL     OW18877   5.589   3.847   6.515
 5993SOL    HW118878   5.515   3.810   6.570
 5993SOL    HW218879   5.672   3.852   6.570
 5994SOL     OW18880   6.946   3.012   0.752
 5994SOL    HW118881   6.989   2.983   0.838
 5994SOL    HW218882   6.886   3.090   0.770
 5995SOL     OW18883   4.458   3.152   1.667
 5995SOL    HW118884   4.527   3.125   1.735
 5995SOL    HW218885   4.504   3.188   1.586
 5996SOL     OW18886   2.100   6.046   1.272
 5996SOL    HW118887   2.163   5.972   1.295
 5996SOL    HW218888   2.115   6.075   1.177
 5997SOL     OW18889   0.127   6.560   3.551
 5997SOL    HW118890   0.088   6.599   3.468
 5997SOL    HW218891   0.126   6.460   3.545
 5998SOL     OW18892   5.374   0.506   1.569
 5998SOL    HW118893   5.409   0.540   1.481
 5998SOL    HW218894   5.368   0.583   1.633
 5999SOL     OW18895   3.660   2.945   1.326
 5999SOL    HW118896   3.657   2.983   1.234
 5999SOL    HW218897   3.752   2.911   1.345
 6000SOL     OW18898   0.428   6.034   6.971
 6000SOL    HW118899   0.421   5.934   6.979
 6000SOL    HW218900   0.343   6.076   7.002
 6001SOL     OW18901   5.677   6.206   6.691
 6001SOL    HW118902   5.731   6.127   6.720
 6001SOL    HW218903   5.682   6.216   6.592
 6002SOL     OW18904   6.666   6.930   5.290
 6002SOL    HW118905   6.653   6.927   5.389
 6002SOL    HW218906   6.656   7.024   5.257
 6003SOL     OW18907   6.574   2.338   4.705
 6003SOL    HW118908   6.637   2.262   4.721
 6003SOL    HW218909   6.503   2.309   4.641
 6004SOL     OW18910   5.654   2.606   3.560
 6004SOL    HW118911   5.701   2.614   3.472
 6004SOL    HW218912   5.555   2.604   3.544
 6005SOL     OW18913   5.369   4.553   5.316
 6005SOL    HW118914   5.327   4.506   5.238
 6005SOL    HW218915   5.409   4.640   5.285
 6006SOL     OW18916   3.650   0.121   5.180
 6006SOL    HW118917   3.686   0.214   5.168
 6006SOL    HW218918   3.552   0.121   5.163
 6007SOL     OW18919   0.027   3.668   0.126
 6007SOL    HW118920   6.997   3.717   0.059
 6007SOL    HW218921   0.065   3.732   0.192
 6008SOL     OW18922   2.093   4.304   5.416
 6008SOL    HW118923   2.099   4.376   5.348
 6008SOL    HW218924   2.152   4.227   5.389
 6009SOL     OW18925   4.794   5.786   3.300
 6009SOL    HW118926   4.697   5.769   3.318
 6009SOL    HW218927   4.832   5.710   3.248
 6010SOL     OW18928   0.362   3.927   4.258
 6010SOL    HW118929   0.383   3.834   4.288
 6010SOL    HW218930   0.273   3.955   4.296
 6011SOL     OW18931   4.510   2.528   2.625
 6011SOL    HW118932   4.554   2.617   2.616
 6011SOL    HW218933   4.505   2.483   2.536
 6012SOL     OW18934   6.117   0.702   6.806
 6012SOL    HW118935   6.039   0.742   6.853
 6012SOL    HW218936   6.136   0.611   6.844
 6013SOL     OW18937   4.869   1.270   2.447
 6013SOL    HW118938   4.856   1.349   2.506
 6013SOL    HW218939   4.832   1.188   2.491
 6014SOL     OW18940   3.464   3.317   4.008
 6014SOL    HW118941   3.465   3.262   3.925
 6014SOL    HW218942   3.428   3.408   3.987
 6015SOL     OW18943   5.800   3.236   4.410
 6015SOL    HW118944   5.888   3.203   4.376
 6015SOL    HW218945   5.787   3.331   4.381
 6016SOL     OW18946   5.161   1.969   5.743
 6016SOL    HW118947   5.247   1.997   5.784
 6016SOL    HW218948   5.085   2.009   5.795
 6017SOL     OW18949   0.397   4.037   4.811
 6017SOL    HW118950   0.444   3.985   4.739
 6017SOL    HW218951   0.300   4.046   4.788
 6018SOL     OW18952   3.425   1.175   4.465
 6018SOL    HW118953   3.386   1.249   4.521
 6018SOL    HW218954   3.467   1.215   4.383
 6019SOL     OW18955   0.942   3.378   5.862
 6019SOL    HW118956   0.912   3.336   5.948
 6019SOL    HW218957   1.022   3.329   5.827
 6020SOL     OW18958   0.910   4.823   1.017
 6020SOL    HW118959   0.992   4.823   1.074
 6020SOL    HW218960   0.904   4.910   0.968
 6021SOL     OW18961   4.603   0.425   2.796
 6021SOL    HW118962   4.642   0.358   2.733
 6021SOL    HW218963   4.641   0.411   2.887
 6022SOL     OW18964   6.504   2.059   3.443
 6022SOL    HW118965   6.463   2.092   3.528
 6022SOL    HW218966   6.436   2.059   3.370
 6023SOL     OW18967   5.226   0.142   1.239
 6023SOL    HW118968   5.174   0.162   1.322
 6023SOL    HW218969   5.309   0.197   1.238
 6024SOL     OW18970   0.446   4.663   0.837
 6024SOL    HW118971   0.382   4.587   0.851
 6024SOL    HW218972   0.456   4.713   0.923
 6025SOL     OW18973   2.777   1.178   3.659
 6025SOL    HW118974   2.755   1.273   3.681
 6025SOL    HW218975   2.768   1.122   3.742
 6026SOL     OW18976   6.271   4.436   4.519
 6026SOL    HW118977   6.252   4.494   4.599
 6026SOL    HW218978   6.214   4.354   4.524
 6027SOL     OW18979   6.328   3.626   6.163
 6027SOL    HW118980   6.386   3.613   6.243
 6027SOL    HW218981   6.239   3.583   6.178
 6028SOL     OW18982   5.400   5.289   1.533
 6028SOL    HW118983   5.449   5.348   1.469
 6028SOL    HW218984   5.411   5.325   1.626
 6029SOL     OW18985   1.906   6.829   3.426
 6029SOL    HW118986   1.816   6.858   3.392
 6029SOL    HW218987   1.974   6.837   3.353
 6030SOL     OW18988   4.982   3.528   4.774
 6030SOL    HW118989   4.961   3.610   4.828
 6030SOL    HW218990   4.905   3.464   4.780
 6031SOL     OW18991   1.498   5.930   3.612
 6031SOL    HW118992   1.551   5.882   3.681
 6031SOL    HW218993   1.488   5.872   3.531
 6032SOL     OW18994   3.039   5.739   3.531
 6032SOL    HW118995   3.111   5.775   3.590
 6032SOL    HW218996   3.043   5.784   3.442
 6033SOL     OW18997   2.397   2.631   2.583
 6033SOL    HW118998   2.346   2.580   2.514
 6033SOL    HW218999   2.475   2.577   2.614
 6034SOL     OW19000   0.966   0.340   6.608
 6034SOL    HW119001   1.051   0.391   6.623
 6034SOL    HW219002   0.894   0.402   6.581
 6035SOL     OW19003   0.666   0.983   2.570
 6035SOL    HW119004   0.679   0.962   2.473
 6035SOL    HW219005   0.704   1.074   2.589
 6036SOL     OW19006   6.282   4.583   1.730
 6036SOL    HW119007   6.368   4.549   1.691
 6036SOL    HW219008   6.261   4.672   1.692
 6037SOL     OW19009   3.919   0.327   0.829
 6037SOL    HW119010   3.835   0.279   0.852
 6037SOL    HW219011   3.957   0.368   0.911
 6038SOL     OW19012   0.338   2.424   6.451
 6038SOL    HW119013   0.261   2.409   6.389
 6038SOL    HW219014   0.321   2.374   6.536
 6039SOL     OW19015   3.782   3.699   3.827
 6039SOL    HW119016   3.691   3.729   3.856
 6039SOL    HW219017   3.785   3.600   3.819
 6040SOL     OW19018   1.562   1.146   0.022
 6040SOL    HW119019   1.531   1.179   0.111
 6040SOL    HW219020   1.590   1.050   0.030
 6041SOL     OW19021   3.112   2.899   5.338
 6041SOL    HW119022   3.075   2.963   5.405
 6041SOL    HW219023   3.150   2.949   5.261
 6042SOL     OW19024   4.064   6.419   3.209
 6042SOL    HW119025   4.062   6.472   3.124
 6042SOL    HW219026   3.971   6.393   3.234
 6043SOL     OW19027   1.170   0.609   4.228
 6043SOL    HW119028   1.183   0.688   4.288
 6043SOL    HW219029   1.248   0.548   4.235
 6044SOL     OW19030   2.095   1.959   1.893
 6044SOL    HW119031   2.189   1.937   1.918
 6044SOL    HW219032   2.046   1.991   1.975
 6045SOL     OW19033   4.883   3.178   3.816
 6045SOL    HW119034   4.847   3.097   3.864
 6045SOL    HW219035   4.863   3.171   3.719
 6046SOL     OW19036   3.410   3.285   1.204
 6046SOL    HW119037   3.332   3.225   1.191
 6046SOL    HW219038   3.399   3.336   1.290
 6047SOL     OW19039   5.260   2.537   1.250
 6047SOL    HW119040   5.237   2.623   1.203
 6047SOL    HW219041   5.325   2.485   1.194
 6048SOL     OW19042   5.210   5.167   5.289
 6048SOL    HW119043   5.228   5.188   5.385
 6048SOL    HW219044   5.151   5.237   5.249
 6049SOL     OW19045   5.565   4.523   6.140
 6049SOL    HW119046   5.614   4.598   6.183
 6049SOL    HW219047   5.561   4.537   6.041
 6050SOL     OW19048   2.937   5.109   0.923
 6050SOL    HW119049   2.957   5.183   0.988
 6050SOL    HW219050   3.023   5.074   0.885
 6051SOL     OW19051   1.060   0.567   2.494
 6051SOL    HW119052   1.065   0.643   2.429
 6051SOL    HW219053   1.152   0.546   2.528
 6052SOL     OW19054   5.416   0.815   1.400
 6052SOL    HW119055   5.377   0.826   1.308
 6052SOL    HW219056   5.472   0.732   1.403
 6053SOL     OW19057   4.266   0.482   6.028
 6053SOL    HW119058   4.204   0.524   6.095
 6053SOL    HW219059   4.302   0.553   5.967
 6054SOL     OW19060   3.470   5.045   0.904
 6054SOL    HW119061   3.473   5.105   0.984
 6054SOL    HW219062   3.432   4.956   0.931
 6055SOL     OW19063   3.456   5.392   6.445
 6055SOL    HW119064   3.474   5.295   6.425
 6055SOL    HW219065   3.525   5.449   6.400
 6056SOL     OW19066   5.851   2.859   5.133
 6056SOL    HW119067   5.754   2.884   5.132
 6056SOL    HW219068   5.868   2.791   5.062
 6057SOL     OW19069   5.952   0.512   2.351
 6057SOL    HW119070   5.989   0.602   2.375
 6057SOL    HW219071   5.918   0.467   2.434
 6058SOL     OW19072   5.869   3.300   0.402
 6058SOL    HW119073   5.903   3.220   0.353
 6058SOL    HW219074   5.781   3.279   0.444
 6059SOL     OW19075   5.153   3.882   5.614
 6059SOL    HW119076   5.197   3.837   5.536
 6059SOL    HW219077   5.061   3.844   5.627
 6060SOL     OW19078   3.364   3.193   0.672
 6060SOL    HW119079   3.396   3.237   0.589
 6060SOL    HW219080   3.419   3.111   0.690
 6061SOL     OW19081   4.678   4.573   0.765
 6061SOL    HW119082   4.579   4.572   0.755
 6061SOL    HW219083   4.709   4.667   0.780
 6062SOL     OW19084   2.657   2.179   6.601
 6062SOL    HW119085   2.604   2.256   6.564
 6062SOL    HW219086   2.604   2.132   6.671
 6063SOL     OW19087   3.657   4.208   5.332
 6063SOL    HW119088   3.647   4.111   5.353
 6063SOL    HW219089   3.574   4.257   5.357
 6064SOL     OW19090   0.796   0.202   1.120
 6064SOL    HW119091   0.870   0.146   1.082
 6064SOL    HW219092   0.798   0.293   1.077
 6065SOL     OW19093   0.819   5.738   1.489
 6065SOL    HW119094   0.807   5.827   1.533
 6065SOL    HW219095   0.830   5.668   1.560
 6066SOL     OW19096   5.222   1.018   3.821
 6066SOL    HW119097   5.216   1.079   3.901
 6066SOL    HW219098   5.297   1.048   3.763
 6067SOL     OW19099   5.052   0.895   5.880
 6067SOL    HW119100   5.009   0.985   5.890
 6067SOL    HW219101   5.027   0.838   5.958
 6068SOL     OW19102   5.197   2.332   5.024
 6068SOL    HW119103   5.179   2.269   5.099
 6068SOL    HW219104   5.276   2.299   4.972
 6069SOL     OW19105   6.856   3.078   6.293
 6069SOL    HW119106   6.758   3.089   6.304
 6069SOL    HW219107   6.902   3.106   6.377
 6070SOL     OW19108   3.659   2.169   1.625
 6070SOL    HW119109   3.652   2.235   1.700
 6070SOL    HW219110   3.667   2.218   1.538
 6071SOL     OW19111   0.236   6.103   4.514
 6071SOL    HW119112   0.196   6.172   4.574
 6071SOL    HW219113   0.328   6.131   4.488
 6072SOL     OW19114   6.439   1.657   1.286
 6072SOL    HW119115   6.387   1.700   1.360
 6072SOL    HW219116   6.392   1.574   1.256
 6073SOL     OW19117   5.095   3.018   0.760
 6073SOL    HW119118   5.032   2.960   0.812
 6073SOL    HW219119   5.120   3.098   0.815
 6074SOL     OW19120   1.908   0.136   2.088
 6074SOL    HW119121   1.849   0.124   2.009
 6074SOL    HW219122   1.888   0.224   2.132
 6075SOL     OW19123   4.676   7.012   5.619
 6075SOL    HW119124   4.622   0.061   5.581
 6075SOL    HW219125   4.712   6.956   5.545
 6076SOL     OW19126   2.923   4.949   3.666
 6076SOL    HW119127   2.850   4.918   3.606
 6076SOL    HW219128   2.930   5.049   3.660
 6077SOL     OW19129   5.109   6.292   0.701
 6077SOL    HW119130   5.195   6.336   0.726
 6077SOL    HW219131   5.035   6.326   0.759
 6078SOL     OW19132   4.413   4.387   1.131
 6078SOL    HW119133   4.355   4.457   1.090
 6078SOL    HW219134   4.378   4.364   1.222
 6079SOL     OW19135   4.873   4.540   6.631
 6079SOL    HW119136   4.866   4.629   6.676
 6079SOL    HW219137   4.937   4.546   6.555
 6080SOL     OW19138   0.400   5.244   1.474
 6080SOL    HW119139   0.440   5.221   1.385
 6080SOL    HW219140   0.301   5.251   1.465
 6081SOL     OW19141   6.850   2.990   5.836
 6081SOL    HW119142   6.870   2.989   5.934
 6081SOL    HW219143   6.936   2.989   5.785
 6082SOL     OW19144   3.234   6.427   2.321
 6082SOL    HW119145   3.318   6.447   2.372
 6082SOL    HW219146   3.156   6.431   2.383
 6083SOL     OW19147   5.512   5.951   0.433
 6083SOL    HW119148   5.498   5.891   0.354
 6083SOL    HW219149   5.440   6.020   0.436
 6084SOL     OW19150   1.065   6.380   1.973
 6084SOL    HW119151   1.087   6.296   2.024
 6084SOL    HW219152   1.067   6.361   1.875
 6085SOL     OW19153   5.963   6.118   5.956
 6085SOL    HW119154   5.930   6.122   5.861
 6085SOL    HW219155   6.012   6.202   5.978
 6086SOL     OW19156   3.638   2.851   5.982
 6086SOL    HW119157   3.565   2.791   5.950
 6086SOL    HW219158   3.663   2.915   5.910
 6087SOL     OW19159   4.872   6.199   0.975
 6087SOL    HW119160   4.906   6.148   1.054
 6087SOL    HW219161   4.858   6.135   0.899
 6088SOL     OW19162   5.935   6.263   5.249
 6088SOL    HW119163   5.917   6.177   5.297
 6088SOL    HW219164   6.034   6.273   5.234
 6089SOL     OW19165   6.470   2.626   2.901
 6089SOL    HW119166   6.437   2.609   2.994
 6089SOL    HW219167   6.392   2.637   2.839
 6090SOL     OW19168   3.005   5.148   4.512
 6090SOL    HW119169   2.908   5.122   4.517
 6090SOL    HW219170   3.061   5.065   4.513
 6091SOL     OW19171   3.156   1.639   0.704
 6091SOL    HW119172   3.183   1.559   0.651
 6091SOL    HW219173   3.058   1.633   0.726
 6092SOL     OW19174   4.522   0.881   1.767
 6092SOL    HW119175   4.500   0.971   1.803
 6092SOL    HW219176   4.532   0.816   1.844
 6093SOL     OW19177   2.680   2.325   2.234
 6093SOL    HW119178   2.582   2.316   2.247
 6093SOL    HW219179   2.708   2.270   2.155
 6094SOL     OW19180   1.046   6.365   3.179
 6094SOL    HW119181   0.968   6.330   3.230
 6094SOL    HW219182   1.122   6.382   3.243
 6095SOL     OW19183   4.805   4.780   6.770
 6095SOL    HW119184   4.853   4.866   6.756
 6095SOL    HW219185   4.781   4.770   6.867
 6096SOL     OW19186   5.422   6.597   1.767
 6096SOL    HW119187   5.390   6.514   1.813
 6096SOL    HW219188   5.518   6.611   1.788
 6097SOL     OW19189   1.303   5.388   1.786
 6097SOL    HW119190   1.242   5.421   1.714
 6097SOL    HW219191   1.386   5.351   1.746
 6098SOL     OW19192   6.469   0.899   5.706
 6098SOL    HW119193   6.486   0.892   5.804
 6098SOL    HW219194   6.548   0.864   5.656
 6099SOL     OW19195   4.822   6.073   5.606
 6099SOL    HW119196   4.742   6.131   5.623
 6099SOL    HW219197   4.905   6.129   5.611
 6100SOL     OW19198   0.029   5.866   1.973
 6100SOL    HW119199   0.062   5.959   1.957
 6100SOL    HW219200   6.978   5.868   2.036
 6101SOL     OW19201   5.855   2.965   2.806
 6101SOL    HW119202   5.857   3.036   2.876
 6101SOL    HW219203   5.865   3.008   2.716
 6102SOL     OW19204   3.999   6.305   2.498
 6102SOL    HW119205   3.951   6.239   2.556
 6102SOL    HW219206   4.015   6.389   2.550
 6103SOL     OW19207   6.553   1.040   1.323
 6103SOL    HW119208   6.550   1.108   1.249
 6103SOL    HW219209   6.647   1.008   1.334
 6104SOL     OW19210   6.183   0.861   5.111
 6104SOL    HW119211   6.171   0.766   5.084
 6104SOL    HW219212   6.255   0.903   5.056
 6105SOL     OW19213   1.995   5.692   5.706
 6105SOL    HW119214   2.075   5.657   5.755
 6105SOL    HW219215   2.023   5.728   5.617
 6106SOL     OW19216   1.134   5.235   0.371
 6106SOL    HW119217   1.098   5.167   0.435
 6106SOL    HW219218   1.167   5.189   0.288
 6107SOL     OW19219   4.525   5.575   3.584
 6107SOL    HW119220   4.462   5.510   3.626
 6107SOL    HW219221   4.486   5.610   3.499
 6108SOL     OW19222   1.337   2.116   2.961
 6108SOL    HW119223   1.393   2.170   3.024
 6108SOL    HW219224   1.334   2.161   2.872
 6109SOL     OW19225   5.302   1.204   4.653
 6109SOL    HW119226   5.301   1.108   4.682
 6109SOL    HW219227   5.211   1.243   4.663
 6110SOL     OW19228   1.758   2.515   6.895
 6110SOL    HW119229   1.675   2.508   6.952
 6110SOL    HW219230   1.742   2.469   6.808
 6111SOL     OW19231   1.469   3.356   1.924
 6111SOL    HW119232   1.437   3.279   1.979
 6111SOL    HW219233   1.402   3.377   1.854
 6112SOL     OW19234   4.392   0.740   2.450
 6112SOL    HW119235   4.469   0.710   2.506
 6112SOL    HW219236   4.426   0.773   2.362
 6113SOL     OW19237   2.579   3.626   6.423
 6113SOL    HW119238   2.666   3.635   6.472
 6113SOL    HW219239   2.588   3.556   6.352
 6114SOL     OW19240   5.302   3.210   2.330
 6114SOL    HW119241   5.269   3.204   2.236
 6114SOL    HW219242   5.236   3.166   2.391
 6115SOL     OW19243   6.695   1.454   5.592
 6115SOL    HW119244   6.705   1.514   5.672
 6115SOL    HW219245   6.718   1.505   5.509
 6116SOL     OW19246   4.202   2.371   5.525
 6116SOL    HW119247   4.251   2.320   5.596
 6116SOL    HW219248   4.112   2.328   5.510
 6117SOL     OW19249   1.188   2.163   3.293
 6117SOL    HW119250   1.227   2.241   3.341
 6117SOL    HW219251   1.250   2.084   3.303
 6118SOL     OW19252   5.355   1.201   1.568
 6118SOL    HW119253   5.266   1.160   1.550
 6118SOL    HW219254   5.421   1.128   1.588
 6119SOL     OW19255   0.685   2.740   0.531
 6119SOL    HW119256   0.694   2.775   0.438
 6119SOL    HW219257   0.710   2.812   0.596
 6120SOL     OW19258   1.746   6.790   5.590
 6120SOL    HW119259   1.797   6.868   5.556
 6120SOL    HW219260   1.791   6.705   5.562
 6121SOL     OW19261   0.791   4.028   5.680
 6121SOL    HW119262   0.867   4.080   5.721
 6121SOL    HW219263   0.818   3.932   5.671
 6122SOL     OW19264   4.899   5.275   6.433
 6122SOL    HW119265   4.948   5.358   6.407
 6122SOL    HW219266   4.814   5.268   6.381
 6123SOL     OW19267   5.566   1.020   5.291
 6123SOL    HW119268   5.630   0.970   5.349
 6123SOL    HW219269   5.473   1.001   5.321
 6124SOL     OW19270   0.799   6.551   5.414
 6124SOL    HW119271   0.723   6.567   5.477
 6124SOL    HW219272   0.861   6.630   5.416
 6125SOL     OW19273   2.366   3.828   6.927
 6125SOL    HW119274   2.424   3.890   6.980
 6125SOL    HW219275   2.388   3.734   6.952
 6126SOL     OW19276   1.044   1.918   5.581
 6126SOL    HW119277   1.054   1.856   5.503
 6126SOL    HW219278   1.133   1.934   5.622
 6127SOL     OW19279   4.285   0.595   1.544
 6127SOL    HW119280   4.371   0.554   1.574
 6127SOL    HW219281   4.256   0.551   1.459
 6128SOL     OW19282   5.540   5.189   0.629
 6128SOL    HW119283   5.521   5.287   0.616
 6128SOL    HW219284   5.499   5.137   0.554
 6129SOL     OW19285   1.481   4.042   3.674
 6129SOL    HW119286   1.445   4.018   3.765
 6129SOL    HW219287   1.492   3.959   3.620
 6130SOL     OW19288   6.153   2.197   3.259
 6130SOL    HW119289   6.079   2.135   3.234
 6130SOL    HW219290   6.241   2.158   3.230
 6131SOL     OW19291   0.810   2.303   2.185
 6131SOL    HW119292   0.869   2.230   2.152
 6131SOL    HW219293   0.769   2.277   2.273
 6132SOL     OW19294   3.631   1.911   6.262
 6132SOL    HW119295   3.600   1.957   6.345
 6132SOL    HW219296   3.596   1.818   6.260
 6133SOL     OW19297   1.448   2.262   3.167
 6133SOL    HW119298   1.409   2.246   3.257
 6133SOL    HW219299   1.449   2.361   3.148
 6134SOL     OW19300   4.314   0.232   6.715
 6134SOL    HW119301   4.332   0.323   6.753
 6134SOL    HW219302   4.241   0.188   6.767
 6135SOL     OW19303   6.005   6.236   0.336
 6135SOL    HW119304   5.989   6.227   0.238
 6135SOL    HW219305   5.935   6.185   0.386
 6136SOL     OW19306   1.411   2.748   1.153
 6136SOL    HW119307   1.331   2.737   1.095
 6136SOL    HW219308   1.475   2.811   1.110
 6137SOL     OW19309   0.881   3.839   2.297
 6137SOL    HW119310   0.967   3.809   2.339
 6137SOL    HW219311   0.835   3.903   2.359
 6138SOL     OW19312   3.763   0.146   2.553
 6138SOL    HW119313   3.690   0.112   2.494
 6138SOL    HW219314   3.728   0.221   2.610
 6139SOL     OW19315   0.587   0.158   5.599
 6139SOL    HW119316   0.521   0.083   5.585
 6139SOL    HW219317   0.561   0.236   5.542
 6140SOL     OW19318   0.628   1.298   3.392
 6140SOL    HW119319   0.651   1.390   3.363
 6140SOL    HW219320   0.543   1.300   3.445
 6141SOL     OW19321   1.055   0.426   5.879
 6141SOL    HW119322   1.082   0.484   5.956
 6141SOL    HW219323   1.007   0.345   5.914
 6142SOL     OW19324   1.157   0.070   6.071
 6142SOL    HW119325   1.166   0.165   6.101
 6142SOL    HW219326   1.088   0.024   6.126
 6143SOL     OW19327   6.908   4.209   0.962
 6143SOL    HW119328   6.945   4.223   1.054
 6143SOL    HW219329   6.984   4.203   0.897
 6144SOL     OW19330   5.251   4.297   3.196
 6144SOL    HW119331   5.256   4.351   3.112
 6144SOL    HW219332   5.198   4.214   3.179
 6145SOL     OW19333   5.868   4.440   4.671
 6145SOL    HW119334   5.934   4.365   4.684
 6145SOL    HW219335   5.785   4.405   4.628
 6146SOL     OW19336   3.238   6.411   3.991
 6146SOL    HW119337   3.280   6.327   3.956
 6146SOL    HW219338   3.220   6.400   4.089
 6147SOL     OW19339   2.131   2.762   4.522
 6147SOL    HW119340   2.117   2.831   4.451
 6147SOL    HW219341   2.136   2.806   4.612
 6148SOL     OW19342   3.872   5.186   6.721
 6148SOL    HW119343   3.851   5.228   6.633
 6148SOL    HW219344   3.956   5.225   6.758
 6149SOL     OW19345   1.762   0.045   1.873
 6149SOL    HW119346   1.843   7.015   1.854
 6149SOL    HW219347   1.747   0.109   1.798
 6150SOL     OW19348   5.783   3.883   6.711
 6150SOL    HW119349   5.762   3.873   6.809
 6150SOL    HW219350   5.825   3.973   6.696
 6151SOL     OW19351   4.829   5.061   4.436
 6151SOL    HW119352   4.822   4.964   4.414
 6151SOL    HW219353   4.918   5.096   4.407
 6152SOL     OW19354   0.656   5.733   4.764
 6152SOL    HW119355   0.597   5.813   4.778
 6152SOL    HW219356   0.623   5.657   4.820
 6153SOL     OW19357   5.110   5.022   1.100
 6153SOL    HW119358   5.181   4.953   1.087
 6153SOL    HW219359   5.152   5.106   1.135
 6154SOL     OW19360   5.410   3.213   2.785
 6154SOL    HW119361   5.356   3.279   2.837
 6154SOL    HW219362   5.481   3.175   2.845
 6155SOL     OW19363   2.989   0.674   2.720
 6155SOL    HW119364   2.905   0.646   2.674
 6155SOL    HW219365   2.969   0.695   2.816
 6156SOL     OW19366   4.893   4.548   1.650
 6156SOL    HW119367   4.887   4.619   1.580
 6156SOL    HW219368   4.802   4.529   1.686
 6157SOL     OW19369   0.512   2.511   3.301
 6157SOL    HW119370   0.558   2.435   3.254
 6157SOL    HW219371   0.548   2.598   3.267
 6158SOL     OW19372   3.065   1.983   6.970
 6158SOL    HW119373   3.102   1.898   6.931
 6158SOL    HW219374   3.117   2.061   6.934
 6159SOL     OW19375   5.351   2.908   0.666
 6159SOL    HW119376   5.429   2.955   0.708
 6159SOL    HW219377   5.266   2.949   0.699
 6160SOL     OW19378   0.168   6.790   6.852
 6160SOL    HW119379   0.193   6.755   6.762
 6160SOL    HW219380   0.239   6.766   6.918
 6161SOL     OW19381   5.167   0.985   0.215
 6161SOL    HW119382   5.221   1.006   0.297
 6161SOL    HW219383   5.224   0.936   0.149
 6162SOL     OW19384   5.913   6.298   3.786
 6162SOL    HW119385   5.909   6.397   3.771
 6162SOL    HW219386   5.909   6.251   3.698
 6163SOL     OW19387   5.439   5.893   2.333
 6163SOL    HW119388   5.523   5.923   2.380
 6163SOL    HW219389   5.395   5.973   2.291
 6164SOL     OW19390   3.591   3.993   4.688
 6164SOL    HW119391   3.634   3.998   4.778
 6164SOL    HW219392   3.502   4.037   4.691
 6165SOL     OW19393   3.904   2.172   5.964
 6165SOL    HW119394   3.851   2.249   6.000
 6165SOL    HW219395   3.843   2.107   5.920
 6166SOL     OW19396   6.261   1.892   0.318
 6166SOL    HW119397   6.325   1.934   0.253
 6166SOL    HW219398   6.312   1.856   0.396
 6167SOL     OW19399   0.716   4.687   3.173
 6167SOL    HW119400   0.654   4.679   3.095
 6167SOL    HW219401   0.728   4.783   3.196
 6168SOL     OW19402   0.219   2.500   3.292
 6168SOL    HW119403   0.318   2.487   3.295
 6168SOL    HW219404   0.195   2.582   3.343
 6169SOL     OW19405   0.627   0.960   6.134
 6169SOL    HW119406   0.704   1.022   6.154
 6169SOL    HW219407   0.617   0.894   6.209
 6170SOL     OW19408   3.385   4.379   6.218
 6170SOL    HW119409   3.367   4.337   6.129
 6170SOL    HW219410   3.309   4.440   6.242
 6171SOL     OW19411   1.472   3.440   1.460
 6171SOL    HW119412   1.403   3.502   1.498
 6171SOL    HW219413   1.540   3.420   1.530
 6172SOL     OW19414   6.924   0.664   2.812
 6172SOL    HW119415   6.942   0.748   2.862
 6172SOL    HW219416   6.881   0.597   2.874
 6173SOL     OW19417   6.920   4.857   2.726
 6173SOL    HW119418   6.907   4.826   2.631
 6173SOL    HW219419   7.008   4.825   2.760
 6174SOL     OW19420   5.735   4.648   3.041
 6174SOL    HW119421   5.828   4.613   3.053
 6174SOL    HW219422   5.736   4.725   2.977
 6175SOL     OW19423   5.726   6.902   3.507
 6175SOL    HW119424   5.725   7.000   3.525
 6175SOL    HW219425   5.739   6.886   3.409
 6176SOL     OW19426   6.182   2.837   6.947
 6176SOL    HW119427   6.227   2.800   0.002
 6176SOL    HW219428   6.159   2.763   6.884
 6177SOL     OW19429   5.400   1.837   1.397
 6177SOL    HW119430   5.408   1.875   1.489
 6177SOL    HW219431   5.322   1.774   1.395
 6178SOL     OW19432   4.711   5.656   1.595
 6178SOL    HW119433   4.742   5.613   1.680
 6178SOL    HW219434   4.612   5.645   1.586
 6179SOL     OW19435   0.133   4.027   4.706
 6179SOL    HW119436   0.139   3.935   4.667
 6179SOL    HW219437   0.089   4.089   4.640
 6180SOL     OW19438   3.047   6.605   6.160
 6180SOL    HW119439   3.143   6.606   6.134
 6180SOL    HW219440   2.993   6.564   6.086
 6181SOL     OW19441   5.182   6.508   0.399
 6181SOL    HW119442   5.246   6.550   0.464
 6181SOL    HW219443   5.164   6.572   0.324
 6182SOL     OW19444   5.261   4.553   5.560
 6182SOL    HW119445   5.308   4.539   5.473
 6182SOL    HW219446   5.284   4.479   5.623
 6183SOL     OW19447   2.719   0.240   3.146
 6183SOL    HW119448   2.753   0.333   3.132
 6183SOL    HW219449   2.736   0.185   3.064
 6184SOL     OW19450   1.765   6.670   6.061
 6184SOL    HW119451   1.842   6.640   6.004
 6184SOL    HW219452   1.715   6.741   6.013
 6185SOL     OW19453   1.709   4.506   6.999
 6185SOL    HW119454   1.710   4.407   6.986
 6185SOL    HW219455   1.780   4.532   0.038
 6186SOL     OW19456   5.866   6.559   3.736
 6186SOL    HW119457   5.877   6.647   3.782
 6186SOL    HW219458   5.902   6.566   3.642
 6187SOL     OW19459   4.709   4.360   4.376
 6187SOL    HW119460   4.651   4.369   4.457
 6187SOL    HW219461   4.802   4.389   4.398
 6188SOL     OW19462   2.469   6.184   1.477
 6188SOL    HW119463   2.528   6.195   1.556
 6188SOL    HW219464   2.480   6.263   1.416
 6189SOL     OW19465   4.470   4.490   3.822
 6189SOL    HW119466   4.463   4.589   3.809
 6189SOL    HW219467   4.500   4.472   3.916
 6190SOL     OW19468   6.385   3.903   6.121
 6190SOL    HW119469   6.377   3.807   6.147
 6190SOL    HW219470   6.297   3.936   6.089
 6191SOL     OW19471   4.498   2.312   0.504
 6191SOL    HW119472   4.507   2.290   0.601
 6191SOL    HW219473   4.505   2.229   0.449
 6192SOL     OW19474   3.683   3.327   0.702
 6192SOL    HW119475   3.756   3.274   0.657
 6192SOL    HW219476   3.618   3.358   0.634
 6193SOL     OW19477   4.232   0.983   2.474
 6193SOL    HW119478   4.263   0.908   2.416
 6193SOL    HW219479   4.274   0.974   2.565
 6194SOL     OW19480   2.003   6.483   0.058
 6194SOL    HW119481   1.998   6.429   7.000
 6194SOL    HW219482   2.099   6.501   0.080
 6195SOL     OW19483   3.656   5.318   5.395
 6195SOL    HW119484   3.570   5.268   5.379
 6195SOL    HW219485   3.712   5.313   5.313
 6196SOL     OW19486   6.084   2.311   1.014
 6196SOL    HW119487   6.093   2.409   1.032
 6196SOL    HW219488   6.168   2.264   1.044
 6197SOL     OW19489   4.621   3.720   0.628
 6197SOL    HW119490   4.598   3.664   0.548
 6197SOL    HW219491   4.711   3.762   0.614
 6198SOL     OW19492   3.184   5.556   2.448
 6198SOL    HW119493   3.254   5.506   2.499
 6198SOL    HW219494   3.112   5.493   2.420
 6199SOL     OW19495   0.311   0.083   1.108
 6199SOL    HW119496   0.405   0.050   1.119
 6199SOL    HW219497   0.249   0.023   1.158
 6200SOL     OW19498   2.151   1.100   5.503
 6200SOL    HW119499   2.191   1.192   5.498
 6200SOL    HW219500   2.187   1.052   5.582
 6201SOL     OW19501   2.127   3.686   5.619
 6201SOL    HW119502   2.162   3.602   5.660
 6201SOL    HW219503   2.185   3.763   5.647
 6202SOL     OW19504   4.008   1.798   1.502
 6202SOL    HW119505   3.977   1.828   1.592
 6202SOL    HW219506   3.960   1.713   1.477
 6203SOL     OW19507   5.062   6.954   3.605
 6203SOL    HW119508   4.981   6.897   3.592
 6203SOL    HW219509   5.110   6.924   3.688
 6204SOL     OW19510   0.795   5.074   5.013
 6204SOL    HW119511   0.706   5.090   4.972
 6204SOL    HW219512   0.849   5.013   4.954
 6205SOL     OW19513   5.703   6.709   6.526
 6205SOL    HW119514   5.670   6.633   6.470
 6205SOL    HW219515   5.631   6.737   6.590
 6206SOL     OW19516   6.594   0.034   2.507
 6206SOL    HW119517   6.689   0.052   2.481
 6206SOL    HW219518   6.587   6.972   2.553
 6207SOL     OW19519   1.354   3.953   5.092
 6207SOL    HW119520   1.387   3.998   5.175
 6207SOL    HW219521   1.261   3.983   5.073
 6208SOL     OW19522   6.161   0.326   6.534
 6208SOL    HW119523   6.146   0.424   6.550
 6208SOL    HW219524   6.230   0.292   6.599
 6209SOL     OW19525   4.770   5.615   6.778
 6209SOL    HW119526   4.708   5.561   6.721
 6209SOL    HW219527   4.806   5.558   6.851
 6210SOL     OW19528   5.845   4.925   3.664
 6210SOL    HW119529   5.807   4.874   3.586
 6210SOL    HW219530   5.926   4.976   3.634
 6211SOL     OW19531   3.484   6.513   4.786
 6211SOL    HW119532   3.388   6.496   4.807
 6211SOL    HW219533   3.499   6.501   4.688
 6212SOL     OW19534   1.451   5.175   3.074
 6212SOL    HW119535   1.395   5.093   3.084
 6212SOL    HW219536   1.396   5.248   3.033
 6213SOL     OW19537   4.939   6.900   6.517
 6213SOL    HW119538   4.972   6.972   6.578
 6213SOL    HW219539   4.888   6.941   6.441
 6214SOL     OW19540   5.811   5.073   3.298
 6214SOL    HW119541   5.720   5.087   3.338
 6214SOL    HW219542   5.867   5.019   3.361
 6215SOL     OW19543   3.892   1.595   6.483
 6215SOL    HW119544   3.809   1.644   6.508
 6215SOL    HW219545   3.870   1.520   6.421
 6216SOL     OW19546   6.457   2.572   2.526
 6216SOL    HW119547   6.358   2.578   2.534
 6216SOL    HW219548   6.483   2.578   2.430
 6217SOL     OW19549   6.624   2.780   2.607
 6217SOL    HW119550   6.558   2.845   2.572
 6217SOL    HW219551   6.579   2.717   2.671
 6218SOL     OW19552   3.324   5.205   4.684
 6218SOL    HW119553   3.229   5.223   4.708
 6218SOL    HW219554   3.334   5.109   4.659
 6219SOL     OW19555   0.610   1.479   4.721
 6219SOL    HW119556   0.618   1.521   4.811
 6219SOL    HW219557   0.638   1.545   4.651
 6220SOL     OW19558   1.220   3.790   5.734
 6220SOL    HW119559   1.178   3.791   5.825
 6220SOL    HW219560   1.256   3.881   5.713
 6221SOL     OW19561   6.382   5.737   6.040
 6221SOL    HW119562   6.331   5.820   6.017
 6221SOL    HW219563   6.467   5.761   6.086
 6222SOL     OW19564   0.916   6.430   1.244
 6222SOL    HW119565   0.861   6.348   1.258
 6222SOL    HW219566   1.010   6.414   1.276
 6223SOL     OW19567   0.226   3.825   4.530
 6223SOL    HW119568   0.316   3.783   4.518
 6223SOL    HW219569   0.158   3.753   4.547
 6224SOL     OW19570   1.984   2.057   6.258
 6224SOL    HW119571   1.959   1.967   6.295
 6224SOL    HW219572   1.993   2.123   6.333
 6225SOL     OW19573   3.098   3.204   1.063
 6225SOL    HW119574   3.047   3.289   1.071
 6225SOL    HW219575   3.052   3.144   0.997
 6226SOL     OW19576   5.640   2.032   4.643
 6226SOL    HW119577   5.637   2.063   4.738
 6226SOL    HW219578   5.562   2.070   4.593
 6227SOL     OW19579   3.801   5.293   6.458
 6227SOL    HW119580   3.763   5.213   6.411
 6227SOL    HW219581   3.885   5.322   6.412
 6228SOL     OW19582   0.252   3.049   2.569
 6228SOL    HW119583   0.175   3.049   2.506
 6228SOL    HW219584   0.270   2.956   2.601
 6229SOL     OW19585   0.831   2.973   2.478
 6229SOL    HW119586   0.861   2.911   2.407
 6229SOL    HW219587   0.874   3.062   2.466
 6230SOL     OW19588   1.159   1.062   4.010
 6230SOL    HW119589   1.104   1.078   4.092
 6230SOL    HW219590   1.165   0.964   3.991
 6231SOL     OW19591   6.975   4.712   1.716
 6231SOL    HW119592   6.996   4.623   1.677
 6231SOL    HW219593   0.017   4.779   1.684
 6232SOL     OW19594   6.295   1.758   0.950
 6232SOL    HW119595   6.269   1.792   1.040
 6232SOL    HW219596   6.242   1.676   0.928
 6233SOL     OW19597   5.842   0.851   6.932
 6233SOL    HW119598   5.785   0.924   6.969
 6233SOL    HW219599   5.870   0.874   6.838
 6234SOL     OW19600   6.989   1.204   5.895
 6234SOL    HW119601   7.008   1.293   5.937
 6234SOL    HW219602   0.026   1.190   5.819
 6235SOL     OW19603   1.447   0.286   2.040
 6235SOL    HW119604   1.469   0.204   1.985
 6235SOL    HW219605   1.420   0.258   2.132
 6236SOL     OW19606   0.685   5.035   0.360
 6236SOL    HW119607   0.715   5.034   0.455
 6236SOL    HW219608   0.591   5.003   0.354
 6237SOL     OW19609   3.278   6.130   0.355
 6237SOL    HW119610   3.300   6.100   0.262
 6237SOL    HW219611   3.359   6.170   0.397
 6238SOL     OW19612   4.177   4.867   3.081
 6238SOL    HW119613   4.204   4.802   3.011
 6238SOL    HW219614   4.110   4.932   3.043
 6239SOL     OW19615   2.849   6.750   1.540
 6239SOL    HW119616   2.819   6.763   1.445
 6239SOL    HW219617   2.788   6.798   1.602
 6240SOL     OW19618   3.006   2.324   0.057
 6240SOL    HW119619   3.012   2.269   0.140
 6240SOL    HW219620   3.053   2.411   0.070
 6241SOL     OW19621   2.397   0.861   2.351
 6241SOL    HW119622   2.320   0.862   2.415
 6241SOL    HW219623   2.405   0.770   2.310
 6242SOL     OW19624   5.341   0.651   3.505
 6242SOL    HW119625   5.394   0.566   3.498
 6242SOL    HW219626   5.335   0.679   3.600
 6243SOL     OW19627   5.053   6.605   3.510
 6243SOL    HW119628   5.023   6.649   3.426
 6243SOL    HW219629   5.090   6.515   3.490
 6244SOL     OW19630   1.799   2.246   2.096
 6244SOL    HW119631   1.792   2.315   2.024
 6244SOL    HW219632   1.749   2.276   2.177
 6245SOL     OW19633   2.235   4.665   1.296
 6245SOL    HW119634   2.268   4.613   1.375
 6245SOL    HW219635   2.190   4.748   1.328
 6246SOL     OW19636   2.461   3.296   6.298
 6246SOL    HW119637   2.509   3.271   6.382
 6246SOL    HW219638   2.363   3.275   6.308
 6247SOL     OW19639   0.585   6.242   3.687
 6247SOL    HW119640   0.499   6.268   3.731
 6247SOL    HW219641   0.661   6.284   3.735
 6248SOL     OW19642   2.302   3.932   1.083
 6248SOL    HW119643   2.273   3.845   1.043
 6248SOL    HW219644   2.363   3.913   1.161
 6249SOL     OW19645   0.445   4.700   0.531
 6249SOL    HW119646   0.397   4.718   0.617
 6249SOL    HW219647   0.447   4.784   0.477
 6250SOL     OW19648   6.317   5.789   0.433
 6250SOL    HW119649   6.369   5.871   0.409
 6250SOL    HW219650   6.362   5.708   0.393
 6251SOL     OW19651   3.454   6.746   6.882
 6251SOL    HW119652   3.380   6.777   6.824
 6251SOL    HW219653   3.469   6.812   6.956
 6252SOL     OW19654   1.749   6.777   4.770
 6252SOL    HW119655   1.726   6.837   4.692
 6252SOL    HW219656   1.673   6.779   4.836
 6253SOL     OW19657   2.165   4.029   2.533
 6253SOL    HW119658   2.157   4.019   2.434
 6253SOL    HW219659   2.188   3.940   2.573
 6254SOL     OW19660   5.312   0.979   0.733
 6254SOL    HW119661   5.216   0.972   0.760
 6254SOL    HW219662   5.362   1.034   0.799
 6255SOL     OW19663   1.916   0.998   1.221
 6255SOL    HW119664   1.895   1.041   1.309
 6255SOL    HW219665   1.877   0.906   1.219
 6256SOL     OW19666   3.174   5.525   2.951
 6256SOL    HW119667   3.263   5.533   2.906
 6256SOL    HW219668   3.120   5.453   2.906
 6257SOL     OW19669   5.639   2.412   1.090
 6257SOL    HW119670   5.542   2.395   1.106
 6257SOL    HW219671   5.654   2.433   0.994
 6258SOL     OW19672   4.440   0.223   3.645
 6258SOL    HW119673   4.529   0.186   3.672
 6258SOL    HW219674   4.376   0.217   3.722
 6259SOL     OW19675   2.860   2.050   0.747
 6259SOL    HW119676   2.903   2.049   0.837
 6259SOL    HW219677   2.923   2.010   0.680
 6260SOL     OW19678   2.478   4.401   6.955
 6260SOL    HW119679   2.414   4.395   0.005
 6260SOL    HW219680   2.434   4.371   6.871
 6261SOL     OW19681   2.964   0.450   6.424
 6261SOL    HW119682   3.058   0.424   6.405
 6261SOL    HW219683   2.935   0.409   6.511
 6262SOL     OW19684   1.637   4.367   1.057
 6262SOL    HW119685   1.556   4.308   1.060
 6262SOL    HW219686   1.680   4.369   1.147
 6263SOL     OW19687   0.190   0.527   5.970
 6263SOL    HW119688   0.111   0.533   6.031
 6263SOL    HW219689   0.161   0.544   5.876
 6264SOL     OW19690   1.592   6.862   0.995
 6264SOL    HW119691   1.562   6.803   0.920
 6264SOL    HW219692   1.602   6.808   1.078
 6265SOL     OW19693   3.157   3.989   0.949
 6265SOL    HW119694   3.195   3.945   0.868
 6265SOL    HW219695   3.224   3.988   1.022
 6266SOL     OW19696   4.506   0.445   4.649
 6266SOL    HW119697   4.413   0.476   4.629
 6266SOL    HW219698   4.546   0.503   4.719
 6267SOL     OW19699   3.391   0.364   0.455
 6267SOL    HW119700   3.438   0.342   0.370
 6267SOL    HW219701   3.292   0.358   0.441
 6268SOL     OW19702   3.037   6.525   2.940
 6268SOL    HW119703   2.952   6.557   2.897
 6268SOL    HW219704   3.020   6.506   3.037
 6269SOL     OW19705   6.680   5.826   2.226
 6269SOL    HW119706   6.705   5.836   2.130
 6269SOL    HW219707   6.695   5.912   2.274
 6270SOL     OW19708   1.633   0.142   4.670
 6270SOL    HW119709   1.704   0.197   4.626
 6270SOL    HW219710   1.552   0.200   4.686
 6271SOL     OW19711   6.025   2.491   5.537
 6271SOL    HW119712   6.125   2.489   5.532
 6271SOL    HW219713   5.988   2.400   5.517
 6272SOL     OW19714   1.202   2.680   5.703
 6272SOL    HW119715   1.171   2.714   5.792
 6272SOL    HW219716   1.299   2.656   5.709
 6273SOL     OW19717   1.864   0.501   2.488
 6273SOL    HW119718   1.839   0.518   2.393
 6273SOL    HW219719   1.938   0.433   2.491
 6274SOL     OW19720   2.573   5.658   5.949
 6274SOL    HW119721   2.623   5.662   5.863
 6274SOL    HW219722   2.529   5.568   5.958
 6275SOL     OW19723   1.925   6.350   5.003
 6275SOL    HW119724   2.013   6.305   4.988
 6275SOL    HW219725   1.917   6.429   4.943
 6276SOL     OW19726   1.623   5.316   3.856
 6276SOL    HW119727   1.625   5.360   3.945
 6276SOL    HW219728   1.542   5.258   3.848
 6277SOL     OW19729   5.641   3.187   2.038
 6277SOL    HW119730   5.615   3.090   2.044
 6277SOL    HW219731   5.624   3.231   2.126
 6278SOL     OW19732   4.877   0.411   4.516
 6278SOL    HW119733   4.922   0.500   4.503
 6278SOL    HW219734   4.788   0.412   4.470
 6279SOL     OW19735   3.513   0.965   6.357
 6279SOL    HW119736   3.568   0.960   6.440
 6279SOL    HW219737   3.438   0.899   6.362
 6280SOL     OW19738   0.519   1.969   6.052
 6280SOL    HW119739   0.439   1.990   6.108
 6280SOL    HW219740   0.583   2.046   6.053
 6281SOL     OW19741   1.611   5.442   4.906
 6281SOL    HW119742   1.672   5.441   4.827
 6281SOL    HW219743   1.545   5.516   4.896
 6282SOL     OW19744   0.978   0.563   4.900
 6282SOL    HW119745   0.989   0.565   4.800
 6282SOL    HW219746   1.032   0.637   4.940
 6283SOL     OW19747   6.376   3.064   5.344
 6283SOL    HW119748   6.291   3.102   5.380
 6283SOL    HW219749   6.367   2.965   5.335
 6284SOL     OW19750   1.977   5.515   5.119
 6284SOL    HW119751   2.056   5.574   5.138
 6284SOL    HW219752   1.979   5.486   5.023
 6285SOL     OW19753   1.299   2.686   3.539
 6285SOL    HW119754   1.223   2.697   3.602
 6285SOL    HW219755   1.268   2.703   3.445
 6286SOL     OW19756   6.267   2.094   3.964
 6286SOL    HW119757   6.233   2.043   3.884
 6286SOL    HW219758   6.202   2.086   4.039
 6287SOL     OW19759   3.978   5.045   2.988
 6287SOL    HW119760   3.955   4.994   2.905
 6287SOL    HW219761   3.952   5.141   2.976
 6288SOL     OW19762   5.694   4.649   2.410
 6288SOL    HW119763   5.684   4.613   2.503
 6288SOL    HW219764   5.603   4.668   2.372
 6289SOL     OW19765   1.235   4.544   2.750
 6289SOL    HW119766   1.296   4.581   2.679
 6289SOL    HW219767   1.285   4.538   2.836
 6290SOL     OW19768   6.155   3.904   4.437
 6290SOL    HW119769   6.217   3.831   4.407
 6290SOL    HW219770   6.100   3.872   4.514
 6291SOL     OW19771   3.589   3.066   3.573
 6291SOL    HW119772   3.519   2.997   3.557
 6291SOL    HW219773   3.666   3.025   3.622
 6292SOL     OW19774   0.990   2.522   3.706
 6292SOL    HW119775   0.981   2.503   3.804
 6292SOL    HW219776   0.991   2.436   3.655
 6293SOL     OW19777   4.324   6.991   6.888
 6293SOL    HW119778   4.249   7.024   6.830
 6293SOL    HW219779   4.408   6.987   6.835
 6294SOL     OW19780   3.433   4.989   4.124
 6294SOL    HW119781   3.394   5.013   4.212
 6294SOL    HW219782   3.531   4.975   4.133
 6295SOL     OW19783   5.009   4.989   5.353
 6295SOL    HW119784   4.943   4.975   5.279
 6295SOL    HW219785   5.087   5.040   5.317
 6296SOL     OW19786   6.850   6.551   4.916
 6296SOL    HW119787   6.784   6.476   4.906
 6296SOL    HW219788   6.883   6.553   5.010
 6297SOL     OW19789   4.908   6.781   5.115
 6297SOL    HW119790   4.968   6.814   5.189
 6297SOL    HW219791   4.957   6.714   5.060
 6298SOL     OW19792   1.639   2.247   5.849
 6298SOL    HW119793   1.671   2.336   5.815
 6298SOL    HW219794   1.542   2.254   5.872
 6299SOL     OW19795   4.822   1.639   0.630
 6299SOL    HW119796   4.841   1.551   0.586
 6299SOL    HW219797   4.895   1.703   0.611
 6300SOL     OW19798   5.133   0.821   5.100
 6300SOL    HW119799   5.146   0.759   5.023
 6300SOL    HW219800   5.072   0.780   5.167
 6301SOL     OW19801   2.653   0.907   1.429
 6301SOL    HW119802   2.741   0.862   1.445
 6301SOL    HW219803   2.658   0.961   1.345
 6302SOL     OW19804   1.357   1.864   4.091
 6302SOL    HW119805   1.363   1.785   4.030
 6302SOL    HW219806   1.436   1.924   4.075
 6303SOL     OW19807   2.242   1.086   4.730
 6303SOL    HW119808   2.236   1.035   4.816
 6303SOL    HW219809   2.337   1.114   4.715
 6304SOL     OW19810   2.190   1.321   0.601
 6304SOL    HW119811   2.142   1.325   0.689
 6304SOL    HW219812   2.125   1.303   0.528
 6305SOL     OW19813   6.239   0.009   0.906
 6305SOL    HW119814   6.296   6.953   0.911
 6305SOL    HW219815   6.161   7.025   0.969
 6306SOL     OW19816   1.411   4.263   4.507
 6306SOL    HW119817   1.391   4.196   4.436
 6306SOL    HW219818   1.463   4.219   4.581
 6307SOL     OW19819   4.041   3.979   5.563
 6307SOL    HW119820   4.096   3.973   5.646
 6307SOL    HW219821   3.977   4.055   5.571
 6308SOL     OW19822   1.544   1.979   4.951
 6308SOL    HW119823   1.583   2.055   5.003
 6308SOL    HW219824   1.583   1.893   4.984
 6309SOL     OW19825   4.830   3.882   4.362
 6309SOL    HW119826   4.893   3.958   4.373
 6309SOL    HW219827   4.766   3.902   4.288
 6310SOL     OW19828   2.136   5.395   3.833
 6310SOL    HW119829   2.127   5.433   3.925
 6310SOL    HW219830   2.046   5.369   3.798
 6311SOL     OW19831   5.694   0.675   5.591
 6311SOL    HW119832   5.760   0.740   5.553
 6311SOL    HW219833   5.741   0.591   5.617
 6312SOL     OW19834   5.878   5.124   5.717
 6312SOL    HW119835   5.977   5.136   5.719
 6312SOL    HW219836   5.852   5.071   5.637
 6313SOL     OW19837   1.564   5.934   2.940
 6313SOL    HW119838   1.573   6.003   3.011
 6313SOL    HW219839   1.467   5.921   2.919
 6314SOL     OW19840   4.260   6.472   1.540
 6314SOL    HW119841   4.295   6.434   1.626
 6314SOL    HW219842   4.250   6.571   1.549
 6315SOL     OW19843   3.764   3.153   6.573
 6315SOL    HW119844   3.759   3.162   6.474
 6315SOL    HW219845   3.803   3.236   6.613
 6316SOL     OW19846   4.566   2.097   6.341
 6316SOL    HW119847   4.513   2.105   6.426
 6316SOL    HW219848   4.580   2.001   6.319
 6317SOL     OW19849   5.266   5.501   3.483
 6317SOL    HW119850   5.266   5.458   3.393
 6317SOL    HW219851   5.335   5.457   3.541
 6318SOL     OW19852   3.122   1.886   4.820
 6318SOL    HW119853   3.188   1.961   4.820
 6318SOL    HW219854   3.131   1.834   4.905
 6319SOL     OW19855   0.040   2.317   3.231
 6319SOL    HW119856   0.081   2.233   3.268
 6319SOL    HW219857   0.104   2.393   3.241
 6320SOL     OW19858   6.228   4.613   4.743
 6320SOL    HW119859   6.216   4.705   4.705
 6320SOL    HW219860   6.168   4.601   4.822
 6321SOL     OW19861   3.112   4.691   0.908
 6321SOL    HW119862   3.175   4.753   0.955
 6321SOL    HW219863   3.061   4.638   0.975
 6322SOL     OW19864   1.601   2.490   6.554
 6322SOL    HW119865   1.521   2.467   6.498
 6322SOL    HW219866   1.635   2.409   6.601
 6323SOL     OW19867   3.872   2.882   0.952
 6323SOL    HW119868   3.821   2.938   1.017
 6323SOL    HW219869   3.813   2.807   0.921
 6324SOL     OW19870   4.693   0.205   6.030
 6324SOL    HW119871   4.765   0.272   6.047
 6324SOL    HW219872   4.605   0.250   6.029
 6325SOL     OW19873   0.955   2.128   2.051
 6325SOL    HW119874   1.016   2.057   2.085
 6325SOL    HW219875   0.974   2.145   1.954
 6326SOL     OW19876   4.963   6.390   1.829
 6326SOL    HW119877   4.863   6.394   1.830
 6326SOL    HW219878   4.995   6.338   1.908
 6327SOL     OW19879   0.089   0.678   5.516
 6327SOL    HW119880   7.021   0.704   5.495
 6327SOL    HW219881   0.089   0.597   5.574
 6328SOL     OW19882   1.616   4.112   0.643
 6328SOL    HW119883   1.613   4.079   0.737
 6328SOL    HW219884   1.690   4.178   0.632
 6329SOL     OW19885   2.295   2.677   3.484
 6329SOL    HW119886   2.223   2.608   3.498
 6329SOL    HW219887   2.289   2.712   3.390
 6330SOL     OW19888   4.637   0.771   1.517
 6330SOL    HW119889   4.588   0.824   1.585
 6330SOL    HW219890   4.584   0.690   1.492
 6331SOL     OW19891   6.032   2.019   0.407
 6331SOL    HW119892   5.981   1.974   0.480
 6331SOL    HW219893   6.112   1.965   0.384
 6332SOL     OW19894   6.929   3.975   2.389
 6332SOL    HW119895   6.944   4.071   2.368
 6332SOL    HW219896   7.014   3.924   2.377
 6333SOL     OW19897   3.961   4.872   4.175
 6333SOL    HW119898   4.014   4.851   4.257
 6333SOL    HW219899   4.009   4.836   4.094
 6334SOL     OW19900   2.190   0.420   2.273
 6334SOL    HW119901   2.108   0.456   2.228
 6334SOL    HW219902   2.263   0.488   2.268
 6335SOL     OW19903   4.702   1.467   0.910
 6335SOL    HW119904   4.753   1.537   0.860
 6335SOL    HW219905   4.625   1.510   0.958
 6336SOL     OW19906   0.089   1.417   6.082
 6336SOL    HW119907   0.182   1.429   6.048
 6336SOL    HW219908   0.025   1.471   6.027
 6337SOL     OW19909   4.803   3.946   6.288
 6337SOL    HW119910   4.740   4.023   6.276
 6337SOL    HW219911   4.871   3.947   6.215
 6338SOL     OW19912   2.798   2.096   2.703
 6338SOL    HW119913   2.806   2.153   2.622
 6338SOL    HW219914   2.852   2.013   2.691
 6339SOL     OW19915   0.470   2.958   3.658
 6339SOL    HW119916   0.521   2.955   3.571
 6339SOL    HW219917   0.530   2.994   3.730
 6340SOL     OW19918   2.050   4.921   3.030
 6340SOL    HW119919   2.081   4.828   3.046
 6340SOL    HW219920   2.125   4.985   3.049
 6341SOL     OW19921   0.792   5.085   3.617
 6341SOL    HW119922   0.753   5.048   3.532
 6341SOL    HW219923   0.871   5.030   3.644
 6342SOL     OW19924   2.620   1.683   1.656
 6342SOL    HW119925   2.608   1.783   1.653
 6342SOL    HW219926   2.713   1.660   1.627
 6343SOL     OW19927   5.185   2.531   6.164
 6343SOL    HW119928   5.206   2.491   6.253
 6343SOL    HW219929   5.203   2.630   6.167
 6344SOL     OW19930   5.864   3.459   5.726
 6344SOL    HW119931   5.898   3.498   5.641
 6344SOL    HW219932   5.932   3.471   5.798
 6345SOL     OW19933   4.627   1.474   2.267
 6345SOL    HW119934   4.587   1.548   2.321
 6345SOL    HW219935   4.726   1.474   2.278
 6346SOL     OW19936   6.822   3.539   3.630
 6346SOL    HW119937   6.846   3.557   3.534
 6346SOL    HW219938   6.788   3.446   3.639
 6347SOL     OW19939   2.205   0.725   1.269
 6347SOL    HW119940   2.299   0.755   1.253
 6347SOL    HW219941   2.151   0.802   1.304
 6348SOL     OW19942   1.089   4.035   5.072
 6348SOL    HW119943   1.020   4.075   5.133
 6348SOL    HW219944   1.051   3.953   5.030
 6349SOL     OW19945   3.279   0.407   1.546
 6349SOL    HW119946   3.212   0.351   1.595
 6349SOL    HW219947   3.319   0.473   1.610
 6350SOL     OW19948   2.443   4.751   3.938
 6350SOL    HW119949   2.423   4.742   4.035
 6350SOL    HW219950   2.512   4.822   3.924
 6351SOL     OW19951   6.506   3.219   2.409
 6351SOL    HW119952   6.463   3.309   2.411
 6351SOL    HW219953   6.601   3.226   2.440
 6352SOL     OW19954   2.187   5.145   4.594
 6352SOL    HW119955   2.266   5.182   4.643
 6352SOL    HW219956   2.200   5.046   4.581
 6353SOL     OW19957   6.493   0.584   6.321
 6353SOL    HW119958   6.561   0.643   6.278
 6353SOL    HW219959   6.403   0.601   6.280
 6354SOL     OW19960   1.427   0.192   2.304
 6354SOL    HW119961   1.434   0.122   2.375
 6354SOL    HW219962   1.437   0.283   2.345
 6355SOL     OW19963   1.636   4.553   5.553
 6355SOL    HW119964   1.554   4.503   5.527
 6355SOL    HW219965   1.708   4.535   5.486
 6356SOL     OW19966   4.089   4.760   2.604
 6356SOL    HW119967   4.178   4.718   2.616
 6356SOL    HW219968   4.049   4.730   2.517
 6357SOL     OW19969   4.796   2.680   1.951
 6357SOL    HW119970   4.856   2.608   1.987
 6357SOL    HW219971   4.799   2.759   2.012
 6358SOL     OW19972   0.707   2.155   6.060
 6358SOL    HW119973   0.722   2.204   5.973
 6358SOL    HW219974   0.793   2.150   6.111
 6359SOL     OW19975   5.776   7.014   5.687
 6359SOL    HW119976   5.677   0.000   5.700
 6359SOL    HW219977   5.803   6.923   5.718
 6360SOL     OW19978   1.960   3.987   4.112
 6360SOL    HW119979   1.943   4.041   4.029
 6360SOL    HW219980   1.926   4.037   4.191
 6361SOL     OW19981   6.172   0.183   0.230
 6361SOL    HW119982   6.075   0.197   0.247
 6361SOL    HW219983   6.187   0.168   0.132
 6362SOL     OW19984   6.106   5.440   6.276
 6362SOL    HW119985   6.090   5.539   6.282
 6362SOL    HW219986   6.188   5.417   6.328
 6363SOL     OW19987   2.482   4.932   2.976
 6363SOL    HW119988   2.425   5.009   3.002
 6363SOL    HW219989   2.572   4.965   2.946
 6364SOL     OW19990   3.340   1.321   5.857
 6364SOL    HW119991   3.311   1.226   5.844
 6364SOL    HW219992   3.329   1.371   5.771
 6365SOL     OW19993   5.073   6.928   4.448
 6365SOL    HW119994   5.120   6.841   4.464
 6365SOL    HW219995   5.136   7.004   4.464
 6366SOL     OW19996   0.492   5.718   6.344
 6366SOL    HW119997   0.429   5.775   6.290
 6366SOL    HW219998   0.582   5.762   6.348
 6367SOL     OW19999   4.003   0.512   4.026
 6367SOL    HW120000   4.103   0.504   4.035
 6367SOL    HW220001   3.959   0.434   4.069
 6368SOL     OW20002   3.544   0.392   3.553
 6368SOL    HW120003   3.617   0.443   3.598
 6368SOL    HW220004   3.562   0.294   3.559
 6369SOL     OW20005   2.504   5.009   4.659
 6369SOL    HW120006   2.475   4.956   4.738
 6369SOL    HW220007   2.488   5.107   4.676
 6370SOL     OW20008   1.659   3.151   2.219
 6370SOL    HW120009   1.701   3.234   2.255
 6370SOL    HW220010   1.588   3.175   2.154
 6371SOL     OW20011   4.982   3.310   4.208
 6371SOL    HW120012   4.930   3.230   4.180
 6371SOL    HW220013   4.960   3.387   4.147
 6372SOL     OW20014   3.396   6.927   1.855
 6372SOL    HW120015   3.379   7.022   1.827
 6372SOL    HW220016   3.475   6.924   1.917
 6373SOL     OW20017   6.005   4.030   3.919
 6373SOL    HW120018   5.916   3.986   3.905
 6373SOL    HW220019   6.046   3.996   4.004
 6374SOL     OW20020   3.795   4.084   3.945
 6374SOL    HW120021   3.857   4.048   4.015
 6374SOL    HW220022   3.822   4.049   3.855
 6375SOL     OW20023   0.139   1.723   3.887
 6375SOL    HW120024   0.169   1.799   3.945
 6375SOL    HW220025   0.189   1.640   3.911
 6376SOL     OW20026   6.497   2.390   5.579
 6376SOL    HW120027   6.515   2.323   5.507
 6376SOL    HW220028   6.481   2.342   5.665
 6377SOL     OW20029   6.357   1.561   5.678
 6377SOL    HW120030   6.313   1.649   5.662
 6377SOL    HW220031   6.424   1.570   5.752
 6378SOL     OW20032   4.914   4.848   3.581
 6378SOL    HW120033   4.820   4.849   3.614
 6378SOL    HW220034   4.962   4.930   3.613
 6379SOL     OW20035   2.528   4.539   4.395
 6379SOL    HW120036   2.508   4.442   4.380
 6379SOL    HW220037   2.493   4.567   4.484
 6380SOL     OW20038   0.077   1.449   5.752
 6380SOL    HW120039   0.073   1.530   5.811
 6380SOL    HW220040   0.043   1.472   5.661
 6381SOL     OW20041   3.604   3.295   2.320
 6381SOL    HW120042   3.517   3.285   2.370
 6381SOL    HW220043   3.667   3.224   2.350
 6382SOL     OW20044   1.184   2.882   0.341
 6382SOL    HW120045   1.260   2.852   0.283
 6382SOL    HW220046   1.220   2.935   0.417
 6383SOL     OW20047   2.324   2.352   2.873
 6383SOL    HW120048   2.389   2.424   2.850
 6383SOL    HW220049   2.341   2.320   2.967
 6384SOL     OW20050   5.755   4.413   1.329
 6384SOL    HW120051   5.803   4.501   1.332
 6384SOL    HW220052   5.656   4.430   1.322
 6385SOL     OW20053   7.002   4.526   4.360
 6385SOL    HW120054   0.016   4.493   4.275
 6385SOL    HW220055   6.996   4.626   4.358
 6386SOL     OW20056   2.550   4.129   6.610
 6386SOL    HW120057   2.451   4.115   6.609
 6386SOL    HW220058   2.572   4.207   6.551
 6387SOL     OW20059   0.777   1.688   6.777
 6387SOL    HW120060   0.720   1.684   6.694
 6387SOL    HW220061   0.785   1.597   6.816
 6388SOL     OW20062   4.407   4.591   1.920
 6388SOL    HW120063   4.417   4.496   1.950
 6388SOL    HW220064   4.346   4.640   1.982
 6389SOL     OW20065   0.840   5.813   2.244
 6389SOL    HW120066   0.834   5.781   2.339
 6389SOL    HW220067   0.778   5.759   2.187
 6390SOL     OW20068   1.312   2.206   4.493
 6390SOL    HW120069   1.223   2.162   4.490
 6390SOL    HW220070   1.383   2.139   4.473
 6391SOL     OW20071   2.997   0.111   5.974
 6391SOL    HW120072   2.993   0.037   5.907
 6391SOL    HW220073   2.983   0.074   6.066
 6392SOL     OW20074   2.243   6.775   3.451
 6392SOL    HW120075   2.189   6.771   3.367
 6392SOL    HW220076   2.332   6.733   3.435
 6393SOL     OW20077   6.134   6.419   1.462
 6393SOL    HW120078   6.075   6.379   1.392
 6393SOL    HW220079   6.108   6.383   1.552
 6394SOL     OW20080   2.618   4.223   1.286
 6394SOL    HW120081   2.687   4.293   1.304
 6394SOL    HW220082   2.530   4.253   1.322
 6395SOL     OW20083   5.827   2.777   1.216
 6395SOL    HW120084   5.803   2.680   1.219
 6395SOL    HW220085   5.924   2.788   1.239
 6396SOL     OW20086   5.098   2.844   6.665
 6396SOL    HW120087   5.058   2.767   6.616
 6396SOL    HW220088   5.088   2.830   6.764
 6397SOL     OW20089   5.955   1.956   6.962
 6397SOL    HW120090   5.959   2.023   0.010
 6397SOL    HW220091   5.864   1.915   6.959
 6398SOL     OW20092   3.578   0.893   0.662
 6398SOL    HW120093   3.598   0.919   0.568
 6398SOL    HW220094   3.654   0.838   0.699
 6399SOL     OW20095   1.899   5.018   6.388
 6399SOL    HW120096   1.915   4.940   6.448
 6399SOL    HW220097   1.970   5.021   6.318
 6400SOL     OW20098   2.034   5.718   3.208
 6400SOL    HW120099   1.980   5.777   3.149
 6400SOL    HW220100   2.094   5.661   3.152
 6401SOL     OW20101   6.613   4.519   3.596
 6401SOL    HW120102   6.682   4.457   3.634
 6401SOL    HW220103   6.541   4.533   3.664
 6402SOL     OW20104   3.112   0.715   3.016
 6402SOL    HW120105   3.194   0.714   3.073
 6402SOL    HW220106   3.117   0.790   2.950
 6403SOL     OW20107   0.502   6.052   6.372
 6403SOL    HW120108   0.593   6.078   6.340
 6403SOL    HW220109   0.497   6.061   6.471
 6404SOL     OW20110   4.119   1.495   2.782
 6404SOL    HW120111   4.107   1.593   2.792
 6404SOL    HW220112   4.060   1.447   2.847
 6405SOL     OW20113   1.850   0.893   3.630
 6405SOL    HW120114   1.762   0.855   3.659
 6405SOL    HW220115   1.867   0.978   3.680
 6406SOL     OW20116   1.960   2.321   3.651
 6406SOL    HW120117   2.059   2.311   3.642
 6406SOL    HW220118   1.921   2.350   3.563
 6407SOL     OW20119   3.171   6.832   2.861
 6407SOL    HW120120   3.149   6.844   2.958
 6407SOL    HW220121   3.261   6.789   2.852
 6408SOL     OW20122   6.180   2.383   6.970
 6408SOL    HW120123   6.200   2.320   0.019
 6408SOL    HW220124   6.265   2.410   6.925
 6409SOL     OW20125   0.060   4.150   3.052
 6409SOL    HW120126   6.990   4.151   3.026
 6409SOL    HW220127   0.087   4.242   3.081
 6410SOL     OW20128   1.853   1.521   7.020
 6410SOL    HW120129   1.858   1.613   0.032
 6410SOL    HW220130   1.916   1.461   0.043
 6411SOL     OW20131   0.584   3.121   3.162
 6411SOL    HW120132   0.485   3.136   3.170
 6411SOL    HW220133   0.606   3.093   3.069
 6412SOL     OW20134   0.158   2.890   5.474
 6412SOL    HW120135   0.222   2.854   5.542
 6412SOL    HW220136   0.071   2.840   5.479
 6413SOL     OW20137   4.989   4.950   3.154
 6413SOL    HW120138   5.061   4.881   3.155
 6413SOL    HW220139   4.994   5.002   3.068
 6414SOL     OW20140   6.041   0.594   1.901
 6414SOL    HW120141   6.034   0.520   1.968
 6414SOL    HW220142   6.134   0.595   1.863
 6415SOL     OW20143   2.560   2.140   2.812
 6415SOL    HW120144   2.637   2.114   2.753
 6415SOL    HW220145   2.552   2.239   2.814
 6416SOL     OW20146   0.814   0.763   5.541
 6416SOL    HW120147   0.800   0.668   5.570
 6416SOL    HW220148   0.853   0.816   5.616
 6417SOL     OW20149   0.129   4.540   2.508
 6417SOL    HW120150   0.212   4.484   2.500
 6417SOL    HW220151   0.101   4.545   2.603
 6418SOL     OW20152   5.746   4.907   2.321
 6418SOL    HW120153   5.687   4.961   2.382
 6418SOL    HW220154   5.752   4.813   2.355
 6419SOL     OW20155   2.719   5.076   2.641
 6419SOL    HW120156   2.784   5.003   2.621
 6419SOL    HW220157   2.645   5.040   2.697
 6420SOL     OW20158   3.065   3.268   5.684
 6420SOL    HW120159   3.098   3.194   5.742
 6420SOL    HW220160   3.138   3.298   5.623
 6421SOL     OW20161   5.872   1.731   2.242
 6421SOL    HW120162   5.892   1.634   2.259
 6421SOL    HW220163   5.884   1.782   2.327
 6422SOL     OW20164   6.916   0.159   3.941
 6422SOL    HW120165   6.853   0.081   3.937
 6422SOL    HW220166   6.911   0.201   4.032
 6423SOL     OW20167   4.651   4.344   2.437
 6423SOL    HW120168   4.633   4.396   2.353
 6423SOL    HW220169   4.582   4.273   2.448
 6424SOL     OW20170   6.735   5.380   5.996
 6424SOL    HW120171   6.685   5.295   5.978
 6424SOL    HW220172   6.786   5.371   6.082
 6425SOL     OW20173   6.674   5.584   3.771
 6425SOL    HW120174   6.714   5.676   3.774
 6425SOL    HW220175   6.646   5.562   3.677
 6426SOL     OW20176   0.825   4.594   3.633
 6426SOL    HW120177   0.748   4.572   3.693
 6426SOL    HW220178   0.807   4.556   3.542
 6427SOL     OW20179   1.779   3.340   6.686
 6427SOL    HW120180   1.688   3.303   6.700
 6427SOL    HW220181   1.796   3.351   6.588
 6428SOL     OW20182   6.364   3.405   0.561
 6428SOL    HW120183   6.265   3.396   0.567
 6428SOL    HW220184   6.389   3.501   0.571
 6429SOL     OW20185   0.643   1.653   4.953
 6429SOL    HW120186   0.683   1.727   4.898
 6429SOL    HW220187   0.691   1.647   5.040
 6430SOL     OW20188   4.848   1.018   2.146
 6430SOL    HW120189   4.830   0.940   2.207
 6430SOL    HW220190   4.805   1.100   2.183
 6431SOL     OW20191   5.610   0.023   3.291
 6431SOL    HW120192   5.559   6.963   3.281
 6431SOL    HW220193   5.546   0.100   3.287
 6432SOL     OW20194   3.878   3.982   0.022
 6432SOL    HW120195   3.966   4.027   0.033
 6432SOL    HW220196   3.821   4.000   0.102
 6433SOL     OW20197   3.814   4.251   0.958
 6433SOL    HW120198   3.772   4.308   0.887
 6433SOL    HW220199   3.743   4.197   1.003
 6434SOL     OW20200   1.896   3.962   0.666
 6434SOL    HW120201   1.885   3.939   0.570
 6434SOL    HW220202   1.878   4.059   0.680
 6435SOL     OW20203   3.976   5.305   0.225
 6435SOL    HW120204   4.063   5.301   0.177
 6435SOL    HW220205   3.912   5.364   0.175
 6436SOL     OW20206   2.151   3.058   4.068
 6436SOL    HW120207   2.174   3.091   3.977
 6436SOL    HW220208   2.065   3.007   4.065
 6437SOL     OW20209   1.513   1.072   0.599
 6437SOL    HW120210   1.476   1.021   0.520
 6437SOL    HW220211   1.444   1.077   0.671
 6438SOL     OW20212   0.479   4.281   5.907
 6438SOL    HW120213   0.426   4.359   5.873
 6438SOL    HW220214   0.433   4.243   5.987
 6439SOL     OW20215   0.075   6.998   1.683
 6439SOL    HW120216   0.059   6.992   1.782
 6439SOL    HW220217   7.013   6.997   1.635
 6440SOL     OW20218   1.998   1.593   1.955
 6440SOL    HW120219   1.982   1.669   2.019
 6440SOL    HW220220   1.953   1.613   1.868
 6441SOL     OW20221   0.838   0.105   2.676
 6441SOL    HW120222   0.768   0.085   2.745
 6441SOL    HW220223   0.839   0.032   2.608
 6442SOL     OW20224   1.856   1.437   3.473
 6442SOL    HW120225   1.935   1.427   3.534
 6442SOL    HW220226   1.883   1.417   3.379
 6443SOL     OW20227   3.761   2.509   6.894
 6443SOL    HW120228   3.676   2.563   6.893
 6443SOL    HW220229   3.767   2.459   6.981
 6444SOL     OW20230   1.096   2.760   3.722
 6444SOL    HW120231   1.013   2.814   3.703
 6444SOL    HW220232   1.071   2.664   3.732
 6445SOL     OW20233   4.871   2.719   5.777
 6445SOL    HW120234   4.837   2.783   5.709
 6445SOL    HW220235   4.863   2.760   5.868
 6446SOL     OW20236   0.848   1.120   6.225
 6446SOL    HW120237   0.917   1.148   6.159
 6446SOL    HW220238   0.800   1.201   6.259
 6447SOL     OW20239   0.124   5.806   2.318
 6447SOL    HW120240   0.072   5.873   2.264
 6447SOL    HW220241   0.177   5.854   2.388
 6448SOL     OW20242   5.427   4.570   2.336
 6448SOL    HW120243   5.493   4.513   2.287
 6448SOL    HW220244   5.354   4.512   2.373
 6449SOL     OW20245   3.772   4.618   1.134
 6449SOL    HW120246   3.726   4.694   1.180
 6449SOL    HW220247   3.720   4.534   1.150
 6450SOL     OW20248   0.162   3.481   1.655
 6450SOL    HW120249   0.080   3.424   1.654
 6450SOL    HW220250   0.149   3.560   1.595
 6451SOL     OW20251   2.498   6.627   4.794
 6451SOL    HW120252   2.523   6.533   4.817
 6451SOL    HW220253   2.491   6.681   4.877
 6452SOL     OW20254   3.665   6.126   5.394
 6452SOL    HW120255   3.726   6.060   5.437
 6452SOL    HW220256   3.663   6.110   5.296
 6453SOL     OW20257   2.085   5.935   6.984
 6453SOL    HW120258   2.109   5.965   0.051
 6453SOL    HW220259   2.144   5.980   6.918
 6454SOL     OW20260   2.980   0.960   3.496
 6454SOL    HW120261   3.072   1.000   3.497
 6454SOL    HW220262   2.919   1.016   3.553
 6455SOL     OW20263   0.819   2.505   4.264
 6455SOL    HW120264   0.881   2.579   4.237
 6455SOL    HW220265   0.870   2.418   4.264
 6456SOL     OW20266   1.623   0.200   3.668
 6456SOL    HW120267   1.540   0.182   3.615
 6456SOL    HW220268   1.647   0.296   3.660
 6457SOL     OW20269   5.385   1.147   1.200
 6457SOL    HW120270   5.311   1.111   1.256
 6457SOL    HW220271   5.350   1.221   1.142
 6458SOL     OW20272   0.969   0.176   3.504
 6458SOL    HW120273   0.967   0.275   3.488
 6458SOL    HW220274   0.877   0.139   3.492
 6459SOL     OW20275   5.659   5.640   0.856
 6459SOL    HW120276   5.639   5.672   0.764
 6459SOL    HW220277   5.699   5.714   0.909
 6460SOL     OW20278   4.442   4.945   6.007
 6460SOL    HW120279   4.526   4.966   6.058
 6460SOL    HW220280   4.370   4.917   6.071
 6461SOL     OW20281   3.058   5.023   5.387
 6461SOL    HW120282   3.082   4.953   5.320
 6461SOL    HW220283   3.140   5.055   5.434
 6462SOL     OW20284   2.292   2.835   5.307
 6462SOL    HW120285   2.312   2.905   5.239
 6462SOL    HW220286   2.346   2.853   5.389
 6463SOL     OW20287   1.723   3.906   6.262
 6463SOL    HW120288   1.649   3.909   6.195
 6463SOL    HW220289   1.701   3.839   6.333
 6464SOL     OW20290   0.793   4.841   5.264
 6464SOL    HW120291   0.807   4.886   5.176
 6464SOL    HW220292   0.875   4.850   5.320
 6465SOL     OW20293   6.509   2.743   3.919
 6465SOL    HW120294   6.427   2.791   3.887
 6465SOL    HW220295   6.568   2.808   3.969
 6466SOL     OW20296   0.420   1.480   6.432
 6466SOL    HW120297   0.404   1.447   6.339
 6466SOL    HW220298   0.339   1.462   6.488
 6467SOL     OW20299   2.971   1.170   0.044
 6467SOL    HW120300   2.966   1.169   0.144
 6467SOL    HW220301   2.894   1.117   0.007
 6468SOL     OW20302   3.993   6.384   1.820
 6468SOL    HW120303   3.992   6.396   1.721
 6468SOL    HW220304   4.078   6.338   1.848
 6469SOL     OW20305   4.880   0.550   5.393
 6469SOL    HW120306   4.826   0.566   5.310
 6469SOL    HW220307   4.856   0.461   5.432
 6470SOL     OW20308   5.929   5.280   6.437
 6470SOL    HW120309   5.901   5.220   6.363
 6470SOL    HW220310   5.990   5.352   6.401
 6471SOL     OW20311   6.732   5.618   5.876
 6471SOL    HW120312   6.734   5.531   5.925
 6471SOL    HW220313   6.760   5.604   5.781
 6472SOL     OW20314   0.385   4.741   1.108
 6472SOL    HW120315   0.407   4.647   1.133
 6472SOL    HW220316   0.286   4.750   1.096
 6473SOL     OW20317   2.123   1.737   4.905
 6473SOL    HW120318   2.083   1.653   4.942
 6473SOL    HW220319   2.051   1.797   4.871
 6474SOL     OW20320   1.632   3.150   5.751
 6474SOL    HW120321   1.712   3.113   5.704
 6474SOL    HW220322   1.575   3.199   5.686
 6475SOL     OW20323   6.816   5.179   4.887
 6475SOL    HW120324   6.724   5.216   4.903
 6475SOL    HW220325   6.857   5.223   4.808
 6476SOL     OW20326   4.480   3.723   1.687
 6476SOL    HW120327   4.559   3.784   1.697
 6476SOL    HW220328   4.404   3.756   1.743
 6477SOL     OW20329   0.272   5.000   1.313
 6477SOL    HW120330   0.312   4.910   1.296
 6477SOL    HW220331   0.342   5.070   1.302
 6478SOL     OW20332   3.713   6.098   2.386
 6478SOL    HW120333   3.690   6.196   2.382
 6478SOL    HW220334   3.633   6.047   2.418
 6479SOL     OW20335   3.766   5.754   3.063
 6479SOL    HW120336   3.707   5.733   2.985
 6479SOL    HW220337   3.750   5.848   3.093
 6480SOL     OW20338   3.335   2.934   5.492
 6480SOL    HW120339   3.399   2.858   5.507
 6480SOL    HW220340   3.258   2.902   5.437
 6481SOL     OW20341   3.352   1.925   1.722
 6481SOL    HW120342   3.391   1.992   1.659
 6481SOL    HW220343   3.407   1.923   1.806
 6482SOL     OW20344   0.183   1.006   6.550
 6482SOL    HW120345   0.170   0.924   6.494
 6482SOL    HW220346   0.164   1.087   6.495
 6483SOL     OW20347   2.730   5.551   1.473
 6483SOL    HW120348   2.644   5.514   1.438
 6483SOL    HW220349   2.787   5.581   1.397
 6484SOL     OW20350   3.602   0.070   2.957
 6484SOL    HW120351   3.596   0.014   2.874
 6484SOL    HW220352   3.689   0.120   2.958
 6485SOL     OW20353   2.044   3.535   3.771
 6485SOL    HW120354   1.953   3.526   3.731
 6485SOL    HW220355   2.037   3.539   3.871
 6486SOL     OW20356   1.406   4.614   4.384
 6486SOL    HW120357   1.381   4.690   4.324
 6486SOL    HW220358   1.384   4.637   4.478
 6487SOL     OW20359   6.444   5.710   5.091
 6487SOL    HW120360   6.425   5.683   5.185
 6487SOL    HW220361   6.538   5.744   5.084
 6488SOL     OW20362   3.033   5.972   4.943
 6488SOL    HW120363   2.940   6.011   4.945
 6488SOL    HW220364   3.048   5.919   5.026
 6489SOL     OW20365   2.372   3.489   6.624
 6489SOL    HW120366   2.427   3.422   6.675
 6489SOL    HW220367   2.433   3.545   6.567
 6490SOL     OW20368   4.264   2.733   0.030
 6490SOL    HW120369   4.191   2.731   6.988
 6490SOL    HW220370   4.344   2.686   7.020
 6491SOL     OW20371   4.079   1.264   6.573
 6491SOL    HW120372   4.061   1.270   6.671
 6491SOL    HW220373   4.155   1.324   6.548
 6492SOL     OW20374   5.725   5.926   6.832
 6492SOL    HW120375   5.661   5.944   6.907
 6492SOL    HW220376   5.799   5.994   6.833
 6493SOL     OW20377   1.377   6.142   5.326
 6493SOL    HW120378   1.409   6.071   5.388
 6493SOL    HW220379   1.432   6.140   5.242
 6494SOL     OW20380   0.192   1.368   3.295
 6494SOL    HW120381   0.224   1.352   3.202
 6494SOL    HW220382   0.242   1.308   3.358
 6495SOL     OW20383   4.702   5.962   4.674
 6495SOL    HW120384   4.679   5.962   4.576
 6495SOL    HW220385   4.622   5.987   4.727
 6496SOL     OW20386   0.159   6.191   2.477
 6496SOL    HW120387   0.232   6.259   2.485
 6496SOL    HW220388   0.075   6.229   2.514
 6497SOL     OW20389   2.497   3.404   0.119
 6497SOL    HW120390   2.472   3.501   0.114
 6497SOL    HW220391   2.595   3.397   0.137
 6498SOL     OW20392   2.579   4.742   4.229
 6498SOL    HW120393   2.670   4.751   4.189
 6498SOL    HW220394   2.572   4.656   4.279
 6499SOL     OW20395   5.893   1.586   4.954
 6499SOL    HW120396   5.808   1.536   4.967
 6499SOL    HW220397   5.935   1.603   5.043
 6500SOL     OW20398   0.385   4.851   4.068
 6500SOL    HW120399   0.390   4.919   4.141
 6500SOL    HW220400   0.296   4.857   4.023
 6501SOL     OW20401   0.097   2.571   0.561
 6501SOL    HW120402   0.075   2.549   0.656
 6501SOL    HW220403   0.170   2.640   0.559
 6502SOL     OW20404   6.853   3.985   3.289
 6502SOL    HW120405   6.904   4.005   3.206
 6502SOL    HW220406   6.833   3.887   3.293
 6503SOL     OW20407   5.132   6.829   3.849
 6503SOL    HW120408   5.118   6.866   3.941
 6503SOL    HW220409   5.173   6.738   3.855
 6504SOL     OW20410   4.439   6.330   6.141
 6504SOL    HW120411   4.437   6.428   6.160
 6504SOL    HW220412   4.520   6.308   6.086
 6505SOL     OW20413   5.755   4.614   1.863
 6505SOL    HW120414   5.736   4.665   1.947
 6505SOL    HW220415   5.814   4.669   1.804
 6506SOL     OW20416   0.772   2.961   1.103
 6506SOL    HW120417   0.838   3.022   1.058
 6506SOL    HW220418   0.694   2.946   1.043
 6507SOL     OW20419   1.669   5.708   6.570
 6507SOL    HW120420   1.607   5.670   6.501
 6507SOL    HW220421   1.762   5.673   6.554
 6508SOL     OW20422   2.107   1.806   3.805
 6508SOL    HW120423   2.154   1.894   3.812
 6508SOL    HW220424   2.154   1.748   3.738
 6509SOL     OW20425   2.406   2.696   4.526
 6509SOL    HW120426   2.448   2.636   4.594
 6509SOL    HW220427   2.319   2.729   4.561
 6510SOL     OW20428   0.571   4.977   6.712
 6510SOL    HW120429   0.617   5.066   6.712
 6510SOL    HW220430   0.494   4.980   6.647
 6511SOL     OW20431   5.307   0.934   4.736
 6511SOL    HW120432   5.296   0.911   4.832
 6511SOL    HW220433   5.248   0.875   4.680
 6512SOL     OW20434   5.088   0.431   2.698
 6512SOL    HW120435   5.034   0.434   2.782
 6512SOL    HW220436   5.176   0.390   2.716
 6513SOL     OW20437   3.389   6.281   3.398
 6513SOL    HW120438   3.432   6.314   3.314
 6513SOL    HW220439   3.306   6.333   3.416
 6514SOL     OW20440   5.873   0.505   3.212
 6514SOL    HW120441   5.821   0.421   3.195
 6514SOL    HW220442   5.950   0.509   3.149
 6515SOL     OW20443   0.081   5.140   3.923
 6515SOL    HW120444   0.128   5.120   4.009
 6515SOL    HW220445   7.009   5.150   3.941
 6516SOL     OW20446   0.341   2.164   0.331
 6516SOL    HW120447   0.393   2.248   0.315
 6516SOL    HW220448   0.405   2.090   0.353
 6517SOL     OW20449   5.717   1.200   0.700
 6517SOL    HW120450   5.633   1.241   0.664
 6517SOL    HW220451   5.693   1.119   0.754
 6518SOL     OW20452   0.573   6.087   6.668
 6518SOL    HW120453   0.631   6.006   6.670
 6518SOL    HW220454   0.510   6.086   6.746
 6519SOL     OW20455   2.219   1.619   3.540
 6519SOL    HW120456   2.191   1.694   3.479
 6519SOL    HW220457   2.273   1.552   3.488
 6520SOL     OW20458   6.732   5.824   3.049
 6520SOL    HW120459   6.761   5.743   3.100
 6520SOL    HW220460   6.797   5.841   2.975
 6521SOL     OW20461   0.819   1.424   4.342
 6521SOL    HW120462   0.874   1.479   4.404
 6521SOL    HW220463   0.759   1.483   4.288
 6522SOL     OW20464   3.132   4.438   6.968
 6522SOL    HW120465   3.093   4.474   6.883
 6522SOL    HW220466   3.075   4.362   7.001
 6523SOL     OW20467   3.248   1.347   6.272
 6523SOL    HW120468   3.198   1.305   6.196
 6523SOL    HW220469   3.320   1.286   6.303
 6524SOL     OW20470   3.709   3.033   2.950
 6524SOL    HW120471   3.718   3.059   3.047
 6524SOL    HW220472   3.800   3.016   2.912
 6525SOL     OW20473   2.164   3.170   2.831
 6525SOL    HW120474   2.129   3.247   2.778
 6525SOL    HW220475   2.218   3.110   2.772
 6526SOL     OW20476   0.849   6.310   4.697
 6526SOL    HW120477   0.753   6.336   4.684
 6526SOL    HW220478   0.871   6.233   4.637
 6527SOL     OW20479   0.190   1.454   4.191
 6527SOL    HW120480   0.256   1.530   4.201
 6527SOL    HW220481   0.237   1.367   4.208
 6528SOL     OW20482   0.026   0.566   3.803
 6528SOL    HW120483   7.015   0.633   3.738
 6528SOL    HW220484   0.042   0.610   3.891
 6529SOL     OW20485   6.018   1.598   3.830
 6529SOL    HW120486   6.072   1.516   3.816
 6529SOL    HW220487   5.965   1.618   3.747
 6530SOL     OW20488   6.718   4.031   1.079
 6530SOL    HW120489   6.780   4.032   1.157
 6530SOL    HW220490   6.739   4.108   1.018
 6531SOL     OW20491   5.441   3.474   4.296
 6531SOL    HW120492   5.342   3.465   4.291
 6531SOL    HW220493   5.473   3.451   4.388
 6532SOL     OW20494   5.653   0.978   1.230
 6532SOL    HW120495   5.575   1.039   1.216
 6532SOL    HW220496   5.702   1.005   1.313
 6533SOL     OW20497   5.375   5.832   1.739
 6533SOL    HW120498   5.460   5.855   1.691
 6533SOL    HW220499   5.347   5.739   1.714
 6534SOL     OW20500   3.046   4.543   1.395
 6534SOL    HW120501   3.046   4.574   1.490
 6534SOL    HW220502   3.132   4.497   1.374
 6535SOL     OW20503   0.439   3.329   4.274
 6535SOL    HW120504   0.533   3.296   4.284
 6535SOL    HW220505   0.420   3.397   4.344
 6536SOL     OW20506   6.660   2.059   5.949
 6536SOL    HW120507   6.743   2.095   5.905
 6536SOL    HW220508   6.583   2.069   5.887
 6537SOL     OW20509   5.996   5.918   6.627
 6537SOL    HW120510   5.981   6.016   6.616
 6537SOL    HW220511   5.987   5.873   6.538
 6538SOL     OW20512   3.725   4.101   0.253
 6538SOL    HW120513   3.799   4.118   0.319
 6538SOL    HW220514   3.639   4.088   0.303
 6539SOL     OW20515   2.679   1.749   6.169
 6539SOL    HW120516   2.731   1.833   6.188
 6539SOL    HW220517   2.742   1.671   6.171
 6540SOL     OW20518   4.548   1.952   5.131
 6540SOL    HW120519   4.573   1.868   5.178
 6540SOL    HW220520   4.574   2.031   5.187
 6541SOL     OW20521   3.709   2.035   4.666
 6541SOL    HW120522   3.781   2.086   4.712
 6541SOL    HW220523   3.748   1.957   4.618
 6542SOL     OW20524   0.179   4.648   3.299
 6542SOL    HW120525   0.080   4.662   3.307
 6542SOL    HW220526   0.217   4.625   3.389
 6543SOL     OW20527   6.323   4.193   0.335
 6543SOL    HW120528   6.243   4.252   0.346
 6543SOL    HW220529   6.294   4.105   0.297
 6544SOL     OW20530   0.539   5.960   3.745
 6544SOL    HW120531   0.627   5.916   3.729
 6544SOL    HW220532   0.523   6.030   3.675
 6545SOL     OW20533   4.862   2.059   6.391
 6545SOL    HW120534   4.766   2.036   6.379
 6545SOL    HW220535   4.875   2.157   6.380
 6546SOL     OW20536   4.383   4.423   6.495
 6546SOL    HW120537   4.465   4.464   6.536
 6546SOL    HW220538   4.400   4.326   6.476
 6547SOL     OW20539   4.149   1.692   5.579
 6547SOL    HW120540   4.207   1.680   5.498
 6547SOL    HW220541   4.054   1.702   5.550
 6548SOL     OW20542   0.702   4.001   0.010
 6548SOL    HW120543   0.605   3.980   7.021
 6548SOL    HW220544   0.742   4.033   6.950
 6549SOL     OW20545   3.476   1.145   0.702
 6549SOL    HW120546   3.492   1.051   0.670
 6549SOL    HW220547   3.518   1.209   0.639
 6550SOL     OW20548   6.936   6.183   3.301
 6550SOL    HW120549   6.913   6.212   3.394
 6550SOL    HW220550   6.921   6.084   3.292
 6551SOL     OW20551   1.891   4.225   2.271
 6551SOL    HW120552   1.958   4.167   2.316
 6551SOL    HW220553   1.893   4.209   2.172
 6552SOL     OW20554   2.477   6.736   5.044
 6552SOL    HW120555   2.566   6.778   5.063
 6552SOL    HW220556   2.414   6.756   5.119
 6553SOL     OW20557   0.201   1.945   1.680
 6553SOL    HW120558   0.289   1.953   1.633
 6553SOL    HW220559   0.128   1.936   1.611
 6554SOL     OW20560   5.665   1.886   6.057
 6554SOL    HW120561   5.756   1.913   6.026
 6554SOL    HW220562   5.672   1.839   6.145
 6555SOL     OW20563   1.825   1.292   1.879
 6555SOL    HW120564   1.792   1.386   1.871
 6555SOL    HW220565   1.755   1.230   1.845
 6556SOL     OW20566   4.621   4.615   5.063
 6556SOL    HW120567   4.666   4.555   4.997
 6556SOL    HW220568   4.527   4.631   5.034
 6557SOL     OW20569   5.179   5.546   1.403
 6557SOL    HW120570   5.118   5.617   1.438
 6557SOL    HW220571   5.225   5.500   1.479
 6558SOL     OW20572   6.079   5.878   1.308
 6558SOL    HW120573   6.165   5.844   1.348
 6558SOL    HW220574   6.004   5.818   1.335
 6559SOL     OW20575   6.381   4.386   0.503
 6559SOL    HW120576   6.466   4.360   0.549
 6559SOL    HW220577   6.366   4.326   0.425
 6560SOL     OW20578   3.691   2.879   2.098
 6560SOL    HW120579   3.620   2.933   2.053
 6560SOL    HW220580   3.678   2.883   2.197
 6561SOL     OW20581   3.568   3.574   2.300
 6561SOL    HW120582   3.586   3.475   2.305
 6561SOL    HW220583   3.482   3.595   2.346
 6562SOL     OW20584   6.182   4.800   6.534
 6562SOL    HW120585   6.159   4.867   6.464
 6562SOL    HW220586   6.099   4.753   6.564
 6563SOL     OW20587   0.750   6.543   6.858
 6563SOL    HW120588   0.725   6.462   6.805
 6563SOL    HW220589   0.674   6.607   6.860
 6564SOL     OW20590   0.661   3.800   2.111
 6564SOL    HW120591   0.601   3.768   2.184
 6564SOL    HW220592   0.750   3.826   2.150
 6565SOL     OW20593   6.376   1.993   4.438
 6565SOL    HW120594   6.281   1.972   4.415
 6565SOL    HW220595   6.435   1.965   4.362
 6566SOL     OW20596   3.426   6.946   1.306
 6566SOL    HW120597   3.454   6.994   1.389
 6566SOL    HW220598   3.327   6.929   1.309
 6567SOL     OW20599   4.174   2.022   1.570
 6567SOL    HW120600   4.103   1.956   1.548
 6567SOL    HW220601   4.138   2.115   1.561
 6568SOL     OW20602   4.752   4.809   2.442
 6568SOL    HW120603   4.779   4.713   2.447
 6568SOL    HW220604   4.831   4.867   2.460
 6569SOL     OW20605   3.488   4.550   1.397
 6569SOL    HW120606   3.481   4.565   1.495
 6569SOL    HW220607   3.526   4.632   1.354
 6570SOL     OW20608   4.794   6.844   1.186
 6570SOL    HW120609   4.797   6.867   1.283
 6570SOL    HW220610   4.867   6.893   1.138
 6571SOL     OW20611   2.510   6.510   2.282
 6571SOL    HW120612   2.529   6.412   2.275
 6571SOL    HW220613   2.526   6.541   2.376
 6572SOL     OW20614   6.394   4.804   5.336
 6572SOL    HW120615   6.360   4.814   5.242
 6572SOL    HW220616   6.484   4.760   5.334
 6573SOL     OW20617   3.087   1.944   3.096
 6573SOL    HW120618   3.148   1.887   3.041
 6573SOL    HW220619   2.994   1.939   3.059
 6574SOL     OW20620   3.037   5.804   2.456
 6574SOL    HW120621   2.962   5.751   2.417
 6574SOL    HW220622   3.110   5.743   2.485
 6575SOL     OW20623   0.784   1.664   1.591
 6575SOL    HW120624   0.738   1.592   1.539
 6575SOL    HW220625   0.877   1.635   1.613
 6576SOL     OW20626   1.551   6.112   6.543
 6576SOL    HW120627   1.517   6.087   6.452
 6576SOL    HW220628   1.641   6.070   6.557
 6577SOL     OW20629   0.933   1.575   3.259
 6577SOL    HW120630   1.016   1.609   3.304
 6577SOL    HW220631   0.855   1.587   3.320
 6578SOL     OW20632   0.257   4.887   2.996
 6578SOL    HW120633   0.172   4.922   3.036
 6578SOL    HW220634   0.302   4.826   3.061
 6579SOL     OW20635   0.118   4.012   4.351
 6579SOL    HW120636   0.163   4.089   4.397
 6579SOL    HW220637   0.120   3.932   4.412
 6580SOL     OW20638   5.979   1.298   1.668
 6580SOL    HW120639   6.017   1.259   1.584
 6580SOL    HW220640   6.047   1.294   1.741
 6581SOL     OW20641   3.927   0.758   6.159
 6581SOL    HW120642   3.888   0.845   6.190
 6581SOL    HW220643   3.899   0.742   6.064
 6582SOL     OW20644   1.528   0.481   1.691
 6582SOL    HW120645   1.532   0.507   1.787
 6582SOL    HW220646   1.616   0.501   1.647
 6583SOL     OW20647   3.890   0.602   5.726
 6583SOL    HW120648   3.949   0.543   5.781
 6583SOL    HW220649   3.936   0.625   5.640
 6584SOL     OW20650   5.435   1.258   0.069
 6584SOL    HW120651   5.419   1.219   7.004
 6584SOL    HW220652   5.358   1.235   0.129
 6585SOL     OW20653   6.255   1.149   0.308
 6585SOL    HW120654   6.315   1.221   0.344
 6585SOL    HW220655   6.182   1.191   0.254
 6586SOL     OW20656   5.662   2.399   6.261
 6586SOL    HW120657   5.630   2.462   6.190
 6586SOL    HW220658   5.651   2.305   6.229
 6587SOL     OW20659   2.893   5.691   3.999
 6587SOL    HW120660   2.956   5.628   3.952
 6587SOL    HW220661   2.916   5.785   3.974
 6588SOL     OW20662   2.073   4.062   1.481
 6588SOL    HW120663   2.081   3.964   1.468
 6588SOL    HW220664   2.062   4.107   1.392
 6589SOL     OW20665   4.187   0.770   6.475
 6589SOL    HW120666   4.246   0.831   6.421
 6589SOL    HW220667   4.175   0.684   6.425
 6590SOL     OW20668   0.622   1.410   6.030
 6590SOL    HW120669   0.581   1.500   6.015
 6590SOL    HW220670   0.657   1.404   6.123
 6591SOL     OW20671   5.792   6.163   2.354
 6591SOL    HW120672   5.816   6.075   2.396
 6591SOL    HW220673   5.752   6.223   2.423
 6592SOL     OW20674   5.097   6.873   4.141
 6592SOL    HW120675   5.004   6.906   4.125
 6592SOL    HW220676   5.137   6.921   4.219
 6593SOL     OW20677   2.468   2.479   3.593
 6593SOL    HW120678   2.435   2.566   3.556
 6593SOL    HW220679   2.553   2.495   3.643
 6594SOL     OW20680   3.877   1.031   0.582
 6594SOL    HW120681   3.890   1.124   0.617
 6594SOL    HW220682   3.849   0.970   0.656
 6595SOL     OW20683   0.548   3.985   0.819
 6595SOL    HW120684   0.548   3.968   0.720
 6595SOL    HW220685   0.567   3.899   0.867
 6596SOL     OW20686   4.043   0.220   4.678
 6596SOL    HW120687   4.112   0.159   4.716
 6596SOL    HW220688   4.064   0.239   4.582
 6597SOL     OW20689   1.447   6.060   3.169
 6597SOL    HW120690   1.431   5.978   3.224
 6597SOL    HW220691   1.366   6.079   3.113
 6598SOL     OW20692   1.531   6.092   5.108
 6598SOL    HW120693   1.539   6.134   5.018
 6598SOL    HW220694   1.595   6.016   5.116
 6599SOL     OW20695   4.118   5.384   5.587
 6599SOL    HW120696   4.209   5.363   5.624
 6599SOL    HW220697   4.055   5.310   5.611
 6600SOL     OW20698   5.224   5.243   5.561
 6600SOL    HW120699   5.274   5.166   5.600
 6600SOL    HW220700   5.143   5.262   5.616
 6601SOL     OW20701   1.068   0.542   0.578
 6601SOL    HW120702   1.037   0.631   0.611
 6601SOL    HW220703   1.100   0.487   0.655
 6602SOL     OW20704   6.457   1.677   1.748
 6602SOL    HW120705   6.414   1.733   1.820
 6602SOL    HW220706   6.514   1.607   1.791
 6603SOL     OW20707   1.306   2.906   4.185
 6603SOL    HW120708   1.389   2.881   4.135
 6603SOL    HW220709   1.289   2.839   4.257
 6604SOL     OW20710   2.997   6.192   1.357
 6604SOL    HW120711   2.906   6.167   1.326
 6604SOL    HW220712   3.024   6.134   1.433
 6605SOL     OW20713   4.989   4.898   0.818
 6605SOL    HW120714   4.973   4.832   0.891
 6605SOL    HW220715   4.954   4.987   0.845
 6606SOL     OW20716   4.812   6.636   2.234
 6606SOL    HW120717   4.725   6.590   2.254
 6606SOL    HW220718   4.810   6.728   2.273
 6607SOL     OW20719   2.278   1.908   1.558
 6607SOL    HW120720   2.375   1.920   1.580
 6607SOL    HW220721   2.250   1.815   1.581
 6608SOL     OW20722   5.367   4.942   2.414
 6608SOL    HW120723   5.354   4.851   2.374
 6608SOL    HW220724   5.338   5.011   2.349
 6609SOL     OW20725   4.892   0.941   6.439
 6609SOL    HW120726   4.814   1.002   6.427
 6609SOL    HW220727   4.878   0.884   6.520
 6610SOL     OW20728   2.548   0.171   6.517
 6610SOL    HW120729   2.516   0.265   6.503
 6610SOL    HW220730   2.602   0.142   6.438
 6611SOL     OW20731   6.687   2.494   3.015
 6611SOL    HW120732   6.618   2.550   2.968
 6611SOL    HW220733   6.736   2.438   2.948
 6612SOL     OW20734   0.474   3.810   0.271
 6612SOL    HW120735   0.573   3.801   0.260
 6612SOL    HW220736   0.430   3.723   0.249
 6613SOL     OW20737   5.644   5.877   3.770
 6613SOL    HW120738   5.603   5.938   3.838
 6613SOL    HW220739   5.729   5.840   3.805
 6614SOL     OW20740   4.739   6.521   6.407
 6614SOL    HW120741   4.660   6.477   6.448
 6614SOL    HW220742   4.820   6.502   6.462
 6615SOL     OW20743   1.048   4.116   4.426
 6615SOL    HW120744   0.986   4.194   4.420
 6615SOL    HW220745   1.130   4.143   4.476
 6616SOL     OW20746   4.271   1.006   5.885
 6616SOL    HW120747   4.227   1.011   5.975
 6616SOL    HW220748   4.208   1.042   5.816
 6617SOL     OW20749   2.960   6.203   3.049
 6617SOL    HW120750   2.908   6.130   3.004
 6617SOL    HW220751   3.020   6.246   2.982
 6618SOL     OW20752   0.642   3.384   2.995
 6618SOL    HW120753   0.683   3.311   3.049
 6618SOL    HW220754   0.702   3.464   2.994
 6619SOL     OW20755   6.510   6.763   4.799
 6619SOL    HW120756   6.441   6.702   4.761
 6619SOL    HW220757   6.485   6.788   4.893
 6620SOL     OW20758   1.852   2.779   5.524
 6620SOL    HW120759   1.865   2.873   5.553
 6620SOL    HW220760   1.938   2.741   5.491
 6621SOL     OW20761   2.597   3.546   0.404
 6621SOL    HW120762   2.523   3.592   0.355
 6621SOL    HW220763   2.640   3.611   0.467
 6622SOL     OW20764   6.183   6.189   1.885
 6622SOL    HW120765   6.130   6.191   1.970
 6622SOL    HW220766   6.231   6.102   1.879
 6623SOL     OW20767   2.989   2.981   1.816
 6623SOL    HW120768   3.025   3.026   1.734
 6623SOL    HW220769   3.056   2.916   1.851
 6624SOL     OW20770   2.442   0.007   4.107
 6624SOL    HW120771   2.527   6.981   4.106
 6624SOL    HW220772   2.393   7.015   4.193
 6625SOL     OW20773   5.236   2.123   6.484
 6625SOL    HW120774   5.332   2.101   6.468
 6625SOL    HW220775   5.225   2.158   6.577
 6626SOL     OW20776   3.575   5.027   3.636
 6626SOL    HW120777   3.613   4.991   3.721
 6626SOL    HW220778   3.628   4.993   3.558
 6627SOL     OW20779   2.304   0.880   5.637
 6627SOL    HW120780   2.234   0.845   5.576
 6627SOL    HW220781   2.285   0.850   5.731
 6628SOL     OW20782   4.930   5.504   3.389
 6628SOL    HW120783   4.874   5.535   3.466
 6628SOL    HW220784   4.960   5.410   3.405
 6629SOL     OW20785   2.850   6.254   0.445
 6629SOL    HW120786   2.894   6.168   0.472
 6629SOL    HW220787   2.751   6.246   0.459
 6630SOL     OW20788   3.434   1.863   1.092
 6630SOL    HW120789   3.466   1.772   1.120
 6630SOL    HW220790   3.508   1.930   1.107
 6631SOL     OW20791   4.530   0.443   2.342
 6631SOL    HW120792   4.532   0.390   2.257
 6631SOL    HW220793   4.435   0.459   2.369
 6632SOL     OW20794   6.942   0.882   1.703
 6632SOL    HW120795   6.949   0.974   1.666
 6632SOL    HW220796   6.911   0.886   1.798
 6633SOL     OW20797   1.745   5.293   5.922
 6633SOL    HW120798   1.708   5.356   5.854
 6633SOL    HW220799   1.688   5.295   6.005
 6634SOL     OW20800   5.602   3.548   5.705
 6634SOL    HW120801   5.562   3.498   5.628
 6634SOL    HW220802   5.688   3.504   5.732
 6635SOL     OW20803   4.273   5.182   3.244
 6635SOL    HW120804   4.326   5.107   3.205
 6635SOL    HW220805   4.243   5.243   3.172
 6636SOL     OW20806   2.622   2.374   5.718
 6636SOL    HW120807   2.578   2.370   5.629
 6636SOL    HW220808   2.553   2.363   5.790
 6637SOL     OW20809   1.602   0.369   6.746
 6637SOL    HW120810   1.591   0.270   6.753
 6637SOL    HW220811   1.548   0.414   6.818
 6638SOL     OW20812   4.147   4.775   5.394
 6638SOL    HW120813   4.099   4.830   5.461
 6638SOL    HW220814   4.109   4.682   5.392
 6639SOL     OW20815   5.716   6.199   6.423
 6639SOL    HW120816   5.713   6.292   6.385
 6639SOL    HW220817   5.772   6.141   6.365
 6640SOL     OW20818   0.213   1.806   5.179
 6640SOL    HW120819   0.189   1.723   5.130
 6640SOL    HW220820   0.149   1.879   5.153
 6641SOL     OW20821   2.309   3.009   6.487
 6641SOL    HW120822   2.373   2.959   6.545
 6641SOL    HW220823   2.278   2.950   6.412
 6642SOL     OW20824   2.949   5.247   0.482
 6642SOL    HW120825   3.017   5.272   0.551
 6642SOL    HW220826   2.981   5.166   0.432
 6643SOL     OW20827   6.436   4.729   6.590
 6643SOL    HW120828   6.343   4.761   6.568
 6643SOL    HW220829   6.447   4.728   6.689
 6644SOL     OW20830   2.880   4.770   1.776
 6644SOL    HW120831   2.952   4.728   1.720
 6644SOL    HW220832   2.839   4.701   1.835
 6645SOL     OW20833   6.698   5.362   0.339
 6645SOL    HW120834   6.766   5.433   0.358
 6645SOL    HW220835   6.686   5.304   0.419
 6646SOL     OW20836   4.345   5.899   4.059
 6646SOL    HW120837   4.307   5.987   4.087
 6646SOL    HW220838   4.355   5.840   4.139
 6647SOL     OW20839   3.243   1.592   2.488
 6647SOL    HW120840   3.216   1.668   2.428
 6647SOL    HW220841   3.342   1.591   2.498
 6648SOL     OW20842   3.385   5.936   2.155
 6648SOL    HW120843   3.320   6.011   2.166
 6648SOL    HW220844   3.441   5.952   2.073
 6649SOL     OW20845   5.227   1.655   6.758
 6649SOL    HW120846   5.288   1.672   6.835
 6649SOL    HW220847   5.138   1.696   6.776
 6650SOL     OW20848   4.048   1.600   4.997
 6650SOL    HW120849   4.090   1.514   5.026
 6650SOL    HW220850   4.053   1.666   5.071
 6651SOL     OW20851   1.354   1.776   6.753
 6651SOL    HW120852   1.370   1.849   6.686
 6651SOL    HW220853   1.256   1.757   6.758
 6652SOL     OW20854   6.506   4.811   0.188
 6652SOL    HW120855   6.546   4.822   0.280
 6652SOL    HW220856   6.498   4.714   0.168
 6653SOL     OW20857   3.971   3.187   3.205
 6653SOL    HW120858   3.907   3.114   3.229
 6653SOL    HW220859   3.919   3.266   3.173
 6654SOL     OW20860   2.019   2.694   1.097
 6654SOL    HW120861   2.068   2.775   1.130
 6654SOL    HW220862   1.926   2.695   1.133
 6655SOL     OW20863   2.988   0.088   1.782
 6655SOL    HW120864   2.894   0.091   1.814
 6655SOL    HW220865   2.996   0.023   1.706
 6656SOL     OW20866   6.222   1.481   2.997
 6656SOL    HW120867   6.210   1.438   2.908
 6656SOL    HW220868   6.249   1.412   3.064
 6657SOL     OW20869   4.784   6.257   6.288
 6657SOL    HW120870   4.766   6.348   6.326
 6657SOL    HW220871   4.857   6.213   6.341
 6658SOL     OW20872   5.672   1.401   4.973
 6658SOL    HW120873   5.645   1.373   5.065
 6658SOL    HW220874   5.681   1.320   4.915
 6659SOL     OW20875   2.680   2.049   0.437
 6659SOL    HW120876   2.643   1.995   0.362
 6659SOL    HW220877   2.747   2.115   0.402
 6660SOL     OW20878   0.392   6.366   0.913
 6660SOL    HW120879   0.470   6.426   0.935
 6660SOL    HW220880   0.321   6.420   0.868
 6661SOL     OW20881   0.620   5.233   3.830
 6661SOL    HW120882   0.536   5.252   3.778
 6661SOL    HW220883   0.689   5.194   3.769
 6662SOL     OW20884   1.879   0.612   6.874
 6662SOL    HW120885   1.815   0.687   6.861
 6662SOL    HW220886   1.855   0.561   6.957
 6663SOL     OW20887   6.713   5.491   2.894
 6663SOL    HW120888   6.786   5.427   2.919
 6663SOL    HW220889   6.710   5.502   2.794
 6664SOL     OW20890   1.325   6.885   1.473
 6664SOL    HW120891   1.245   6.909   1.528
 6664SOL    HW220892   1.380   6.967   1.456
 6665SOL     OW20893   2.181   0.345   2.745
 6665SOL    HW120894   2.134   0.278   2.802
 6665SOL    HW220895   2.175   0.435   2.789
 6666SOL     OW20896   5.840   1.768   5.186
 6666SOL    HW120897   5.785   1.846   5.157
 6666SOL    HW220898   5.874   1.784   5.278
 6667SOL     OW20899   6.781   4.852   5.192
 6667SOL    HW120900   6.714   4.925   5.198
 6667SOL    HW220901   6.826   4.854   5.103
 6668SOL     OW20902   6.681   6.105   1.838
 6668SOL    HW120903   6.614   6.057   1.782
 6668SOL    HW220904   6.736   6.165   1.779
 6669SOL     OW20905   1.929   2.910   4.054
 6669SOL    HW120906   1.969   2.863   3.975
 6669SOL    HW220907   1.856   2.854   4.093
 6670SOL     OW20908   3.213   3.839   6.478
 6670SOL    HW120909   3.250   3.759   6.429
 6670SOL    HW220910   3.287   3.902   6.501
 6671SOL     OW20911   5.497   5.527   1.060
 6671SOL    HW120912   5.411   5.577   1.053
 6671SOL    HW220913   5.566   5.570   1.001
 6672SOL     OW20914   1.061   1.791   5.023
 6672SOL    HW120915   1.148   1.826   4.988
 6672SOL    HW220916   0.990   1.804   4.953
 6673SOL     OW20917   4.143   6.105   3.113
 6673SOL    HW120918   4.224   6.054   3.084
 6673SOL    HW220919   4.167   6.200   3.131
 6674SOL     OW20920   0.991   5.164   6.263
 6674SOL    HW120921   0.957   5.186   6.354
 6674SOL    HW220922   0.941   5.086   6.226
 6675SOL     OW20923   4.726   4.108   1.839
 6675SOL    HW120924   4.713   4.009   1.850
 6675SOL    HW220925   4.636   4.153   1.834
 6676SOL     OW20926   0.046   3.405   5.536
 6676SOL    HW120927   6.977   3.425   5.561
 6676SOL    HW220928   0.080   3.330   5.593
 6677SOL     OW20929   0.552   3.049   0.163
 6677SOL    HW120930   0.489   2.982   0.125
 6677SOL    HW220931   0.502   3.110   0.225
 6678SOL     OW20932   1.545   2.524   0.033
 6678SOL    HW120933   1.494   2.597   0.079
 6678SOL    HW220934   1.543   2.441   0.089
 6679SOL     OW20935   2.429   1.874   4.588
 6679SOL    HW120936   2.366   1.841   4.519
 6679SOL    HW220937   2.416   1.972   4.603
 6680SOL     OW20938   4.210   5.961   5.748
 6680SOL    HW120939   4.194   6.025   5.673
 6680SOL    HW220940   4.258   6.008   5.822
 6681SOL     OW20941   4.817   4.905   0.187
 6681SOL    HW120942   4.871   4.873   0.265
 6681SOL    HW220943   4.870   4.972   0.135
 6682SOL     OW20944   1.132   3.897   2.415
 6682SOL    HW120945   1.087   3.983   2.436
 6682SOL    HW220946   1.231   3.907   2.427
 6683SOL     OW20947   5.310   2.580   5.798
 6683SOL    HW120948   5.243   2.650   5.825
 6683SOL    HW220949   5.393   2.624   5.765
 6684SOL     OW20950   2.173   6.761   1.205
 6684SOL    HW120951   2.141   6.855   1.193
 6684SOL    HW220952   2.111   6.713   1.267
 6685SOL     OW20953   5.306   2.135   5.884
 6685SOL    HW120954   5.308   2.225   5.926
 6685SOL    HW220955   5.325   2.065   5.954
 6686SOL     OW20956   5.484   5.384   3.585
 6686SOL    HW120957   5.452   5.293   3.610
 6686SOL    HW220958   5.579   5.395   3.613
 6687SOL     OW20959   0.477   1.893   1.585
 6687SOL    HW120960   0.534   1.875   1.664
 6687SOL    HW220961   0.530   1.881   1.501
 6688SOL     OW20962   0.367   4.440   1.921
 6688SOL    HW120963   0.354   4.358   1.977
 6688SOL    HW220964   0.459   4.477   1.938
 6689SOL     OW20965   4.374   2.346   0.206
 6689SOL    HW120966   4.385   2.253   0.170
 6689SOL    HW220967   4.337   2.341   0.299
 6690SOL     OW20968   2.546   0.967   1.946
 6690SOL    HW120969   2.558   0.902   1.871
 6690SOL    HW220970   2.467   1.026   1.928
 6691SOL     OW20971   3.428   5.580   1.285
 6691SOL    HW120972   3.493   5.627   1.345
 6691SOL    HW220973   3.337   5.582   1.327
 6692SOL     OW20974   2.733   4.806   5.236
 6692SOL    HW120975   2.764   4.762   5.321
 6692SOL    HW220976   2.753   4.746   5.158
 6693SOL     OW20977   5.152   3.632   6.476
 6693SOL    HW120978   5.244   3.593   6.483
 6693SOL    HW220979   5.159   3.731   6.460
 6694SOL     OW20980   4.878   5.881   6.861
 6694SOL    HW120981   4.791   5.928   6.846
 6694SOL    HW220982   4.925   5.871   6.773
 6695SOL     OW20983   0.961   1.750   6.400
 6695SOL    HW120984   0.929   1.656   6.416
 6695SOL    HW220985   0.895   1.814   6.439
 6696SOL     OW20986   2.007   2.434   0.431
 6696SOL    HW120987   2.106   2.418   0.434
 6696SOL    HW220988   1.988   2.531   0.442
 6697SOL     OW20989   4.344   2.421   3.082
 6697SOL    HW120990   4.407   2.476   3.027
 6697SOL    HW220991   4.375   2.419   3.177
 6698SOL     OW20992   3.424   2.289   0.330
 6698SOL    HW120993   3.513   2.298   0.374
 6698SOL    HW220994   3.355   2.336   0.385
 6699SOL     OW20995   3.344   4.407   0.259
 6699SOL    HW120996   3.291   4.462   0.324
 6699SOL    HW220997   3.407   4.467   0.209
 6700SOL     OW20998   0.249   5.612   0.828
 6700SOL    HW120999   0.217   5.705   0.849
 6700SOL    HW221000   0.323   5.587   0.889
 6701SOL     OW21001   6.411   2.767   1.330
 6701SOL    HW121002   6.349   2.799   1.259
 6701SOL    HW221003   6.384   2.806   1.418
 6702SOL     OW21004   2.782   2.555   0.123
 6702SOL    HW121005   2.757   2.618   0.196
 6702SOL    HW221006   2.709   2.487   0.110
 6703SOL     OW21007   6.499   1.978   6.996
 6703SOL    HW121008   6.532   2.022   6.913
 6703SOL    HW221009   6.442   2.042   0.021
 6704SOL     OW21010   4.151   2.266   2.612
 6704SOL    HW121011   4.216   2.285   2.538
 6704SOL    HW221012   4.068   2.226   2.573
 6705SOL     OW21013   0.243   1.913   2.115
 6705SOL    HW121014   0.294   1.923   2.030
 6705SOL    HW221015   0.305   1.920   2.193
 6706SOL     OW21016   1.206   4.344   0.603
 6706SOL    HW121017   1.302   4.338   0.575
 6706SOL    HW221018   1.148   4.330   0.523
 6707SOL     OW21019   6.448   5.523   4.679
 6707SOL    HW121020   6.432   5.581   4.759
 6707SOL    HW221021   6.409   5.566   4.598
 6708SOL     OW21022   1.918   5.789   2.548
 6708SOL    HW121023   1.868   5.756   2.628
 6708SOL    HW221024   1.924   5.889   2.551
 6709SOL     OW21025   3.404   5.870   1.266
 6709SOL    HW121026   3.501   5.855   1.247
 6709SOL    HW221027   3.349   5.830   1.192
 6710SOL     OW21028   2.575   2.176   6.157
 6710SOL    HW121029   2.492   2.133   6.191
 6710SOL    HW221030   2.581   2.164   6.058
 6711SOL     OW21031   5.850   4.419   6.796
 6711SOL    HW121032   5.751   4.429   6.800
 6711SOL    HW221033   5.890   4.445   6.884
 6712SOL     OW21034   4.348   5.335   0.406
 6712SOL    HW121035   4.411   5.395   0.455
 6712SOL    HW221036   4.294   5.282   0.471
 6713SOL     OW21037   2.088   1.614   1.539
 6713SOL    HW121038   2.179   1.584   1.569
 6713SOL    HW221039   2.035   1.646   1.618
 6714SOL     OW21040   5.435   0.458   5.407
 6714SOL    HW121041   5.518   0.431   5.455
 6714SOL    HW221042   5.459   0.511   5.326
 6715SOL     OW21043   6.938   0.490   0.398
 6715SOL    HW121044   6.889   0.485   0.312
 6715SOL    HW221045   6.977   0.401   0.421
 6716SOL     OW21046   1.393   6.543   1.768
 6716SOL    HW121047   1.319   6.607   1.789
 6716SOL    HW221048   1.374   6.496   1.682
 6717SOL     OW21049   4.798   2.694   0.556
 6717SOL    HW121050   4.773   2.790   0.571
 6717SOL    HW221051   4.717   2.642   0.529
 6718SOL     OW21052   4.114   5.776   6.532
 6718SOL    HW121053   4.151   5.684   6.536
 6718SOL    HW221054   4.141   5.820   6.446
 6719SOL     OW21055   0.816   0.278   6.312
 6719SOL    HW121056   0.902   0.273   6.364
 6719SOL    HW221057   0.821   0.215   6.234
 6720SOL     OW21058   2.592   6.131   1.804
 6720SOL    HW121059   2.517   6.178   1.852
 6720SOL    HW221060   2.591   6.034   1.829
 6721SOL     OW21061   5.581   6.507   4.235
 6721SOL    HW121062   5.656   6.442   4.246
 6721SOL    HW221063   5.500   6.473   4.282
 6722SOL     OW21064   5.125   3.266   0.873
 6722SOL    HW121065   5.191   3.312   0.933
 6722SOL    HW221066   5.034   3.303   0.888
 6723SOL     OW21067   2.087   6.866   3.223
 6723SOL    HW121068   2.033   6.875   3.140
 6723SOL    HW221069   2.174   6.912   3.212
 6724SOL     OW21070   1.723   4.235   5.557
 6724SOL    HW121071   1.773   4.209   5.639
 6724SOL    HW221072   1.652   4.302   5.580
 6725SOL     OW21073   0.942   4.392   2.089
 6725SOL    HW121074   1.010   4.355   2.153
 6725SOL    HW221075   0.917   4.484   2.118
 6726SOL     OW21076   1.920   2.180   4.888
 6726SOL    HW121077   1.966   2.125   4.958
 6726SOL    HW221078   1.876   2.259   4.930
 6727SOL     OW21079   5.550   3.544   5.988
 6727SOL    HW121080   5.557   3.560   5.890
 6727SOL    HW221081   5.595   3.618   6.038
 6728SOL     OW21082   4.670   1.693   4.136
 6728SOL    HW121083   4.698   1.695   4.040
 6728SOL    HW221084   4.733   1.634   4.187
 6729SOL     OW21085   6.691   1.321   2.547
 6729SOL    HW121086   6.785   1.346   2.526
 6729SOL    HW221087   6.634   1.333   2.466
 6730SOL     OW21088   2.445   6.720   7.015
 6730SOL    HW121089   2.422   6.734   0.085
 6730SOL    HW221090   2.435   6.623   6.992
 6731SOL     OW21091   2.575   4.357   0.925
 6731SOL    HW121092   2.665   4.376   0.962
 6731SOL    HW221093   2.511   4.340   1.000
 6732SOL     OW21094   2.870   6.025   6.689
 6732SOL    HW121095   2.790   6.080   6.714
 6732SOL    HW221096   2.904   6.055   6.600
 6733SOL     OW21097   4.672   5.452   6.576
 6733SOL    HW121098   4.715   5.486   6.492
 6733SOL    HW221099   4.607   5.380   6.552
 6734SOL     OW21100   0.470   3.110   5.688
 6734SOL    HW121101   0.526   3.120   5.606
 6734SOL    HW221102   0.528   3.106   5.769
 6735SOL     OW21103   0.661   5.244   5.299
 6735SOL    HW121104   0.686   5.150   5.275
 6735SOL    HW221105   0.562   5.251   5.307
 6736SOL     OW21106   1.946   3.455   0.575
 6736SOL    HW121107   2.043   3.437   0.559
 6736SOL    HW221108   1.906   3.497   0.494
 6737SOL     OW21109   2.081   1.553   1.286
 6737SOL    HW121110   2.064   1.611   1.365
 6737SOL    HW221111   2.178   1.532   1.280
 6738SOL     OW21112   2.209   2.556   2.199
 6738SOL    HW121113   2.308   2.543   2.188
 6738SOL    HW221114   2.160   2.478   2.160
 6739SOL     OW21115   3.439   5.790   5.598
 6739SOL    HW121116   3.475   5.727   5.529
 6739SOL    HW221117   3.386   5.740   5.666
 6740SOL     OW21118   1.886   1.176   4.488
 6740SOL    HW121119   1.796   1.219   4.487
 6740SOL    HW221120   1.943   1.219   4.558
 6741SOL     OW21121   4.219   1.656   5.938
 6741SOL    HW121122   4.165   1.740   5.935
 6741SOL    HW221123   4.316   1.678   5.927
 6742SOL     OW21124   0.191   5.828   4.312
 6742SOL    HW121125   0.172   5.913   4.361
 6742SOL    HW221126   0.172   5.750   4.371
 6743SOL     OW21127   4.029   3.827   6.607
 6743SOL    HW121128   4.087   3.877   6.672
 6743SOL    HW221129   4.076   3.820   6.519
 6744SOL     OW21130   3.964   5.314   6.048
 6744SOL    HW121131   3.995   5.221   6.027
 6744SOL    HW221132   4.020   5.380   5.998
 6745SOL     OW21133   1.208   5.162   2.711
 6745SOL    HW121134   1.149   5.242   2.720
 6745SOL    HW221135   1.277   5.178   2.640
 6746SOL     OW21136   0.914   0.596   1.508
 6746SOL    HW121137   0.960   0.554   1.586
 6746SOL    HW221138   0.857   0.671   1.540
 6747SOL     OW21139   5.443   6.348   4.405
 6747SOL    HW121140   5.459   6.318   4.499
 6747SOL    HW221141   5.345   6.338   4.384
 6748SOL     OW21142   1.012   0.773   2.312
 6748SOL    HW121143   0.956   0.781   2.229
 6748SOL    HW221144   1.104   0.744   2.287
 6749SOL     OW21145   3.272   0.222   0.142
 6749SOL    HW121146   3.325   0.211   0.058
 6749SOL    HW221147   3.176   0.238   0.119
 6750SOL     OW21148   3.254   1.883   4.247
 6750SOL    HW121149   3.339   1.841   4.216
 6750SOL    HW221150   3.272   1.978   4.273
 6751SOL     OW21151   2.887   2.248   3.876
 6751SOL    HW121152   2.950   2.281   3.806
 6751SOL    HW221153   2.877   2.149   3.869
 6752SOL     OW21154   6.072   2.395   1.385
 6752SOL    HW121155   6.029   2.353   1.465
 6752SOL    HW221156   6.171   2.384   1.391
 6753SOL     OW21157   4.254   1.650   6.770
 6753SOL    HW121158   4.158   1.669   6.750
 6753SOL    HW221159   4.260   1.579   6.841
 6754SOL     OW21160   6.565   2.240   6.406
 6754SOL    HW121161   6.523   2.188   6.480
 6754SOL    HW221162   6.500   2.248   6.330
 6755SOL     OW21163   5.015   1.428   3.555
 6755SOL    HW121164   5.040   1.417   3.459
 6755SOL    HW221165   5.057   1.512   3.591
 6756SOL     OW21166   4.902   4.159   4.309
 6756SOL    HW121167   4.818   4.210   4.331
 6756SOL    HW221168   4.925   4.173   4.213
 6757SOL     OW21169   4.568   5.518   0.415
 6757SOL    HW121170   4.519   5.603   0.396
 6757SOL    HW221171   4.656   5.539   0.458
 6758SOL     OW21172   5.356   3.460   2.086
 6758SOL    HW121173   5.304   3.401   2.023
 6758SOL    HW221174   5.294   3.519   2.136
 6759SOL     OW21175   1.600   4.311   3.683
 6759SOL    HW121176   1.555   4.222   3.677
 6759SOL    HW221177   1.534   4.383   3.662
 6760SOL     OW21178   0.187   5.004   4.736
 6760SOL    HW121179   0.220   4.914   4.764
 6760SOL    HW221180   0.223   5.025   4.645
 6761SOL     OW21181   5.487   2.761   5.682
 6761SOL    HW121182   5.449   2.817   5.608
 6761SOL    HW221183   5.531   2.820   5.749
 6762SOL     OW21184   6.309   4.885   3.555
 6762SOL    HW121185   6.331   4.788   3.543
 6762SOL    HW221186   6.363   4.922   3.630
 6763SOL     OW21187   5.788   5.712   4.675
 6763SOL    HW121188   5.776   5.658   4.759
 6763SOL    HW221189   5.729   5.674   4.603
 6764SOL     OW21190   3.273   4.062   5.969
 6764SOL    HW121191   3.264   4.074   5.870
 6764SOL    HW221192   3.222   3.981   5.998
 6765SOL     OW21193   6.336   4.622   3.648
 6765SOL    HW121194   6.378   4.656   3.733
 6765SOL    HW221195   6.237   4.630   3.655
 6766SOL     OW21196   1.962   0.425   6.271
 6766SOL    HW121197   2.043   0.479   6.245
 6766SOL    HW221198   1.948   0.431   6.369
 6767SOL     OW21199   0.473   2.396   0.259
 6767SOL    HW121200   0.487   2.413   0.357
 6767SOL    HW221201   0.399   2.455   0.226
 6768SOL     OW21202   0.602   0.644   3.573
 6768SOL    HW121203   0.668   0.570   3.588
 6768SOL    HW221204   0.529   0.612   3.514
 6769SOL     OW21205   3.211   1.848   5.127
 6769SOL    HW121206   3.148   1.925   5.129
 6769SOL    HW221207   3.165   1.768   5.087
 6770SOL     OW21208   0.188   2.634   3.793
 6770SOL    HW121209   0.236   2.550   3.769
 6770SOL    HW221210   0.091   2.615   3.805
 6771SOL     OW21211   3.605   2.001   3.431
 6771SOL    HW121212   3.563   1.963   3.348
 6771SOL    HW221213   3.695   2.038   3.409
 6772SOL     OW21214   5.474   1.436   2.708
 6772SOL    HW121215   5.473   1.534   2.687
 6772SOL    HW221216   5.415   1.388   2.644
 6773SOL     OW21217   6.695   6.255   1.392
 6773SOL    HW121218   6.683   6.333   1.452
 6773SOL    HW221219   6.721   6.287   1.300
 6774SOL     OW21220   1.642   1.808   5.325
 6774SOL    HW121221   1.674   1.859   5.405
 6774SOL    HW221222   1.692   1.839   5.244
 6775SOL     OW21223   0.604   1.826   4.391
 6775SOL    HW121224   0.628   1.909   4.441
 6775SOL    HW221225   0.637   1.833   4.297
 6776SOL     OW21226   3.887   4.012   1.246
 6776SOL    HW121227   3.855   4.105   1.264
 6776SOL    HW221228   3.866   3.988   1.151
 6777SOL     OW21229   4.585   5.927   1.287
 6777SOL    HW121230   4.643   5.849   1.260
 6777SOL    HW221231   4.582   5.993   1.213
 6778SOL     OW21232   5.957   3.440   2.613
 6778SOL    HW121233   5.920   3.423   2.522
 6778SOL    HW221234   5.882   3.438   2.680
 6779SOL     OW21235   6.000   4.104   5.826
 6779SOL    HW121236   5.919   4.113   5.883
 6779SOL    HW221237   6.002   4.177   5.757
 6780SOL     OW21238   2.434   2.607   3.090
 6780SOL    HW121239   2.378   2.690   3.094
 6780SOL    HW221240   2.469   2.587   3.182
 6781SOL     OW21241   6.344   1.513   4.442
 6781SOL    HW121242   6.245   1.524   4.453
 6781SOL    HW221243   6.377   1.445   4.507
 6782SOL     OW21244   6.649   1.503   3.304
 6782SOL    HW121245   6.723   1.570   3.307
 6782SOL    HW221246   6.565   1.548   3.275
 6783SOL     OW21247   1.376   4.758   5.591
 6783SOL    HW121248   1.418   4.698   5.658
 6783SOL    HW221249   1.328   4.832   5.638
 6784SOL     OW21250   2.254   3.183   1.099
 6784SOL    HW121251   2.222   3.247   1.168
 6784SOL    HW221252   2.175   3.144   1.050
 6785SOL     OW21253   5.577   4.743   4.953
 6785SOL    HW121254   5.656   4.695   4.915
 6785SOL    HW221255   5.513   4.766   4.879
 6786SOL     OW21256   6.678   2.368   1.081
 6786SOL    HW121257   6.751   2.394   1.017
 6786SOL    HW221258   6.620   2.447   1.099
 6787SOL     OW21259   3.689   2.350   0.099
 6787SOL    HW121260   3.694   2.378   0.195
 6787SOL    HW221261   3.647   2.260   0.093
 6788SOL     OW21262   0.704   4.120   3.626
 6788SOL    HW121263   0.800   4.093   3.637
 6788SOL    HW221264   0.645   4.051   3.667
 6789SOL     OW21265   6.849   3.670   3.874
 6789SOL    HW121266   6.840   3.592   3.936
 6789SOL    HW221267   6.851   3.637   3.780
 6790SOL     OW21268   1.247   4.519   5.872
 6790SOL    HW121269   1.333   4.565   5.892
 6790SOL    HW221270   1.181   4.539   5.945
 6791SOL     OW21271   4.372   1.637   3.844
 6791SOL    HW121272   4.363   1.568   3.916
 6791SOL    HW221273   4.469   1.654   3.827
 6792SOL     OW21274   4.476   0.111   5.438
 6792SOL    HW121275   4.382   0.082   5.454
 6792SOL    HW221276   4.502   0.092   5.343
 6793SOL     OW21277   2.298   3.237   0.072
 6793SOL    HW121278   2.315   3.150   0.025
 6793SOL    HW221279   2.383   3.287   0.080
 6794SOL     OW21280   4.370   1.512   5.638
 6794SOL    HW121281   4.429   1.577   5.687
 6794SOL    HW221282   4.275   1.542   5.645
 6795SOL     OW21283   1.135   1.056   1.104
 6795SOL    HW121284   1.069   1.116   1.058
 6795SOL    HW221285   1.227   1.095   1.097
 6796SOL     OW21286   5.884   1.421   2.014
 6796SOL    HW121287   5.930   1.496   1.965
 6796SOL    HW221288   5.788   1.445   2.030
 6797SOL     OW21289   0.445   1.959   1.926
 6797SOL    HW121290   0.467   2.055   1.909
 6797SOL    HW221291   0.512   1.901   1.879
 6798SOL     OW21292   5.815   0.212   2.006
 6798SOL    HW121293   5.768   0.299   1.994
 6798SOL    HW221294   5.754   0.147   2.051
 6799SOL     OW21295   5.283   6.996   3.133
 6799SOL    HW121296   5.204   0.025   3.159
 6799SOL    HW221297   5.311   6.940   3.211
 6800SOL     OW21298   0.632   1.258   1.631
 6800SOL    HW121299   0.718   1.236   1.677
 6800SOL    HW221300   0.639   1.234   1.534
 6801SOL     OW21301   1.097   6.472   4.765
 6801SOL    HW121302   1.006   6.439   4.741
 6801SOL    HW221303   1.126   6.541   4.698
 6802SOL     OW21304   3.433   5.742   1.569
 6802SOL    HW121305   3.511   5.798   1.596
 6802SOL    HW221306   3.351   5.799   1.565
 6803SOL     OW21307   5.195   4.648   6.784
 6803SOL    HW121308   5.222   4.567   6.837
 6803SOL    HW221309   5.166   4.720   6.847
 6804SOL     OW21310   2.827   4.741   2.865
 6804SOL    HW121311   2.753   4.700   2.918
 6804SOL    HW221312   2.874   4.809   2.921
 6805SOL     OW21313   0.336   4.534   5.801
 6805SOL    HW121314   0.351   4.615   5.858
 6805SOL    HW221315   0.240   4.506   5.809
 6806SOL     OW21316   6.573   0.561   3.310
 6806SOL    HW121317   6.546   0.465   3.315
 6806SOL    HW221318   6.656   0.576   3.363
 6807SOL     OW21319   3.127   4.053   2.392
 6807SOL    HW121320   3.214   4.026   2.351
 6807SOL    HW221321   3.124   4.020   2.487
 6808SOL     OW21322   4.369   1.660   5.114
 6808SOL    HW121323   4.343   1.730   5.047
 6808SOL    HW221324   4.325   1.573   5.090
 6809SOL     OW21325   5.898   4.556   2.248
 6809SOL    HW121326   5.900   4.608   2.163
 6809SOL    HW221327   5.817   4.580   2.300
 6810SOL     OW21328   2.746   1.185   3.384
 6810SOL    HW121329   2.733   1.095   3.342
 6810SOL    HW221330   2.755   1.174   3.483
 6811SOL     OW21331   6.321   1.722   2.566
 6811SOL    HW121332   6.312   1.625   2.544
 6811SOL    HW221333   6.306   1.776   2.483
 6812SOL     OW21334   2.797   3.848   5.044
 6812SOL    HW121335   2.732   3.873   4.972
 6812SOL    HW221336   2.760   3.873   5.133
 6813SOL     OW21337   5.741   3.472   1.659
 6813SOL    HW121338   5.766   3.565   1.689
 6813SOL    HW221339   5.733   3.413   1.739
 6814SOL     OW21340   4.224   1.528   6.251
 6814SOL    HW121341   4.214   1.527   6.151
 6814SOL    HW221342   4.285   1.603   6.277
 6815SOL     OW21343   2.473   5.254   6.546
 6815SOL    HW121344   2.412   5.299   6.481
 6815SOL    HW221345   2.490   5.160   6.516
 6816SOL     OW21346   0.621   2.073   4.520
 6816SOL    HW121347   0.548   2.116   4.574
 6816SOL    HW221348   0.668   2.144   4.466
 6817SOL     OW21349   3.448   2.044   2.297
 6817SOL    HW121350   3.504   2.110   2.247
 6817SOL    HW221351   3.392   2.093   2.364
 6818SOL     OW21352   2.024   6.719   6.300
 6818SOL    HW121353   2.057   6.773   6.222
 6818SOL    HW221354   1.924   6.713   6.296
 6819SOL     OW21355   4.379   4.672   2.624
 6819SOL    HW121356   4.428   4.589   2.648
 6819SOL    HW221357   4.422   4.715   2.544
 6820SOL     OW21358   2.432   6.379   1.286
 6820SOL    HW121359   2.363   6.373   1.214
 6820SOL    HW221360   2.393   6.424   1.366
 6821SOL     OW21361   4.451   3.031   5.457
 6821SOL    HW121362   4.522   3.060   5.394
 6821SOL    HW221363   4.381   3.102   5.464
 6822SOL     OW21364   6.928   2.463   6.545
 6822SOL    HW121365   6.867   2.468   6.465
 6822SOL    HW221366   7.009   2.519   6.528
 6823SOL     OW21367   5.246   3.232   0.192
 6823SOL    HW121368   5.181   3.282   0.133
 6823SOL    HW221369   5.306   3.298   0.237
 6824SOL     OW21370   1.468   2.014   6.234
 6824SOL    HW121371   1.564   2.035   6.218
 6824SOL    HW221372   1.461   1.941   6.303
 6825SOL     OW21373   6.905   5.879   1.686
 6825SOL    HW121374   6.911   5.846   1.780
 6825SOL    HW221375   6.993   5.867   1.640
 6826SOL     OW21376   0.713   3.715   3.367
 6826SOL    HW121377   0.762   3.698   3.453
 6826SOL    HW221378   0.777   3.708   3.290
 6827SOL     OW21379   4.059   6.224   4.874
 6827SOL    HW121380   4.146   6.266   4.901
 6827SOL    HW221381   4.048   6.137   4.922
 6828SOL     OW21382   3.528   2.112   2.970
 6828SOL    HW121383   3.617   2.155   2.953
 6828SOL    HW221384   3.540   2.029   3.024
 6829SOL     OW21385   5.462   6.823   4.899
 6829SOL    HW121386   5.508   6.739   4.870
 6829SOL    HW221387   5.469   6.833   4.998
 6830SOL     OW21388   5.513   0.513   3.156
 6830SOL    HW121389   5.473   0.577   3.221
 6830SOL    HW221390   5.551   0.563   3.078
 6831SOL     OW21391   1.351   1.468   6.361
 6831SOL    HW121392   1.264   1.424   6.383
 6831SOL    HW221393   1.369   1.457   6.263
 6832SOL     OW21394   2.909   2.321   0.732
 6832SOL    HW121395   2.937   2.352   0.823
 6832SOL    HW221396   2.890   2.223   0.735
 6833SOL     OW21397   3.007   5.214   5.685
 6833SOL    HW121398   2.989   5.298   5.737
 6833SOL    HW221399   2.951   5.214   5.602
 6834SOL     OW21400   5.059   6.795   0.552
 6834SOL    HW121401   5.040   6.888   0.520
 6834SOL    HW221402   4.974   6.743   0.552
 6835SOL     OW21403   2.999   2.097   4.323
 6835SOL    HW121404   3.059   2.130   4.250
 6835SOL    HW221405   2.973   2.002   4.306
 6836SOL     OW21406   2.053   5.233   6.573
 6836SOL    HW121407   2.055   5.140   6.609
 6836SOL    HW221408   1.960   5.253   6.539
 6837SOL     OW21409   0.898   0.738   1.805
 6837SOL    HW121410   0.878   0.771   1.898
 6837SOL    HW221411   0.947   0.651   1.811
 6838SOL     OW21412   2.705   4.464   5.313
 6838SOL    HW121413   2.721   4.385   5.372
 6838SOL    HW221414   2.788   4.483   5.259
 6839SOL     OW21415   5.478   2.757   3.793
 6839SOL    HW121416   5.475   2.857   3.801
 6839SOL    HW221417   5.573   2.727   3.791
 6840SOL     OW21418   2.572   6.625   5.332
 6840SOL    HW121419   2.614   6.696   5.276
 6840SOL    HW221420   2.636   6.550   5.344
 6841SOL     OW21421   4.075   5.739   1.667
 6841SOL    HW121422   4.093   5.804   1.593
 6841SOL    HW221423   4.019   5.664   1.633
 6842SOL     OW21424   0.708   3.653   6.943
 6842SOL    HW121425   0.765   3.664   7.025
 6842SOL    HW221426   0.755   3.694   6.865
 6843SOL     OW21427   3.918   2.312   1.784
 6843SOL    HW121428   3.949   2.233   1.837
 6843SOL    HW221429   3.819   2.324   1.797
 6844SOL     OW21430   4.370   5.418   3.768
 6844SOL    HW121431   4.396   5.415   3.864
 6844SOL    HW221432   4.398   5.333   3.723
 6845SOL     OW21433   4.562   5.114   2.219
 6845SOL    HW121434   4.583   5.072   2.131
 6845SOL    HW221435   4.640   5.102   2.281
 6846SOL     OW21436   3.727   3.227   2.723
 6846SOL    HW121437   3.817   3.187   2.738
 6846SOL    HW221438   3.673   3.167   2.664
 6847SOL     OW21439   5.130   4.072   1.740
 6847SOL    HW121440   5.189   4.127   1.681
 6847SOL    HW221441   5.113   3.984   1.697
 6848SOL     OW21442   0.537   5.735   4.287
 6848SOL    HW121443   0.539   5.829   4.254
 6848SOL    HW221444   0.630   5.699   4.289
 6849SOL     OW21445   3.591   6.050   3.825
 6849SOL    HW121446   3.652   6.034   3.748
 6849SOL    HW221447   3.593   5.971   3.886
 6850SOL     OW21448   5.585   2.341   3.314
 6850SOL    HW121449   5.680   2.310   3.308
 6850SOL    HW221450   5.577   2.433   3.277
 6851SOL     OW21451   1.981   4.988   5.924
 6851SOL    HW121452   2.045   5.025   5.857
 6851SOL    HW221453   1.914   5.058   5.948
 6852SOL     OW21454   1.480   4.287   1.568
 6852SOL    HW121455   1.431   4.223   1.627
 6852SOL    HW221456   1.416   4.352   1.528
 6853SOL     OW21457   0.512   5.154   5.801
 6853SOL    HW121458   0.552   5.111   5.720
 6853SOL    HW221459   0.437   5.214   5.774
 6854SOL     OW21460   6.733   1.797   6.001
 6854SOL    HW121461   6.793   1.779   6.079
 6854SOL    HW221462   6.689   1.886   6.011
 6855SOL     OW21463   3.914   0.084   2.978
 6855SOL    HW121464   3.982   0.031   3.028
 6855SOL    HW221465   3.952   0.113   2.891
 6856SOL     OW21466   6.373   3.618   4.708
 6856SOL    HW121467   6.470   3.635   4.729
 6856SOL    HW221468   6.358   3.519   4.703
 6857SOL     OW21469   2.743   2.053   5.920
 6857SOL    HW121470   2.789   1.982   5.973
 6857SOL    HW221471   2.663   2.014   5.874
 6858SOL     OW21472   4.087   3.647   4.741
 6858SOL    HW121473   3.996   3.617   4.713
 6858SOL    HW221474   4.102   3.740   4.709
 6859SOL     OW21475   2.491   6.828   0.900
 6859SOL    HW121476   2.578   6.790   0.930
 6859SOL    HW221477   2.419   6.760   0.908
 6860SOL     OW21478   5.743   4.898   1.485
 6860SOL    HW121479   5.771   4.948   1.403
 6860SOL    HW221480   5.656   4.935   1.517
 6861SOL     OW21481   5.270   5.558   6.812
 6861SOL    HW121482   5.346   5.541   6.875
 6861SOL    HW221483   5.215   5.635   6.845
 6862SOL     OW21484   3.090   5.498   5.132
 6862SOL    HW121485   3.187   5.476   5.141
 6862SOL    HW221486   3.047   5.498   5.223
 6863SOL     OW21487   5.737   1.481   3.890
 6863SOL    HW121488   5.747   1.511   3.795
 6863SOL    HW221489   5.825   1.488   3.936
 6864SOL     OW21490   2.827   6.024   3.297
 6864SOL    HW121491   2.753   5.959   3.279
 6864SOL    HW221492   2.915   5.976   3.299
 6865SOL     OW21493   6.499   3.962   5.000
 6865SOL    HW121494   6.467   3.878   5.043
 6865SOL    HW221495   6.554   3.940   4.920
 6866SOL     OW21496   0.244   3.791   2.038
 6866SOL    HW121497   0.291   3.712   2.077
 6866SOL    HW221498   0.267   3.798   1.941
 6867SOL     OW21499   1.783   4.428   1.884
 6867SOL    HW121500   1.794   4.461   1.978
 6867SOL    HW221501   1.782   4.328   1.884
 6868SOL     OW21502   1.817   6.178   4.735
 6868SOL    HW121503   1.821   6.258   4.675
 6868SOL    HW221504   1.907   6.135   4.740
 6869SOL     OW21505   5.453   2.199   5.598
 6869SOL    HW121506   5.402   2.252   5.531
 6869SOL    HW221507   5.392   2.136   5.645
 6870SOL     OW21508   5.998   3.712   3.044
 6870SOL    HW121509   5.969   3.746   3.134
 6870SOL    HW221510   6.077   3.765   3.013
 6871SOL     OW21511   6.146   4.808   1.125
 6871SOL    HW121512   6.160   4.907   1.132
 6871SOL    HW221513   6.079   4.788   1.054
 6872SOL     OW21514   2.068   3.560   0.849
 6872SOL    HW121515   1.975   3.588   0.829
 6872SOL    HW221516   2.074   3.460   0.847
 6873SOL     OW21517   5.786   2.909   5.831
 6873SOL    HW121518   5.828   2.898   5.741
 6873SOL    HW221519   5.769   3.007   5.849
 6874SOL     OW21520   6.967   2.969   3.836
 6874SOL    HW121521   6.979   2.986   3.934
 6874SOL    HW221522   0.026   2.934   3.797
 6875SOL     OW21523   1.432   1.800   2.770
 6875SOL    HW121524   1.482   1.753   2.843
 6875SOL    HW221525   1.481   1.883   2.744
 6876SOL     OW21526   3.392   5.600   0.072
 6876SOL    HW121527   3.401   5.675   0.006
 6876SOL    HW221528   3.461   5.531   0.054
 6877SOL     OW21529   2.314   3.850   6.651
 6877SOL    HW121530   2.320   3.846   6.751
 6877SOL    HW221531   2.297   3.944   6.622
 6878SOL     OW21532   2.085   1.728   5.581
 6878SOL    HW121533   2.159   1.732   5.514
 6878SOL    HW221534   2.025   1.807   5.570
 6879SOL     OW21535   0.084   2.116   6.338
 6879SOL    HW121536   7.022   2.142   6.298
 6879SOL    HW221537   0.144   2.196   6.341
 6880SOL     OW21538   2.088   4.050   5.173
 6880SOL    HW121539   2.007   4.076   5.121
 6880SOL    HW221540   2.159   4.018   5.111
 6881SOL     OW21541   7.021   4.452   1.570
 6881SOL    HW121542   6.922   4.462   1.571
 6881SOL    HW221543   0.028   4.459   1.476
 6882SOL     OW21544   1.708   1.105   4.894
 6882SOL    HW121545   1.789   1.141   4.940
 6882SOL    HW221546   1.651   1.181   4.863
 6883SOL     OW21547   3.699   6.893   1.576
 6883SOL    HW121548   3.621   6.848   1.531
 6883SOL    HW221549   3.684   6.992   1.575
 6884SOL     OW21550   2.307   4.332   4.755
 6884SOL    HW121551   2.216   4.297   4.777
 6884SOL    HW221552   2.348   4.274   4.685
 6885SOL     OW21553   2.728   6.256   3.378
 6885SOL    HW121554   2.764   6.172   3.336
 6885SOL    HW221555   2.712   6.324   3.306
 6886SOL     OW21556   5.183   0.996   2.535
 6886SOL    HW121557   5.155   1.030   2.445
 6886SOL    HW221558   5.203   1.073   2.595
 6887SOL     OW21559   6.208   0.336   5.259
 6887SOL    HW121560   6.291   0.370   5.214
 6887SOL    HW221561   6.141   0.309   5.189
 6888SOL     OW21562   6.178   0.544   4.945
 6888SOL    HW121563   6.154   0.449   4.923
 6888SOL    HW221564   6.219   0.587   4.864
 6889SOL     OW21565   0.883   2.804   6.109
 6889SOL    HW121566   0.941   2.884   6.126
 6889SOL    HW221567   0.791   2.822   6.144
 6890SOL     OW21568   2.562   0.553   1.139
 6890SOL    HW121569   2.528   0.499   1.062
 6890SOL    HW221570   2.629   0.499   1.190
 6891SOL     OW21571   2.167   3.812   4.378
 6891SOL    HW121572   2.166   3.768   4.467
 6891SOL    HW221573   2.196   3.746   4.308
 6892SOL     OW21574   3.915   0.225   4.090
 6892SOL    HW121575   3.820   0.196   4.096
 6892SOL    HW221576   3.975   0.148   4.112
 6893SOL     OW21577   5.158   5.896   3.219
 6893SOL    HW121578   5.239   5.880   3.276
 6893SOL    HW221579   5.111   5.979   3.250
 6894SOL     OW21580   6.185   5.817   0.014
 6894SOL    HW121581   6.207   5.913   0.028
 6894SOL    HW221582   6.108   5.809   6.976
 6895SOL     OW21583   2.565   3.894   0.380
 6895SOL    HW121584   2.614   3.867   0.297
 6895SOL    HW221585   2.607   3.850   0.459
 6896SOL     OW21586   3.486   1.006   3.500
 6896SOL    HW121587   3.561   1.069   3.477
 6896SOL    HW221588   3.520   0.912   3.494
 6897SOL     OW21589   2.863   3.467   0.415
 6897SOL    HW121590   2.777   3.455   0.364
 6897SOL    HW221591   2.842   3.500   0.507
 6898SOL     OW21592   4.191   0.736   2.018
 6898SOL    HW121593   4.118   0.781   2.069
 6898SOL    HW221594   4.153   0.690   1.938
 6899SOL     OW21595   5.409   0.017   6.089
 6899SOL    HW121596   5.323   0.061   6.112
 6899SOL    HW221597   5.485   0.067   6.132
 6900SOL     OW21598   5.307   1.020   5.855
 6900SOL    HW121599   5.284   0.926   5.878
 6900SOL    HW221600   5.252   1.083   5.911
 6901SOL     OW21601   1.180   0.114   6.438
 6901SOL    HW121602   1.202   0.177   6.363
 6901SOL    HW221603   1.086   0.128   6.468
 6902SOL     OW21604   0.827   6.988   0.014
 6902SOL    HW121605   0.743   7.011   6.990
 6902SOL    HW221606   0.902   0.019   7.007
 6903SOL     OW21607   3.556   3.431   0.489
 6903SOL    HW121608   3.580   3.350   0.435
 6903SOL    HW221609   3.484   3.482   0.442
 6904SOL     OW21610   6.685   0.703   3.894
 6904SOL    HW121611   6.657   0.636   3.962
 6904SOL    HW221612   6.675   0.665   3.802
 6905SOL     OW21613   6.454   6.349   0.918
 6905SOL    HW121614   6.510   6.428   0.895
 6905SOL    HW221615   6.420   6.357   1.012
 6906SOL     OW21616   3.876   0.971   4.068
 6906SOL    HW121617   3.842   0.877   4.061
 6906SOL    HW221618   3.851   1.022   3.986
 6907SOL     OW21619   3.819   1.002   1.447
 6907SOL    HW121620   3.787   1.029   1.537
 6907SOL    HW221621   3.751   1.026   1.378
 6908SOL     OW21622   1.400   7.005   5.402
 6908SOL    HW121623   1.308   0.015   5.386
 6908SOL    HW221624   1.408   6.972   5.496
 6909SOL     OW21625   4.414   4.858   0.956
 6909SOL    HW121626   4.369   4.884   1.041
 6909SOL    HW221627   4.350   4.867   0.880
 6910SOL     OW21628   6.504   1.477   2.319
 6910SOL    HW121629   6.523   1.570   2.286
 6910SOL    HW221630   6.520   1.412   2.245
 6911SOL     OW21631   4.323   0.264   3.906
 6911SOL    HW121632   4.355   0.307   3.990
 6911SOL    HW221633   4.267   0.329   3.854
 6912SOL     OW21634   4.864   4.968   1.228
 6912SOL    HW121635   4.792   4.984   1.161
 6912SOL    HW221636   4.953   4.986   1.187
 6913SOL     OW21637   4.783   4.613   4.562
 6913SOL    HW121638   4.864   4.565   4.529
 6913SOL    HW221639   4.767   4.693   4.504
 6914SOL     OW21640   6.168   5.632   6.583
 6914SOL    HW121641   6.245   5.694   6.565
 6914SOL    HW221642   6.103   5.637   6.508
 6915SOL     OW21643   0.564   4.771   2.642
 6915SOL    HW121644   0.521   4.682   2.660
 6915SOL    HW221645   0.662   4.765   2.662
 6916SOL     OW21646   6.535   4.442   6.731
 6916SOL    HW121647   6.438   4.465   6.739
 6916SOL    HW221648   6.545   4.344   6.716
 6917SOL     OW21649   4.338   6.053   5.986
 6917SOL    HW121650   4.346   6.151   5.970
 6917SOL    HW221651   4.276   6.037   6.063
 6918SOL     OW21652   0.603   3.814   4.021
 6918SOL    HW121653   0.639   3.810   3.928
 6918SOL    HW221654   0.517   3.763   4.026
 6919SOL     OW21655   1.963   6.172   2.275
 6919SOL    HW121656   1.899   6.162   2.198
 6919SOL    HW221657   1.919   6.224   2.348
 6920SOL     OW21658   5.038   5.035   4.827
 6920SOL    HW121659   4.951   5.005   4.866
 6920SOL    HW221660   5.020   5.085   4.742
 6921SOL     OW21661   5.873   5.957   3.283
 6921SOL    HW121662   5.901   5.923   3.373
 6921SOL    HW221663   5.896   5.890   3.213
 6922SOL     OW21664   2.012   6.098   6.593
 6922SOL    HW121665   1.936   6.089   6.658
 6922SOL    HW221666   1.998   6.036   6.517
 6923SOL     OW21667   4.329   6.616   3.688
 6923SOL    HW121668   4.410   6.667   3.716
 6923SOL    HW221669   4.286   6.575   3.769
 6924SOL     OW21670   0.896   4.920   0.212
 6924SOL    HW121671   0.888   4.824   0.237
 6924SOL    HW221672   0.820   4.972   0.250
 6925SOL     OW21673   4.027   6.032   3.699
 6925SOL    HW121674   3.943   6.056   3.651
 6925SOL    HW221675   4.025   5.935   3.723
 6926SOL     OW21676   3.874   3.603   3.543
 6926SOL    HW121677   3.896   3.693   3.506
 6926SOL    HW221678   3.862   3.538   3.468
 6927SOL     OW21679   4.908   3.875   6.536
 6927SOL    HW121680   4.939   3.779   6.540
 6927SOL    HW221681   4.873   3.895   6.445
 6928SOL     OW21682   4.338   0.210   6.433
 6928SOL    HW121683   4.340   0.221   6.533
 6928SOL    HW221684   4.341   0.299   6.389
 6929SOL     OW21685   4.884   6.214   6.692
 6929SOL    HW121686   4.892   6.160   6.608
 6929SOL    HW221687   4.803   6.186   6.743
 6930SOL     OW21688   0.398   6.504   2.080
 6930SOL    HW121689   0.451   6.532   2.000
 6930SOL    HW221690   0.450   6.437   2.132
 6931SOL     OW21691   0.680   0.048   1.583
 6931SOL    HW121692   0.749   0.088   1.522
 6931SOL    HW221693   0.633   0.120   1.633
 6932SOL     OW21694   2.841   1.026   6.687
 6932SOL    HW121695   2.933   1.012   6.724
 6932SOL    HW221696   2.801   1.108   6.728
 6933SOL     OW21697   3.443   5.586   4.975
 6933SOL    HW121698   3.462   5.488   4.967
 6933SOL    HW221699   3.345   5.602   4.964
 6934SOL     OW21700   5.250   2.780   0.121
 6934SOL    HW121701   5.335   2.784   0.068
 6934SOL    HW221702   5.239   2.689   0.160
 6935SOL     OW21703   4.079   6.145   3.430
 6935SOL    HW121704   4.033   6.216   3.483
 6935SOL    HW221705   4.018   6.067   3.418
 6936SOL     OW21706   0.226   2.175   2.322
 6936SOL    HW121707   0.204   2.217   2.234
 6936SOL    HW221708   0.184   2.228   2.395
 6937SOL     OW21709   4.185   6.279   5.876
 6937SOL    HW121710   4.256   6.330   5.828
 6937SOL    HW221711   4.178   6.310   5.971
 6938SOL     OW21712   5.099   3.566   6.033
 6938SOL    HW121713   5.000   3.565   6.043
 6938SOL    HW221714   5.124   3.573   5.937
 6939SOL     OW21715   0.140   4.716   2.322
 6939SOL    HW121716   0.156   4.661   2.404
 6939SOL    HW221717   0.213   4.699   2.256
 6940SOL     OW21718   4.956   0.646   6.992
 6940SOL    HW121719   4.869   0.687   7.019
 6940SOL    HW221720   5.030   0.712   7.004
 6941SOL     OW21721   3.026   3.161   2.311
 6941SOL    HW121722   3.033   3.168   2.211
 6941SOL    HW221723   3.074   3.079   2.342
 6942SOL     OW21724   0.450   2.476   0.521
 6942SOL    HW121725   0.371   2.430   0.560
 6942SOL    HW221726   0.488   2.540   0.588
 6943SOL     OW21727   5.368   6.252   6.056
 6943SOL    HW121728   5.362   6.339   6.106
 6943SOL    HW221729   5.287   6.241   5.999
 6944SOL     OW21730   1.386   5.924   5.766
 6944SOL    HW121731   1.418   5.836   5.801
 6944SOL    HW221732   1.314   5.909   5.699
 6945SOL     OW21733   6.126   3.289   6.293
 6945SOL    HW121734   6.047   3.283   6.354
 6945SOL    HW221735   6.098   3.326   6.205
 6946SOL     OW21736   6.099   4.668   2.425
 6946SOL    HW121737   6.047   4.639   2.505
 6946SOL    HW221738   6.055   4.633   2.342
 6947SOL     OW21739   3.917   0.050   3.398
 6947SOL    HW121740   3.953   6.982   3.400
 6947SOL    HW221741   3.991   0.114   3.414
 6948SOL     OW21742   4.677   0.462   0.571
 6948SOL    HW121743   4.712   0.431   0.660
 6948SOL    HW221744   4.622   0.390   0.530
 6949SOL     OW21745   4.671   6.449   3.237
 6949SOL    HW121746   4.701   6.502   3.158
 6949SOL    HW221747   4.746   6.442   3.303
 6950SOL     OW21748   2.002   0.538   3.051
 6950SOL    HW121749   1.925   0.474   3.055
 6950SOL    HW221750   2.076   0.506   3.109
 6951SOL     OW21751   6.483   6.433   6.099
 6951SOL    HW121752   6.420   6.510   6.089
 6951SOL    HW221753   6.564   6.448   6.042
 6952SOL     OW21754   0.198   5.053   3.415
 6952SOL    HW121755   0.153   5.014   3.495
 6952SOL    HW221756   0.187   5.153   3.415
 6953SOL     OW21757   5.136   1.169   5.991
 6953SOL    HW121758   5.056   1.175   5.930
 6953SOL    HW221759   5.106   1.178   6.086
 6954SOL     OW21760   0.593   2.960   3.910
 6954SOL    HW121761   0.598   2.865   3.941
 6954SOL    HW221762   0.675   3.009   3.941
 6955SOL     OW21763   0.290   6.840   1.717
 6955SOL    HW121764   0.339   6.911   1.768
 6955SOL    HW221765   0.204   6.877   1.682
 6956SOL     OW21766   4.456   5.461   1.990
 6956SOL    HW121767   4.496   5.545   1.952
 6956SOL    HW221768   4.518   5.423   2.059
 6957SOL     OW21769   6.766   4.653   1.885
 6957SOL    HW121770   6.837   4.661   1.815
 6957SOL    HW221771   6.747   4.556   1.902
 6958SOL     OW21772   2.169   2.227   6.110
 6958SOL    HW121773   2.107   2.293   6.066
 6958SOL    HW221774   2.115   2.150   6.145
 6959SOL     OW21775   3.369   1.647   4.864
 6959SOL    HW121776   3.383   1.569   4.926
 6959SOL    HW221777   3.452   1.701   4.859
 6960SOL     OW21778   7.001   5.027   0.016
 6960SOL    HW121779   6.988   4.984   6.953
 6960SOL    HW221780   0.053   5.090   0.012
 6961SOL     OW21781   0.331   2.425   3.727
 6961SOL    HW121782   0.424   2.438   3.692
 6961SOL    HW221783   0.335   2.386   3.819
 6962SOL     OW21784   5.322   5.755   2.738
 6962SOL    HW121785   5.367   5.844   2.739
 6962SOL    HW221786   5.306   5.724   2.832
 6963SOL     OW21787   0.020   5.207   1.546
 6963SOL    HW121788   0.058   5.185   1.636
 6963SOL    HW221789   7.006   5.298   1.549
 6964SOL     OW21790   4.809   4.959   5.143
 6964SOL    HW121791   4.839   4.904   5.065
 6964SOL    HW221792   4.710   4.952   5.152
 6965SOL     OW21793   6.542   3.228   6.120
 6965SOL    HW121794   6.550   3.155   6.052
 6965SOL    HW221795   6.571   3.193   6.209
 6966SOL     OW21796   5.448   2.679   2.603
 6966SOL    HW121797   5.518   2.692   2.533
 6966SOL    HW221798   5.462   2.746   2.676
 6967SOL     OW21799   1.593   2.005   5.718
 6967SOL    HW121800   1.517   1.953   5.758
 6967SOL    HW221801   1.628   2.069   5.786
 6968SOL     OW21802   4.482   6.095   1.087
 6968SOL    HW121803   4.393   6.050   1.074
 6968SOL    HW221804   4.473   6.193   1.067
 6969SOL     OW21805   4.138   1.448   1.736
 6969SOL    HW121806   4.160   1.545   1.747
 6969SOL    HW221807   4.124   1.406   1.826
 6970SOL     OW21808   4.225   4.251   0.801
 6970SOL    HW121809   4.170   4.169   0.783
 6970SOL    HW221810   4.172   4.315   0.856
 6971SOL     OW21811   6.486   2.569   1.596
 6971SOL    HW121812   6.578   2.608   1.598
 6971SOL    HW221813   6.420   2.639   1.625
 6972SOL     OW21814   5.231   4.334   4.194
 6972SOL    HW121815   5.151   4.353   4.137
 6972SOL    HW221816   5.254   4.415   4.247
 6973SOL     OW21817   1.891   4.336   4.855
 6973SOL    HW121818   1.978   4.288   4.850
 6973SOL    HW221819   1.863   4.363   4.762
 6974SOL     OW21820   3.809   3.395   3.382
 6974SOL    HW121821   3.713   3.376   3.398
 6974SOL    HW221822   3.865   3.326   3.428
 6975SOL     OW21823   3.248   0.024   5.404
 6975SOL    HW121824   3.347   0.037   5.396
 6975SOL    HW221825   3.205   0.112   5.425
 6976SOL     OW21826   3.347   4.741   6.735
 6976SOL    HW121827   3.360   4.674   6.661
 6976SOL    HW221828   3.420   4.809   6.731
 6977SOL     OW21829   4.893   1.757   1.960
 6977SOL    HW121830   4.804   1.763   2.004
 6977SOL    HW221831   4.958   1.816   2.008
 6978SOL     OW21832   6.786   0.665   1.903
 6978SOL    HW121833   6.826   0.589   1.954
 6978SOL    HW221834   6.796   0.647   1.805
 6979SOL     OW21835   1.138   5.278   1.989
 6979SOL    HW121836   1.194   5.306   1.911
 6979SOL    HW221837   1.108   5.184   1.976
 6980SOL     OW21838   2.339   0.544   3.451
 6980SOL    HW121839   2.266   0.602   3.485
 6980SOL    HW221840   2.308   0.449   3.446
 6981SOL     OW21841   2.743   4.263   6.763
 6981SOL    HW121842   2.687   4.240   6.843
 6981SOL    HW221843   2.706   4.217   6.682
 6982SOL     OW21844   1.483   0.932   3.887
 6982SOL    HW121845   1.389   0.898   3.896
 6982SOL    HW221846   1.527   0.933   3.977
 6983SOL     OW21847   0.357   0.837   4.392
 6983SOL    HW121848   0.437   0.839   4.331
 6983SOL    HW221849   0.301   0.757   4.371
 6984SOL     OW21850   2.270   1.716   5.334
 6984SOL    HW121851   2.241   1.626   5.302
 6984SOL    HW221852   2.289   1.775   5.256
 6985SOL     OW21853   3.947   5.563   2.341
 6985SOL    HW121854   3.876   5.634   2.352
 6985SOL    HW221855   3.912   5.491   2.281
 6986SOL     OW21856   2.289   6.343   5.883
 6986SOL    HW121857   2.329   6.257   5.912
 6986SOL    HW221858   2.194   6.348   5.914
 6987SOL     OW21859   0.268   1.957   6.148
 6987SOL    HW121860   0.218   1.990   6.228
 6987SOL    HW221861   0.212   1.890   6.099
 6988SOL     OW21862   5.482   1.370   4.456
 6988SOL    HW121863   5.432   1.313   4.521
 6988SOL    HW221864   5.527   1.445   4.505
 6989SOL     OW21865   0.835   1.780   3.497
 6989SOL    HW121866   0.820   1.874   3.530
 6989SOL    HW221867   0.750   1.745   3.458
 6990SOL     OW21868   5.000   1.944   0.000
 6990SOL    HW121869   4.976   1.910   0.091
 6990SOL    HW221870   4.944   2.025   7.005
 6991SOL     OW21871   2.520   4.575   4.991
 6991SOL    HW121872   2.482   4.645   5.052
 6991SOL    HW221873   2.613   4.553   5.020
 6992SOL     OW21874   6.155   6.155   4.537
 6992SOL    HW121875   6.165   6.059   4.566
 6992SOL    HW221876   6.160   6.214   4.617
 6993SOL     OW21877   5.949   6.546   3.447
 6993SOL    HW121878   6.020   6.586   3.505
 6993SOL    HW221879   5.975   6.555   3.351
 6994SOL     OW21880   0.955   3.785   5.659
 6994SOL    HW121881   1.054   3.797   5.669
 6994SOL    HW221882   0.936   3.734   5.575
 6995SOL     OW21883   6.148   5.180   4.895
 6995SOL    HW121884   6.215   5.120   4.851
 6995SOL    HW221885   6.068   5.190   4.837
 6996SOL     OW21886   2.942   0.678   5.086
 6996SOL    HW121887   2.902   0.595   5.047
 6996SOL    HW221888   2.900   0.758   5.045
 6997SOL     OW21889   5.013   6.375   5.185
 6997SOL    HW121890   4.989   6.352   5.091
 6997SOL    HW221891   4.931   6.369   5.243
 6998SOL     OW21892   1.631   2.985   1.593
 6998SOL    HW121893   1.697   3.059   1.578
 6998SOL    HW221894   1.629   2.926   1.512
 6999SOL     OW21895   2.257   1.606   6.469
 6999SOL    HW121896   2.204   1.547   6.408
 6999SOL    HW221897   2.298   1.680   6.416
 7000SOL     OW21898   0.520   6.093   2.708
 7000SOL    HW121899   0.517   6.071   2.610
 7000SOL    HW221900   0.507   6.009   2.761
 7001SOL     OW21901   2.577   2.648   5.792
 7001SOL    HW121902   2.494   2.634   5.847
 7001SOL    HW221903   2.612   2.560   5.762
 7002SOL     OW21904   2.721   4.830   3.511
 7002SOL    HW121905   2.723   4.780   3.598
 7002SOL    HW221906   2.657   4.785   3.448
 7003SOL     OW21907   3.019   0.207   0.014
 7003SOL    HW121908   2.947   0.153   6.997
 7003SOL    HW221909   3.004   0.304   7.021
 7004SOL     OW21910   2.168   4.184   1.711
 7004SOL    HW121911   2.186   4.114   1.780
 7004SOL    HW221912   2.130   4.141   1.629
 7005SOL     OW21913   6.846   6.243   5.560
 7005SOL    HW121914   6.869   6.318   5.623
 7005SOL    HW221915   6.857   6.156   5.606
 7006SOL     OW21916   5.046   4.254   5.152
 7006SOL    HW121917   5.099   4.227   5.072
 7006SOL    HW221918   5.106   4.262   5.231
 7007SOL     OW21919   4.877   6.674   3.322
 7007SOL    HW121920   4.794   6.687   3.375
 7007SOL    HW221921   4.856   6.629   3.235
 7008SOL     OW21922   2.418   4.906   4.389
 7008SOL    HW121923   2.477   4.840   4.342
 7008SOL    HW221924   2.464   4.940   4.471
 7009SOL     OW21925   6.442   5.034   2.518
 7009SOL    HW121926   6.479   4.993   2.601
 7009SOL    HW221927   6.395   4.964   2.465
 7010SOL     OW21928   3.828   4.914   6.127
 7010SOL    HW121929   3.757   4.908   6.056
 7010SOL    HW221930   3.918   4.918   6.083
 7011SOL     OW21931   1.525   6.842   4.932
 7011SOL    HW121932   1.433   6.861   4.897
 7011SOL    HW221933   1.530   6.869   5.029
 7012SOL     OW21934   1.239   0.516   1.953
 7012SOL    HW121935   1.337   0.522   1.935
 7012SOL    HW221936   1.220   0.436   2.010
 7013SOL     OW21937   0.793   6.617   1.056
 7013SOL    HW121938   0.856   6.651   0.987
 7013SOL    HW221939   0.843   6.563   1.124
 7014SOL     OW21940   4.371   3.899   1.257
 7014SOL    HW121941   4.428   3.857   1.186
 7014SOL    HW221942   4.321   3.976   1.217
 7015SOL     OW21943   5.844   3.966   1.813
 7015SOL    HW121944   5.922   3.915   1.850
 7015SOL    HW221945   5.811   4.030   1.882
 7016SOL     OW21946   4.324   5.026   2.092
 7016SOL    HW121947   4.348   5.074   2.008
 7016SOL    HW221948   4.371   5.069   2.169
 7017SOL     OW21949   2.247   1.333   2.728
 7017SOL    HW121950   2.173   1.267   2.716
 7017SOL    HW221951   2.212   1.425   2.712
 7018SOL     OW21952   6.981   4.040   4.929
 7018SOL    HW121953   6.889   4.078   4.917
 7018SOL    HW221954   0.013   4.068   4.852
 7019SOL     OW21955   2.596   4.927   6.771
 7019SOL    HW121956   2.595   4.846   6.829
 7019SOL    HW221957   2.684   4.934   6.725
 7020SOL     OW21958   5.359   6.847   0.513
 7020SOL    HW121959   5.335   6.752   0.533
 7020SOL    HW221960   5.398   6.853   0.421
 7021SOL     OW21961   2.851   0.881   4.947
 7021SOL    HW121962   2.828   0.857   4.853
 7021SOL    HW221963   2.799   0.961   4.974
 7022SOL     OW21964   5.235   3.811   0.541
 7022SOL    HW121965   5.195   3.733   0.590
 7022SOL    HW221966   5.311   3.848   0.593
 7023SOL     OW21967   6.506   2.288   3.180
 7023SOL    HW121968   6.602   2.317   3.189
 7023SOL    HW221969   6.501   2.209   3.119
 7024SOL     OW21970   1.848   5.683   6.155
 7024SOL    HW121971   1.835   5.586   6.173
 7024SOL    HW221972   1.942   5.700   6.126
 7025SOL     OW21973   3.158   1.677   6.318
 7025SOL    HW121974   3.161   1.577   6.306
 7025SOL    HW221975   3.221   1.720   6.254
 7026SOL     OW21976   2.755   1.374   1.813
 7026SOL    HW121977   2.775   1.358   1.716
 7026SOL    HW221978   2.818   1.320   1.869
 7027SOL     OW21979   3.861   6.030   3.237
 7027SOL    HW121980   3.958   6.026   3.213
 7027SOL    HW221981   3.817   6.104   3.186
 7028SOL     OW21982   5.258   6.697   4.534
 7028SOL    HW121983   5.296   6.634   4.601
 7028SOL    HW221984   5.212   6.645   4.462
 7029SOL     OW21985   3.747   6.312   6.866
 7029SOL    HW121986   3.698   6.227   6.883
 7029SOL    HW221987   3.686   6.390   6.881
 7030SOL     OW21988   0.548   3.596   5.650
 7030SOL    HW121989   0.554   3.656   5.570
 7030SOL    HW221990   0.630   3.539   5.654
 7031SOL     OW21991   2.300   5.761   3.850
 7031SOL    HW121992   2.318   5.735   3.945
 7031SOL    HW221993   2.205   5.741   3.827
 7032SOL     OW21994   4.282   0.292   3.229
 7032SOL    HW121995   4.371   0.265   3.192
 7032SOL    HW221996   4.230   0.340   3.159
 7033SOL     OW21997   6.582   1.170   4.195
 7033SOL    HW121998   6.647   1.241   4.220
 7033SOL    HW221999   6.623   1.107   4.129
 7034SOL     OW22000   5.535   0.394   2.554
 7034SOL    HW122001   5.487   0.352   2.632
 7034SOL    HW222002   5.482   0.380   2.471
 7035SOL     OW22003   1.009   6.794   2.648
 7035SOL    HW122004   1.037   6.722   2.584
 7035SOL    HW222005   0.924   6.837   2.616
 7036SOL     OW22006   6.494   5.952   1.706
 7036SOL    HW122007   6.550   5.883   1.661
 7036SOL    HW222008   6.427   5.988   1.641
 7037SOL     OW22009   0.436   6.589   6.066
 7037SOL    HW122010   0.371   6.664   6.058
 7037SOL    HW222011   0.402   6.510   6.015
 7038SOL     OW22012   1.653   3.955   4.348
 7038SOL    HW122013   1.626   3.931   4.441
 7038SOL    HW222014   1.593   4.027   4.314
 7039SOL     OW22015   3.277   6.793   0.144
 7039SOL    HW122016   3.280   6.703   0.187
 7039SOL    HW222017   3.237   6.859   0.208
 7040SOL     OW22018   4.858   2.814   6.032
 7040SOL    HW122019   4.877   2.727   6.078
 7040SOL    HW222020   4.759   2.826   6.023
 7041SOL     OW22021   1.118   1.845   3.362
 7041SOL    HW122022   1.138   1.771   3.298
 7041SOL    HW222023   1.024   1.835   3.396
 7042SOL     OW22024   4.914   4.984   6.537
 7042SOL    HW122025   4.878   5.061   6.485
 7042SOL    HW222026   4.845   4.912   6.543
 7043SOL     OW22027   2.157   3.063   3.304
 7043SOL    HW122028   2.232   3.005   3.270
 7043SOL    HW222029   2.141   3.137   3.239
 7044SOL     OW22030   4.788   4.581   3.280
 7044SOL    HW122031   4.716   4.524   3.320
 7044SOL    HW222032   4.800   4.556   3.183
 7045SOL     OW22033   4.677   6.704   0.859
 7045SOL    HW122034   4.667   6.727   0.956
 7045SOL    HW222035   4.710   6.784   0.809
 7046SOL     OW22036   3.664   1.988   4.013
 7046SOL    HW122037   3.727   1.913   4.033
 7046SOL    HW222038   3.707   2.050   3.947
 7047SOL     OW22039   1.053   2.292   3.082
 7047SOL    HW122040   1.102   2.236   3.149
 7047SOL    HW222041   1.119   2.335   3.020
 7048SOL     OW22042   1.206   5.733   0.932
 7048SOL    HW122043   1.157   5.819   0.914
 7048SOL    HW222044   1.265   5.745   1.012
 7049SOL     OW22045   2.359   0.778   0.774
 7049SOL    HW122046   2.420   0.714   0.729
 7049SOL    HW222047   2.297   0.818   0.707
 7050SOL     OW22048   3.448   4.154   3.711
 7050SOL    HW122049   3.485   4.246   3.723
 7050SOL    HW222050   3.429   4.139   3.614
 7051SOL     OW22051   6.959   0.307   1.157
 7051SOL    HW122052   6.977   0.243   1.083
 7051SOL    HW222053   6.998   0.396   1.136
 7052SOL     OW22054   6.741   2.121   4.705
 7052SOL    HW122055   6.757   2.090   4.611
 7052SOL    HW222056   6.823   2.105   4.760
 7053SOL     OW22057   0.299   3.329   6.824
 7053SOL    HW122058   0.201   3.337   6.841
 7053SOL    HW222059   0.348   3.403   6.869
 7054SOL     OW22060   0.768   6.185   1.291
 7054SOL    HW122061   0.812   6.116   1.349
 7054SOL    HW222062   0.708   6.141   1.226
 7055SOL     OW22063   4.311   6.440   5.700
 7055SOL    HW122064   4.309   6.431   5.600
 7055SOL    HW222065   4.309   6.537   5.725
 7056SOL     OW22066   5.426   5.081   3.636
 7056SOL    HW122067   5.332   5.067   3.604
 7056SOL    HW222068   5.454   5.005   3.694
 7057SOL     OW22069   0.904   3.867   4.929
 7057SOL    HW122070   0.856   3.953   4.916
 7057SOL    HW222071   0.841   3.799   4.966
 7058SOL     OW22072   0.114   5.496   5.665
 7058SOL    HW122073   0.061   5.562   5.718
 7058SOL    HW222074   0.053   5.429   5.624
 7059SOL     OW22075   0.313   0.393   2.004
 7059SOL    HW122076   0.234   0.370   2.061
 7059SOL    HW222077   0.354   0.309   1.968
 7060SOL     OW22078   3.342   0.144   1.780
 7060SOL    HW122079   3.242   0.152   1.776
 7060SOL    HW222080   3.381   0.234   1.799
 7061SOL     OW22081   0.187   2.258   3.570
 7061SOL    HW122082   0.229   2.331   3.624
 7061SOL    HW222083   0.254   2.186   3.553
 7062SOL     OW22084   5.710   1.654   5.760
 7062SOL    HW122085   5.630   1.650   5.821
 7062SOL    HW222086   5.737   1.750   5.748
 7063SOL     OW22087   1.334   6.310   0.674
 7063SOL    HW122088   1.316   6.408   0.664
 7063SOL    HW222089   1.269   6.270   0.739
 7064SOL     OW22090   4.413   2.430   1.517
 7064SOL    HW122091   4.462   2.517   1.530
 7064SOL    HW222092   4.354   2.413   1.596
 7065SOL     OW22093   5.015   4.080   0.964
 7065SOL    HW122094   4.996   4.155   1.027
 7065SOL    HW222095   5.107   4.088   0.928
 7066SOL     OW22096   3.744   0.680   0.574
 7066SOL    HW122097   3.649   0.649   0.577
 7066SOL    HW222098   3.779   0.671   0.481
 7067SOL     OW22099   0.943   3.107   5.588
 7067SOL    HW122100   0.884   3.026   5.583
 7067SOL    HW222101   0.995   3.105   5.673
 7068SOL     OW22102   0.855   3.383   2.694
 7068SOL    HW122103   0.908   3.387   2.779
 7068SOL    HW222104   0.832   3.476   2.665
 7069SOL     OW22105   6.496   3.184   4.520
 7069SOL    HW122106   6.568   3.247   4.492
 7069SOL    HW222107   6.435   3.229   4.585
 7070SOL     OW22108   6.815   5.263   5.300
 7070SOL    HW122109   6.779   5.309   5.218
 7070SOL    HW222110   6.798   5.165   5.293
 7071SOL     OW22111   0.320   6.766   5.352
 7071SOL    HW122112   0.358   6.674   5.352
 7071SOL    HW222113   0.250   6.773   5.281
 7072SOL     OW22114   0.001   0.167   6.129
 7072SOL    HW122115   7.010   0.218   6.214
 7072SOL    HW222116   0.084   0.201   6.086
 7073SOL     OW22117   6.946   0.967   4.594
 7073SOL    HW122118   0.018   0.986   4.591
 7073SOL    HW222119   6.910   0.991   4.685
 7074SOL     OW22120   3.597   2.923   2.345
 7074SOL    HW122121   3.586   2.949   2.441
 7074SOL    HW222122   3.544   2.985   2.287
 7075SOL     OW22123   1.331   6.414   4.430
 7075SOL    HW122124   1.377   6.429   4.518
 7075SOL    HW222125   1.301   6.319   4.424
 7076SOL     OW22126   3.641   1.748   0.209
 7076SOL    HW122127   3.572   1.802   0.161
 7076SOL    HW222128   3.723   1.803   0.224
 7077SOL     OW22129   2.352   5.615   5.512
 7077SOL    HW122130   2.339   5.690   5.446
 7077SOL    HW222131   2.280   5.546   5.499
 7078SOL     OW22132   6.437   0.190   2.312
 7078SOL    HW122133   6.357   0.140   2.281
 7078SOL    HW222134   6.464   0.157   2.403
 7079SOL     OW22135   6.596   6.660   5.896
 7079SOL    HW122136   6.513   6.694   5.940
 7079SOL    HW222137   6.574   6.579   5.841
 7080SOL     OW22138   4.379   2.100   3.975
 7080SOL    HW122139   4.401   2.120   3.880
 7080SOL    HW222140   4.390   2.002   3.992
 7081SOL     OW22141   3.864   1.030   5.368
 7081SOL    HW122142   3.938   1.006   5.431
 7081SOL    HW222143   3.903   1.077   5.288
 7082SOL     OW22144   5.469   6.318   0.242
 7082SOL    HW122145   5.374   6.320   0.213
 7082SOL    HW222146   5.474   6.311   0.342
 7083SOL     OW22147   3.514   1.232   6.187
 7083SOL    HW122148   3.559   1.315   6.155
 7083SOL    HW222149   3.457   1.195   6.114
 7084SOL     OW22150   6.887   6.746   5.307
 7084SOL    HW122151   6.814   6.809   5.333
 7084SOL    HW222152   6.847   6.668   5.258
 7085SOL     OW22153   1.751   1.173   3.301
 7085SOL    HW122154   1.664   1.155   3.253
 7085SOL    HW222155   1.758   1.270   3.321
 7086SOL     OW22156   5.409   1.254   6.185
 7086SOL    HW122157   5.421   1.309   6.103
 7086SOL    HW222158   5.362   1.308   6.255
 7087SOL     OW22159   0.675   3.222   4.379
 7087SOL    HW122160   0.710   3.148   4.323
 7087SOL    HW222161   0.750   3.283   4.405
 7088SOL     OW22162   4.851   3.041   4.071
 7088SOL    HW122163   4.771   2.981   4.074
 7088SOL    HW222164   4.933   2.985   4.059
 7089SOL     OW22165   3.225   2.894   6.418
 7089SOL    HW122166   3.164   2.819   6.440
 7089SOL    HW222167   3.319   2.871   6.445
 7090SOL     OW22168   2.306   1.310   5.547
 7090SOL    HW122169   2.325   1.335   5.452
 7090SOL    HW222170   2.386   1.328   5.603
 7091SOL     OW22171   6.804   1.620   6.423
 7091SOL    HW122172   6.796   1.718   6.405
 7091SOL    HW222173   6.873   1.604   6.493
 7092SOL     OW22174   4.270   3.129   0.302
 7092SOL    HW122175   4.250   3.225   0.323
 7092SOL    HW222176   4.338   3.094   0.367
 7093SOL     OW22177   3.509   3.850   4.027
 7093SOL    HW122178   3.426   3.890   4.067
 7093SOL    HW222179   3.586   3.912   4.041
 7094SOL     OW22180   0.583   6.537   5.590
 7094SOL    HW122181   0.508   6.511   5.529
 7094SOL    HW222182   0.645   6.459   5.601
 7095SOL     OW22183   2.751   2.710   0.353
 7095SOL    HW122184   2.710   2.800   0.349
 7095SOL    HW222185   2.752   2.677   0.447
 7096SOL     OW22186   5.827   1.540   3.635
 7096SOL    HW122187   5.820   1.443   3.612
 7096SOL    HW222188   5.858   1.591   3.555
 7097SOL     OW22189   6.845   0.508   1.652
 7097SOL    HW122190   6.918   0.445   1.622
 7097SOL    HW222191   6.757   0.472   1.623
 7098SOL     OW22192   1.260   6.345   4.938
 7098SOL    HW122193   1.178   6.370   4.887
 7098SOL    HW222194   1.284   6.250   4.918
 7099SOL     OW22195   1.413   1.011   4.615
 7099SOL    HW122196   1.393   1.027   4.518
 7099SOL    HW222197   1.487   0.945   4.623
 7100SOL     OW22198   5.491   3.335   1.296
 7100SOL    HW122199   5.515   3.414   1.352
 7100SOL    HW222200   5.431   3.274   1.348
 7101SOL     OW22201   2.878   0.477   4.542
 7101SOL    HW122202   2.905   0.427   4.459
 7101SOL    HW222203   2.782   0.504   4.534
 7102SOL     OW22204   4.513   0.795   1.098
 7102SOL    HW122205   4.585   0.859   1.073
 7102SOL    HW222206   4.425   0.842   1.097
 7103SOL     OW22207   3.813   5.473   0.070
 7103SOL    HW122208   3.839   5.469   6.999
 7103SOL    HW222209   3.787   5.566   0.093
 7104SOL     OW22210   1.166   3.465   4.523
 7104SOL    HW122211   1.133   3.556   4.500
 7104SOL    HW222212   1.258   3.472   4.563
 7105SOL     OW22213   3.677   2.986   5.374
 7105SOL    HW122214   3.608   2.914   5.362
 7105SOL    HW222215   3.631   3.073   5.391
 7106SOL     OW22216   3.419   3.211   3.775
 7106SOL    HW122217   3.327   3.181   3.751
 7106SOL    HW222218   3.486   3.153   3.728
 7107SOL     OW22219   2.288   0.948   0.526
 7107SOL    HW122220   2.205   0.913   0.483
 7107SOL    HW222221   2.368   0.908   0.481
 7108SOL     OW22222   4.609   6.450   0.767
 7108SOL    HW122223   4.624   6.542   0.802
 7108SOL    HW222224   4.583   6.389   0.842
 7109SOL     OW22225   3.730   6.845   6.346
 7109SOL    HW122226   3.738   6.941   6.375
 7109SOL    HW222227   3.738   6.786   6.426
 7110SOL     OW22228   4.977   5.132   3.588
 7110SOL    HW122229   4.969   5.124   3.489
 7110SOL    HW222230   5.036   5.211   3.610
 7111SOL     OW22231   1.083   2.838   4.668
 7111SOL    HW122232   1.069   2.859   4.765
 7111SOL    HW222233   1.140   2.908   4.626
 7112SOL     OW22234   1.279   5.570   4.556
 7112SOL    HW122235   1.357   5.508   4.551
 7112SOL    HW222236   1.296   5.642   4.623
 7113SOL     OW22237   3.318   4.076   4.723
 7113SOL    HW122238   3.356   4.088   4.814
 7113SOL    HW222239   3.274   4.162   4.693
 7114SOL     OW22240   4.455   6.897   1.773
 7114SOL    HW122241   4.373   6.938   1.811
 7114SOL    HW222242   4.495   6.958   1.705
 7115SOL     OW22243   5.333   2.399   1.794
 7115SOL    HW122244   5.433   2.395   1.795
 7115SOL    HW222245   5.296   2.321   1.844
 7116SOL     OW22246   5.669   3.473   3.203
 7116SOL    HW122247   5.768   3.462   3.192
 7116SOL    HW222248   5.651   3.557   3.255
 7117SOL     OW22249   0.112   0.058   4.352
 7117SOL    HW122250   0.030   0.094   4.308
 7117SOL    HW222251   0.183   0.045   4.284
 7118SOL     OW22252   4.693   2.932   0.589
 7118SOL    HW122253   4.757   3.003   0.559
 7118SOL    HW222254   4.679   2.941   0.688
 7119SOL     OW22255   4.753   1.255   3.336
 7119SOL    HW122256   4.799   1.207   3.260
 7119SOL    HW222257   4.706   1.336   3.300
 7120SOL     OW22258   3.762   1.745   2.844
 7120SOL    HW122259   3.806   1.713   2.761
 7120SOL    HW222260   3.820   1.813   2.889
 7121SOL     OW22261   1.763   0.117   3.069
 7121SOL    HW122262   1.733   0.126   3.163
 7121SOL    HW222263   1.805   0.027   3.055
 7122SOL     OW22264   6.433   1.015   6.965
 7122SOL    HW122265   6.353   1.072   6.949
 7122SOL    HW222266   6.407   0.918   6.961
 7123SOL     OW22267   3.660   5.312   1.510
 7123SOL    HW122268   3.635   5.369   1.588
 7123SOL    HW222269   3.711   5.232   1.542
 7124SOL     OW22270   1.101   4.088   0.258
 7124SOL    HW122271   1.046   4.036   0.192
 7124SOL    HW222272   1.122   4.029   0.336
 7125SOL     OW22273   6.980   6.359   1.128
 7125SOL    HW122274   6.930   6.273   1.136
 7125SOL    HW222275   0.019   6.367   1.203
 7126SOL     OW22276   2.250   4.377   0.824
 7126SOL    HW122277   2.215   4.287   0.850
 7126SOL    HW222278   2.312   4.410   0.895
 7127SOL     OW22279   2.819   5.422   4.005
 7127SOL    HW122280   2.849   5.382   4.092
 7127SOL    HW222281   2.847   5.518   4.002
 7128SOL     OW22282   2.870   4.801   0.269
 7128SOL    HW122283   2.930   4.779   0.191
 7128SOL    HW222284   2.903   4.754   0.350
 7129SOL     OW22285   3.255   1.005   1.052
 7129SOL    HW122286   3.279   1.072   0.982
 7129SOL    HW222287   3.315   1.016   1.131
 7130SOL     OW22288   3.186   4.939   4.565
 7130SOL    HW122289   3.132   4.875   4.620
 7130SOL    HW222290   3.177   4.915   4.468
 7131SOL     OW22291   2.468   1.965   0.271
 7131SOL    HW122292   2.437   1.881   0.315
 7131SOL    HW222293   2.398   1.997   0.207
 7132SOL     OW22294   4.271   3.779   1.812
 7132SOL    HW122295   4.230   3.711   1.873
 7132SOL    HW222296   4.209   3.857   1.803
 7133SOL     OW22297   5.221   4.904   3.544
 7133SOL    HW122298   5.294   4.847   3.581
 7133SOL    HW222299   5.135   4.853   3.546
 7134SOL     OW22300   6.065   5.524   3.166
 7134SOL    HW122301   6.072   5.591   3.092
 7134SOL    HW222302   6.026   5.439   3.132
 7135SOL     OW22303   1.509   1.265   3.568
 7135SOL    HW122304   1.579   1.198   3.594
 7135SOL    HW222305   1.431   1.257   3.630
 7136SOL     OW22306   1.848   1.539   0.559
 7136SOL    HW122307   1.796   1.456   0.580
 7136SOL    HW222308   1.786   1.618   0.559
 7137SOL     OW22309   4.633   1.388   5.055
 7137SOL    HW122310   4.643   1.480   5.018
 7137SOL    HW222311   4.610   1.393   5.152
 7138SOL     OW22312   3.067   2.703   1.312
 7138SOL    HW122313   3.153   2.653   1.298
 7138SOL    HW222314   3.053   2.767   1.236
 7139SOL     OW22315   4.932   3.190   2.180
 7139SOL    HW122316   4.859   3.150   2.125
 7139SOL    HW222317   4.999   3.234   2.120
 7140SOL     OW22318   6.358   3.288   5.146
 7140SOL    HW122319   6.297   3.267   5.221
 7140SOL    HW222320   6.418   3.210   5.127
 7141SOL     OW22321   3.172   6.892   1.245
 7141SOL    HW122322   3.165   6.820   1.315
 7141SOL    HW222323   3.141   6.856   1.158
 7142SOL     OW22324   4.278   6.803   3.294
 7142SOL    HW122325   4.287   6.705   3.308
 7142SOL    HW222326   4.350   6.851   3.344
 7143SOL     OW22327   1.313   2.896   6.277
 7143SOL    HW122328   1.342   2.829   6.345
 7143SOL    HW222329   1.334   2.862   6.186
 7144SOL     OW22330   1.146   1.301   3.160
 7144SOL    HW122331   1.178   1.213   3.125
 7144SOL    HW222332   1.072   1.335   3.102
 7145SOL     OW22333   3.835   6.308   6.610
 7145SOL    HW122334   3.797   6.304   6.703
 7145SOL    HW222335   3.867   6.401   6.591
 7146SOL     OW22336   2.653   0.319   0.248
 7146SOL    HW122337   2.657   0.303   0.150
 7146SOL    HW222338   2.649   0.231   0.296
 7147SOL     OW22339   6.260   6.931   3.668
 7147SOL    HW122340   6.168   6.892   3.665
 7147SOL    HW222341   6.307   6.912   3.582
 7148SOL     OW22342   0.937   5.896   1.920
 7148SOL    HW122343   0.875   5.819   1.929
 7148SOL    HW222344   0.899   5.975   1.967
 7149SOL     OW22345   6.772   0.059   3.451
 7149SOL    HW122346   6.786   0.158   3.459
 7149SOL    HW222347   6.709   0.029   3.521
 7150SOL     OW22348   5.275   3.296   1.686
 7150SOL    HW122349   5.215   3.252   1.752
 7150SOL    HW222350   5.370   3.291   1.718
 7151SOL     OW22351   0.462   5.360   0.858
 7151SOL    HW122352   0.485   5.448   0.900
 7151SOL    HW222353   0.529   5.339   0.786
 7152SOL     OW22354   0.387   2.600   6.024
 7152SOL    HW122355   0.338   2.667   6.079
 7152SOL    HW222356   0.471   2.572   6.072
 7153SOL     OW22357   3.181   6.161   4.833
 7153SOL    HW122358   3.101   6.104   4.855
 7153SOL    HW222359   3.259   6.102   4.815
 7154SOL     OW22360   4.048   5.928   4.696
 7154SOL    HW122361   3.973   5.913   4.760
 7154SOL    HW222362   4.059   6.025   4.678
 7155SOL     OW22363   1.776   6.323   1.247
 7155SOL    HW122364   1.683   6.301   1.218
 7155SOL    HW222365   1.773   6.400   1.311
 7156SOL     OW22366   0.570   5.004   4.315
 7156SOL    HW122367   0.583   4.972   4.221
 7156SOL    HW222368   0.637   5.076   4.335
 7157SOL     OW22369   5.948   5.350   1.087
 7157SOL    HW122370   5.995   5.436   1.067
 7157SOL    HW222371   6.010   5.289   1.136
 7158SOL     OW22372   0.214   0.088   3.455
 7158SOL    HW122373   0.264   0.041   3.382
 7158SOL    HW222374   0.226   0.187   3.446
 7159SOL     OW22375   0.306   4.217   2.365
 7159SOL    HW122376   0.379   4.285   2.364
 7159SOL    HW222377   0.275   4.198   2.272
 7160SOL     OW22378   6.655   0.870   2.837
 7160SOL    HW122379   6.607   0.849   2.922
 7160SOL    HW222380   6.753   0.880   2.855
 7161SOL     OW22381   3.192   4.014   4.000
 7161SOL    HW122382   3.237   4.069   3.930
 7161SOL    HW222383   3.208   4.054   4.090
 7162SOL     OW22384   2.813   5.749   5.478
 7162SOL    HW122385   2.881   5.785   5.541
 7162SOL    HW222386   2.852   5.672   5.427
 7163SOL     OW22387   3.334   6.675   4.302
 7163SOL    HW122388   3.349   6.774   4.297
 7163SOL    HW222389   3.382   6.638   4.381
 7164SOL     OW22390   1.741   2.281   3.179
 7164SOL    HW122391   1.650   2.241   3.165
 7164SOL    HW222392   1.746   2.322   3.270
 7165SOL     OW22393   6.012   0.702   1.022
 7165SOL    HW122394   6.054   0.744   1.103
 7165SOL    HW222395   5.920   0.671   1.045
 7166SOL     OW22396   5.317   4.070   0.978
 7166SOL    HW122397   5.389   4.014   0.936
 7166SOL    HW222398   5.304   4.042   1.073
 7167SOL     OW22399   4.955   3.950   4.894
 7167SOL    HW122400   4.902   4.007   4.831
 7167SOL    HW222401   5.031   4.004   4.931
 7168SOL     OW22402   1.074   2.222   3.994
 7168SOL    HW122403   1.171   2.213   4.014
 7168SOL    HW222404   1.034   2.132   3.980
 7169SOL     OW22405   1.003   3.205   4.902
 7169SOL    HW122406   0.981   3.287   4.850
 7169SOL    HW222407   1.099   3.180   4.887
 7170SOL     OW22408   3.717   5.506   3.163
 7170SOL    HW122409   3.698   5.460   3.076
 7170SOL    HW222410   3.772   5.587   3.147
 7171SOL     OW22411   5.738   3.783   5.954
 7171SOL    HW122412   5.740   3.882   5.943
 7171SOL    HW222413   5.829   3.746   5.936
 7172SOL     OW22414   1.429   0.051   6.096
 7172SOL    HW122415   1.330   0.037   6.086
 7172SOL    HW222416   1.456   0.029   6.189
 7173SOL     OW22417   0.155   4.666   5.380
 7173SOL    HW122418   0.074   4.672   5.438
 7173SOL    HW222419   0.153   4.739   5.312
 7174SOL     OW22420   1.193   5.437   6.622
 7174SOL    HW122421   1.273   5.497   6.624
 7174SOL    HW222422   1.171   5.414   6.527
 7175SOL     OW22423   5.860   3.030   0.799
 7175SOL    HW122424   5.956   3.005   0.789
 7175SOL    HW222425   5.810   2.955   0.843
 7176SOL     OW22426   0.382   5.437   3.011
 7176SOL    HW122427   0.371   5.435   2.912
 7176SOL    HW222428   0.331   5.362   3.053
 7177SOL     OW22429   2.143   6.204   3.383
 7177SOL    HW122430   2.237   6.233   3.368
 7177SOL    HW222431   2.142   6.112   3.421
 7178SOL     OW22432   2.243   2.524   5.886
 7178SOL    HW122433   2.255   2.497   5.790
 7178SOL    HW222434   2.170   2.591   5.893
 7179SOL     OW22435   1.611   3.054   5.296
 7179SOL    HW122436   1.579   3.128   5.355
 7179SOL    HW222437   1.627   2.972   5.350
 7180SOL     OW22438   1.244   5.202   6.193
 7180SOL    HW122439   1.271   5.132   6.260
 7180SOL    HW222440   1.147   5.220   6.202
 7181SOL     OW22441   3.363   0.105   0.741
 7181SOL    HW122442   3.292   0.048   0.699
 7181SOL    HW222443   3.453   0.064   0.726
 7182SOL     OW22444   1.240   3.304   5.548
 7182SOL    HW122445   1.249   3.401   5.523
 7182SOL    HW222446   1.199   3.297   5.639
 7183SOL     OW22447   1.661   4.608   2.372
 7183SOL    HW122448   1.619   4.525   2.409
 7183SOL    HW222449   1.683   4.671   2.447
 7184SOL     OW22450   0.453   6.786   3.359
 7184SOL    HW122451   0.397   6.781   3.276
 7184SOL    HW222452   0.459   6.881   3.389
 7185SOL     OW22453   4.882   2.566   6.138
 7185SOL    HW122454   4.973   2.573   6.177
 7185SOL    HW222455   4.888   2.531   6.044
 7186SOL     OW22456   6.929   6.939   5.668
 7186SOL    HW122457   7.002   6.962   5.603
 7186SOL    HW222458   6.938   6.996   5.749
 7187SOL     OW22459   1.580   4.575   1.418
 7187SOL    HW122460   1.636   4.549   1.497
 7187SOL    HW222461   1.483   4.574   1.445
 7188SOL     OW22462   5.799   0.171   0.703
 7188SOL    HW122463   5.722   0.220   0.662
 7188SOL    HW222464   5.880   0.229   0.702
 7189SOL     OW22465   6.203   1.071   6.710
 7189SOL    HW122466   6.269   1.144   6.694
 7189SOL    HW222467   6.229   0.990   6.656
 7190SOL     OW22468   5.180   3.636   3.302
 7190SOL    HW122469   5.178   3.655   3.400
 7190SOL    HW222470   5.201   3.539   3.287
 7191SOL     OW22471   0.796   4.015   2.505
 7191SOL    HW122472   0.745   4.053   2.428
 7191SOL    HW222473   0.885   4.061   2.513
 7192SOL     OW22474   1.847   6.224   5.244
 7192SOL    HW122475   1.818   6.294   5.309
 7192SOL    HW222476   1.851   6.263   5.152
 7193SOL     OW22477   3.107   2.223   3.406
 7193SOL    HW122478   3.076   2.239   3.313
 7193SOL    HW222479   3.154   2.135   3.412
 7194SOL     OW22480   2.367   2.015   0.958
 7194SOL    HW122481   2.349   1.987   0.863
 7194SOL    HW222482   2.421   1.944   1.003
 7195SOL     OW22483   0.206   5.172   0.002
 7195SOL    HW122484   0.205   5.195   0.099
 7195SOL    HW222485   0.248   5.082   7.015
 7196SOL     OW22486   2.882   3.550   2.399
 7196SOL    HW122487   2.897   3.512   2.308
 7196SOL    HW222488   2.892   3.649   2.396
 7197SOL     OW22489   6.617   2.501   5.822
 7197SOL    HW122490   6.611   2.547   5.911
 7197SOL    HW222491   6.537   2.527   5.767
 7198SOL     OW22492   1.160   0.550   5.378
 7198SOL    HW122493   1.108   0.636   5.378
 7198SOL    HW222494   1.178   0.522   5.284
 7199SOL     OW22495   1.536   1.074   2.324
 7199SOL    HW122496   1.567   1.121   2.242
 7199SOL    HW222497   1.469   1.004   2.299
 7200SOL     OW22498   2.602   0.253   7.003
 7200SOL    HW122499   2.515   0.204   7.014
 7200SOL    HW222500   2.622   0.262   6.905
 7201SOL     OW22501   1.667   4.778   3.123
 7201SOL    HW122502   1.635   4.757   3.215
 7201SOL    HW222503   1.589   4.781   3.060
 7202SOL     OW22504   3.676   0.091   6.358
 7202SOL    HW122505   3.683   0.148   6.440
 7202SOL    HW222506   3.709   0.142   6.279
 7203SOL     OW22507   5.777   0.854   0.327
 7203SOL    HW122508   5.802   0.878   0.420
 7203SOL    HW222509   5.722   0.770   0.327
 7204SOL     OW22510   5.897   6.646   4.418
 7204SOL    HW122511   5.835   6.608   4.349
 7204SOL    HW222512   5.875   6.606   4.507
 7205SOL     OW22513   1.445   5.807   3.366
 7205SOL    HW122514   1.411   5.724   3.410
 7205SOL    HW222515   1.503   5.783   3.288
 7206SOL     OW22516   0.725   0.808   1.397
 7206SOL    HW122517   0.769   0.876   1.455
 7206SOL    HW222518   0.626   0.824   1.397
 7207SOL     OW22519   3.772   0.133   1.905
 7207SOL    HW122520   3.762   0.117   1.807
 7207SOL    HW222521   3.770   0.231   1.924
 7208SOL     OW22522   4.289   6.428   4.509
 7208SOL    HW122523   4.202   6.384   4.534
 7208SOL    HW222524   4.363   6.386   4.561
 7209SOL     OW22525   3.162   3.208   3.679
 7209SOL    HW122526   3.129   3.155   3.601
 7209SOL    HW222527   3.083   3.244   3.730
 7210SOL     OW22528   5.294   0.267   3.859
 7210SOL    HW122529   5.238   0.313   3.791
 7210SOL    HW222530   5.268   0.299   3.950
 7211SOL     OW22531   1.080   5.835   3.684
 7211SOL    HW122532   1.133   5.849   3.600
 7211SOL    HW222533   1.035   5.920   3.709
 7212SOL     OW22534   0.564   5.688   3.966
 7212SOL    HW122535   0.477   5.687   4.014
 7212SOL    HW222536   0.610   5.776   3.982
 7213SOL     OW22537   5.536   6.852   5.445
 7213SOL    HW122538   5.519   6.913   5.523
 7213SOL    HW222539   5.628   6.868   5.409
 7214SOL     OW22540   2.553   5.309   4.388
 7214SOL    HW122541   2.475   5.284   4.331
 7214SOL    HW222542   2.632   5.326   4.329
 7215SOL     OW22543   0.684   3.660   4.220
 7215SOL    HW122544   0.764   3.609   4.189
 7215SOL    HW222545   0.666   3.736   4.158
 7216SOL     OW22546   3.079   5.434   0.304
 7216SOL    HW122547   3.153   5.493   0.337
 7216SOL    HW222548   3.044   5.380   0.381
 7217SOL     OW22549   1.714   4.610   1.687
 7217SOL    HW122550   1.733   4.539   1.754
 7217SOL    HW222551   1.796   4.667   1.674
 7218SOL     OW22552   4.496   3.026   5.847
 7218SOL    HW122553   4.397   3.021   5.859
 7218SOL    HW222554   4.539   2.946   5.889
 7219SOL     OW22555   4.483   6.201   3.181
 7219SOL    HW122556   4.401   6.230   3.231
 7219SOL    HW222557   4.564   6.217   3.236
 7220SOL     OW22558   6.440   5.992   3.826
 7220SOL    HW122559   6.433   5.977   3.727
 7220SOL    HW222560   6.535   6.010   3.850
 7221SOL     OW22561   5.787   5.028   5.452
 7221SOL    HW122562   5.860   4.960   5.451
 7221SOL    HW222563   5.723   5.010   5.378
 7222SOL     OW22564   6.264   6.525   0.368
 7222SOL    HW122565   6.307   6.554   0.282
 7222SOL    HW222566   6.256   6.603   0.429
 7223SOL     OW22567   3.221   1.680   1.700
 7223SOL    HW122568   3.251   1.769   1.735
 7223SOL    HW222569   3.239   1.676   1.601
 7224SOL     OW22570   5.936   1.659   4.693
 7224SOL    HW122571   5.888   1.735   4.650
 7224SOL    HW222572   5.907   1.652   4.789
 7225SOL     OW22573   1.610   5.434   6.810
 7225SOL    HW122574   1.635   5.341   6.837
 7225SOL    HW222575   1.661   5.500   6.865
 7226SOL     OW22576   0.280   0.442   0.450
 7226SOL    HW122577   0.221   0.492   0.513
 7226SOL    HW222578   0.230   0.365   0.411
 7227SOL     OW22579   0.892   2.279   0.557
 7227SOL    HW122580   0.971   2.310   0.610
 7227SOL    HW222581   0.824   2.352   0.552
 7228SOL     OW22582   0.410   0.523   1.752
 7228SOL    HW122583   0.337   0.527   1.685
 7228SOL    HW222584   0.379   0.472   1.832
 7229SOL     OW22585   0.706   0.276   3.947
 7229SOL    HW122586   0.793   0.277   3.900
 7229SOL    HW222587   0.638   0.226   3.893
 7230SOL     OW22588   4.244   5.449   5.037
 7230SOL    HW122589   4.324   5.471   4.981
 7230SOL    HW222590   4.268   5.455   5.134
 7231SOL     OW22591   4.754   0.821   0.028
 7231SOL    HW122592   4.739   0.894   6.988
 7231SOL    HW222593   4.667   0.793   0.069
 7232SOL     OW22594   3.725   4.903   3.468
 7232SOL    HW122595   3.747   4.931   3.375
 7232SOL    HW222596   3.781   4.824   3.493
 7233SOL     OW22597   0.250   3.012   4.971
 7233SOL    HW122598   0.207   3.073   4.905
 7233SOL    HW222599   0.337   2.979   4.934
 7234SOL     OW22600   6.196   2.772   1.779
 7234SOL    HW122601   6.175   2.774   1.876
 7234SOL    HW222602   6.180   2.680   1.743
 7235SOL     OW22603   6.734   3.925   3.533
 7235SOL    HW122604   6.677   3.842   3.527
 7235SOL    HW222605   6.757   3.957   3.442
 7236SOL     OW22606   3.219   1.789   2.914
 7236SOL    HW122607   3.313   1.813   2.888
 7236SOL    HW222608   3.205   1.691   2.898
 7237SOL     OW22609   6.511   6.229   5.109
 7237SOL    HW122610   6.538   6.210   5.203
 7237SOL    HW222611   6.433   6.171   5.085
 7238SOL     OW22612   2.503   1.726   1.934
 7238SOL    HW122613   2.587   1.752   1.886
 7238SOL    HW222614   2.518   1.641   1.984
 7239SOL     OW22615   1.805   1.680   3.610
 7239SOL    HW122616   1.826   1.610   3.542
 7239SOL    HW222617   1.887   1.698   3.665
 7240SOL     OW22618   3.013   4.429   0.538
 7240SOL    HW122619   2.990   4.366   0.612
 7240SOL    HW222620   2.956   4.409   0.458
 7241SOL     OW22621   3.301   0.207   6.070
 7241SOL    HW122622   3.339   0.296   6.047
 7241SOL    HW222623   3.208   0.199   6.034
 7242SOL     OW22624   5.764   4.295   0.094
 7242SOL    HW122625   5.734   4.255   0.181
 7242SOL    HW222626   5.864   4.298   0.092
 7243SOL     OW22627   1.571   4.726   6.320
 7243SOL    HW122628   1.560   4.707   6.418
 7243SOL    HW222629   1.652   4.677   6.286
 7244SOL     OW22630   4.788   0.956   0.795
 7244SOL    HW122631   4.762   0.949   0.699
 7244SOL    HW222632   4.764   1.046   0.830
 7245SOL     OW22633   0.158   2.552   5.088
 7245SOL    HW122634   0.105   2.627   5.047
 7245SOL    HW222635   0.149   2.554   5.187
 7246SOL     OW22636   6.804   6.780   4.787
 7246SOL    HW122637   6.825   6.698   4.840
 7246SOL    HW222638   6.709   6.777   4.756
 7247SOL     OW22639   2.369   6.726   2.398
 7247SOL    HW122640   2.380   6.648   2.336
 7247SOL    HW222641   2.334   6.694   2.486
 7248SOL     OW22642   3.215   1.071   3.520
 7248SOL    HW122643   3.226   1.160   3.477
 7248SOL    HW222644   3.304   1.029   3.534
 7249SOL     OW22645   5.805   4.616   1.016
 7249SOL    HW122646   5.757   4.529   1.002
 7249SOL    HW222647   5.859   4.637   0.935
 7250SOL     OW22648   2.349   4.648   6.426
 7250SOL    HW122649   2.424   4.607   6.376
 7250SOL    HW222650   2.343   4.745   6.404
 7251SOL     OW22651   6.251   6.649   5.693
 7251SOL    HW122652   6.266   6.578   5.763
 7251SOL    HW222653   6.340   6.682   5.661
 7252SOL     OW22654   3.463   3.373   4.597
 7252SOL    HW122655   3.498   3.293   4.646
 7252SOL    HW222656   3.385   3.411   4.647
 7253SOL     OW22657   1.873   5.806   0.616
 7253SOL    HW122658   1.877   5.706   0.613
 7253SOL    HW222659   1.777   5.835   0.625
 7254SOL     OW22660   3.346   5.315   4.377
 7254SOL    HW122661   3.409   5.363   4.438
 7254SOL    HW222662   3.252   5.339   4.402
 7255SOL     OW22663   2.753   3.120   1.733
 7255SOL    HW122664   2.765   3.217   1.755
 7255SOL    HW222665   2.834   3.069   1.760
 7256SOL     OW22666   4.306   4.834   4.571
 7256SOL    HW122667   4.358   4.913   4.540
 7256SOL    HW222668   4.285   4.844   4.668
 7257SOL     OW22669   6.162   2.701   3.131
 7257SOL    HW122670   6.147   2.679   3.227
 7257SOL    HW222671   6.219   2.630   3.089
 7258SOL     OW22672   4.275   0.589   4.107
 7258SOL    HW122673   4.215   0.658   4.147
 7258SOL    HW222674   4.291   0.611   4.010
 7259SOL     OW22675   2.923   4.279   0.056
 7259SOL    HW122676   2.841   4.336   0.060
 7259SOL    HW222677   2.903   4.195   0.006
 7260SOL     OW22678   3.946   1.915   2.965
 7260SOL    HW122679   3.960   2.012   2.986
 7260SOL    HW222680   3.999   1.859   3.029
 7261SOL     OW22681   2.277   3.330   1.621
 7261SOL    HW122682   2.349   3.288   1.566
 7261SOL    HW222683   2.318   3.387   1.692
 7262SOL     OW22684   5.875   2.704   4.365
 7262SOL    HW122685   5.829   2.761   4.433
 7262SOL    HW222686   5.898   2.615   4.407
 7263SOL     OW22687   1.157   5.503   1.546
 7263SOL    HW122688   1.193   5.591   1.577
 7263SOL    HW222689   1.059   5.499   1.564
 7264SOL     OW22690   6.689   1.126   7.016
 7264SOL    HW122691   6.741   1.093   0.068
 7264SOL    HW222692   6.612   1.065   6.998
 7265SOL     OW22693   5.455   5.601   5.918
 7265SOL    HW122694   5.409   5.594   6.006
 7265SOL    HW222695   5.553   5.614   5.932
 7266SOL     OW22696   5.160   1.036   1.338
 7266SOL    HW122697   5.163   0.937   1.355
 7266SOL    HW222698   5.107   1.081   1.409
 7267SOL     OW22699   6.703   4.144   5.009
 7267SOL    HW122700   6.755   4.171   5.090
 7267SOL    HW222701   6.642   4.068   5.032
 7268SOL     OW22702   4.072   5.741   2.097
 7268SOL    HW122703   4.143   5.716   2.032
 7268SOL    HW222704   4.061   5.840   2.098
 7269SOL     OW22705   0.543   5.655   1.473
 7269SOL    HW122706   0.496   5.742   1.486
 7269SOL    HW222707   0.642   5.670   1.470
 7270SOL     OW22708   2.274   1.751   3.124
 7270SOL    HW122709   2.217   1.675   3.092
 7270SOL    HW222710   2.262   1.829   3.063
 7271SOL     OW22711   0.364   3.987   2.515
 7271SOL    HW122712   0.312   4.068   2.488
 7271SOL    HW222713   0.417   4.006   2.597
 7272SOL     OW22714   4.855   3.002   2.947
 7272SOL    HW122715   4.940   2.989   2.998
 7272SOL    HW222716   4.809   3.085   2.981
 7273SOL     OW22717   6.094   4.403   1.567
 7273SOL    HW122718   6.122   4.439   1.656
 7273SOL    HW222719   6.036   4.322   1.580
 7274SOL     OW22720   0.315   4.774   5.584
 7274SOL    HW122721   0.309   4.744   5.679
 7274SOL    HW222722   0.291   4.698   5.524
 7275SOL     OW22723   6.783   0.525   0.169
 7275SOL    HW122724   6.760   0.462   0.096
 7275SOL    HW222725   6.700   0.559   0.213
 7276SOL     OW22726   2.501   1.977   3.990
 7276SOL    HW122727   2.498   1.951   3.894
 7276SOL    HW222728   2.483   1.897   4.047
 7277SOL     OW22729   4.425   1.262   5.580
 7277SOL    HW122730   4.496   1.218   5.636
 7277SOL    HW222731   4.420   1.359   5.604
 7278SOL     OW22732   3.763   1.380   3.149
 7278SOL    HW122733   3.730   1.293   3.184
 7278SOL    HW222734   3.804   1.432   3.224
 7279SOL     OW22735   4.455   4.313   0.692
 7279SOL    HW122736   4.409   4.398   0.666
 7279SOL    HW222737   4.390   4.254   0.740
 7280SOL     OW22738   5.444   2.218   5.159
 7280SOL    HW122739   5.468   2.128   5.122
 7280SOL    HW222740   5.527   2.262   5.193
 7281SOL     OW22741   3.572   6.666   0.972
 7281SOL    HW122742   3.596   6.603   0.898
 7281SOL    HW222743   3.653   6.687   1.026
 7282SOL     OW22744   6.638   5.374   2.075
 7282SOL    HW122745   6.625   5.299   2.141
 7282SOL    HW222746   6.693   5.446   2.117
 7283SOL     OW22747   3.467   5.992   2.417
 7283SOL    HW122748   3.396   6.059   2.436
 7283SOL    HW222749   3.461   5.964   2.321
 7284SOL     OW22750   6.511   2.433   3.912
 7284SOL    HW122751   6.596   2.397   3.874
 7284SOL    HW222752   6.513   2.533   3.909
 7285SOL     OW22753   4.946   2.918   1.887
 7285SOL    HW122754   4.875   2.969   1.935
 7285SOL    HW222755   5.013   2.884   1.953
 7286SOL     OW22756   0.712   1.481   0.900
 7286SOL    HW122757   0.761   1.464   0.814
 7286SOL    HW222758   0.614   1.488   0.883
 7287SOL     OW22759   1.003   2.950   3.412
 7287SOL    HW122760   1.044   2.966   3.502
 7287SOL    HW222761   0.998   2.852   3.395
 7288SOL     OW22762   2.901   2.283   2.886
 7288SOL    HW122763   2.857   2.223   2.819
 7288SOL    HW222764   2.998   2.259   2.894
 7289SOL     OW22765   6.089   2.365   2.212
 7289SOL    HW122766   6.060   2.452   2.172
 7289SOL    HW222767   6.188   2.365   2.227
 7290SOL     OW22768   4.278   1.539   5.346
 7290SOL    HW122769   4.340   1.541   5.424
 7290SOL    HW222770   4.323   1.580   5.267
 7291SOL     OW22771   3.473   0.162   6.928
 7291SOL    HW122772   3.462   0.251   6.884
 7291SOL    HW222773   3.481   0.091   6.858
 7292SOL     OW22774   1.440   0.208   3.436
 7292SOL    HW122775   1.441   0.294   3.385
 7292SOL    HW222776   1.427   0.132   3.372
 7293SOL     OW22777   1.286   0.530   5.137
 7293SOL    HW122778   1.343   0.459   5.177
 7293SOL    HW222779   1.257   0.502   5.045
 7294SOL     OW22780   3.089   4.622   1.650
 7294SOL    HW122781   3.154   4.681   1.699
 7294SOL    HW222782   3.056   4.550   1.712
 7295SOL     OW22783   6.716   4.912   1.812
 7295SOL    HW122784   6.728   4.901   1.714
 7295SOL    HW222785   6.699   4.823   1.854
 7296SOL     OW22786   3.885   4.888   2.790
 7296SOL    HW122787   3.952   4.825   2.752
 7296SOL    HW222788   3.802   4.838   2.815
 7297SOL     OW22789   3.132   6.601   1.915
 7297SOL    HW122790   3.139   6.699   1.935
 7297SOL    HW222791   3.219   6.557   1.933
 7298SOL     OW22792   5.113   5.585   6.421
 7298SOL    HW122793   5.105   5.546   6.330
 7298SOL    HW222794   5.203   5.564   6.459
 7299SOL     OW22795   1.436   2.852   6.908
 7299SOL    HW122796   1.532   2.850   6.935
 7299SOL    HW222797   1.404   2.947   6.905
 7300SOL     OW22798   0.919   5.273   1.385
 7300SOL    HW122799   0.895   5.228   1.299
 7300SOL    HW222800   0.892   5.215   1.461
 7301SOL     OW22801   5.593   0.118   5.375
 7301SOL    HW122802   5.566   0.162   5.290
 7301SOL    HW222803   5.618   0.188   5.442
 7302SOL     OW22804   5.226   3.031   5.807
 7302SOL    HW122805   5.189   3.124   5.808
 7302SOL    HW222806   5.226   2.997   5.712
 7303SOL     OW22807   2.469   1.242   0.634
 7303SOL    HW122808   2.471   1.167   0.700
 7303SOL    HW222809   2.379   1.284   0.633
 7304SOL     OW22810   2.795   5.057   1.557
 7304SOL    HW122811   2.866   5.077   1.625
 7304SOL    HW222812   2.826   4.983   1.498
 7305SOL     OW22813   6.149   2.244   0.217
 7305SOL    HW122814   6.081   2.310   0.186
 7305SOL    HW222815   6.105   2.174   0.272
 7306SOL     OW22816   3.069   1.756   1.037
 7306SOL    HW122817   3.158   1.754   1.081
 7306SOL    HW222818   3.000   1.791   1.102
 7307SOL     OW22819   3.199   6.133   2.169
 7307SOL    HW122820   3.111   6.163   2.207
 7307SOL    HW222821   3.237   6.206   2.112
 7308SOL     OW22822   5.188   0.744   1.832
 7308SOL    HW122823   5.269   0.784   1.876
 7308SOL    HW222824   5.152   0.808   1.764
 7309SOL     OW22825   2.585   5.678   2.645
 7309SOL    HW122826   2.677   5.668   2.606
 7309SOL    HW222827   2.517   5.647   2.579
 7310SOL     OW22828   1.671   2.831   0.204
 7310SOL    HW122829   1.694   2.734   0.210
 7310SOL    HW222830   1.687   2.863   0.111
 7311SOL     OW22831   0.139   0.218   0.648
 7311SOL    HW122832   0.209   0.221   0.719
 7311SOL    HW222833   0.049   0.234   0.689
 7312SOL     OW22834   6.888   2.174   5.787
 7312SOL    HW122835   6.868   2.233   5.709
 7312SOL    HW222836   6.937   2.093   5.756
 7313SOL     OW22837   2.294   1.058   1.650
 7313SOL    HW122838   2.286   1.128   1.579
 7313SOL    HW222839   2.287   1.101   1.740
 7314SOL     OW22840   6.941   4.340   6.968
 7314SOL    HW122841   7.009   4.277   7.004
 7314SOL    HW222842   6.850   4.300   6.978
 7315SOL     OW22843   6.979   5.337   2.141
 7315SOL    HW122844   6.937   5.412   2.191
 7315SOL    HW222845   6.992   5.363   2.045
 7316SOL     OW22846   2.935   2.710   6.508
 7316SOL    HW122847   2.941   2.704   6.409
 7316SOL    HW222848   2.889   2.796   6.533
 7317SOL     OW22849   3.667   1.213   1.899
 7317SOL    HW122850   3.590   1.226   1.962
 7317SOL    HW222851   3.741   1.277   1.923
 7318SOL     OW22852   3.611   0.089   2.334
 7318SOL    HW122853   3.526   0.037   2.347
 7318SOL    HW222854   3.593   0.186   2.350
 7319SOL     OW22855   6.793   4.591   0.496
 7319SOL    HW122856   6.757   4.676   0.458
 7319SOL    HW222857   6.852   4.546   0.429
 7320SOL     OW22858   7.002   3.919   0.951
 7320SOL    HW122859   6.917   3.971   0.962
 7320SOL    HW222860   6.984   3.822   0.971
 7321SOL     OW22861   2.266   6.058   5.952
 7321SOL    HW122862   2.291   6.023   6.043
 7321SOL    HW222863   2.187   6.117   5.960
 7322SOL     OW22864   0.741   1.525   2.527
 7322SOL    HW122865   0.749   1.623   2.506
 7322SOL    HW222866   0.727   1.474   2.442
 7323SOL     OW22867   1.592   1.647   1.139
 7323SOL    HW122868   1.692   1.648   1.133
 7323SOL    HW222869   1.564   1.700   1.219
 7324SOL     OW22870   5.598   4.791   3.238
 7324SOL    HW122871   5.603   4.885   3.206
 7324SOL    HW222872   5.646   4.731   3.175
 7325SOL     OW22873   3.766   0.131   5.841
 7325SOL    HW122874   3.838   0.150   5.908
 7325SOL    HW222875   3.714   0.214   5.824
 7326SOL     OW22876   2.945   1.017   6.440
 7326SOL    HW122877   2.957   0.918   6.442
 7326SOL    HW222878   2.904   1.047   6.526
 7327SOL     OW22879   5.970   3.987   3.275
 7327SOL    HW122880   5.945   3.896   3.307
 7327SOL    HW222881   6.057   4.014   3.314
 7328SOL     OW22882   3.873   5.206   5.585
 7328SOL    HW122883   3.821   5.290   5.603
 7328SOL    HW222884   3.812   5.137   5.547
 7329SOL     OW22885   2.347   2.918   0.379
 7329SOL    HW122886   2.274   2.983   0.357
 7329SOL    HW222887   2.308   2.837   0.423
 7330SOL     OW22888   3.322   2.920   1.612
 7330SOL    HW122889   3.302   3.012   1.647
 7330SOL    HW222890   3.278   2.852   1.671
 7331SOL     OW22891   4.521   0.278   1.873
 7331SOL    HW122892   4.470   0.193   1.862
 7331SOL    HW222893   4.559   0.282   1.966
 7332SOL     OW22894   3.386   3.955   0.241
 7332SOL    HW122895   3.411   3.984   0.334
 7332SOL    HW222896   3.469   3.935   0.189
 7333SOL     OW22897   6.685   3.264   1.483
 7333SOL    HW122898   6.700   3.179   1.432
 7333SOL    HW222899   6.674   3.242   1.581
 7334SOL     OW22900   2.578   0.083   5.371
 7334SOL    HW122901   2.583   0.139   5.454
 7334SOL    HW222902   2.513   0.008   5.385
 7335SOL     OW22903   0.014   3.328   2.931
 7335SOL    HW122904   0.104   3.304   2.897
 7335SOL    HW222905   6.997   3.248   2.973
 7336SOL     OW22906   1.602   6.361   0.653
 7336SOL    HW122907   1.608   6.391   0.558
 7336SOL    HW222908   1.517   6.309   0.666
 7337SOL     OW22909   2.570   2.543   1.922
 7337SOL    HW122910   2.537   2.468   1.979
 7337SOL    HW222911   2.670   2.545   1.925
 7338SOL     OW22912   6.020   2.983   1.343
 7338SOL    HW122913   6.073   2.953   1.422
 7338SOL    HW222914   5.945   3.041   1.373
 7339SOL     OW22915   0.171   6.096   5.232
 7339SOL    HW122916   0.130   6.084   5.141
 7339SOL    HW222917   0.157   6.013   5.286
 7340SOL     OW22918   3.229   0.779   6.625
 7340SOL    HW122919   3.308   0.770   6.686
 7340SOL    HW222920   3.157   0.829   6.672
 7341SOL     OW22921   0.112   4.832   3.938
 7341SOL    HW122922   0.084   4.927   3.922
 7341SOL    HW222923   0.070   4.772   3.871
 7342SOL     OW22924   6.722   0.400   6.830
 7342SOL    HW122925   6.725   0.377   6.928
 7342SOL    HW222926   6.664   0.480   6.817
 7343SOL     OW22927   5.681   4.071   2.516
 7343SOL    HW122928   5.696   4.159   2.470
 7343SOL    HW222929   5.757   4.054   2.579
 7344SOL     OW22930   1.682   6.547   6.635
 7344SOL    HW122931   1.655   6.552   6.539
 7344SOL    HW222932   1.654   6.459   6.673
 7345SOL     OW22933   4.056   5.023   5.662
 7345SOL    HW122934   4.032   4.984   5.751
 7345SOL    HW222935   3.991   5.095   5.639
 7346SOL     OW22936   3.783   4.513   0.834
 7346SOL    HW122937   3.721   4.587   0.805
 7346SOL    HW222938   3.782   4.507   0.933
 7347SOL     OW22939   6.312   2.045   2.481
 7347SOL    HW122940   6.303   1.981   2.404
 7347SOL    HW222941   6.282   2.136   2.451
 7348SOL     OW22942   1.356   3.002   3.685
 7348SOL    HW122943   1.262   2.972   3.670
 7348SOL    HW222944   1.357   3.076   3.752
 7349SOL     OW22945   3.716   2.021   1.210
 7349SOL    HW122946   3.664   2.013   1.296
 7349SOL    HW222947   3.797   2.077   1.225
 7350SOL     OW22948   0.712   2.570   3.813
 7350SOL    HW122949   0.665   2.531   3.734
 7350SOL    HW222950   0.787   2.510   3.840
 7351SOL     OW22951   4.045   4.614   6.220
 7351SOL    HW122952   4.037   4.707   6.257
 7351SOL    HW222953   3.954   4.573   6.212
 7352SOL     OW22954   1.093   1.946   2.201
 7352SOL    HW122955   1.114   1.990   2.288
 7352SOL    HW222956   1.177   1.904   2.165
 7353SOL     OW22957   6.306   1.620   5.014
 7353SOL    HW122958   6.271   1.549   5.076
 7353SOL    HW222959   6.232   1.684   4.991
 7354SOL     OW22960   6.771   0.137   6.394
 7354SOL    HW122961   6.721   0.181   6.469
 7354SOL    HW222962   6.818   0.207   6.340
 7355SOL     OW22963   0.577   5.962   1.446
 7355SOL    HW122964   0.595   6.043   1.501
 7355SOL    HW222965   0.558   5.990   1.352
 7356SOL     OW22966   6.076   2.018   6.711
 7356SOL    HW122967   5.983   2.034   6.744
 7356SOL    HW222968   6.133   1.985   6.786
 7357SOL     OW22969   4.898   0.863   0.273
 7357SOL    HW122970   4.988   0.906   0.265
 7357SOL    HW222971   4.867   0.832   0.183
 7358SOL     OW22972   3.794   2.169   3.839
 7358SOL    HW122973   3.886   2.152   3.804
 7358SOL    HW222974   3.801   2.217   3.927
 7359SOL     OW22975   3.813   3.120   2.429
 7359SOL    HW122976   3.761   3.035   2.437
 7359SOL    HW222977   3.876   3.114   2.351
 7360SOL     OW22978   1.425   2.568   5.692
 7360SOL    HW122979   1.444   2.528   5.603
 7360SOL    HW222980   1.439   2.500   5.764
 7361SOL     OW22981   5.266   6.637   0.653
 7361SOL    HW122982   5.170   6.666   0.653
 7361SOL    HW222983   5.312   6.677   0.733
 7362SOL     OW22984   0.999   6.977   4.737
 7362SOL    HW122985   0.955   6.888   4.745
 7362SOL    HW222986   0.937   0.016   4.694
 7363SOL     OW22987   5.897   2.366   0.302
 7363SOL    HW122988   5.857   2.458   0.306
 7363SOL    HW222989   5.826   2.298   0.317
 7364SOL     OW22990   4.071   0.017   0.776
 7364SOL    HW122991   4.123   6.994   0.706
 7364SOL    HW222992   3.997   6.984   0.809
 7365SOL     OW22993   2.621   0.048   2.790
 7365SOL    HW122994   2.571   0.133   2.775
 7365SOL    HW222995   2.675   0.026   2.709
 7366SOL     OW22996   0.966   5.163   6.551
 7366SOL    HW122997   0.986   5.261   6.563
 7366SOL    HW222998   0.870   5.146   6.572
 7367SOL     OW22999   4.841   3.845   1.485
 7367SOL    HW123000   4.804   3.774   1.425
 7367SOL    HW223001   4.830   3.935   1.441
 7368SOL     OW23002   3.477   3.543   4.258
 7368SOL    HW123003   3.398   3.593   4.294
 7368SOL    HW223004   3.489   3.565   4.161
 7369SOL     OW23005   5.027   3.620   1.427
 7369SOL    HW123006   4.993   3.709   1.397
 7369SOL    HW223007   5.056   3.567   1.348
 7370SOL     OW23008   2.109   0.006   7.004
 7370SOL    HW123009   2.155   6.967   6.943
 7370SOL    HW223010   2.137   7.015   0.072
 7371SOL     OW23011   3.087   5.232   3.944
 7371SOL    HW123012   2.999   5.190   3.923
 7371SOL    HW223013   3.102   5.229   4.043
 7372SOL     OW23014   3.774   0.291   5.498
 7372SOL    HW123015   3.675   0.304   5.503
 7372SOL    HW223016   3.798   0.252   5.410
 7373SOL     OW23017   4.040   1.083   3.557
 7373SOL    HW123018   4.074   1.175   3.576
 7373SOL    HW223019   4.114   1.028   3.518
 7374SOL     OW23020   1.671   2.763   5.339
 7374SOL    HW123021   1.728   2.777   5.420
 7374SOL    HW223022   1.726   2.773   5.256
 7375SOL     OW23023   1.002   1.580   4.480
 7375SOL    HW123024   1.035   1.674   4.471
 7375SOL    HW223025   1.069   1.525   4.529
 7376SOL     OW23026   3.131   2.990   0.150
 7376SOL    HW123027   3.109   2.896   0.177
 7376SOL    HW223028   3.204   2.988   0.082
 7377SOL     OW23029   4.796   4.744   1.459
 7377SOL    HW123030   4.716   4.796   1.488
 7377SOL    HW223031   4.805   4.750   1.359
 7378SOL     OW23032   7.003   2.127   4.828
 7378SOL    HW123033   7.018   2.217   4.869
 7378SOL    HW223034   0.049   2.108   4.762
 7379SOL     OW23035   4.300   1.266   2.009
 7379SOL    HW123036   4.382   1.211   2.024
 7379SOL    HW223037   4.223   1.205   1.989
 7380SOL     OW23038   6.584   3.044   5.921
 7380SOL    HW123039   6.679   3.016   5.909
 7380SOL    HW223040   6.550   3.084   5.837
 7381SOL     OW23041   5.152   2.855   2.311
 7381SOL    HW123042   5.170   2.952   2.327
 7381SOL    HW223043   5.153   2.807   2.399
 7382SOL     OW23044   0.426   4.880   5.048
 7382SOL    HW123045   0.498   4.814   5.071
 7382SOL    HW223046   0.381   4.852   4.963
 7383SOL     OW23047   0.517   6.306   2.235
 7383SOL    HW123048   0.508   6.220   2.185
 7383SOL    HW223049   0.445   6.312   2.305
 7384SOL     OW23050   4.986   0.128   2.075
 7384SOL    HW123051   5.072   0.112   2.123
 7384SOL    HW223052   4.961   0.224   2.081
 7385SOL     OW23053   4.453   6.106   2.081
 7385SOL    HW123054   4.453   6.126   2.179
 7385SOL    HW223055   4.548   6.101   2.049
 7386SOL     OW23056   0.784   2.259   5.805
 7386SOL    HW123057   0.800   2.200   5.726
 7386SOL    HW223058   0.835   2.344   5.794
 7387SOL     OW23059   4.125   5.602   4.460
 7387SOL    HW123060   4.177   5.554   4.389
 7387SOL    HW223061   4.103   5.694   4.429
 7388SOL     OW23062   6.617   4.975   4.013
 7388SOL    HW123063   6.565   5.027   4.080
 7388SOL    HW223064   6.683   4.916   4.060
 7389SOL     OW23065   1.507   4.054   7.018
 7389SOL    HW123066   1.477   4.087   6.928
 7389SOL    HW223067   1.438   4.077   0.060
 7390SOL     OW23068   0.039   1.638   6.583
 7390SOL    HW123069   0.055   1.565   6.649
 7390SOL    HW223070   0.068   1.725   6.623
 7391SOL     OW23071   5.372   4.396   6.276
 7391SOL    HW123072   5.424   4.465   6.225
 7391SOL    HW223073   5.356   4.429   6.369
 7392SOL     OW23074   1.804   5.994   5.631
 7392SOL    HW123075   1.744   6.034   5.562
 7392SOL    HW223076   1.763   5.912   5.669
 7393SOL     OW23077   6.084   5.396   2.120
 7393SOL    HW123078   6.135   5.480   2.139
 7393SOL    HW223079   5.995   5.419   2.080
 7394SOL     OW23080   3.564   3.453   6.614
 7394SOL    HW123081   3.623   3.415   6.685
 7394SOL    HW223082   3.491   3.388   6.593
 7395SOL     OW23083   0.546   0.787   6.418
 7395SOL    HW123084   0.616   0.820   6.482
 7395SOL    HW223085   0.561   0.690   6.399
 7396SOL     OW23086   1.565   0.887   5.832
 7396SOL    HW123087   1.560   0.838   5.920
 7396SOL    HW223088   1.505   0.842   5.766
 7397SOL     OW23089   6.318   4.222   4.692
 7397SOL    HW123090   6.388   4.292   4.678
 7397SOL    HW223091   6.361   4.136   4.717
 7398SOL     OW23092   4.008   5.336   3.547
 7398SOL    HW123093   4.086   5.391   3.518
 7398SOL    HW223094   4.011   5.321   3.646
 7399SOL     OW23095   6.559   4.207   5.740
 7399SOL    HW123096   6.519   4.229   5.829
 7399SOL    HW223097   6.486   4.172   5.680
 7400SOL     OW23098   2.993   4.146   6.788
 7400SOL    HW123099   2.917   4.211   6.781
 7400SOL    HW223100   3.018   4.114   6.696
 7401SOL     OW23101   0.203   1.204   3.994
 7401SOL    HW123102   0.162   1.198   3.903
 7401SOL    HW223103   0.183   1.121   4.046
 7402SOL     OW23104   2.285   6.934   3.884
 7402SOL    HW123105   2.346   6.961   3.958
 7402SOL    HW223106   2.204   6.994   3.884
 7403SOL     OW23107   1.889   3.130   3.602
 7403SOL    HW123108   1.977   3.161   3.565
 7403SOL    HW223109   1.902   3.093   3.693
 7404SOL     OW23110   2.057   0.412   0.791
 7404SOL    HW123111   2.135   0.354   0.769
 7404SOL    HW223112   2.089   0.504   0.815
 7405SOL     OW23113   1.695   5.014   4.925
 7405SOL    HW123114   1.623   5.079   4.948
 7405SOL    HW223115   1.671   4.923   4.961
 7406SOL     OW23116   1.435   3.937   2.448
 7406SOL    HW123117   1.492   4.008   2.408
 7406SOL    HW223118   1.449   3.934   2.547
 7407SOL     OW23119   0.313   5.647   5.021
 7407SOL    HW123120   0.282   5.553   5.036
 7407SOL    HW223121   0.330   5.691   5.109
 7408SOL     OW23122   2.389   4.133   6.000
 7408SOL    HW123123   2.420   4.222   6.033
 7408SOL    HW223124   2.304   4.143   5.949
 7409SOL     OW23125   0.792   1.293   4.584
 7409SOL    HW123126   0.770   1.379   4.630
 7409SOL    HW223127   0.825   1.312   4.491
 7410SOL     OW23128   0.111   4.805   1.155
 7410SOL    HW123129   0.039   4.852   1.104
 7410SOL    HW223130   0.144   4.864   1.229
 7411SOL     OW23131   2.566   6.685   4.500
 7411SOL    HW123132   2.551   6.664   4.596
 7411SOL    HW223133   2.655   6.651   4.470
 7412SOL     OW23134   2.467   0.873   0.994
 7412SOL    HW123135   2.424   0.828   0.916
 7412SOL    HW223136   2.490   0.805   1.064
 7413SOL     OW23137   0.473   3.517   3.769
 7413SOL    HW123138   0.551   3.462   3.737
 7413SOL    HW223139   0.414   3.537   3.691
 7414SOL     OW23140   6.630   6.545   2.661
 7414SOL    HW123141   6.550   6.550   2.721
 7414SOL    HW223142   6.651   6.636   2.626
 7415SOL     OW23143   1.395   3.210   2.913
 7415SOL    HW123144   1.438   3.120   2.917
 7415SOL    HW223145   1.436   3.270   2.981
 7416SOL     OW23146   3.626   1.568   4.302
 7416SOL    HW123147   3.595   1.486   4.253
 7416SOL    HW223148   3.588   1.650   4.258
 7417SOL     OW23149   1.356   6.666   5.960
 7417SOL    HW123150   1.301   6.699   6.037
 7417SOL    HW223151   1.347   6.567   5.952
 7418SOL     OW23152   3.262   4.392   1.381
 7418SOL    HW123153   3.339   4.449   1.409
 7418SOL    HW223154   3.257   4.311   1.440
 7419SOL     OW23155   5.760   1.824   4.523
 7419SOL    HW123156   5.710   1.903   4.559
 7419SOL    HW223157   5.808   1.850   4.439
 7420SOL     OW23158   6.637   0.014   2.201
 7420SOL    HW123159   6.562   6.975   2.207
 7420SOL    HW223160   6.600   0.107   2.201
 7421SOL     OW23161   3.427   3.668   1.700
 7421SOL    HW123162   3.508   3.726   1.699
 7421SOL    HW223163   3.454   3.573   1.717
 7422SOL     OW23164   6.990   3.524   1.269
 7422SOL    HW123165   6.937   3.537   1.353
 7422SOL    HW223166   0.025   3.445   1.280
 7423SOL     OW23167   2.016   4.583   5.933
 7423SOL    HW123168   1.940   4.586   5.867
 7423SOL    HW223169   2.091   4.641   5.900
 7424SOL     OW23170   5.789   1.484   4.307
 7424SOL    HW123171   5.816   1.559   4.246
 7424SOL    HW223172   5.690   1.483   4.317
 7425SOL     OW23173   3.779   4.581   6.539
 7425SOL    HW123174   3.783   4.496   6.485
 7425SOL    HW223175   3.743   4.560   6.630
 7426SOL     OW23176   0.294   2.361   6.986
 7426SOL    HW123177   0.243   2.287   0.003
 7426SOL    HW223178   0.317   2.431   0.029
 7427SOL     OW23179   2.997   6.181   4.331
 7427SOL    HW123180   2.904   6.163   4.363
 7427SOL    HW223181   3.003   6.165   4.233
 7428SOL     OW23182   3.656   2.117   5.089
 7428SOL    HW123183   3.672   2.192   5.154
 7428SOL    HW223184   3.572   2.069   5.114
 7429SOL     OW23185   0.015   0.109   2.648
 7429SOL    HW123186   6.952   0.067   2.668
 7429SOL    HW223187   0.088   0.043   2.666
 7430SOL     OW23188   6.891   4.388   5.670
 7430SOL    HW123189   6.974   4.422   5.714
 7430SOL    HW223190   6.902   4.291   5.648
 7431SOL     OW23191   0.843   3.506   1.253
 7431SOL    HW123192   0.802   3.586   1.298
 7431SOL    HW223193   0.941   3.523   1.239
 7432SOL     OW23194   0.984   6.093   3.534
 7432SOL    HW123195   0.990   6.031   3.455
 7432SOL    HW223196   0.911   6.062   3.595
 7433SOL     OW23197   6.134   5.284   1.279
 7433SOL    HW123198   6.124   5.369   1.333
 7433SOL    HW223199   6.230   5.274   1.252
 7434SOL     OW23200   2.772   1.984   6.898
 7434SOL    HW123201   2.870   1.965   6.898
 7434SOL    HW223202   2.725   1.917   6.955
 7435SOL     OW23203   3.693   6.681   5.733
 7435SOL    HW123204   3.610   6.629   5.710
 7435SOL    HW223205   3.673   6.744   5.808
 7436SOL     OW23206   5.893   3.173   6.769
 7436SOL    HW123207   5.919   3.086   6.812
 7436SOL    HW223208   5.922   3.249   6.827
 7437SOL     OW23209   6.527   5.097   6.367
 7437SOL    HW123210   6.465   5.122   6.292
 7437SOL    HW223211   6.621   5.119   6.342
 7438SOL     OW23212   0.835   4.136   2.055
 7438SOL    HW123213   0.890   4.054   2.070
 7438SOL    HW223214   0.886   4.217   2.086
 7439SOL     OW23215   2.522   6.985   3.540
 7439SOL    HW123216   2.599   0.012   3.577
 7439SOL    HW223217   2.516   6.898   3.589
 7440SOL     OW23218   1.286   3.143   4.841
 7440SOL    HW123219   1.368   3.111   4.889
 7440SOL    HW223220   1.266   3.084   4.764
 7441SOL     OW23221   5.412   7.025   3.871
 7441SOL    HW123222   5.390   0.096   3.865
 7441SOL    HW223223   5.368   6.975   3.797
 7442SOL     OW23224   0.883   1.217   6.502
 7442SOL    HW123225   0.934   1.147   6.552
 7442SOL    HW223226   0.785   1.206   6.520
 7443SOL     OW23227   6.982   1.901   0.539
 7443SOL    HW123228   6.965   1.981   0.596
 7443SOL    HW223229   6.907   1.890   0.474
 7444SOL     OW23230   6.712   3.413   6.799
 7444SOL    HW123231   6.641   3.483   6.809
 7444SOL    HW223232   6.678   3.326   6.836
 7445SOL     OW23233   5.116   1.766   1.680
 7445SOL    HW123234   5.024   1.737   1.709
 7445SOL    HW223235   5.122   1.866   1.683
 7446SOL     OW23236   6.255   4.167   6.992
 7446SOL    HW123237   6.242   4.095   0.034
 7446SOL    HW223238   6.312   4.133   6.917
 7447SOL     OW23239   2.243   4.909   6.592
 7447SOL    HW123240   2.268   4.910   6.496
 7447SOL    HW223241   2.325   4.904   6.648
 7448SOL     OW23242   5.436   6.778   5.775
 7448SOL    HW123243   5.519   6.722   5.772
 7448SOL    HW223244   5.365   6.735   5.720
 7449SOL     OW23245   4.880   2.205   2.059
 7449SOL    HW123246   4.799   2.244   2.103
 7449SOL    HW223247   4.887   2.240   1.966
 7450SOL     OW23248   4.917   2.809   3.524
 7450SOL    HW123249   4.844   2.742   3.523
 7450SOL    HW223250   4.955   2.819   3.432
 7451SOL     OW23251   1.574   0.621   4.102
 7451SOL    HW123252   1.672   0.626   4.082
 7451SOL    HW223253   1.535   0.713   4.099
 7452SOL     OW23254   1.970   0.232   4.798
 7452SOL    HW123255   2.029   0.310   4.777
 7452SOL    HW223256   1.884   0.264   4.838
 7453SOL     OW23257   5.801   6.016   5.030
 7453SOL    HW123258   5.898   5.995   5.042
 7453SOL    HW223259   5.790   6.092   4.967
 7454SOL     OW23260   1.178   3.616   1.194
 7454SOL    HW123261   1.162   3.684   1.265
 7454SOL    HW223262   1.131   3.643   1.110
 7455SOL     OW23263   5.541   1.902   1.051
 7455SOL    HW123264   5.460   1.887   0.995
 7455SOL    HW223265   5.545   1.832   1.123
 7456SOL     OW23266   1.634   2.295   4.836
 7456SOL    HW123267   1.540   2.303   4.804
 7456SOL    HW223268   1.688   2.372   4.801
 7457SOL     OW23269   5.911   0.886   5.180
 7457SOL    HW123270   6.009   0.869   5.170
 7457SOL    HW223271   5.865   0.800   5.203
 7458SOL     OW23272   2.192   6.829   0.254
 7458SOL    HW123273   2.171   6.923   0.279
 7458SOL    HW223274   2.289   6.821   0.231
 7459SOL     OW23275   4.479   0.341   5.960
 7459SOL    HW123276   4.399   0.391   5.995
 7459SOL    HW223277   4.451   0.286   5.880
 7460SOL     OW23278   2.213   5.394   1.087
 7460SOL    HW123279   2.267   5.459   1.034
 7460SOL    HW223280   2.271   5.348   1.153
 7461SOL     OW23281   5.402   1.425   5.966
 7461SOL    HW123282   5.361   1.516   5.955
 7461SOL    HW223283   5.359   1.361   5.904
 7462SOL     OW23284   2.300   2.181   1.615
 7462SOL    HW123285   2.293   2.084   1.593
 7462SOL    HW223286   2.319   2.232   1.531
 7463SOL     OW23287   3.416   2.840   1.363
 7463SOL    HW123288   3.364   2.878   1.440
 7463SOL    HW223289   3.501   2.891   1.351
 7464SOL     OW23290   3.584   6.021   6.950
 7464SOL    HW123291   3.629   6.068   7.025
 7464SOL    HW223292   3.626   5.931   6.937
 7465SOL     OW23293   1.698   0.361   0.983
 7465SOL    HW123294   1.654   0.427   0.923
 7465SOL    HW223295   1.661   0.270   0.965
 7466SOL     OW23296   0.732   0.869   6.578
 7466SOL    HW123297   0.814   0.886   6.524
 7466SOL    HW223298   0.752   0.880   6.675
 7467SOL     OW23299   6.544   1.990   1.255
 7467SOL    HW123300   6.600   1.909   1.237
 7467SOL    HW223301   6.546   2.050   1.175
 7468SOL     OW23302   4.729   2.290   2.432
 7468SOL    HW123303   4.818   2.335   2.438
 7468SOL    HW223304   4.669   2.345   2.374
 7469SOL     OW23305   0.961   6.981   6.703
 7469SOL    HW123306   0.975   6.890   6.742
 7469SOL    HW223307   0.921   0.015   6.772
 7470SOL     OW23308   0.723   2.727   2.757
 7470SOL    HW123309   0.761   2.729   2.850
 7470SOL    HW223310   0.733   2.635   2.720
 7471SOL     OW23311   6.421   6.435   4.805
 7471SOL    HW123312   6.396   6.455   4.899
 7471SOL    HW223313   6.377   6.501   4.744
 7472SOL     OW23314   4.598   6.621   4.366
 7472SOL    HW123315   4.642   6.569   4.293
 7472SOL    HW223316   4.526   6.679   4.328
 7473SOL     OW23317   0.144   3.980   3.512
 7473SOL    HW123318   0.177   3.967   3.419
 7473SOL    HW223319   0.204   4.044   3.560
 7474SOL     OW23320   3.020   0.718   3.839
 7474SOL    HW123321   2.949   0.672   3.784
 7474SOL    HW223322   3.095   0.654   3.855
 7475SOL     OW23323   4.924   0.406   2.120
 7475SOL    HW123324   4.866   0.478   2.158
 7475SOL    HW223325   4.982   0.443   2.048
 7476SOL     OW23326   4.457   6.001   4.782
 7476SOL    HW123327   4.382   5.982   4.720
 7476SOL    HW223328   4.476   6.100   4.782
 7477SOL     OW23329   4.296   0.756   3.877
 7477SOL    HW123330   4.202   0.736   3.850
 7477SOL    HW223331   4.331   0.832   3.823
 7478SOL     OW23332   3.762   3.908   6.087
 7478SOL    HW123333   3.678   3.897   6.035
 7478SOL    HW223334   3.740   3.940   6.179
 7479SOL     OW23335   3.832   1.702   0.710
 7479SOL    HW123336   3.883   1.787   0.695
 7479SOL    HW223337   3.885   1.625   0.673
 7480SOL     OW23338   6.022   5.717   1.657
 7480SOL    HW123339   5.984   5.625   1.657
 7480SOL    HW223340   6.109   5.717   1.607
 7481SOL     OW23341   5.522   5.467   1.334
 7481SOL    HW123342   5.503   5.497   1.240
 7481SOL    HW223343   5.519   5.545   1.396
 7482SOL     OW23344   4.090   1.168   1.880
 7482SOL    HW123345   4.007   1.160   1.935
 7482SOL    HW223346   4.077   1.121   1.793
 7483SOL     OW23347   3.837   1.893   4.320
 7483SOL    HW123348   3.837   1.833   4.240
 7483SOL    HW223349   3.809   1.840   4.401
 7484SOL     OW23350   0.448   6.957   1.906
 7484SOL    HW123351   0.404   6.914   1.985
 7484SOL    HW223352   0.524   6.899   1.875
 7485SOL     OW23353   2.928   6.289   5.529
 7485SOL    HW123354   2.843   6.283   5.581
 7485SOL    HW223355   2.925   6.225   5.452
 7486SOL     OW23356   2.423   6.894   5.446
 7486SOL    HW123357   2.479   6.877   5.527
 7486SOL    HW223358   2.400   6.807   5.402
 7487SOL     OW23359   1.964   6.903   2.725
 7487SOL    HW123360   1.865   6.900   2.712
 7487SOL    HW223361   2.006   6.957   2.653
 7488SOL     OW23362   2.369   0.132   5.134
 7488SOL    HW123363   2.338   0.041   5.106
 7488SOL    HW223364   2.456   0.125   5.183
 7489SOL     OW23365   4.853   2.241   5.214
 7489SOL    HW123366   4.951   2.231   5.235
 7489SOL    HW223367   4.835   2.335   5.183
 7490SOL     OW23368   0.194   0.619   0.637
 7490SOL    HW123369   0.155   0.685   0.702
 7490SOL    HW223370   0.272   0.660   0.591
 7491SOL     OW23371   0.821   4.930   6.463
 7491SOL    HW123372   0.893   4.922   6.532
 7491SOL    HW223373   0.858   4.973   6.381
 7492SOL     OW23374   2.353   2.026   5.582
 7492SOL    HW123375   2.277   2.069   5.532
 7492SOL    HW223376   2.318   1.983   5.665
 7493SOL     OW23377   6.219   4.627   6.022
 7493SOL    HW123378   6.277   4.551   6.048
 7493SOL    HW223379   6.274   4.700   5.981
 7494SOL     OW23380   5.475   0.880   2.311
 7494SOL    HW123381   5.515   0.951   2.369
 7494SOL    HW223382   5.394   0.843   2.355
 7495SOL     OW23383   1.720   1.334   0.850
 7495SOL    HW123384   1.688   1.271   0.921
 7495SOL    HW223385   1.820   1.332   0.847
 7496SOL     OW23386   1.698   4.569   5.824
 7496SOL    HW123387   1.676   4.578   5.727
 7496SOL    HW223388   1.671   4.478   5.856
 7497SOL     OW23389   2.704   5.276   1.936
 7497SOL    HW123390   2.722   5.178   1.942
 7497SOL    HW223391   2.734   5.310   1.846
 7498SOL     OW23392   2.619   0.931   4.341
 7498SOL    HW123393   2.664   0.999   4.398
 7498SOL    HW223394   2.614   0.964   4.247
 7499SOL     OW23395   6.418   0.018   3.248
 7499SOL    HW123396   6.479   6.989   3.192
 7499SOL    HW223397   6.391   6.991   3.329
 7500SOL     OW23398   4.123   6.092   2.410
 7500SOL    HW123399   4.092   6.066   2.319
 7500SOL    HW223400   4.088   6.183   2.433
 7501SOL     OW23401   0.085   4.323   3.632
 7501SOL    HW123402   0.169   4.269   3.641
 7501SOL    HW223403   0.010   4.263   3.604
 7502SOL     OW23404   1.889   1.488   5.284
 7502SOL    HW123405   1.904   1.389   5.287
 7502SOL    HW223406   1.857   1.519   5.373
 7503SOL     OW23407   2.710   0.667   6.537
 7503SOL    HW123408   2.686   0.641   6.631
 7503SOL    HW223409   2.788   0.729   6.539
 7504SOL     OW23410   4.191   6.450   3.918
 7504SOL    HW123411   4.201   6.356   3.884
 7504SOL    HW223412   4.215   6.452   4.015
 7505SOL     OW23413   3.530   1.292   5.071
 7505SOL    HW123414   3.562   1.352   5.145
 7505SOL    HW223415   3.465   1.226   5.109
 7506SOL     OW23416   3.751   0.980   2.531
 7506SOL    HW123417   3.834   0.993   2.477
 7506SOL    HW223418   3.690   1.058   2.518
 7507SOL     OW23419   0.185   6.629   6.618
 7507SOL    HW123420   0.192   6.539   6.662
 7507SOL    HW223421   0.276   6.660   6.590
 7508SOL     OW23422   5.696   6.420   2.443
 7508SOL    HW123423   5.657   6.412   2.351
 7508SOL    HW223424   5.654   6.496   2.491
 7509SOL     OW23425   4.885   4.383   0.921
 7509SOL    HW123426   4.925   4.383   0.829
 7509SOL    HW223427   4.791   4.348   0.916
 7510SOL     OW23428   3.134   4.052   4.966
 7510SOL    HW123429   3.118   3.975   4.904
 7510SOL    HW223430   3.225   4.090   4.949
 7511SOL     OW23431   1.535   6.942   2.240
 7511SOL    HW123432   1.545   0.015   2.232
 7511SOL    HW223433   1.453   6.921   2.293
 7512SOL     OW23434   3.233   4.119   1.495
 7512SOL    HW123435   3.134   4.107   1.504
 7512SOL    HW223436   3.280   4.048   1.546
 7513SOL     OW23437   1.452   3.016   0.205
 7513SOL    HW123438   1.488   2.925   0.225
 7513SOL    HW223439   1.527   3.077   0.178
 7514SOL     OW23440   2.963   6.360   2.242
 7514SOL    HW123441   2.918   6.449   2.232
 7514SOL    HW223442   3.061   6.371   2.224
 7515SOL     OW23443   0.718   0.374   2.866
 7515SOL    HW123444   0.750   0.303   2.928
 7515SOL    HW223445   0.789   0.444   2.857
 7516SOL     OW23446   6.465   6.235   4.430
 7516SOL    HW123447   6.426   6.324   4.407
 7516SOL    HW223448   6.459   6.220   4.529
 7517SOL     OW23449   6.867   3.770   1.193
 7517SOL    HW123450   6.781   3.773   1.244
 7517SOL    HW223451   6.921   3.691   1.222
 7518SOL     OW23452   3.706   5.874   3.422
 7518SOL    HW123453   3.743   5.908   3.336
 7518SOL    HW223454   3.655   5.789   3.406
 7519SOL     OW23455   0.817   6.234   3.971
 7519SOL    HW123456   0.887   6.218   4.041
 7519SOL    HW223457   0.814   6.332   3.949
 7520SOL     OW23458   1.925   0.536   2.184
 7520SOL    HW123459   1.984   0.606   2.145
 7520SOL    HW223460   1.865   0.499   2.112
 7521SOL     OW23461   4.437   4.498   5.475
 7521SOL    HW123462   4.428   4.413   5.526
 7521SOL    HW223463   4.409   4.575   5.533
 7522SOL     OW23464   2.762   0.958   6.251
 7522SOL    HW123465   2.841   0.988   6.304
 7522SOL    HW223466   2.736   1.029   6.186
 7523SOL     OW23467   6.460   0.645   5.330
 7523SOL    HW123468   6.427   0.631   5.423
 7523SOL    HW223469   6.459   0.558   5.281
 7524SOL     OW23470   6.871   2.174   6.236
 7524SOL    HW123471   6.778   2.199   6.208
 7524SOL    HW223472   6.937   2.217   6.173
 7525SOL     OW23473   2.088   0.018   6.496
 7525SOL    HW123474   2.091   6.945   6.513
 7525SOL    HW223475   2.124   0.067   6.575
 7526SOL     OW23476   3.896   3.008   3.467
 7526SOL    HW123477   3.882   3.034   3.562
 7526SOL    HW223478   3.980   2.955   3.458
 7527SOL     OW23479   4.482   4.801   2.421
 7527SOL    HW123480   4.430   4.886   2.420
 7527SOL    HW223481   4.580   4.822   2.424
 7528SOL     OW23482   4.568   2.096   0.359
 7528SOL    HW123483   4.564   2.087   0.259
 7528SOL    HW223484   4.603   2.011   0.398
 7529SOL     OW23485   5.435   1.178   3.715
 7529SOL    HW123486   5.506   1.159   3.783
 7529SOL    HW223487   5.467   1.149   3.625
 7530SOL     OW23488   6.785   3.323   2.438
 7530SOL    HW123489   6.767   3.421   2.440
 7530SOL    HW223490   6.858   3.303   2.372
 7531SOL     OW23491   4.620   1.857   4.445
 7531SOL    HW123492   4.582   1.949   4.440
 7531SOL    HW223493   4.668   1.836   4.359
 7532SOL     OW23494   5.160   5.306   1.841
 7532SOL    HW123495   5.088   5.273   1.779
 7532SOL    HW223496   5.117   5.358   1.916
 7533SOL     OW23497   1.613   0.840   3.078
 7533SOL    HW123498   1.680   0.768   3.061
 7533SOL    HW223499   1.624   0.875   3.170
 7534SOL     OW23500   3.674   5.899   4.937
 7534SOL    HW123501   3.756   5.842   4.941
 7534SOL    HW223502   3.673   5.949   4.851
 7535SOL     OW23503   2.515   1.245   5.905
 7535SOL    HW123504   2.416   1.234   5.897
 7535SOL    HW223505   2.537   1.343   5.912
 7536SOL     OW23506   5.186   4.796   5.090
 7536SOL    HW123507   5.093   4.822   5.118
 7536SOL    HW223508   5.185   4.771   4.993
 7537SOL     OW23509   2.015   4.443   5.204
 7537SOL    HW123510   2.034   4.518   5.140
 7537SOL    HW223511   2.044   4.357   5.162
 7538SOL     OW23512   3.175   3.487   2.318
 7538SOL    HW123513   3.162   3.499   2.416
 7538SOL    HW223514   3.154   3.393   2.292
 7539SOL     OW23515   2.407   2.326   5.552
 7539SOL    HW123516   2.457   2.272   5.483
 7539SOL    HW223517   2.356   2.264   5.612
 7540SOL     OW23518   3.302   0.773   6.363
 7540SOL    HW123519   3.230   0.811   6.304
 7540SOL    HW223520   3.268   0.764   6.456
 7541SOL     OW23521   0.122   3.741   5.488
 7541SOL    HW123522   0.095   3.645   5.478
 7541SOL    HW223523   0.130   3.764   5.585
 7542SOL     OW23524   1.296   0.081   5.765
 7542SOL    HW123525   1.274   0.050   5.858
 7542SOL    HW223526   1.363   0.019   5.725
 7543SOL     OW23527   3.991   1.596   0.480
 7543SOL    HW123528   4.033   1.660   0.415
 7543SOL    HW223529   4.048   1.515   0.488
 7544SOL     OW23530   6.891   1.739   3.316
 7544SOL    HW123531   6.933   1.773   3.231
 7544SOL    HW223532   6.954   1.677   3.362
 7545SOL     OW23533   4.964   6.511   2.856
 7545SOL    HW123534   4.998   6.599   2.889
 7545SOL    HW223535   4.912   6.525   2.771
 7546SOL     OW23536   4.539   0.641   0.172
 7546SOL    HW123537   4.449   0.655   0.214
 7546SOL    HW223538   4.529   0.638   0.073
 7547SOL     OW23539   3.853   6.552   0.073
 7547SOL    HW123540   3.936   6.508   0.107
 7547SOL    HW223541   3.875   6.644   0.041
 7548SOL     OW23542   2.286   1.862   6.966
 7548SOL    HW123543   2.337   1.788   6.921
 7548SOL    HW223544   2.194   1.866   6.927
 7549SOL     OW23545   5.830   1.913   2.062
 7549SOL    HW123546   5.832   1.847   2.137
 7549SOL    HW223547   5.831   2.006   2.099
 7550SOL     OW23548   2.139   5.675   2.569
 7550SOL    HW123549   2.053   5.719   2.545
 7550SOL    HW223550   2.123   5.605   2.639
 7551SOL     OW23551   4.625   3.795   7.011
 7551SOL    HW123552   4.709   3.745   6.992
 7551SOL    HW223553   4.607   3.861   6.938
 7552SOL     OW23554   2.450   5.349   3.572
 7552SOL    HW123555   2.410   5.379   3.658
 7552SOL    HW223556   2.425   5.413   3.499
 7553SOL     OW23557   3.621   4.900   5.937
 7553SOL    HW123558   3.622   4.804   5.907
 7553SOL    HW223559   3.593   4.958   5.860
 7554SOL     OW23560   5.156   1.467   0.408
 7554SOL    HW123561   5.202   1.532   0.348
 7554SOL    HW223562   5.221   1.433   0.477
 7555SOL     OW23563   0.951   5.867   5.278
 7555SOL    HW123564   0.982   5.961   5.295
 7555SOL    HW223565   1.012   5.803   5.325
 7556SOL     OW23566   0.299   2.860   5.732
 7556SOL    HW123567   0.374   2.796   5.752
 7556SOL    HW223568   0.336   2.952   5.722
 7557SOL     OW23569   5.187   3.800   6.150
 7557SOL    HW123570   5.285   3.808   6.134
 7557SOL    HW223571   5.159   3.705   6.141
 7558SOL     OW23572   2.559   2.507   3.998
 7558SOL    HW123573   2.615   2.557   4.065
 7558SOL    HW223574   2.562   2.409   4.018
 7559SOL     OW23575   6.111   5.522   1.387
 7559SOL    HW123576   6.020   5.559   1.405
 7559SOL    HW223577   6.178   5.567   1.446
 7560SOL     OW23578   5.107   0.134   6.653
 7560SOL    HW123579   5.129   0.049   6.701
 7560SOL    HW223580   5.065   0.198   6.718
 7561SOL     OW23581   0.861   3.673   0.503
 7561SOL    HW123582   0.853   3.773   0.508
 7561SOL    HW223583   0.819   3.634   0.585
 7562SOL     OW23584   5.153   5.928   4.525
 7562SOL    HW123585   5.091   5.877   4.465
 7562SOL    HW223586   5.247   5.895   4.513
 7563SOL     OW23587   2.906   0.110   1.439
 7563SOL    HW123588   2.904   0.167   1.521
 7563SOL    HW223589   2.979   0.042   1.448
 7564SOL     OW23590   4.865   1.073   3.172
 7564SOL    HW123591   4.768   1.072   3.150
 7564SOL    HW223592   4.903   0.981   3.160
 7565SOL     OW23593   4.450   4.739   6.912
 7565SOL    HW123594   4.540   4.705   6.940
 7565SOL    HW223595   4.452   4.839   6.908
 7566SOL     OW23596   1.318   4.908   3.666
 7566SOL    HW123597   1.390   4.863   3.719
 7566SOL    HW223598   1.262   4.964   3.726
 7567SOL     OW23599   1.506   3.239   5.485
 7567SOL    HW123600   1.559   3.321   5.465
 7567SOL    HW223601   1.416   3.265   5.521
 7568SOL     OW23602   5.466   5.352   4.278
 7568SOL    HW123603   5.479   5.373   4.181
 7568SOL    HW223604   5.538   5.290   4.309
 7569SOL     OW23605   4.601   6.096   6.475
 7569SOL    HW123606   4.652   6.010   6.473
 7569SOL    HW223607   4.635   6.158   6.404
 7570SOL     OW23608   5.595   4.413   5.317
 7570SOL    HW123609   5.497   4.430   5.322
 7570SOL    HW223610   5.614   4.345   5.246
 7571SOL     OW23611   5.155   4.500   2.122
 7571SOL    HW123612   5.165   4.497   2.023
 7571SOL    HW223613   5.229   4.449   2.165
 7572SOL     OW23614   5.014   0.270   3.965
 7572SOL    HW123615   4.953   0.229   4.033
 7572SOL    HW223616   5.017   0.369   3.977
 7573SOL     OW23617   5.349   5.774   3.847
 7573SOL    HW123618   5.433   5.784   3.795
 7573SOL    HW223619   5.299   5.861   3.846
 7574SOL     OW23620   5.744   1.099   4.112
 7574SOL    HW123621   5.830   1.053   4.134
 7574SOL    HW223622   5.742   1.188   4.159
 7575SOL     OW23623   4.379   0.667   5.841
 7575SOL    HW123624   4.462   0.657   5.786
 7575SOL    HW223625   4.301   0.688   5.781
 7576SOL     OW23626   5.571   5.503   6.779
 7576SOL    HW123627   5.607   5.478   6.690
 7576SOL    HW223628   5.591   5.431   6.845
 7577SOL     OW23629   6.549   0.015   4.823
 7577SOL    HW123630   6.624   0.003   4.887
 7577SOL    HW223631   6.550   6.965   4.757
 7578SOL     OW23632   1.698   6.407   4.185
 7578SOL    HW123633   1.764   6.385   4.256
 7578SOL    HW223634   1.701   6.337   4.114
 7579SOL     OW23635   4.481   2.442   2.370
 7579SOL    HW123636   4.419   2.418   2.294
 7579SOL    HW223637   4.530   2.526   2.348
 7580SOL     OW23638   1.426   3.870   3.895
 7580SOL    HW123639   1.486   3.805   3.941
 7580SOL    HW223640   1.337   3.828   3.880
 7581SOL     OW23641   4.413   1.583   0.678
 7581SOL    HW123642   4.482   1.652   0.703
 7581SOL    HW223643   4.323   1.614   0.709
 7582SOL     OW23644   3.763   1.477   0.371
 7582SOL    HW123645   3.851   1.498   0.412
 7582SOL    HW223646   3.709   1.560   0.362
 7583SOL     OW23647   6.333   3.771   1.867
 7583SOL    HW123648   6.365   3.865   1.874
 7583SOL    HW223649   6.328   3.744   1.771
 7584SOL     OW23650   2.492   0.022   1.429
 7584SOL    HW123651   2.457   6.957   1.448
 7584SOL    HW223652   2.470   0.047   1.335
 7585SOL     OW23653   1.513   3.489   5.684
 7585SOL    HW123654   1.454   3.502   5.764
 7585SOL    HW223655   1.457   3.485   5.601
 7586SOL     OW23656   2.748   0.622   2.619
 7586SOL    HW123657   2.723   0.683   2.544
 7586SOL    HW223658   2.751   0.528   2.587
 7587SOL     OW23659   2.416   1.379   6.588
 7587SOL    HW123660   2.513   1.395   6.610
 7587SOL    HW223661   2.375   1.464   6.556
 7588SOL     OW23662   0.440   4.294   1.707
 7588SOL    HW123663   0.513   4.337   1.654
 7588SOL    HW223664   0.434   4.337   1.797
 7589SOL     OW23665   6.052   6.181   0.713
 7589SOL    HW123666   6.021   6.095   0.672
 7589SOL    HW223667   6.095   6.238   0.643
 7590SOL     OW23668   2.937   1.762   5.788
 7590SOL    HW123669   2.976   1.826   5.855
 7590SOL    HW223670   2.865   1.808   5.736
 7591SOL     OW23671   0.226   5.729   0.255
 7591SOL    HW123672   0.230   5.746   0.354
 7591SOL    HW223673   0.277   5.646   0.233
 7592SOL     OW23674   6.759   4.664   6.772
 7592SOL    HW123675   6.710   4.582   6.742
 7592SOL    HW223676   6.769   4.662   6.871
 7593SOL     OW23677   6.069   2.652   6.773
 7593SOL    HW123678   6.064   2.564   6.821
 7593SOL    HW223679   6.005   2.651   6.696
 7594SOL     OW23680   0.744   4.898   2.062
 7594SOL    HW123681   0.697   4.986   2.055
 7594SOL    HW223682   0.677   4.824   2.062
 7595SOL     OW23683   0.454   2.742   6.583
 7595SOL    HW123684   0.499   2.676   6.523
 7595SOL    HW223685   0.462   2.712   6.678
 7596SOL     OW23686   5.180   5.427   2.379
 7596SOL    HW123687   5.191   5.523   2.404
 7596SOL    HW223688   5.265   5.392   2.341
 7597SOL     OW23689   2.831   5.988   2.002
 7597SOL    HW123690   2.901   6.027   1.942
 7597SOL    HW223691   2.871   5.915   2.057
 7598SOL     OW23692   6.364   0.932   2.902
 7598SOL    HW123693   6.420   0.870   2.848
 7598SOL    HW223694   6.272   0.893   2.913
 7599SOL     OW23695   5.194   1.061   3.331
 7599SOL    HW123696   5.138   1.001   3.389
 7599SOL    HW223697   5.138   1.134   3.295
 7600SOL     OW23698   1.633   0.758   2.203
 7600SOL    HW123699   1.627   0.845   2.154
 7600SOL    HW223700   1.715   0.757   2.260
 7601SOL     OW23701   1.858   5.544   3.725
 7601SOL    HW123702   1.860   5.450   3.759
 7601SOL    HW223703   1.790   5.552   3.652
 7602SOL     OW23704   1.886   3.851   4.801
 7602SOL    HW123705   1.839   3.892   4.880
 7602SOL    HW223706   1.935   3.770   4.832
 7603SOL     OW23707   1.392   5.863   6.480
 7603SOL    HW123708   1.432   5.799   6.414
 7603SOL    HW223709   1.390   5.955   6.441
 7604SOL     OW23710   2.595   5.883   4.306
 7604SOL    HW123711   2.617   5.795   4.265
 7604SOL    HW223712   2.505   5.914   4.275
 7605SOL     OW23713   1.745   5.873   7.021
 7605SOL    HW123714   1.820   5.928   0.031
 7605SOL    HW223715   1.658   5.917   0.016
 7606SOL     OW23716   0.176   2.790   2.370
 7606SOL    HW123717   0.124   2.737   2.303
 7606SOL    HW223718   0.234   2.856   2.322
 7607SOL     OW23719   4.288   6.740   6.738
 7607SOL    HW123720   4.347   6.662   6.719
 7607SOL    HW223721   4.341   6.824   6.736
 7608SOL     OW23722   3.267   3.755   3.639
 7608SOL    HW123723   3.265   3.792   3.547
 7608SOL    HW223724   3.296   3.659   3.635
 7609SOL     OW23725   6.645   3.213   3.120
 7609SOL    HW123726   6.656   3.297   3.173
 7609SOL    HW223727   6.710   3.144   3.153
 7610SOL     OW23728   6.223   0.826   0.291
 7610SOL    HW123729   6.155   0.879   0.240
 7610SOL    HW223730   6.275   0.888   0.350
 7611SOL     OW23731   0.693   1.851   0.217
 7611SOL    HW123732   0.701   1.757   0.250
 7611SOL    HW223733   0.659   1.909   0.290
 7612SOL     OW23734   4.218   2.322   4.181
 7612SOL    HW123735   4.171   2.254   4.237
 7612SOL    HW223736   4.244   2.283   4.093
 7613SOL     OW23737   4.686   2.498   1.770
 7613SOL    HW123738   4.638   2.533   1.690
 7613SOL    HW223739   4.721   2.574   1.825
 7614SOL     OW23740   4.190   2.676   1.668
 7614SOL    HW123741   4.163   2.667   1.572
 7614SOL    HW223742   4.123   2.732   1.716
 7615SOL     OW23743   5.051   4.608   6.283
 7615SOL    HW123744   5.111   4.638   6.209
 7615SOL    HW223745   5.075   4.656   6.367
 7616SOL     OW23746   0.715   4.523   4.247
 7616SOL    HW123747   0.786   4.497   4.312
 7616SOL    HW223748   0.726   4.470   4.163
 7617SOL     OW23749   2.641   5.625   3.135
 7617SOL    HW123750   2.733   5.599   3.108
 7617SOL    HW223751   2.601   5.553   3.192
 7618SOL     OW23752   1.091   1.780   6.824
 7618SOL    HW123753   1.122   1.760   6.917
 7618SOL    HW223754   0.993   1.765   6.818
 7619SOL     OW23755   5.895   3.093   5.263
 7619SOL    HW123756   5.833   3.098   5.341
 7619SOL    HW223757   5.886   3.004   5.219
 7620SOL     OW23758   3.490   6.257   0.488
 7620SOL    HW123759   3.449   6.341   0.455
 7620SOL    HW223760   3.476   6.248   0.587
 7621SOL     OW23761   0.635   0.800   0.348
 7621SOL    HW123762   0.593   0.714   0.318
 7621SOL    HW223763   0.734   0.795   0.333
 7622SOL     OW23764   5.696   3.714   1.779
 7622SOL    HW123765   5.616   3.707   1.719
 7622SOL    HW223766   5.749   3.796   1.755
 7623SOL     OW23767   4.648   4.829   6.561
 7623SOL    HW123768   4.628   4.742   6.516
 7623SOL    HW223769   4.676   4.813   6.655
 7624SOL     OW23770   0.360   2.599   4.211
 7624SOL    HW123771   0.382   2.633   4.302
 7624SOL    HW223772   0.322   2.507   4.218
 7625SOL     OW23773   4.514   0.602   0.888
 7625SOL    HW123774   4.525   0.645   0.798
 7625SOL    HW223775   4.507   0.673   0.958
 7626SOL     OW23776   6.882   6.311   5.290
 7626SOL    HW123777   6.972   6.284   5.256
 7626SOL    HW223778   6.882   6.307   5.390
 7627SOL     OW23779   6.503   3.242   0.361
 7627SOL    HW123780   6.603   3.249   0.355
 7627SOL    HW223781   6.465   3.327   0.398
 7628SOL     OW23782   3.482   0.788   1.366
 7628SOL    HW123783   3.574   0.802   1.329
 7628SOL    HW223784   3.454   0.694   1.352
 7629SOL     OW23785   6.600   6.271   2.568
 7629SOL    HW123786   6.637   6.362   2.586
 7629SOL    HW223787   6.527   6.278   2.500
 7630SOL     OW23788   6.422   6.040   2.155
 7630SOL    HW123789   6.520   6.060   2.150
 7630SOL    HW223790   6.393   6.037   2.251
 7631SOL     OW23791   1.050   1.333   5.722
 7631SOL    HW123792   1.096   1.382   5.647
 7631SOL    HW223793   0.951   1.341   5.711
 7632SOL     OW23794   3.995   2.271   1.226
 7632SOL    HW123795   4.066   2.206   1.199
 7632SOL    HW223796   3.983   2.267   1.325
 7633SOL     OW23797   5.166   2.211   0.432
 7633SOL    HW123798   5.235   2.143   0.408
 7633SOL    HW223799   5.096   2.215   0.360
 7634SOL     OW23800   1.050   1.326   2.285
 7634SOL    HW123801   1.081   1.325   2.190
 7634SOL    HW223802   1.029   1.420   2.312
 7635SOL     OW23803   2.599   5.186   5.381
 7635SOL    HW123804   2.502   5.179   5.404
 7635SOL    HW223805   2.629   5.281   5.395
 7636SOL     OW23806   0.971   1.571   3.600
 7636SOL    HW123807   0.911   1.642   3.563
 7636SOL    HW223808   1.051   1.614   3.642
 7637SOL     OW23809   1.944   6.682   2.556
 7637SOL    HW123810   1.915   6.747   2.486
 7637SOL    HW223811   1.940   6.726   2.646
 7638SOL     OW23812   5.131   5.767   2.063
 7638SOL    HW123813   5.057   5.818   2.019
 7638SOL    HW223814   5.219   5.801   2.031
 7639SOL     OW23815   1.163   1.897   0.053
 7639SOL    HW123816   1.186   1.956   0.130
 7639SOL    HW223817   1.172   1.948   6.994
 7640SOL     OW23818   2.905   2.221   6.836
 7640SOL    HW123819   2.944   2.247   6.925
 7640SOL    HW223820   2.863   2.130   6.843
 7641SOL     OW23821   0.878   4.103   1.709
 7641SOL    HW123822   0.785   4.098   1.746
 7641SOL    HW223823   0.922   4.187   1.739
 7642SOL     OW23824   2.492   1.586   3.294
 7642SOL    HW123825   2.474   1.489   3.278
 7642SOL    HW223826   2.432   1.641   3.236
 7643SOL     OW23827   4.615   2.171   4.122
 7643SOL    HW123828   4.638   2.266   4.102
 7643SOL    HW223829   4.536   2.144   4.068
 7644SOL     OW23830   6.360   1.844   2.788
 7644SOL    HW123831   6.342   1.827   2.692
 7644SOL    HW223832   6.450   1.887   2.798
 7645SOL     OW23833   4.572   4.651   6.144
 7645SOL    HW123834   4.476   4.643   6.169
 7645SOL    HW223835   4.584   4.622   6.048
 7646SOL     OW23836   2.026   2.315   2.552
 7646SOL    HW123837   2.101   2.357   2.500
 7646SOL    HW223838   1.946   2.307   2.492
 7647SOL     OW23839   1.352   3.182   1.054
 7647SOL    HW123840   1.365   3.244   1.131
 7647SOL    HW223841   1.435   3.127   1.041
 7648SOL     OW23842   4.114   2.277   3.903
 7648SOL    HW123843   4.039   2.292   3.968
 7648SOL    HW223844   4.097   2.192   3.852
 7649SOL     OW23845   1.344   0.992   2.765
 7649SOL    HW123846   1.336   0.903   2.722
 7649SOL    HW223847   1.345   1.063   2.695
 7650SOL     OW23848   6.614   3.214   1.192
 7650SOL    HW123849   6.632   3.122   1.227
 7650SOL    HW223850   6.698   3.252   1.152
 7651SOL     OW23851   2.577   0.234   5.598
 7651SOL    HW123852   2.578   0.324   5.642
 7651SOL    HW223853   2.655   0.180   5.631
 7652SOL     OW23854   6.970   3.686   4.517
 7652SOL    HW123855   6.937   3.615   4.579
 7652SOL    HW223856   6.978   3.649   4.424
 7653SOL     OW23857   2.061   1.722   0.411
 7653SOL    HW123858   2.014   1.740   0.325
 7653SOL    HW223859   1.999   1.677   0.475
 7654SOL     OW23860   5.089   2.936   3.160
 7654SOL    HW123861   5.159   3.001   3.190
 7654SOL    HW223862   5.132   2.847   3.143
 7655SOL     OW23863   3.736   0.516   3.736
 7655SOL    HW123864   3.729   0.572   3.819
 7655SOL    HW223865   3.790   0.564   3.668
 7656SOL     OW23866   0.959   5.667   5.792
 7656SOL    HW123867   0.938   5.572   5.814
 7656SOL    HW223868   0.882   5.708   5.742
 7657SOL     OW23869   2.648   2.394   2.903
 7657SOL    HW123870   2.650   2.471   2.967
 7657SOL    HW223871   2.735   2.345   2.907
 7658SOL     OW23872   4.634   6.637   5.693
 7658SOL    HW123873   4.556   6.652   5.631
 7658SOL    HW223874   4.708   6.699   5.667
 7659SOL     OW23875   5.576   6.509   6.372
 7659SOL    HW123876   5.478   6.510   6.351
 7659SOL    HW223877   5.627   6.488   6.289
 7660SOL     OW23878   6.205   5.658   4.357
 7660SOL    HW123879   6.148   5.737   4.381
 7660SOL    HW223880   6.280   5.688   4.298
 7661SOL     OW23881   6.155   1.782   4.393
 7661SOL    HW123882   6.105   1.696   4.394
 7661SOL    HW223883   6.222   1.781   4.319
 7662SOL     OW23884   1.208   2.261   2.177
 7662SOL    HW123885   1.126   2.220   2.136
 7662SOL    HW223886   1.206   2.360   2.164
 7663SOL     OW23887   6.339   6.638   6.021
 7663SOL    HW123888   6.334   6.702   6.099
 7663SOL    HW223889   6.248   6.600   6.004
 7664SOL     OW23890   3.272   0.103   2.483
 7664SOL    HW123891   3.256   0.079   2.388
 7664SOL    HW223892   3.195   0.158   2.517
 7665SOL     OW23893   3.839   0.254   3.807
 7665SOL    HW123894   3.852   0.251   3.906
 7665SOL    HW223895   3.787   0.337   3.783
 7666SOL     OW23896   6.583   0.132   1.246
 7666SOL    HW123897   6.680   0.134   1.271
 7666SOL    HW223898   6.551   0.224   1.228
 7667SOL     OW23899   5.278   5.766   0.988
 7667SOL    HW123900   5.294   5.732   0.895
 7667SOL    HW223901   5.250   5.862   0.984
 7668SOL     OW23902   2.831   4.375   1.084
 7668SOL    HW123903   2.843   4.280   1.056
 7668SOL    HW223904   2.863   4.387   1.178
 7669SOL     OW23905   5.399   1.698   5.065
 7669SOL    HW123906   5.330   1.631   5.036
 7669SOL    HW223907   5.441   1.666   5.150
 7670SOL     OW23908   1.484   5.644   6.352
 7670SOL    HW123909   1.460   5.647   6.255
 7670SOL    HW223910   1.453   5.558   6.393
 7671SOL     OW23911   4.331   1.244   4.557
 7671SOL    HW123912   4.386   1.324   4.532
 7671SOL    HW223913   4.302   1.252   4.652
 7672SOL     OW23914   5.510   6.060   3.888
 7672SOL    HW123915   5.583   6.127   3.873
 7672SOL    HW223916   5.502   6.042   3.987
 7673SOL     OW23917   2.188   4.944   0.416
 7673SOL    HW123918   2.192   5.043   0.417
 7673SOL    HW223919   2.256   4.907   0.479
 7674SOL     OW23920   6.374   2.275   4.479
 7674SOL    HW123921   6.289   2.300   4.525
 7674SOL    HW223922   6.373   2.177   4.458
 7675SOL     OW23923   4.977   0.705   2.694
 7675SOL    HW123924   5.028   0.620   2.698
 7675SOL    HW223925   4.884   0.690   2.728
 7676SOL     OW23926   1.024   1.711   0.410
 7676SOL    HW123927   0.984   1.790   0.364
 7676SOL    HW223928   1.042   1.639   0.343
 7677SOL     OW23929   1.331   3.887   1.830
 7677SOL    HW123930   1.343   3.913   1.925
 7677SOL    HW223931   1.281   3.800   1.825
 7678SOL     OW23932   1.232   1.042   6.231
 7678SOL    HW123933   1.298   0.986   6.281
 7678SOL    HW223934   1.264   1.056   6.137
 7679SOL     OW23935   1.150   6.663   4.976
 7679SOL    HW123936   1.052   6.644   4.987
 7679SOL    HW223937   1.200   6.577   4.974
 7680SOL     OW23938   2.090   2.872   0.082
 7680SOL    HW123939   2.140   2.889   7.023
 7680SOL    HW223940   2.130   2.793   0.128
 7681SOL     OW23941   3.080   0.371   0.477
 7681SOL    HW123942   3.021   0.291   0.470
 7681SOL    HW223943   3.077   0.408   0.570
 7682SOL     OW23944   2.507   0.483   2.006
 7682SOL    HW123945   2.576   0.470   1.934
 7682SOL    HW223946   2.418   0.498   1.964
 7683SOL     OW23947   6.802   2.236   4.225
 7683SOL    HW123948   6.752   2.290   4.293
 7683SOL    HW223949   6.743   2.163   4.190
 7684SOL     OW23950   5.867   2.051   0.199
 7684SOL    HW123951   5.797   2.115   0.229
 7684SOL    HW223952   5.937   2.042   0.270
 7685SOL     OW23953   3.543   3.008   0.126
 7685SOL    HW123954   3.510   2.995   0.219
 7685SOL    HW223955   3.466   3.007   0.062
 7686SOL     OW23956   4.612   0.645   3.485
 7686SOL    HW123957   4.555   0.586   3.429
 7686SOL    HW223958   4.587   0.634   3.581
 7687SOL     OW23959   6.295   5.354   5.032
 7687SOL    HW123960   6.237   5.282   4.993
 7687SOL    HW223961   6.244   5.440   5.036
 7688SOL     OW23962   0.516   0.764   6.794
 7688SOL    HW123963   0.508   0.819   6.711
 7688SOL    HW223964   0.424   0.742   6.828
 7689SOL     OW23965   4.972   5.798   3.805
 7689SOL    HW123966   5.063   5.833   3.782
 7689SOL    HW223967   4.911   5.809   3.726
 7690SOL     OW23968   5.991   5.309   1.835
 7690SOL    HW123969   6.036   5.348   1.754
 7690SOL    HW223970   6.047   5.235   1.871
 7691SOL     OW23971   4.770   2.920   4.361
 7691SOL    HW123972   4.743   3.010   4.326
 7691SOL    HW223973   4.853   2.929   4.417
 7692SOL     OW23974   0.563   7.020   1.132
 7692SOL    HW123975   0.630   0.067   1.122
 7692SOL    HW223976   0.611   6.932   1.140
 7693SOL     OW23977   4.429   0.210   0.696
 7693SOL    HW123978   4.423   0.237   0.792
 7693SOL    HW223979   4.338   0.205   0.656
 7694SOL     OW23980   0.497   4.313   4.191
 7694SOL    HW123981   0.398   4.302   4.188
 7694SOL    HW223982   0.538   4.270   4.111
 7695SOL     OW23983   3.674   6.850   1.210
 7695SOL    HW123984   3.575   6.851   1.205
 7695SOL    HW223985   3.705   6.767   1.258
 7696SOL     OW23986   7.004   2.088   4.397
 7696SOL    HW123987   6.961   2.087   4.307
 7696SOL    HW223988   0.034   2.006   4.408
 7697SOL     OW23989   2.557   0.893   2.796
 7697SOL    HW123990   2.494   0.821   2.766
 7697SOL    HW223991   2.608   0.926   2.716
 7698SOL     OW23992   0.309   2.987   4.617
 7698SOL    HW123993   0.238   3.033   4.670
 7698SOL    HW223994   0.268   2.931   4.545
 7699SOL     OW23995   3.516   5.491   6.683
 7699SOL    HW123996   3.483   5.445   6.600
 7699SOL    HW223997   3.503   5.431   6.762
 7700SOL     OW23998   5.080   6.867   5.297
 7700SOL    HW123999   5.144   6.921   5.242
 7700SOL    HW224000   5.087   6.896   5.393
 7701SOL     OW24001   5.832   1.549   6.423
 7701SOL    HW124002   5.836   1.467   6.366
 7701SOL    HW224003   5.777   1.530   6.505
 7702SOL     OW24004   3.600   6.015   5.746
 7702SOL    HW124005   3.623   6.082   5.675
 7702SOL    HW224006   3.555   5.937   5.704
 7703SOL     OW24007   6.759   1.250   4.621
 7703SOL    HW124008   6.816   1.209   4.550
 7703SOL    HW224009   6.788   1.345   4.636
 7704SOL     OW24010   4.578   4.990   5.435
 7704SOL    HW124011   4.546   5.040   5.354
 7704SOL    HW224012   4.525   5.020   5.515
 7705SOL     OW24013   3.515   4.631   5.887
 7705SOL    HW124014   3.448   4.577   5.837
 7705SOL    HW224015   3.606   4.612   5.850
 7706SOL     OW24016   4.889   1.352   5.838
 7706SOL    HW124017   4.965   1.372   5.776
 7706SOL    HW224018   4.836   1.275   5.802
 7707SOL     OW24019   0.661   5.452   6.486
 7707SOL    HW124020   0.587   5.452   6.418
 7707SOL    HW224021   0.662   5.540   6.533
 7708SOL     OW24022   4.858   6.056   5.076
 7708SOL    HW124023   4.887   6.128   5.013
 7708SOL    HW224024   4.878   5.966   5.035
 7709SOL     OW24025   5.600   3.546   2.000
 7709SOL    HW124026   5.504   3.523   2.014
 7709SOL    HW224027   5.606   3.623   1.936
 7710SOL     OW24028   2.134   0.644   0.920
 7710SOL    HW124029   2.227   0.671   0.894
 7710SOL    HW224030   2.077   0.725   0.929
 7711SOL     OW24031   6.417   6.088   4.698
 7711SOL    HW124032   6.378   6.140   4.774
 7711SOL    HW224033   6.361   6.007   4.681
 7712SOL     OW24034   6.465   4.819   1.029
 7712SOL    HW124035   6.467   4.913   1.061
 7712SOL    HW224036   6.372   4.794   1.003
 7713SOL     OW24037   2.004   4.479   0.758
 7713SOL    HW124038   2.029   4.575   0.749
 7713SOL    HW224039   2.078   4.429   0.804
 7714SOL     OW24040   6.938   5.357   5.553
 7714SOL    HW124041   6.905   5.289   5.619
 7714SOL    HW224042   6.893   5.342   5.465
 7715SOL     OW24043   5.286   1.315   1.019
 7715SOL    HW124044   5.348   1.387   0.989
 7715SOL    HW224045   5.192   1.350   1.022
 7716SOL     OW24046   5.419   2.857   3.368
 7716SOL    HW124047   5.350   2.896   3.429
 7716SOL    HW224048   5.510   2.879   3.401
 7717SOL     OW24049   2.715   1.143   4.687
 7717SOL    HW124050   2.727   1.174   4.593
 7717SOL    HW224051   2.769   1.200   4.748
 7718SOL     OW24052   1.876   2.539   3.122
 7718SOL    HW124053   1.869   2.576   3.029
 7718SOL    HW224054   1.821   2.456   3.129
 7719SOL     OW24055   6.983   3.317   3.836
 7719SOL    HW124056   6.955   3.273   3.750
 7719SOL    HW224057   0.044   3.363   3.823
 7720SOL     OW24058   0.147   6.728   0.453
 7720SOL    HW124059   0.208   6.652   0.477
 7720SOL    HW224060   0.180   6.812   0.496
 7721SOL     OW24061   1.520   4.178   3.118
 7721SOL    HW124062   1.481   4.107   3.059
 7721SOL    HW224063   1.548   4.137   3.205
 7722SOL     OW24064   0.562   5.327   2.707
 7722SOL    HW124065   0.532   5.239   2.744
 7722SOL    HW224066   0.486   5.391   2.705
 7723SOL     OW24067   6.486   4.659   0.608
 7723SOL    HW124068   6.524   4.592   0.544
 7723SOL    HW224069   6.487   4.622   0.701
 7724SOL     OW24070   2.469   4.498   2.209
 7724SOL    HW124071   2.545   4.463   2.264
 7724SOL    HW224072   2.394   4.433   2.211
 7725SOL     OW24073   5.032   2.584   3.197
 7725SOL    HW124074   5.131   2.596   3.205
 7725SOL    HW224075   4.993   2.563   3.287
 7726SOL     OW24076   6.536   4.982   3.743
 7726SOL    HW124077   6.549   4.985   3.842
 7726SOL    HW224078   6.600   4.917   3.702
 7727SOL     OW24079   5.673   2.038   3.620
 7727SOL    HW124080   5.764   2.045   3.660
 7727SOL    HW224081   5.606   2.080   3.681
 7728SOL     OW24082   0.973   4.047   3.657
 7728SOL    HW124083   1.060   4.001   3.639
 7728SOL    HW224084   0.986   4.119   3.725
 7729SOL     OW24085   6.100   2.503   1.797
 7729SOL    HW124086   6.002   2.518   1.783
 7729SOL    HW224087   6.121   2.406   1.787
 7730SOL     OW24088   5.667   5.774   2.536
 7730SOL    HW124089   5.676   5.687   2.584
 7730SOL    HW224090   5.708   5.767   2.445
 7731SOL     OW24091   5.929   1.072   1.207
 7731SOL    HW124092   5.943   1.122   1.121
 7731SOL    HW224093   5.839   1.029   1.206
 7732SOL     OW24094   4.611   5.891   0.497
 7732SOL    HW124095   4.666   5.972   0.515
 7732SOL    HW224096   4.600   5.838   0.581
 7733SOL     OW24097   4.391   6.362   1.763
 7733SOL    HW124098   4.479   6.407   1.779
 7733SOL    HW224099   4.352   6.333   1.850
 7734SOL     OW24100   1.547   3.793   3.538
 7734SOL    HW124101   1.609   3.727   3.495
 7734SOL    HW224102   1.460   3.748   3.558
 7735SOL     OW24103   3.752   4.849   6.507
 7735SOL    HW124104   3.755   4.749   6.514
 7735SOL    HW224105   3.738   4.889   6.598
 7736SOL     OW24106   5.243   4.266   0.228
 7736SOL    HW124107   5.267   4.216   0.311
 7736SOL    HW224108   5.201   4.202   0.163
 7737SOL     OW24109   4.377   1.252   1.027
 7737SOL    HW124110   4.399   1.338   1.073
 7737SOL    HW224111   4.280   1.230   1.041
 7738SOL     OW24112   2.305   5.710   6.882
 7738SOL    HW124113   2.232   5.713   6.950
 7738SOL    HW224114   2.386   5.756   6.919
 7739SOL     OW24115   0.101   1.430   1.603
 7739SOL    HW124116   0.005   1.429   1.576
 7739SOL    HW224117   0.145   1.513   1.567
 7740SOL     OW24118   0.525   0.652   2.578
 7740SOL    HW124119   0.608   0.677   2.527
 7740SOL    HW224120   0.532   0.558   2.609
 7741SOL     OW24121   1.130   5.974   4.579
 7741SOL    HW124122   1.223   5.994   4.548
 7741SOL    HW224123   1.132   5.931   4.669
 7742SOL     OW24124   6.362   2.189   3.659
 7742SOL    HW124125   6.263   2.196   3.665
 7742SOL    HW224126   6.402   2.201   3.750
 7743SOL     OW24127   4.468   2.780   6.555
 7743SOL    HW124128   4.509   2.690   6.567
 7743SOL    HW224129   4.487   2.836   6.635
 7744SOL     OW24130   0.254   6.180   4.046
 7744SOL    HW124131   0.275   6.099   3.991
 7744SOL    HW224132   0.326   6.194   4.113
 7745SOL     OW24133   3.515   2.269   5.587
 7745SOL    HW124134   3.567   2.323   5.653
 7745SOL    HW224135   3.427   2.242   5.628
 7746SOL     OW24136   2.674   6.845   6.869
 7746SOL    HW124137   2.618   6.834   6.786
 7746SOL    HW224138   2.620   6.820   6.949
 7747SOL     OW24139   4.640   6.330   1.040
 7747SOL    HW124140   4.719   6.279   1.007
 7747SOL    HW224141   4.667   6.424   1.061
 7748SOL     OW24142   3.161   3.843   5.624
 7748SOL    HW124143   3.100   3.874   5.552
 7748SOL    HW224144   3.124   3.762   5.668
 7749SOL     OW24145   4.370   3.756   6.039
 7749SOL    HW124146   4.418   3.680   6.084
 7749SOL    HW224147   4.272   3.744   6.050
 7750SOL     OW24148   0.504   6.074   1.216
 7750SOL    HW124149   0.489   6.021   1.132
 7750SOL    HW224150   0.448   6.157   1.214
 7751SOL     OW24151   1.210   1.641   2.032
 7751SOL    HW124152   1.304   1.670   2.046
 7751SOL    HW224153   1.165   1.703   1.968
 7752SOL     OW24154   5.090   0.628   4.901
 7752SOL    HW124155   5.158   0.612   4.829
 7752SOL    HW224156   5.077   0.545   4.954
 7753SOL     OW24157   1.877   1.358   4.897
 7753SOL    HW124158   1.949   1.314   4.951
 7753SOL    HW224159   1.902   1.356   4.800
 7754SOL     OW24160   3.718   6.093   1.260
 7754SOL    HW124161   3.692   6.001   1.231
 7754SOL    HW224162   3.771   6.138   1.188
 7755SOL     OW24163   1.362   3.496   5.906
 7755SOL    HW124164   1.326   3.590   5.910
 7755SOL    HW224165   1.370   3.460   6.000
 7756SOL     OW24166   2.708   6.985   1.632
 7756SOL    HW124167   2.663   7.007   1.546
 7756SOL    HW224168   2.719   0.042   1.686
 7757SOL     OW24169   6.617   4.603   1.139
 7757SOL    HW124170   6.671   4.554   1.070
 7757SOL    HW224171   6.535   4.641   1.096
 7758SOL     OW24172   1.488   0.394   6.250
 7758SOL    HW124173   1.516   0.300   6.270
 7758SOL    HW224174   1.569   0.451   6.238
 7759SOL     OW24175   2.836   2.308   5.862
 7759SOL    HW124176   2.809   2.226   5.913
 7759SOL    HW224177   2.755   2.351   5.823
 7760SOL     OW24178   5.127   1.995   2.347
 7760SOL    HW124179   5.096   1.990   2.442
 7760SOL    HW224180   5.221   2.029   2.344
 7761SOL     OW24181   5.438   5.576   4.647
 7761SOL    HW124182   5.437   5.626   4.733
 7761SOL    HW224183   5.367   5.506   4.649
 7762SOL     OW24184   0.869   0.626   4.200
 7762SOL    HW124185   0.963   0.625   4.235
 7762SOL    HW224186   0.849   0.539   4.155
 7763SOL     OW24187   2.157   0.282   5.145
 7763SOL    HW124188   2.245   0.235   5.142
 7763SOL    HW224189   2.088   0.221   5.184
 7764SOL     OW24190   3.494   3.843   5.514
 7764SOL    HW124191   3.394   3.853   5.513
 7764SOL    HW224192   3.518   3.747   5.523
 7765SOL     OW24193   6.672   3.724   4.458
 7765SOL    HW124194   6.728   3.678   4.389
 7765SOL    HW224195   6.722   3.801   4.497
 7766SOL     OW24196   0.668   4.518   0.477
 7766SOL    HW124197   0.605   4.595   0.475
 7766SOL    HW224198   0.656   4.467   0.561
 7767SOL     OW24199   3.804   6.796   2.289
 7767SOL    HW124200   3.847   6.841   2.367
 7767SOL    HW224201   3.875   6.756   2.230
 7768SOL     OW24202   4.507   4.419   3.173
 7768SOL    HW124203   4.432   4.465   3.220
 7768SOL    HW224204   4.562   4.369   3.239
 7769SOL     OW24205   3.956   2.331   5.354
 7769SOL    HW124206   4.005   2.418   5.361
 7769SOL    HW224207   3.898   2.319   5.434
 7770SOL     OW24208   0.566   3.628   4.783
 7770SOL    HW124209   0.616   3.616   4.869
 7770SOL    HW224210   0.628   3.617   4.706
 7771SOL     OW24211   2.953   2.533   6.127
 7771SOL    HW124212   2.949   2.470   6.049
 7771SOL    HW224213   2.909   2.490   6.206
 7772SOL     OW24214   5.294   0.809   1.125
 7772SOL    HW124215   5.390   0.791   1.104
 7772SOL    HW224216   5.265   0.893   1.080
 7773SOL     OW24217   2.913   5.981   0.248
 7773SOL    HW124218   2.971   5.998   0.327
 7773SOL    HW224219   2.942   5.897   0.203
 7774SOL     OW24220   4.880   2.344   3.809
 7774SOL    HW124221   4.885   2.383   3.900
 7774SOL    HW224222   4.926   2.404   3.744
 7775SOL     OW24223   3.700   0.517   6.806
 7775SOL    HW124224   3.742   0.551   6.722
 7775SOL    HW224225   3.756   0.544   6.885
 7776SOL     OW24226   0.519   6.771   5.724
 7776SOL    HW124227   0.435   6.755   5.774
 7776SOL    HW224228   0.543   6.689   5.671
 7777SOL     OW24229   5.683   5.211   4.323
 7777SOL    HW124230   5.743   5.144   4.279
 7777SOL    HW224231   5.737   5.270   4.384
 7778SOL     OW24232   6.299   3.567   2.607
 7778SOL    HW124233   6.240   3.549   2.686
 7778SOL    HW224234   6.243   3.584   2.526
 7779SOL     OW24235   3.264   6.717   2.549
 7779SOL    HW124236   3.312   6.798   2.581
 7779SOL    HW224237   3.175   6.711   2.596
 7780SOL     OW24238   0.040   5.740   6.136
 7780SOL    HW124239   0.134   5.705   6.136
 7780SOL    HW224240   0.034   5.820   6.195
 7781SOL     OW24241   1.835   3.903   0.392
 7781SOL    HW124242   1.930   3.933   0.380
 7781SOL    HW224243   1.828   3.806   0.369
 7782SOL     OW24244   6.360   4.969   3.192
 7782SOL    HW124245   6.291   4.906   3.157
 7782SOL    HW224246   6.316   5.053   3.224
 7783SOL     OW24247   0.864   0.130   5.703
 7783SOL    HW124248   0.810   0.193   5.648
 7783SOL    HW224249   0.808   0.051   5.729
 7784SOL     OW24250   2.491   2.313   2.019
 7784SOL    HW124251   2.576   2.262   2.012
 7784SOL    HW224252   2.420   2.254   2.058
 7785SOL     OW24253   1.207   6.157   3.089
 7785SOL    HW124254   1.176   6.252   3.090
 7785SOL    HW224255   1.127   6.097   3.087
 7786SOL     OW24256   4.525   0.756   6.536
 7786SOL    HW124257   4.461   0.766   6.612
 7786SOL    HW224258   4.488   0.800   6.455
 7787SOL     OW24259   2.643   3.557   1.053
 7787SOL    HW124260   2.644   3.571   1.152
 7787SOL    HW224261   2.576   3.485   1.031
 7788SOL     OW24262   1.653   5.653   1.745
 7788SOL    HW124263   1.738   5.703   1.758
 7788SOL    HW224264   1.644   5.627   1.649
 7789SOL     OW24265   3.459   6.881   6.216
 7789SOL    HW124266   3.552   6.871   6.253
 7789SOL    HW224267   3.462   6.938   6.134
 7790SOL     OW24268   6.548   4.934   2.787
 7790SOL    HW124269   6.552   4.835   2.796
 7790SOL    HW224270   6.452   4.964   2.789
 7791SOL     OW24271   2.013   6.150   1.563
 7791SOL    HW124272   2.100   6.119   1.601
 7791SOL    HW224273   2.018   6.150   1.463
 7792SOL     OW24274   0.603   1.324   2.695
 7792SOL    HW124275   0.640   1.393   2.633
 7792SOL    HW224276   0.678   1.268   2.730
 7793SOL     OW24277   4.159   1.966   6.918
 7793SOL    HW124278   4.200   1.929   6.835
 7793SOL    HW224279   4.060   1.970   6.907
 7794SOL     OW24280   0.765   5.403   2.886
 7794SOL    HW124281   0.734   5.433   2.976
 7794SOL    HW224282   0.688   5.364   2.836
 7795SOL     OW24283   3.264   5.374   5.717
 7795SOL    HW124284   3.238   5.435   5.642
 7795SOL    HW224285   3.189   5.311   5.736
 7796SOL     OW24286   3.689   3.315   5.573
 7796SOL    HW124287   3.721   3.304   5.667
 7796SOL    HW224288   3.611   3.254   5.557
 7797SOL     OW24289   0.996   5.165   2.422
 7797SOL    HW124290   0.982   5.076   2.381
 7797SOL    HW224291   1.073   5.211   2.378
 7798SOL     OW24292   0.506   1.543   1.718
 7798SOL    HW124293   0.439   1.469   1.718
 7798SOL    HW224294   0.520   1.577   1.625
 7799SOL     OW24295   2.811   6.192   2.681
 7799SOL    HW124296   2.878   6.140   2.628
 7799SOL    HW224297   2.765   6.258   2.621
 7800SOL     OW24298   1.054   5.973   0.947
 7800SOL    HW124299   0.961   5.937   0.947
 7800SOL    HW224300   1.069   6.027   1.029
 7801SOL     OW24301   1.826   2.184   2.914
 7801SOL    HW124302   1.910   2.216   2.870
 7801SOL    HW224303   1.825   2.214   3.009
 7802SOL     OW24304   0.125   4.345   6.076
 7802SOL    HW124305   0.191   4.270   6.073
 7802SOL    HW224306   0.125   4.385   6.167
 7803SOL     OW24307   5.452   2.496   6.413
 7803SOL    HW124308   5.461   2.595   6.424
 7803SOL    HW224309   5.523   2.464   6.350
 7804SOL     OW24310   2.666   1.984   4.257
 7804SOL    HW124311   2.713   2.040   4.325
 7804SOL    HW224312   2.569   2.006   4.256
 7805SOL     OW24313   5.482   2.947   1.779
 7805SOL    HW124314   5.555   2.987   1.724
 7805SOL    HW224315   5.428   2.885   1.721
 7806SOL     OW24316   6.566   2.679   5.561
 7806SOL    HW124317   6.642   2.692   5.624
 7806SOL    HW224318   6.554   2.582   5.542
 7807SOL     OW24319   2.292   5.103   6.074
 7807SOL    HW124320   2.344   5.083   5.991
 7807SOL    HW224321   2.348   5.158   6.137
 7808SOL     OW24322   4.775   4.339   2.809
 7808SOL    HW124323   4.788   4.246   2.773
 7808SOL    HW224324   4.823   4.404   2.750
 7809SOL     OW24325   5.075   4.806   4.186
 7809SOL    HW124326   4.990   4.755   4.181
 7809SOL    HW224327   5.100   4.839   4.095
 7810SOL     OW24328   4.249   6.398   5.006
 7810SOL    HW124329   4.304   6.444   4.936
 7810SOL    HW224330   4.302   6.322   5.045
 7811SOL     OW24331   0.835   5.715   2.519
 7811SOL    HW124332   0.915   5.775   2.525
 7811SOL    HW224333   0.820   5.670   2.608
 7812SOL     OW24334   2.475   2.812   5.530
 7812SOL    HW124335   2.474   2.899   5.580
 7812SOL    HW224336   2.569   2.785   5.513
 7813SOL     OW24337   4.765   2.789   1.166
 7813SOL    HW124338   4.687   2.848   1.147
 7813SOL    HW224339   4.821   2.829   1.238
 7814SOL     OW24340   6.668   3.382   2.041
 7814SOL    HW124341   6.602   3.456   2.028
 7814SOL    HW224342   6.620   3.295   2.052
 7815SOL     OW24343   6.240   2.544   5.231
 7815SOL    HW124344   6.287   2.555   5.143
 7815SOL    HW224345   6.179   2.621   5.246
 7816SOL     OW24346   0.158   1.732   5.440
 7816SOL    HW124347   0.106   1.647   5.431
 7816SOL    HW224348   0.173   1.771   5.349
 7817SOL     OW24349   3.540   3.852   5.972
 7817SOL    HW124350   3.554   3.783   5.901
 7817SOL    HW224351   3.442   3.867   5.987
 7818SOL     OW24352   4.967   1.269   1.901
 7818SOL    HW124353   4.927   1.301   1.815
 7818SOL    HW224354   4.931   1.323   1.977
 7819SOL     OW24355   0.769   3.501   3.894
 7819SOL    HW124356   0.779   3.466   3.800
 7819SOL    HW224357   0.677   3.480   3.927
 7820SOL     OW24358   1.635   0.755   5.372
 7820SOL    HW124359   1.678   0.669   5.348
 7820SOL    HW224360   1.704   0.821   5.402
 7821SOL     OW24361   6.269   5.903   6.765
 7821SOL    HW124362   6.173   5.906   6.737
 7821SOL    HW224363   6.296   5.807   6.778
 7822SOL     OW24364   1.393   1.230   5.336
 7822SOL    HW124365   1.403   1.134   5.363
 7822SOL    HW224366   1.367   1.234   5.239
 7823SOL     OW24367   1.538   4.302   6.601
 7823SOL    HW124368   1.476   4.224   6.597
 7823SOL    HW224369   1.632   4.269   6.601
 7824SOL     OW24370   5.561   1.671   3.780
 7824SOL    HW124371   5.546   1.707   3.688
 7824SOL    HW224372   5.548   1.572   3.780
 7825SOL     OW24373   1.821   2.812   1.471
 7825SOL    HW124374   1.894   2.851   1.527
 7825SOL    HW224375   1.768   2.748   1.526
 7826SOL     OW24376   5.458   0.615   0.087
 7826SOL    HW124377   5.440   0.698   0.139
 7826SOL    HW224378   5.417   0.536   0.133
 7827SOL     OW24379   4.551   4.802   1.875
 7827SOL    HW124380   4.586   4.817   1.967
 7827SOL    HW224381   4.489   4.723   1.876
 7828SOL     OW24382   0.804   5.901   0.515
 7828SOL    HW124383   0.740   5.975   0.536
 7828SOL    HW224384   0.881   5.904   0.578
 7829SOL     OW24385   2.518   3.166   1.575
 7829SOL    HW124386   2.589   3.204   1.516
 7829SOL    HW224387   2.561   3.121   1.654
 7830SOL     OW24388   5.435   3.263   6.591
 7830SOL    HW124389   5.414   3.303   6.680
 7830SOL    HW224390   5.392   3.173   6.584
 7831SOL     OW24391   1.778   4.064   0.172
 7831SOL    HW124392   1.860   4.049   0.116
 7831SOL    HW224393   1.796   4.034   0.266
 7832SOL     OW24394   3.055   1.676   4.983
 7832SOL    HW124395   3.102   1.594   4.951
 7832SOL    HW224396   2.976   1.651   5.037
 7833SOL     OW24397   0.490   0.319   0.641
 7833SOL    HW124398   0.474   0.260   0.720
 7833SOL    HW224399   0.403   0.333   0.592
 7834SOL     OW24400   0.597   1.037   2.297
 7834SOL    HW124401   0.652   1.120   2.301
 7834SOL    HW224402   0.594   1.003   2.203
 7835SOL     OW24403   2.283   2.798   4.811
 7835SOL    HW124404   2.348   2.727   4.838
 7835SOL    HW224405   2.322   2.888   4.833
 7836SOL     OW24406   3.251   6.961   6.376
 7836SOL    HW124407   3.283   7.024   6.447
 7836SOL    HW224408   3.329   6.925   6.325
 7837SOL     OW24409   6.252   6.577   2.447
 7837SOL    HW124410   6.283   6.514   2.376
 7837SOL    HW224411   6.172   6.628   2.414
 7838SOL     OW24412   4.871   6.839   4.728
 7838SOL    HW124413   4.958   6.844   4.776
 7838SOL    HW224414   4.885   6.799   4.637
 7839SOL     OW24415   6.028   3.787   4.673
 7839SOL    HW124416   6.109   3.803   4.729
 7839SOL    HW224417   5.974   3.712   4.712
 7840SOL     OW24418   5.147   2.778   4.400
 7840SOL    HW124419   5.058   2.733   4.392
 7840SOL    HW224420   5.218   2.721   4.361
 7841SOL     OW24421   5.901   2.437   6.903
 7841SOL    HW124422   5.982   2.396   6.945
 7841SOL    HW224423   5.843   2.364   6.866
 7842SOL     OW24424   1.363   1.584   3.562
 7842SOL    HW124425   1.453   1.628   3.563
 7842SOL    HW224426   1.356   1.524   3.482
 7843SOL     OW24427   5.674   3.982   1.124
 7843SOL    HW124428   5.611   3.980   1.202
 7843SOL    HW224429   5.768   3.989   1.158
 7844SOL     OW24430   4.260   1.349   3.342
 7844SOL    HW124431   4.215   1.349   3.432
 7844SOL    HW224432   4.314   1.266   3.332
 7845SOL     OW24433   0.835   0.796   3.919
 7845SOL    HW124434   0.931   0.803   3.948
 7845SOL    HW224435   0.805   0.883   3.881
 7846SOL     OW24436   2.239   1.199   1.415
 7846SOL    HW124437   2.276   1.211   1.323
 7846SOL    HW224438   2.155   1.251   1.425
 7847SOL     OW24439   0.467   1.020   0.962
 7847SOL    HW124440   0.562   1.037   0.987
 7847SOL    HW224441   0.456   1.031   0.863
 7848SOL     OW24442   4.051   4.040   1.460
 7848SOL    HW124443   4.142   3.998   1.452
 7848SOL    HW224444   3.996   4.013   1.381
 7849SOL     OW24445   5.007   3.404   3.900
 7849SOL    HW124446   4.924   3.355   3.872
 7849SOL    HW224447   5.054   3.350   3.970
 7850SOL     OW24448   6.761   1.364   4.282
 7850SOL    HW124449   6.842   1.328   4.330
 7850SOL    HW224450   6.753   1.461   4.301
 7851SOL     OW24451   6.174   6.574   0.060
 7851SOL    HW124452   6.269   6.594   0.083
 7851SOL    HW224453   6.162   6.577   6.987
 7852SOL     OW24454   2.600   6.335   0.220
 7852SOL    HW124455   2.517   6.285   0.195
 7852SOL    HW224456   2.641   6.293   0.301
 7853SOL     OW24457   2.881   1.195   0.327
 7853SOL    HW124458   2.838   1.199   0.418
 7853SOL    HW224459   2.853   1.274   0.273
 7854SOL     OW24460   3.681   3.368   1.835
 7854SOL    HW124461   3.726   3.364   1.924
 7854SOL    HW224462   3.734   3.427   1.774
 7855SOL     OW24463   4.230   5.516   6.291
 7855SOL    HW124464   4.293   5.561   6.354
 7855SOL    HW224465   4.280   5.483   6.211
 7856SOL     OW24466   6.437   3.977   4.690
 7856SOL    HW124467   6.463   3.951   4.597
 7856SOL    HW224468   6.505   3.941   4.755
 7857SOL     OW24469   6.012   2.402   6.000
 7857SOL    HW124470   6.105   2.428   5.975
 7857SOL    HW224471   5.955   2.483   6.007
 7858SOL     OW24472   5.825   4.244   3.788
 7858SOL    HW124473   5.910   4.260   3.838
 7858SOL    HW224474   5.820   4.307   3.710
 7859SOL     OW24475   1.093   4.296   6.547
 7859SOL    HW124476   1.186   4.299   6.582
 7859SOL    HW224477   1.029   4.328   6.617
 7860SOL     OW24478   4.153   6.358   2.245
 7860SOL    HW124479   4.157   6.325   2.151
 7860SOL    HW224480   4.058   6.359   2.277
 7861SOL     OW24481   4.374   5.379   1.535
 7861SOL    HW124482   4.416   5.469   1.523
 7861SOL    HW224483   4.420   5.313   1.476
 7862SOL     OW24484   3.085   4.254   1.737
 7862SOL    HW124485   3.030   4.326   1.779
 7862SOL    HW224486   3.042   4.225   1.651
 7863SOL     OW24487   6.459   6.016   3.544
 7863SOL    HW124488   6.438   6.113   3.553
 7863SOL    HW224489   6.461   5.991   3.447
 7864SOL     OW24490   0.253   6.289   5.433
 7864SOL    HW124491   0.210   6.254   5.350
 7864SOL    HW224492   0.317   6.221   5.468
 7865SOL     OW24493   3.980   6.554   3.763
 7865SOL    HW124494   4.054   6.538   3.828
 7865SOL    HW224495   3.894   6.518   3.801
 7866SOL     OW24496   2.629   1.508   2.792
 7866SOL    HW124497   2.637   1.607   2.782
 7866SOL    HW224498   2.633   1.464   2.702
 7867SOL     OW24499   6.030   5.887   3.056
 7867SOL    HW124500   5.963   5.942   3.006
 7867SOL    HW224501   6.038   5.797   3.013
 7868SOL     OW24502   5.338   6.286   1.586
 7868SOL    HW124503   5.255   6.341   1.586
 7868SOL    HW224504   5.415   6.343   1.556
 7869SOL     OW24505   6.456   3.666   0.938
 7869SOL    HW124506   6.531   3.615   0.980
 7869SOL    HW224507   6.370   3.619   0.954
 7870SOL     OW24508   6.215   5.235   3.406
 7870SOL    HW124509   6.290   5.197   3.460
 7870SOL    HW224510   6.253   5.290   3.331
 7871SOL     OW24511   5.651   2.985   3.469
 7871SOL    HW124512   5.609   3.074   3.449
 7871SOL    HW224513   5.739   2.979   3.422
 7872SOL     OW24514   1.045   3.842   2.895
 7872SOL    HW124515   0.985   3.829   2.817
 7872SOL    HW224516   0.995   3.891   2.967
 7873SOL     OW24517   6.915   0.379   6.296
 7873SOL    HW124518   6.949   0.467   6.328
 7873SOL    HW224519   6.837   0.393   6.235
 7874SOL     OW24520   6.593   1.480   0.264
 7874SOL    HW124521   6.603   1.579   0.251
 7874SOL    HW224522   6.677   1.434   0.235
 7875SOL     OW24523   4.846   4.464   0.287
 7875SOL    HW124524   4.852   4.494   0.382
 7875SOL    HW224525   4.929   4.490   0.239
 7876SOL     OW24526   6.655   0.308   4.721
 7876SOL    HW124527   6.606   0.235   4.675
 7876SOL    HW224528   6.714   0.355   4.655
 7877SOL     OW24529   0.005   2.046   3.325
 7877SOL    HW124530   6.931   2.042   3.336
 7877SOL    HW224531   0.049   2.041   3.414
 7878SOL     OW24532   4.569   4.771   2.971
 7878SOL    HW124533   4.598   4.814   2.885
 7878SOL    HW224534   4.637   4.703   2.999
 7879SOL     OW24535   4.756   6.109   3.330
 7879SOL    HW124536   4.672   6.058   3.348
 7879SOL    HW224537   4.817   6.053   3.274
 7880SOL     OW24538   0.445   6.382   6.969
 7880SOL    HW124539   0.417   6.286   6.971
 7880SOL    HW224540   0.544   6.387   6.983
 7881SOL     OW24541   6.912   4.142   4.276
 7881SOL    HW124542   6.996   4.095   4.304
 7881SOL    HW224543   6.840   4.075   4.261
 7882SOL     OW24544   1.089   2.763   2.499
 7882SOL    HW124545   1.050   2.767   2.591
 7882SOL    HW224546   1.016   2.775   2.432
 7883SOL     OW24547   2.420   1.271   2.493
 7883SOL    HW124548   2.409   1.202   2.421
 7883SOL    HW224549   2.351   1.256   2.564
 7884SOL     OW24550   1.700   4.594   4.079
 7884SOL    HW124551   1.616   4.614   4.130
 7884SOL    HW224552   1.773   4.570   4.143
 7885SOL     OW24553   6.220   5.441   2.547
 7885SOL    HW124554   6.310   5.483   2.549
 7885SOL    HW224555   6.222   5.360   2.488
 7886SOL     OW24556   5.166   3.557   1.658
 7886SOL    HW124557   5.106   3.556   1.578
 7886SOL    HW224558   5.194   3.463   1.680
 7887SOL     OW24559   3.413   3.083   5.908
 7887SOL    HW124560   3.442   3.096   6.002
 7887SOL    HW224561   3.493   3.075   5.848
 7888SOL     OW24562   6.382   1.453   3.970
 7888SOL    HW124563   6.359   1.415   4.059
 7888SOL    HW224564   6.303   1.444   3.908
 7889SOL     OW24565   6.497   5.574   0.441
 7889SOL    HW124566   6.427   5.504   0.457
 7889SOL    HW224567   6.576   5.532   0.395
 7890SOL     OW24568   1.584   2.489   4.467
 7890SOL    HW124569   1.523   2.485   4.547
 7890SOL    HW224570   1.590   2.584   4.435
 7891SOL     OW24571   1.000   2.731   4.234
 7891SOL    HW124572   1.008   2.772   4.143
 7891SOL    HW224573   1.089   2.736   4.280
 7892SOL     OW24574   1.923   2.307   4.645
 7892SOL    HW124575   1.900   2.248   4.722
 7892SOL    HW224576   1.963   2.393   4.678
 7893SOL     OW24577   6.448   6.846   1.888
 7893SOL    HW124578   6.438   6.872   1.792
 7893SOL    HW224579   6.493   6.757   1.894
 7894SOL     OW24580   2.400   1.761   6.284
 7894SOL    HW124581   2.498   1.749   6.273
 7894SOL    HW224582   2.372   1.847   6.242
 7895SOL     OW24583   3.842   5.980   4.012
 7895SOL    HW124584   3.775   5.906   4.002
 7895SOL    HW224585   3.920   5.963   3.951
 7896SOL     OW24586   4.282   3.247   1.363
 7896SOL    HW124587   4.211   3.190   1.321
 7896SOL    HW224588   4.291   3.223   1.460
 7897SOL     OW24589   3.544   4.289   6.434
 7897SOL    HW124590   3.503   4.343   6.507
 7897SOL    HW224591   3.511   4.321   6.346
 7898SOL     OW24592   5.217   0.126   4.182
 7898SOL    HW124593   5.183   0.144   4.089
 7898SOL    HW224594   5.307   0.084   4.176
 7899SOL     OW24595   5.301   5.579   1.722
 7899SOL    HW124596   5.344   5.489   1.727
 7899SOL    HW224597   5.225   5.583   1.786
 7900SOL     OW24598   0.356   4.236   0.634
 7900SOL    HW124599   0.442   4.286   0.637
 7900SOL    HW224600   0.373   4.138   0.636
 7901SOL     OW24601   5.050   1.159   6.229
 7901SOL    HW124602   4.957   1.193   6.240
 7901SOL    HW224603   5.080   1.116   6.314
 7902SOL     OW24604   0.422   6.235   3.078
 7902SOL    HW124605   0.344   6.183   3.042
 7902SOL    HW224606   0.404   6.263   3.172
 7903SOL     OW24607   3.423   1.733   3.918
 7903SOL    HW124608   3.491   1.675   3.873
 7903SOL    HW224609   3.405   1.813   3.861
 7904SOL     OW24610   6.234   0.995   2.454
 7904SOL    HW124611   6.309   1.004   2.389
 7904SOL    HW224612   6.271   0.991   2.547
 7905SOL     OW24613   5.443   1.046   0.314
 7905SOL    HW124614   5.417   0.968   0.371
 7905SOL    HW224615   5.450   1.128   0.371
 7906SOL     OW24616   1.721   5.092   1.564
 7906SOL    HW124617   1.692   5.012   1.512
 7906SOL    HW224618   1.758   5.161   1.501
 7907SOL     OW24619   5.708   0.633   2.989
 7907SOL    HW124620   5.762   0.595   2.914
 7907SOL    HW224621   5.746   0.602   3.076
 7908SOL     OW24622   0.355   1.929   6.838
 7908SOL    HW124623   0.401   2.014   6.813
 7908SOL    HW224624   0.397   1.891   6.920
 7909SOL     OW24625   5.076   4.575   3.112
 7909SOL    HW124626   5.091   4.592   3.209
 7909SOL    HW224627   5.164   4.565   3.065
 7910SOL     OW24628   1.783   3.225   0.494
 7910SOL    HW124629   1.856   3.289   0.520
 7910SOL    HW224630   1.743   3.185   0.576
 7911SOL     OW24631   1.157   3.846   1.359
 7911SOL    HW124632   1.214   3.927   1.366
 7911SOL    HW224633   1.149   3.803   1.449
 7912SOL     OW24634   5.776   5.611   0.267
 7912SOL    HW124635   5.834   5.588   0.345
 7912SOL    HW224636   5.826   5.671   0.204
 7913SOL     OW24637   1.346   4.059   0.720
 7913SOL    HW124638   1.288   4.014   0.651
 7913SOL    HW224639   1.430   4.091   0.677
 7914SOL     OW24640   6.778   5.152   6.312
 7914SOL    HW124641   6.849   5.164   6.381
 7914SOL    HW224642   6.810   5.087   6.243
 7915SOL     OW24643   4.053   0.986   2.888
 7915SOL    HW124644   4.055   1.010   2.985
 7915SOL    HW224645   4.125   0.920   2.868
 7916SOL     OW24646   0.483   0.149   4.727
 7916SOL    HW124647   0.482   0.142   4.628
 7916SOL    HW224648   0.519   0.064   4.766
 7917SOL     OW24649   4.016   2.681   6.442
 7917SOL    HW124650   3.959   2.698   6.522
 7917SOL    HW224651   3.994   2.591   6.403
 7918SOL     OW24652   1.540   1.322   4.922
 7918SOL    HW124653   1.447   1.314   4.959
 7918SOL    HW224654   1.606   1.316   4.997
 7919SOL     OW24655   1.363   4.960   3.224
 7919SOL    HW124656   1.433   4.943   3.293
 7919SOL    HW224657   1.272   4.958   3.266
 7920SOL     OW24658   4.903   0.568   1.618
 7920SOL    HW124659   4.884   0.665   1.630
 7920SOL    HW224660   4.862   0.517   1.694
 7921SOL     OW24661   5.190   2.041   1.689
 7921SOL    HW124662   5.283   2.018   1.662
 7921SOL    HW224663   5.146   2.096   1.618
 7922SOL     OW24664   0.903   6.326   6.519
 7922SOL    HW124665   0.893   6.406   6.459
 7922SOL    HW224666   0.821   6.316   6.575
 7923SOL     OW24667   3.213   2.286   6.053
 7923SOL    HW124668   3.273   2.351   6.099
 7923SOL    HW224669   3.148   2.335   5.995
 7924SOL     OW24670   5.783   6.876   1.159
 7924SOL    HW124671   5.687   6.903   1.153
 7924SOL    HW224672   5.789   6.779   1.184
 7925SOL     OW24673   2.330   6.499   0.674
 7925SOL    HW124674   2.326   6.419   0.734
 7925SOL    HW224675   2.272   6.484   0.594
 7926SOL     OW24676   5.443   1.060   6.508
 7926SOL    HW124677   5.446   1.028   6.413
 7926SOL    HW224678   5.512   1.131   6.522
 7927SOL     OW24679   5.407   6.939   2.360
 7927SOL    HW124680   5.494   6.988   2.355
 7927SOL    HW224681   5.399   6.896   2.450
 7928SOL     OW24682   0.387   0.899   3.268
 7928SOL    HW124683   0.413   0.860   3.180
 7928SOL    HW224684   0.461   0.955   3.304
 7929SOL     OW24685   4.540   3.941   6.722
 7929SOL    HW124686   4.519   3.877   6.648
 7929SOL    HW224687   4.636   3.930   6.749
 7930SOL     OW24688   3.638   5.539   6.296
 7930SOL    HW124689   3.709   5.607   6.314
 7930SOL    HW224690   3.666   5.480   6.221
 7931SOL     OW24691   3.035   2.736   0.231
 7931SOL    HW124692   2.936   2.735   0.248
 7931SOL    HW224693   3.083   2.727   0.318
 7932SOL     OW24694   6.680   5.507   0.760
 7932SOL    HW124695   6.737   5.466   0.688
 7932SOL    HW224696   6.665   5.604   0.739
 7933SOL     OW24697   6.329   0.576   5.600
 7933SOL    HW124698   6.244   0.526   5.613
 7933SOL    HW224699   6.322   0.667   5.642
 7934SOL     OW24700   1.836   4.806   0.917
 7934SOL    HW124701   1.839   4.708   0.940
 7934SOL    HW224702   1.927   4.836   0.888
 7935SOL     OW24703   5.559   3.979   2.141
 7935SOL    HW124704   5.480   3.999   2.084
 7935SOL    HW224705   5.641   4.020   2.101
 7936SOL     OW24706   2.827   6.348   3.811
 7936SOL    HW124707   2.778   6.271   3.852
 7936SOL    HW224708   2.794   6.434   3.851
 7937SOL     OW24709   1.451   6.000   4.587
 7937SOL    HW124710   1.420   5.906   4.593
 7937SOL    HW224711   1.547   6.003   4.557
 7938SOL     OW24712   5.045   0.426   5.100
 7938SOL    HW124713   5.024   0.329   5.107
 7938SOL    HW224714   4.985   0.479   5.160
 7939SOL     OW24715   0.585   1.955   5.541
 7939SOL    HW124716   0.558   2.022   5.471
 7939SOL    HW224717   0.505   1.902   5.569
 7940SOL     OW24718   4.266   1.981   2.199
 7940SOL    HW124719   4.296   1.938   2.284
 7940SOL    HW224720   4.191   1.928   2.159
 7941SOL     OW24721   4.398   6.547   3.157
 7941SOL    HW124722   4.474   6.503   3.206
 7941SOL    HW224723   4.315   6.539   3.211
 7942SOL     OW24724   0.961   2.828   2.272
 7942SOL    HW124725   0.953   2.762   2.197
 7942SOL    HW224726   1.035   2.893   2.251
 7943SOL     OW24727   2.078   4.691   5.652
 7943SOL    HW124728   2.114   4.751   5.724
 7943SOL    HW224729   2.099   4.596   5.675
 7944SOL     OW24730   0.815   2.529   1.801
 7944SOL    HW124731   0.746   2.482   1.856
 7944SOL    HW224732   0.792   2.626   1.795
 7945SOL     OW24733   6.324   5.129   2.830
 7945SOL    HW124734   6.288   5.146   2.738
 7945SOL    HW224735   6.348   5.217   2.873
 7946SOL     OW24736   3.900   0.025   5.611
 7946SOL    HW124737   3.834   0.024   5.686
 7946SOL    HW224738   3.930   0.119   5.594
 7947SOL     OW24739   2.234   2.550   5.235
 7947SOL    HW124740   2.274   2.636   5.203
 7947SOL    HW224741   2.253   2.538   5.332
 7948SOL     OW24742   1.532   4.551   1.934
 7948SOL    HW124743   1.519   4.598   2.021
 7948SOL    HW224744   1.626   4.564   1.903
 7949SOL     OW24745   4.415   4.657   5.693
 7949SOL    HW124746   4.436   4.753   5.674
 7949SOL    HW224747   4.327   4.651   5.741
 7950SOL     OW24748   5.793   5.729   5.401
 7950SOL    HW124749   5.718   5.702   5.340
 7950SOL    HW224750   5.862   5.778   5.348
 7951SOL     OW24751   2.806   5.341   2.728
 7951SOL    HW124752   2.797   5.249   2.690
 7951SOL    HW224753   2.850   5.336   2.817
 7952SOL     OW24754   6.069   3.728   0.026
 7952SOL    HW124755   6.063   3.637   0.067
 7952SOL    HW224756   6.044   3.723   6.955
 7953SOL     OW24757   4.180   1.553   0.970
 7953SOL    HW124758   4.185   1.647   0.935
 7953SOL    HW224759   4.095   1.510   0.939
 7954SOL     OW24760   4.035   3.991   6.299
 7954SOL    HW124761   4.123   3.968   6.341
 7954SOL    HW224762   4.029   4.090   6.285
 7955SOL     OW24763   2.051   1.489   6.004
 7955SOL    HW124764   2.018   1.401   5.968
 7955SOL    HW224765   2.028   1.562   5.941
 7956SOL     OW24766   5.888   1.745   1.772
 7956SOL    HW124767   5.961   1.739   1.840
 7956SOL    HW224768   5.870   1.654   1.735
 7957SOL     OW24769   4.053   0.281   5.611
 7957SOL    HW124770   4.067   0.330   5.697
 7957SOL    HW224771   4.017   0.343   5.542
 7958SOL     OW24772   5.489   4.202   6.593
 7958SOL    HW124773   5.501   4.113   6.550
 7958SOL    HW224774   5.398   4.237   6.572
 7959SOL     OW24775   4.983   0.580   6.375
 7959SOL    HW124776   5.010   0.672   6.349
 7959SOL    HW224777   5.060   0.517   6.361
 7960SOL     OW24778   0.081   0.932   6.777
 7960SOL    HW124779   0.113   0.978   6.694
 7960SOL    HW224780   0.083   0.996   6.853
 7961SOL     OW24781   6.628   6.604   0.604
 7961SOL    HW124782   6.726   6.594   0.615
 7961SOL    HW224783   6.608   6.696   0.569
 7962SOL     OW24784   6.841   1.061   6.547
 7962SOL    HW124785   6.899   1.071   6.628
 7962SOL    HW224786   6.758   1.011   6.571
 7963SOL     OW24787   6.298   4.164   4.067
 7963SOL    HW124788   6.329   4.212   4.149
 7963SOL    HW224789   6.212   4.204   4.035
 7964SOL     OW24790   6.946   2.994   1.635
 7964SOL    HW124791   6.883   3.007   1.712
 7964SOL    HW224792   0.014   2.995   1.668
 7965SOL     OW24793   4.898   2.530   0.161
 7965SOL    HW124794   4.872   2.434   0.155
 7965SOL    HW224795   4.834   2.585   0.106
 7966SOL     OW24796   4.098   3.813   6.055
 7966SOL    HW124797   4.006   3.782   6.029
 7966SOL    HW224798   4.093   3.907   6.088
 7967SOL     OW24799   1.629   5.147   2.365
 7967SOL    HW124800   1.708   5.141   2.427
 7967SOL    HW224801   1.661   5.149   2.270
 7968SOL     OW24802   6.557   1.522   4.925
 7968SOL    HW124803   6.579   1.591   4.855
 7968SOL    HW224804   6.471   1.546   4.970
 7969SOL     OW24805   4.933   5.712   0.286
 7969SOL    HW124806   4.879   5.694   0.368
 7969SOL    HW224807   5.029   5.728   0.311
 7970SOL     OW24808   5.690   2.678   2.490
 7970SOL    HW124809   5.711   2.746   2.560
 7970SOL    HW224810   5.766   2.615   2.481
 7971SOL     OW24811   3.281   2.080   1.443
 7971SOL    HW124812   3.243   2.166   1.479
 7971SOL    HW224813   3.241   2.062   1.353
 7972SOL     OW24814   3.820   3.145   1.777
 7972SOL    HW124815   3.769   3.086   1.715
 7972SOL    HW224816   3.782   3.237   1.775
 7973SOL     OW24817   5.910   4.034   3.634
 7973SOL    HW124818   5.875   4.116   3.677
 7973SOL    HW224819   5.983   4.058   3.570
 7974SOL     OW24820   6.349   1.281   4.602
 7974SOL    HW124821   6.412   1.216   4.559
 7974SOL    HW224822   6.259   1.240   4.611
 7975SOL     OW24823   4.305   0.952   0.365
 7975SOL    HW124824   4.393   1.000   0.366
 7975SOL    HW224825   4.317   0.860   0.327
 7976SOL     OW24826   0.892   0.195   5.995
 7976SOL    HW124827   0.902   0.166   5.900
 7976SOL    HW224828   0.923   0.122   6.056
 7977SOL     OW24829   6.029   6.204   2.676
 7977SOL    HW124830   5.933   6.226   2.690
 7977SOL    HW224831   6.049   6.114   2.715
 7978SOL     OW24832   0.450   3.966   0.539
 7978SOL    HW124833   0.506   3.932   0.464
 7978SOL    HW224834   0.375   3.902   0.556
 7979SOL     OW24835   1.746   3.948   5.225
 7979SOL    HW124836   1.709   3.988   5.141
 7979SOL    HW224837   1.821   4.005   5.259
 7980SOL     OW24838   3.302   4.798   5.946
 7980SOL    HW124839   3.357   4.729   5.899
 7980SOL    HW224840   3.353   4.885   5.948
 7981SOL     OW24841   1.431   5.146   2.545
 7981SOL    HW124842   1.497   5.188   2.483
 7981SOL    HW224843   1.475   5.069   2.593
 7982SOL     OW24844   1.208   1.010   5.954
 7982SOL    HW124845   1.285   1.039   5.898
 7982SOL    HW224846   1.133   1.076   5.946
 7983SOL     OW24847   5.614   1.250   1.414
 7983SOL    HW124848   5.528   1.198   1.409
 7983SOL    HW224849   5.645   1.256   1.509
 7984SOL     OW24850   0.391   1.920   0.982
 7984SOL    HW124851   0.368   2.010   1.018
 7984SOL    HW224852   0.389   1.852   1.056
 7985SOL     OW24853   2.511   2.178   5.081
 7985SOL    HW124854   2.498   2.095   5.027
 7985SOL    HW224855   2.594   2.225   5.050
 7986SOL     OW24856   4.093   1.776   5.181
 7986SOL    HW124857   4.016   1.836   5.203
 7986SOL    HW224858   4.166   1.791   5.247
 7987SOL     OW24859   1.705   4.036   0.909
 7987SOL    HW124860   1.732   3.940   0.917
 7987SOL    HW224861   1.778   4.095   0.944
 7988SOL     OW24862   0.329   0.822   1.772
 7988SOL    HW124863   0.254   0.805   1.836
 7988SOL    HW224864   0.388   0.741   1.768
 7989SOL     OW24865   1.738   4.245   6.937
 7989SOL    HW124866   1.673   4.188   6.986
 7989SOL    HW224867   1.753   4.207   6.845
 7990SOL     OW24868   2.620   6.286   4.271
 7990SOL    HW124869   2.579   6.324   4.354
 7990SOL    HW224870   2.632   6.187   4.283
 7991SOL     OW24871   5.430   1.953   4.399
 7991SOL    HW124872   5.376   1.891   4.457
 7991SOL    HW224873   5.425   1.921   4.304
 7992SOL     OW24874   2.495   0.545   0.728
 7992SOL    HW124875   2.436   0.493   0.667
 7992SOL    HW224876   2.591   0.537   0.699
 7993SOL     OW24877   0.191   0.022   2.202
 7993SOL    HW124878   0.159   6.982   2.269
 7993SOL    HW224879   0.291   0.025   2.204
 7994SOL     OW24880   5.183   0.581   3.096
 7994SOL    HW124881   5.134   0.666   3.119
 7994SOL    HW224882   5.145   0.542   3.013
 7995SOL     OW24883   5.770   4.878   2.849
 7995SOL    HW124884   5.715   4.834   2.778
 7995SOL    HW224885   5.843   4.930   2.806
 7996SOL     OW24886   4.268   0.283   4.224
 7996SOL    HW124887   4.258   0.281   4.324
 7996SOL    HW224888   4.194   0.231   4.182
 7997SOL     OW24889   0.429   1.881   0.066
 7997SOL    HW124890   0.522   1.918   0.068
 7997SOL    HW224891   0.391   1.883   0.158
 7998SOL     OW24892   3.201   0.005   0.283
 7998SOL    HW124893   3.113   0.003   0.235
 7998SOL    HW224894   3.252   0.086   0.256
 7999SOL     OW24895   0.903   1.519   6.172
 7999SOL    HW124896   0.874   1.610   6.145
 7999SOL    HW224897   0.980   1.489   6.115
 8000SOL     OW24898   6.302   0.048   6.355
 8000SOL    HW124899   6.305   0.039   6.455
 8000SOL    HW224900   6.248   0.128   6.330
 8001SOL     OW24901   4.531   6.790   1.106
 8001SOL    HW124902   4.512   6.886   1.086
 8001SOL    HW224903   4.626   6.781   1.138
 8002SOL     OW24904   0.675   1.363   5.239
 8002SOL    HW124905   0.705   1.454   5.211
 8002SOL    HW224906   0.594   1.337   5.186
 8003SOL     OW24907   1.851   6.649   2.203
 8003SOL    HW124908   1.794   6.677   2.281
 8003SOL    HW224909   1.871   6.729   2.147
 8004SOL     OW24910   2.272   2.859   3.692
 8004SOL    HW124911   2.342   2.840   3.761
 8004SOL    HW224912   2.294   2.808   3.608
 8005SOL     OW24913   2.975   0.135   3.930
 8005SOL    HW124914   2.878   0.110   3.928
 8005SOL    HW224915   2.983   0.234   3.941
 8006SOL     OW24916   3.342   6.027   5.131
 8006SOL    HW124917   3.389   5.960   5.188
 8006SOL    HW224918   3.279   6.080   5.187
 8007SOL     OW24919   5.503   2.036   6.428
 8007SOL    HW124920   5.469   1.949   6.392
 8007SOL    HW224921   5.581   2.019   6.488
 8008SOL     OW24922   3.180   6.563   0.317
 8008SOL    HW124923   3.131   6.477   0.332
 8008SOL    HW224924   3.264   6.563   0.371
 8009SOL     OW24925   5.059   1.001   1.084
 8009SOL    HW124926   5.098   1.005   1.176
 8009SOL    HW224927   5.011   1.087   1.065
 8010SOL     OW24928   3.031   2.633   5.356
 8010SOL    HW124929   3.122   2.598   5.336
 8010SOL    HW224930   3.032   2.733   5.354
 8011SOL     OW24931   3.709   2.010   1.829
 8011SOL    HW124932   3.695   2.060   1.914
 8011SOL    HW224933   3.679   2.065   1.751
 8012SOL     OW24934   0.767   2.584   5.957
 8012SOL    HW124935   0.816   2.549   5.877
 8012SOL    HW224936   0.827   2.642   6.012
 8013SOL     OW24937   0.914   2.653   3.448
 8013SOL    HW124938   0.926   2.616   3.541
 8013SOL    HW224939   0.892   2.578   3.386
 8014SOL     OW24940   1.770   0.026   3.776
 8014SOL    HW124941   1.704   0.082   3.727
 8014SOL    HW224942   1.738   0.012   3.870
 8015SOL     OW24943   2.108   0.358   5.702
 8015SOL    HW124944   2.178   0.311   5.648
 8015SOL    HW224945   2.059   0.290   5.758
 8016SOL     OW24946   3.967   1.751   4.784
 8016SOL    HW124947   3.971   1.696   4.868
 8016SOL    HW224948   4.038   1.822   4.787
 8017SOL     OW24949   6.724   6.884   0.194
 8017SOL    HW124950   6.626   6.899   0.206
 8017SOL    HW224951   6.768   6.877   0.284
 8018SOL     OW24952   3.894   2.689   6.717
 8018SOL    HW124953   3.842   2.774   6.712
 8018SOL    HW224954   3.863   2.636   6.796
 8019SOL     OW24955   2.521   3.976   0.905
 8019SOL    HW124956   2.575   3.984   0.989
 8019SOL    HW224957   2.430   4.015   0.920
 8020SOL     OW24958   5.904   0.230   6.015
 8020SOL    HW124959   5.970   0.163   6.050
 8020SOL    HW224960   5.888   0.300   6.084
 8021SOL     OW24961   2.173   2.838   1.272
 8021SOL    HW124962   2.230   2.910   1.312
 8021SOL    HW224963   2.165   2.763   1.337
 8022SOL     OW24964   6.140   0.312   1.625
 8022SOL    HW124965   6.137   0.254   1.543
 8022SOL    HW224966   6.131   0.254   1.707
 8023SOL     OW24967   5.780   5.611   2.796
 8023SOL    HW124968   5.854   5.602   2.729
 8023SOL    HW224969   5.729   5.525   2.802
 8024SOL     OW24970   1.359   5.784   6.107
 8024SOL    HW124971   1.455   5.809   6.096
 8024SOL    HW224972   1.322   5.752   6.020
 8025SOL     OW24973   1.796   4.711   1.341
 8025SOL    HW124974   1.736   4.790   1.353
 8025SOL    HW224975   1.742   4.627   1.349
 8026SOL     OW24976   0.072   4.694   0.755
 8026SOL    HW124977   0.091   4.759   0.828
 8026SOL    HW224978   0.109   4.604   0.780
 8027SOL     OW24979   3.511   6.629   5.156
 8027SOL    HW124980   3.431   6.689   5.156
 8027SOL    HW224981   3.486   6.540   5.119
 8028SOL     OW24982   2.086   5.741   4.322
 8028SOL    HW124983   2.008   5.693   4.362
 8028SOL    HW224984   2.072   5.840   4.330
 8029SOL     OW24985   4.869   2.291   1.778
 8029SOL    HW124986   4.954   2.303   1.728
 8029SOL    HW224987   4.805   2.364   1.753
 8030SOL     OW24988   6.238   5.423   0.434
 8030SOL    HW124989   6.298   5.363   0.381
 8030SOL    HW224990   6.228   5.387   0.527
 8031SOL     OW24991   6.005   6.896   3.181
 8031SOL    HW124992   6.094   6.854   3.164
 8031SOL    HW224993   6.001   6.984   3.133
 8032SOL     OW24994   5.115   3.833   1.628
 8032SOL    HW124995   5.021   3.816   1.596
 8032SOL    HW224996   5.163   3.746   1.637
 8033SOL     OW24997   4.439   3.619   0.423
 8033SOL    HW124998   4.427   3.682   0.346
 8033SOL    HW224999   4.412   3.664   0.508
 8034SOL     OW25000   5.848   0.569   5.256
 8034SOL    HW125001   5.841   0.499   5.185
 8034SOL    HW225002   5.926   0.548   5.316
 8035SOL     OW25003   4.556   1.116   2.467
 8035SOL    HW125004   4.575   1.142   2.561
 8035SOL    HW225005   4.470   1.157   2.438
 8036SOL     OW25006   6.738   2.826   3.575
 8036SOL    HW125007   6.674   2.903   3.583
 8036SOL    HW225008   6.709   2.767   3.499
 8037SOL     OW25009   1.304   3.254   0.149
 8037SOL    HW125010   1.259   3.254   0.060
 8037SOL    HW225011   1.351   3.167   0.163
 8038SOL     OW25012   5.719   6.290   2.078
 8038SOL    HW125013   5.636   6.320   2.124
 8038SOL    HW225014   5.795   6.288   2.143
 8039SOL     OW25015   0.433   2.417   5.126
 8039SOL    HW125016   0.356   2.466   5.086
 8039SOL    HW225017   0.474   2.473   5.198
 8040SOL     OW25018   2.034   5.878   6.060
 8040SOL    HW125019   1.992   5.844   5.976
 8040SOL    HW225020   2.003   5.972   6.076
 8041SOL     OW25021   3.250   1.571   2.764
 8041SOL    HW125022   3.168   1.526   2.799
 8041SOL    HW225023   3.248   1.572   2.664
 8042SOL     OW25024   4.185   4.346   5.749
 8042SOL    HW125025   4.231   4.259   5.766
 8042SOL    HW225026   4.175   4.397   5.835
 8043SOL     OW25027   4.027   5.380   0.860
 8043SOL    HW125028   3.967   5.403   0.936
 8043SOL    HW225029   4.045   5.282   0.860
 8044SOL     OW25030   4.254   3.615   1.106
 8044SOL    HW125031   4.243   3.554   1.027
 8044SOL    HW225032   4.167   3.660   1.126
 8045SOL     OW25033   6.946   1.611   2.725
 8045SOL    HW125034   6.963   1.608   2.626
 8045SOL    HW225035   6.966   1.521   2.765
 8046SOL     OW25036   0.511   5.120   1.864
 8046SOL    HW125037   0.453   5.193   1.900
 8046SOL    HW225038   0.512   5.043   1.927
 8047SOL     OW25039   3.749   6.704   6.566
 8047SOL    HW125040   3.680   6.632   6.573
 8047SOL    HW225041   3.839   6.662   6.557
 8048SOL     OW25042   3.745   2.969   6.999
 8048SOL    HW125043   3.661   2.977   0.026
 8048SOL    HW225044   3.792   3.058   6.997
 8049SOL     OW25045   1.386   6.598   0.218
 8049SOL    HW125046   1.303   6.616   0.165
 8049SOL    HW225047   1.465   6.636   0.169
 8050SOL     OW25048   1.839   4.049   4.622
 8050SOL    HW125049   1.740   4.059   4.611
 8050SOL    HW225050   1.859   3.963   4.670
 8051SOL     OW25051   4.738   5.733   4.221
 8051SOL    HW125052   4.658   5.709   4.276
 8051SOL    HW225053   4.728   5.697   4.129
 8052SOL     OW25054   2.365   2.113   2.183
 8052SOL    HW125055   2.368   2.054   2.264
 8052SOL    HW225056   2.366   2.056   2.100
 8053SOL     OW25057   2.972   3.081   5.493
 8053SOL    HW125058   2.976   3.107   5.589
 8053SOL    HW225059   2.917   3.148   5.443
 8054SOL     OW25060   5.956   3.998   5.231
 8054SOL    HW125061   6.022   4.046   5.173
 8054SOL    HW225062   5.925   4.060   5.303
 8055SOL     OW25063   6.991   0.854   5.895
 8055SOL    HW125064   7.014   0.931   5.836
 8055SOL    HW225065   6.922   0.881   5.961
 8056SOL     OW25066   2.950   6.672   3.415
 8056SOL    HW125067   3.036   6.692   3.369
 8056SOL    HW225068   2.968   6.614   3.495
 8057SOL     OW25069   2.700   1.921   1.906
 8057SOL    HW125070   2.782   1.918   1.849
 8057SOL    HW225071   2.715   1.868   1.990
 8058SOL     OW25072   2.783   6.639   2.956
 8058SOL    HW125073   2.808   6.689   3.038
 8058SOL    HW225074   2.715   6.691   2.905
 8059SOL     OW25075   3.376   1.117   5.189
 8059SOL    HW125076   3.298   1.072   5.145
 8059SOL    HW225077   3.364   1.114   5.289
 8060SOL     OW25078   6.783   1.031   6.012
 8060SOL    HW125079   6.850   1.087   5.964
 8060SOL    HW225080   6.790   1.049   6.111
 8061SOL     OW25081   0.394   0.997   2.795
 8061SOL    HW125082   0.425   0.928   2.730
 8061SOL    HW225083   0.393   1.087   2.752
 8062SOL     OW25084   4.043   5.247   5.000
 8062SOL    HW125085   4.007   5.261   5.092
 8062SOL    HW225086   4.123   5.307   4.987
 8063SOL     OW25087   3.136   0.980   2.880
 8063SOL    HW125088   3.227   1.014   2.906
 8063SOL    HW225089   3.067   1.048   2.905
 8064SOL     OW25090   6.777   3.036   0.090
 8064SOL    HW125091   6.777   2.949   0.139
 8064SOL    HW225092   6.753   3.110   0.153
 8065SOL     OW25093   3.712   0.032   4.612
 8065SOL    HW125094   3.738   0.083   4.693
 8065SOL    HW225095   3.700   6.962   4.635
 8066SOL     OW25096   6.624   0.609   4.434
 8066SOL    HW125097   6.540   0.555   4.433
 8066SOL    HW225098   6.605   0.699   4.472
 8067SOL     OW25099   5.385   3.029   3.921
 8067SOL    HW125100   5.386   3.129   3.915
 8067SOL    HW225101   5.404   3.001   4.015
 8068SOL     OW25102   0.629   4.845   0.720
 8068SOL    HW125103   0.718   4.805   0.741
 8068SOL    HW225104   0.556   4.783   0.748
 8069SOL     OW25105   2.735   5.024   1.924
 8069SOL    HW125106   2.662   4.989   1.983
 8069SOL    HW225107   2.734   4.975   1.837
 8070SOL     OW25108   4.074   4.021   0.705
 8070SOL    HW125109   3.978   4.045   0.694
 8070SOL    HW225110   4.113   3.996   0.615
 8071SOL     OW25111   4.064   0.008   5.066
 8071SOL    HW125112   3.991   7.016   4.999
 8071SOL    HW225113   4.120   6.952   5.077
 8072SOL     OW25114   3.372   2.421   0.719
 8072SOL    HW125115   3.333   2.461   0.802
 8072SOL    HW225116   3.301   2.411   0.650
 8073SOL     OW25117   2.873   0.114   5.646
 8073SOL    HW125118   2.949   0.174   5.617
 8073SOL    HW225119   2.910   0.025   5.672
 8074SOL     OW25120   2.090   1.202   1.137
 8074SOL    HW125121   2.021   1.130   1.147
 8074SOL    HW225122   2.046   1.292   1.148
 8075SOL     OW25123   0.503   6.748   0.830
 8075SOL    HW125124   0.512   6.845   0.850
 8075SOL    HW225125   0.556   6.726   0.748
 8076SOL     OW25126   0.588   6.850   6.390
 8076SOL    HW125127   0.598   6.794   6.308
 8076SOL    HW225128   0.555   6.794   6.466
 8077SOL     OW25129   3.978   6.013   2.187
 8077SOL    HW125130   3.896   5.958   2.173
 8077SOL    HW225131   3.962   6.106   2.153
 8078SOL     OW25132   0.848   1.714   1.018
 8078SOL    HW125133   0.793   1.631   1.010
 8078SOL    HW225134   0.820   1.780   0.948
 8079SOL     OW25135   6.812   1.705   3.944
 8079SOL    HW125136   6.844   1.611   3.952
 8079SOL    HW225137   6.712   1.706   3.941
 8080SOL     OW25138   1.616   2.747   2.001
 8080SOL    HW125139   1.598   2.650   2.017
 8080SOL    HW225140   1.692   2.777   2.059
 8081SOL     OW25141   6.136   5.012   5.679
 8081SOL    HW125142   6.217   5.016   5.621
 8081SOL    HW225143   6.083   4.930   5.658
 8082SOL     OW25144   3.433   0.617   2.282
 8082SOL    HW125145   3.443   0.521   2.309
 8082SOL    HW225146   3.418   0.673   2.364
 8083SOL     OW25147   5.461   2.957   4.170
 8083SOL    HW125148   5.459   2.861   4.197
 8083SOL    HW225149   5.551   2.996   4.192
 8084SOL     OW25150   2.966   0.962   5.490
 8084SOL    HW125151   2.885   1.021   5.496
 8084SOL    HW225152   2.943   0.878   5.442
 8085SOL     OW25153   6.764   6.277   3.054
 8085SOL    HW125154   6.797   6.339   3.126
 8085SOL    HW225155   6.779   6.320   2.965
 8086SOL     OW25156   0.083   0.980   1.288
 8086SOL    HW125157   0.058   0.957   1.194
 8086SOL    HW225158   0.167   1.034   1.288
 8087SOL     OW25159   1.706   0.548   6.246
 8087SOL    HW125160   1.770   0.477   6.215
 8087SOL    HW225161   1.745   0.596   6.324
 8088SOL     OW25162   5.965   0.095   6.649
 8088SOL    HW125163   6.028   0.170   6.669
 8088SOL    HW225164   5.996   0.012   6.695
 8089SOL     OW25165   5.896   2.669   6.564
 8089SOL    HW125166   5.822   2.727   6.528
 8089SOL    HW225167   5.873   2.573   6.549
 8090SOL     OW25168   4.062   1.418   5.903
 8090SOL    HW125169   4.116   1.500   5.920
 8090SOL    HW225170   3.992   1.437   5.835
 8091SOL     OW25171   1.269   4.384   4.250
 8091SOL    HW125172   1.299   4.334   4.331
 8091SOL    HW225173   1.306   4.477   4.252
 8092SOL     OW25174   4.978   2.223   5.551
 8092SOL    HW125175   5.038   2.172   5.490
 8092SOL    HW225176   5.032   2.264   5.625
 8093SOL     OW25177   3.470   5.569   3.607
 8093SOL    HW125178   3.540   5.577   3.536
 8093SOL    HW225179   3.512   5.540   3.693
 8094SOL     OW25180   0.766   3.457   5.631
 8094SOL    HW125181   0.820   3.433   5.712
 8094SOL    HW225182   0.766   3.380   5.566
 8095SOL     OW25183   0.510   5.344   4.766
 8095SOL    HW125184   0.471   5.407   4.699
 8095SOL    HW225185   0.598   5.310   4.733
 8096SOL     OW25186   1.669   0.562   2.848
 8096SOL    HW125187   1.682   0.483   2.788
 8096SOL    HW225188   1.710   0.544   2.937
 8097SOL     OW25189   4.020   0.256   4.407
 8097SOL    HW125190   3.949   0.201   4.363
 8097SOL    HW225191   3.993   0.353   4.406
 8098SOL     OW25192   1.897   6.544   3.545
 8098SOL    HW125193   1.839   6.625   3.537
 8098SOL    HW225194   1.973   6.551   3.480
 8099SOL     OW25195   4.459   6.176   4.486
 8099SOL    HW125196   4.416   6.186   4.396
 8099SOL    HW225197   4.507   6.088   4.490
 8100SOL     OW25198   6.618   1.548   6.785
 8100SOL    HW125199   6.536   1.571   6.733
 8100SOL    HW225200   6.595   1.481   6.856
 8101SOL     OW25201   1.727   5.212   0.686
 8101SOL    HW125202   1.796   5.283   0.702
 8101SOL    HW225203   1.753   5.157   0.607
 8102SOL     OW25204   0.767   3.871   3.781
 8102SOL    HW125205   0.833   3.945   3.768
 8102SOL    HW225206   0.700   3.873   3.708
 8103SOL     OW25207   3.603   0.364   2.383
 8103SOL    HW125208   3.554   0.404   2.459
 8103SOL    HW225209   3.702   0.379   2.395
 8104SOL     OW25210   1.961   0.021   5.086
 8104SOL    HW125211   2.006   0.058   5.005
 8104SOL    HW225212   1.862   0.035   5.079
 8105SOL     OW25213   0.053   2.541   2.665
 8105SOL    HW125214   7.021   2.622   2.662
 8105SOL    HW225215   0.059   2.508   2.759
 8106SOL     OW25216   2.481   6.638   3.365
 8106SOL    HW125217   2.522   6.674   3.281
 8106SOL    HW225218   2.450   6.545   3.349
 8107SOL     OW25219   1.329   6.126   4.304
 8107SOL    HW125220   1.422   6.090   4.297
 8107SOL    HW225221   1.266   6.051   4.321
 8108SOL     OW25222   6.595   1.788   0.164
 8108SOL    HW125223   6.567   1.871   0.117
 8108SOL    HW225224   6.688   1.763   0.135
 8109SOL     OW25225   0.448   3.881   7.016
 8109SOL    HW125226   0.424   3.875   0.087
 8109SOL    HW225227   0.367   3.904   6.963
 8110SOL     OW25228   4.097   4.738   1.872
 8110SOL    HW125229   4.126   4.689   1.954
 8110SOL    HW225230   4.070   4.831   1.897
 8111SOL     OW25231   4.821   1.014   4.155
 8111SOL    HW125232   4.848   1.100   4.112
 8111SOL    HW225233   4.903   0.958   4.172
 8112SOL     OW25234   1.618   2.954   4.169
 8112SOL    HW125235   1.641   2.862   4.138
 8112SOL    HW225236   1.582   3.007   4.092
 8113SOL     OW25237   6.460   3.706   0.652
 8113SOL    HW125238   6.461   3.682   0.749
 8113SOL    HW225239   6.422   3.798   0.641
 8114SOL     OW25240   1.460   3.572   2.151
 8114SOL    HW125241   1.538   3.631   2.170
 8114SOL    HW225242   1.477   3.520   2.067
 8115SOL     OW25243   2.913   6.523   5.908
 8115SOL    HW125244   2.869   6.604   5.946
 8115SOL    HW225245   2.931   6.537   5.811
 8116SOL     OW25246   4.250   4.917   0.433
 8116SOL    HW125247   4.346   4.923   0.460
 8116SOL    HW225248   4.220   4.821   0.439
 8117SOL     OW25249   2.250   0.070   3.291
 8117SOL    HW125250   2.228   0.064   3.388
 8117SOL    HW225251   2.307   0.151   3.274
 8118SOL     OW25252   5.643   4.326   6.333
 8118SOL    HW125253   5.560   4.290   6.376
 8118SOL    HW225254   5.618   4.375   6.249
 8119SOL     OW25255   5.162   6.391   5.907
 8119SOL    HW125256   5.118   6.413   5.994
 8119SOL    HW225257   5.114   6.316   5.862
 8120SOL     OW25258   2.741   4.797   0.637
 8120SOL    HW125259   2.835   4.777   0.608
 8120SOL    HW225260   2.700   4.864   0.575
 8121SOL     OW25261   0.762   4.732   1.654
 8121SOL    HW125262   0.838   4.712   1.716
 8121SOL    HW225263   0.783   4.814   1.601
 8122SOL     OW25264   0.586   4.640   2.944
 8122SOL    HW125265   0.635   4.572   2.890
 8122SOL    HW225266   0.494   4.606   2.964
 8123SOL     OW25267   6.845   1.367   0.191
 8123SOL    HW125268   6.891   1.377   0.102
 8123SOL    HW225269   6.868   1.278   0.230
 8124SOL     OW25270   5.125   6.349   3.507
 8124SOL    HW125271   5.071   6.339   3.424
 8124SOL    HW225272   5.201   6.284   3.507
 8125SOL     OW25273   1.247   1.221   2.623
 8125SOL    HW125274   1.307   1.290   2.584
 8125SOL    HW225275   1.190   1.181   2.551
 8126SOL     OW25276   5.024   4.673   3.395
 8126SOL    HW125277   4.946   4.639   3.342
 8126SOL    HW225278   4.991   4.730   3.470
 8127SOL     OW25279   3.135   3.128   6.296
 8127SOL    HW125280   3.047   3.148   6.339
 8127SOL    HW225281   3.174   3.045   6.336
 8128SOL     OW25282   3.112   2.046   2.001
 8128SOL    HW125283   3.211   2.048   1.984
 8128SOL    HW225284   3.071   2.129   1.961
 8129SOL     OW25285   3.633   1.691   6.501
 8129SOL    HW125286   3.571   1.694   6.579
 8129SOL    HW225287   3.582   1.666   6.418
 8130SOL     OW25288   1.114   6.190   6.433
 8130SOL    HW125289   1.188   6.242   6.474
 8130SOL    HW225290   1.028   6.240   6.444
 8131SOL     OW25291   2.871   1.633   1.888
 8131SOL    HW125292   2.898   1.537   1.891
 8131SOL    HW225293   2.855   1.660   1.793
 8132SOL     OW25294   5.520   6.251   4.657
 8132SOL    HW125295   5.579   6.170   4.657
 8132SOL    HW225296   5.429   6.226   4.692
 8133SOL     OW25297   3.648   5.588   2.190
 8133SOL    HW125298   3.677   5.643   2.268
 8133SOL    HW225299   3.553   5.560   2.203
 8134SOL     OW25300   6.945   1.399   6.315
 8134SOL    HW125301   6.891   1.481   6.332
 8134SOL    HW225302   7.021   1.420   6.253
 8135SOL     OW25303   1.629   1.110   1.755
 8135SOL    HW125304   1.538   1.093   1.716
 8135SOL    HW225305   1.698   1.099   1.683
 8136SOL     OW25306   5.643   5.474   2.212
 8136SOL    HW125307   5.592   5.556   2.189
 8136SOL    HW225308   5.716   5.459   2.145
 8137SOL     OW25309   2.959   1.332   5.691
 8137SOL    HW125310   2.874   1.367   5.650
 8137SOL    HW225311   3.011   1.282   5.622
 8138SOL     OW25312   5.494   0.969   1.616
 8138SOL    HW125313   5.594   0.967   1.608
 8138SOL    HW225314   5.455   0.909   1.546
 8139SOL     OW25315   0.357   1.130   2.086
 8139SOL    HW125316   0.326   1.165   2.175
 8139SOL    HW225317   0.399   1.204   2.034
 8140SOL     OW25318   5.092   1.029   4.920
 8140SOL    HW125319   5.094   0.968   4.999
 8140SOL    HW225320   5.029   0.994   4.851
 8141SOL     OW25321   4.549   5.237   5.952
 8141SOL    HW125322   4.577   5.203   5.863
 8141SOL    HW225323   4.629   5.242   6.013
 8142SOL     OW25324   6.346   5.281   6.825
 8142SOL    HW125325   6.323   5.362   6.771
 8142SOL    HW225326   6.266   5.248   6.874
 8143SOL     OW25327   6.377   5.240   0.217
 8143SOL    HW125328   6.448   5.298   0.178
 8143SOL    HW225329   6.332   5.189   0.144
 8144SOL     OW25330   5.842   6.874   6.930
 8144SOL    HW125331   5.932   6.849   6.894
 8144SOL    HW225332   5.776   6.802   6.909
 8145SOL     OW25333   5.756   5.788   2.279
 8145SOL    HW125334   5.819   5.709   2.276
 8145SOL    HW225335   5.704   5.792   2.194
 8146SOL     OW25336   3.680   1.366   4.740
 8146SOL    HW125337   3.632   1.284   4.710
 8146SOL    HW225338   3.642   1.446   4.693
 8147SOL     OW25339   5.748   2.198   3.070
 8147SOL    HW125340   5.813   2.165   3.138
 8147SOL    HW225341   5.779   2.288   3.036
 8148SOL     OW25342   5.587   3.850   2.377
 8148SOL    HW125343   5.590   3.936   2.427
 8148SOL    HW225344   5.573   3.868   2.280
 8149SOL     OW25345   2.775   5.779   2.325
 8149SOL    HW125346   2.736   5.694   2.358
 8149SOL    HW225347   2.708   5.828   2.270
 8150SOL     OW25348   6.964   5.151   0.470
 8150SOL    HW125349   0.023   5.103   0.487
 8150SOL    HW225350   6.919   5.112   0.390
 8151SOL     OW25351   0.363   2.596   2.989
 8151SOL    HW125352   0.396   2.684   2.953
 8151SOL    HW225353   0.319   2.610   3.077
 8152SOL     OW25354   1.179   1.879   2.921
 8152SOL    HW125355   1.203   1.976   2.928
 8152SOL    HW225356   1.236   1.835   2.851
 8153SOL     OW25357   3.433   0.071   3.354
 8153SOL    HW125358   3.502   0.110   3.415
 8153SOL    HW225359   3.381   0.145   3.311
 8154SOL     OW25360   1.964   5.794   4.049
 8154SOL    HW125361   1.989   5.704   4.087
 8154SOL    HW225362   1.972   5.791   3.950
 8155SOL     OW25363   2.786   3.358   1.907
 8155SOL    HW125364   2.722   3.292   1.947
 8155SOL    HW225365   2.746   3.396   1.823
 8156SOL     OW25366   5.849   0.400   5.798
 8156SOL    HW125367   5.891   0.333   5.859
 8156SOL    HW225368   5.776   0.448   5.846
 8157SOL     OW25369   5.764   5.911   5.975
 8157SOL    HW125370   5.826   5.987   5.993
 8157SOL    HW225371   5.734   5.914   5.879
 8158SOL     OW25372   0.781   5.742   0.302
 8158SOL    HW125373   0.765   5.779   0.211
 8158SOL    HW225374   0.763   5.812   0.371
 8159SOL     OW25375   2.323   5.490   2.083
 8159SOL    HW125376   2.391   5.444   2.139
 8159SOL    HW225377   2.369   5.540   2.009
 8160SOL     OW25378   4.358   1.394   1.296
 8160SOL    HW125379   4.286   1.324   1.288
 8160SOL    HW225380   4.379   1.408   1.393
 8161SOL     OW25381   5.082   0.617   1.141
 8161SOL    HW125382   5.158   0.681   1.151
 8161SOL    HW225383   5.114   0.534   1.095
 8162SOL     OW25384   6.411   6.353   6.426
 8162SOL    HW125385   6.336   6.322   6.484
 8162SOL    HW225386   6.498   6.319   6.464
 8163SOL     OW25387   2.603   4.468   5.596
 8163SOL    HW125388   2.548   4.482   5.514
 8163SOL    HW225389   2.549   4.421   5.666
 8164SOL     OW25390   5.715   3.244   0.857
 8164SOL    HW125391   5.767   3.166   0.821
 8164SOL    HW225392   5.704   3.233   0.956
 8165SOL     OW25393   1.770   4.545   0.871
 8165SOL    HW125394   1.845   4.512   0.814
 8165SOL    HW225395   1.729   4.467   0.919
 8166SOL     OW25396   2.352   1.191   1.915
 8166SOL    HW125397   2.255   1.209   1.900
 8166SOL    HW225398   2.399   1.276   1.939
 8167SOL     OW25399   5.357   1.839   4.149
 8167SOL    HW125400   5.320   1.834   4.057
 8167SOL    HW225401   5.429   1.771   4.160
 8168SOL     OW25402   3.297   2.133   2.501
 8168SOL    HW125403   3.213   2.134   2.554
 8168SOL    HW225404   3.374   2.111   2.561
 8169SOL     OW25405   4.508   3.241   0.833
 8169SOL    HW125406   4.499   3.273   0.927
 8169SOL    HW225407   4.419   3.209   0.800
 8170SOL     OW25408   1.747   5.815   3.460
 8170SOL    HW125409   1.690   5.879   3.408
 8170SOL    HW225410   1.699   5.728   3.470
 8171SOL     OW25411   0.569   2.129   6.576
 8171SOL    HW125412   0.542   2.056   6.512
 8171SOL    HW225413   0.488   2.174   6.612
 8172SOL     OW25414   0.073   0.788   0.836
 8172SOL    HW125415   0.053   0.737   0.920
 8172SOL    HW225416   7.019   0.841   0.809
 8173SOL     OW25417   3.217   2.223   6.871
 8173SOL    HW125418   3.221   2.165   6.790
 8173SOL    HW225419   3.136   2.281   6.867
 8174SOL     OW25420   5.343   2.073   1.145
 8174SOL    HW125421   5.402   1.993   1.134
 8174SOL    HW225422   5.248   2.044   1.145
 8175SOL     OW25423   6.934   2.520   7.002
 8175SOL    HW125424   6.980   2.563   6.924
 8175SOL    HW225425   6.860   2.580   0.007
 8176SOL     OW25426   2.971   5.793   2.142
 8176SOL    HW125427   2.909   5.799   2.221
 8176SOL    HW225428   3.048   5.733   2.165
 8177SOL     OW25429   1.138   6.259   3.708
 8177SOL    HW125430   1.082   6.211   3.640
 8177SOL    HW225431   1.231   6.223   3.705
 8178SOL     OW25432   1.650   0.266   5.963
 8178SOL    HW125433   1.698   0.215   5.892
 8178SOL    HW225434   1.580   0.208   6.004
 8179SOL     OW25435   3.719   3.244   0.295
 8179SOL    HW125436   3.766   3.170   0.247
 8179SOL    HW225437   3.698   3.317   0.231
 8180SOL     OW25438   6.685   0.004   3.898
 8180SOL    HW125439   6.677   7.023   3.998
 8180SOL    HW225440   6.706   6.941   3.860
 8181SOL     OW25441   2.389   2.008   2.987
 8181SOL    HW125442   2.291   2.029   2.998
 8181SOL    HW225443   2.427   2.067   2.916
 8182SOL     OW25444   3.329   2.054   5.972
 8182SOL    HW125445   3.280   2.126   6.020
 8182SOL    HW225446   3.305   2.056   5.875
 8183SOL     OW25447   0.803   3.272   5.436
 8183SOL    HW125448   0.856   3.202   5.483
 8183SOL    HW225449   0.864   3.330   5.382
 8184SOL     OW25450   6.170   1.202   5.943
 8184SOL    HW125451   6.122   1.179   5.858
 8184SOL    HW225452   6.236   1.130   5.964
 8185SOL     OW25453   2.752   0.476   0.617
 8185SOL    HW125454   2.815   0.520   0.681
 8185SOL    HW225455   2.773   0.378   0.612
 8186SOL     OW25456   3.344   6.294   5.772
 8186SOL    HW125457   3.380   6.265   5.861
 8186SOL    HW225458   3.274   6.229   5.742
 8187SOL     OW25459   1.077   1.511   5.508
 8187SOL    HW125460   0.993   1.465   5.480
 8187SOL    HW225461   1.079   1.604   5.473
 8188SOL     OW25462   5.046   2.041   2.589
 8188SOL    HW125463   5.010   2.134   2.582
 8188SOL    HW225464   5.065   2.020   2.685
 8189SOL     OW25465   4.976   4.410   2.544
 8189SOL    HW125466   4.945   4.317   2.562
 8189SOL    HW225467   4.946   4.439   2.453
 8190SOL     OW25468   5.484   4.217   4.165
 8190SOL    HW125469   5.559   4.279   4.142
 8190SOL    HW225470   5.403   4.271   4.190
 8191SOL     OW25471   1.642   5.572   3.509
 8191SOL    HW125472   1.546   5.575   3.536
 8191SOL    HW225473   1.666   5.478   3.483
 8192SOL     OW25474   2.963   5.351   1.120
 8192SOL    HW125475   2.963   5.433   1.178
 8192SOL    HW225476   2.908   5.280   1.164
 8193SOL     OW25477   6.053   5.945   5.017
 8193SOL    HW125478   6.079   5.862   4.968
 8193SOL    HW225479   6.134   5.999   5.036
 8194SOL     OW25480   6.370   2.105   0.166
 8194SOL    HW125481   6.298   2.174   0.172
 8194SOL    HW225482   6.459   2.147   0.183
 8195SOL     OW25483   0.193   0.440   0.862
 8195SOL    HW125484   0.113   0.442   0.922
 8195SOL    HW225485   0.196   0.525   0.808
 8196SOL     OW25486   3.949   6.570   5.778
 8196SOL    HW125487   3.860   6.612   5.762
 8196SOL    HW225488   3.942   6.472   5.760
 8197SOL     OW25489   6.399   1.188   6.384
 8197SOL    HW125490   6.478   1.241   6.353
 8197SOL    HW225491   6.431   1.105   6.430
 8198SOL     OW25492   2.611   6.811   2.624
 8198SOL    HW125493   2.517   6.824   2.654
 8198SOL    HW225494   2.634   6.882   2.556
 8199SOL     OW25495   0.508   3.617   0.567
 8199SOL    HW125496   0.433   3.683   0.569
 8199SOL    HW225497   0.513   3.575   0.476
 8200SOL     OW25498   4.481   4.528   1.475
 8200SOL    HW125499   4.400   4.470   1.466
 8200SOL    HW225500   4.563   4.471   1.469
 8201SOL     OW25501   5.120   0.890   4.544
 8201SOL    HW125502   5.125   0.977   4.495
 8201SOL    HW225503   5.038   0.889   4.601
 8202SOL     OW25504   1.887   5.278   3.788
 8202SOL    HW125505   1.797   5.272   3.831
 8202SOL    HW225506   1.893   5.213   3.712
 8203SOL     OW25507   4.815   3.195   1.208
 8203SOL    HW125508   4.833   3.276   1.264
 8203SOL    HW225509   4.900   3.145   1.193
 8204SOL     OW25510   3.278   6.378   2.052
 8204SOL    HW125511   3.259   6.391   2.149
 8204SOL    HW225512   3.377   6.383   2.037
 8205SOL     OW25513   5.427   5.343   1.796
 8205SOL    HW125514   5.335   5.334   1.835
 8205SOL    HW225515   5.495   5.324   1.866
 8206SOL     OW25516   3.385   2.483   6.136
 8206SOL    HW125517   3.482   2.460   6.144
 8206SOL    HW225518   3.368   2.573   6.176
 8207SOL     OW25519   2.982   4.712   5.522
 8207SOL    HW125520   3.031   4.779   5.578
 8207SOL    HW225521   3.018   4.714   5.429
 8208SOL     OW25522   2.245   5.840   1.717
 8208SOL    HW125523   2.236   5.928   1.670
 8208SOL    HW225524   2.288   5.774   1.656
 8209SOL     OW25525   1.766   1.229   5.582
 8209SOL    HW125526   1.774   1.147   5.638
 8209SOL    HW225527   1.670   1.259   5.581
 8210SOL     OW25528   2.071   0.819   0.416
 8210SOL    HW125529   2.099   0.799   0.322
 8210SOL    HW225530   1.977   0.853   0.417
 8211SOL     OW25531   3.659   3.993   4.245
 8211SOL    HW125532   3.662   4.074   4.185
 8211SOL    HW225533   3.568   3.983   4.283
 8212SOL     OW25534   2.205   6.955   0.731
 8212SOL    HW125535   2.187   7.018   0.806
 8212SOL    HW225536   2.155   6.869   0.746
 8213SOL     OW25537   4.338   5.001   2.847
 8213SOL    HW125538   4.431   5.036   2.857
 8213SOL    HW225539   4.336   4.904   2.871
 8214SOL     OW25540   2.625   6.124   3.876
 8214SOL    HW125541   2.571   6.095   3.955
 8214SOL    HW225542   2.618   6.055   3.804
 8215SOL     OW25543   4.089   6.598   6.856
 8215SOL    HW125544   4.173   6.633   6.815
 8215SOL    HW225545   4.054   6.664   6.923
 8216SOL     OW25546   4.982   6.302   3.064
 8216SOL    HW125547   5.051   6.232   3.051
 8216SOL    HW225548   4.985   6.367   2.987
 8217SOL     OW25549   2.294   4.351   3.228
 8217SOL    HW125550   2.343   4.427   3.188
 8217SOL    HW225551   2.246   4.300   3.156
 8218SOL     OW25552   2.146   0.452   4.704
 8218SOL    HW125553   2.181   0.366   4.666
 8218SOL    HW225554   2.117   0.513   4.630
 8219SOL     OW25555   3.385   3.866   2.035
 8219SOL    HW125556   3.318   3.928   1.993
 8219SOL    HW225557   3.339   3.811   2.105
 8220SOL     OW25558   3.321   4.053   5.307
 8220SOL    HW125559   3.239   4.097   5.270
 8220SOL    HW225560   3.359   4.110   5.380
 8221SOL     OW25561   6.257   3.599   3.061
 8221SOL    HW125562   6.178   3.575   3.005
 8221SOL    HW225563   6.333   3.538   3.039
 8222SOL     OW25564   6.717   2.743   1.306
 8222SOL    HW125565   6.757   2.712   1.393
 8222SOL    HW225566   6.617   2.741   1.313
 8223SOL     OW25567   0.219   5.887   5.422
 8223SOL    HW125568   0.239   5.966   5.478
 8223SOL    HW225569   0.236   5.803   5.474
 8224SOL     OW25570   4.398   2.019   0.805
 8224SOL    HW125571   4.384   1.923   0.779
 8224SOL    HW225572   4.441   2.023   0.895
 8225SOL     OW25573   4.200   0.726   0.014
 8225SOL    HW125574   4.238   0.639   7.008
 8225SOL    HW225575   4.155   0.713   0.102
 8226SOL     OW25576   3.463   0.742   6.767
 8226SOL    HW125577   3.506   0.738   6.677
 8226SOL    HW225578   3.530   0.767   6.836
 8227SOL     OW25579   5.213   1.689   3.269
 8227SOL    HW125580   5.133   1.629   3.277
 8227SOL    HW225581   5.279   1.647   3.206
 8228SOL     OW25582   0.841   1.275   5.457
 8228SOL    HW125583   0.813   1.187   5.496
 8228SOL    HW225584   0.776   1.303   5.386
 8229SOL     OW25585   4.023   4.824   1.427
 8229SOL    HW125586   4.060   4.767   1.353
 8229SOL    HW225587   4.085   4.901   1.443
 8230SOL     OW25588   4.386   0.195   5.765
 8230SOL    HW125589   4.425   0.264   5.705
 8230SOL    HW225590   4.301   0.160   5.726
 8231SOL     OW25591   3.277   0.978   1.724
 8231SOL    HW125592   3.306   1.001   1.817
 8231SOL    HW225593   3.198   1.035   1.700
 8232SOL     OW25594   4.476   0.845   2.222
 8232SOL    HW125595   4.439   0.928   2.180
 8232SOL    HW225596   4.560   0.867   2.272
 8233SOL     OW25597   0.661   0.998   5.417
 8233SOL    HW125598   0.641   1.087   5.457
 8233SOL    HW225599   0.588   0.934   5.441
 8234SOL     OW25600   2.416   3.654   0.131
 8234SOL    HW125601   2.351   3.677   0.204
 8234SOL    HW225602   2.489   3.722   0.128
 8235SOL     OW25603   6.942   4.906   6.792
 8235SOL    HW125604   6.893   4.830   6.750
 8235SOL    HW225605   7.019   4.933   6.734
 8236SOL     OW25606   0.569   6.255   5.892
 8236SOL    HW125607   0.568   6.159   5.923
 8236SOL    HW225608   0.476   6.289   5.887
 8237SOL     OW25609   4.791   5.525   6.320
 8237SOL    HW125610   4.708   5.549   6.270
 8237SOL    HW225611   4.862   5.496   6.255
 8238SOL     OW25612   2.671   5.147   0.614
 8238SOL    HW125613   2.752   5.203   0.595
 8238SOL    HW225614   2.610   5.150   0.535
 8239SOL     OW25615   0.951   1.363   5.083
 8239SOL    HW125616   0.929   1.459   5.100
 8239SOL    HW225617   0.964   1.316   5.170
 8240SOL     OW25618   3.998   3.144   4.515
 8240SOL    HW125619   4.033   3.235   4.537
 8240SOL    HW225620   3.992   3.089   4.598
 8241SOL     OW25621   0.924   3.728   6.780
 8241SOL    HW125622   0.897   3.699   6.688
 8241SOL    HW225623   0.960   3.649   6.830
 8242SOL     OW25624   1.271   3.612   4.797
 8242SOL    HW125625   1.180   3.609   4.756
 8242SOL    HW225626   1.340   3.597   4.726
 8243SOL     OW25627   0.608   4.473   5.529
 8243SOL    HW125628   0.647   4.413   5.598
 8243SOL    HW225629   0.531   4.427   5.484
 8244SOL     OW25630   0.744   0.422   3.638
 8244SOL    HW125631   0.696   0.371   3.709
 8244SOL    HW225632   0.842   0.403   3.643
 8245SOL     OW25633   4.966   1.229   4.041
 8245SOL    HW125634   5.056   1.186   4.045
 8245SOL    HW225635   4.965   1.299   3.969
 8246SOL     OW25636   0.963   4.045   6.416
 8246SOL    HW125637   0.878   4.022   6.464
 8246SOL    HW225638   1.020   4.103   6.473
 8247SOL     OW25639   2.990   4.993   3.256
 8247SOL    HW125640   3.051   4.939   3.315
 8247SOL    HW225641   2.905   5.013   3.305
 8248SOL     OW25642   0.525   5.845   2.813
 8248SOL    HW125643   0.604   5.824   2.871
 8248SOL    HW225644   0.492   5.762   2.770
 8249SOL     OW25645   1.831   1.869   5.990
 8249SOL    HW125646   1.749   1.815   6.011
 8249SOL    HW225647   1.814   1.965   6.010
 8250SOL     OW25648   2.275   2.007   6.456
 8250SOL    HW125649   2.283   2.034   6.360
 8250SOL    HW225650   2.200   1.942   6.467
 8251SOL     OW25651   7.007   2.756   5.022
 8251SOL    HW125652   6.996   2.841   5.074
 8251SOL    HW225653   7.009   2.777   4.925
 8252SOL     OW25654   2.338   2.392   6.295
 8252SOL    HW125655   2.399   2.440   6.232
 8252SOL    HW225656   2.265   2.347   6.243
 8253SOL     OW25657   3.564   5.388   0.039
 8253SOL    HW125658   3.576   5.349   6.974
 8253SOL    HW225659   3.653   5.406   0.080
 8254SOL     OW25660   5.686   5.048   0.831
 8254SOL    HW125661   5.747   5.055   0.911
 8254SOL    HW225662   5.640   5.135   0.816
 8255SOL     OW25663   0.226   0.131   5.717
 8255SOL    HW125664   0.191   0.060   5.655
 8255SOL    HW225665   0.264   0.206   5.663
 8256SOL     OW25666   1.261   6.266   2.652
 8256SOL    HW125667   1.283   6.177   2.613
 8256SOL    HW225668   1.171   6.263   2.695
 8257SOL     OW25669   5.001   4.169   4.049
 8257SOL    HW125670   4.996   4.251   3.991
 8257SOL    HW225671   5.093   4.131   4.045
 8258SOL     OW25672   6.288   3.154   1.552
 8258SOL    HW125673   6.317   3.183   1.461
 8258SOL    HW225674   6.268   3.056   1.551
 8259SOL     OW25675   4.598   2.688   4.285
 8259SOL    HW125676   4.658   2.767   4.299
 8259SOL    HW225677   4.611   2.622   4.358
 8260SOL     OW25678   2.482   6.741   0.631
 8260SOL    HW125679   2.462   6.787   0.718
 8260SOL    HW225680   2.432   6.655   0.626
 8261SOL     OW25681   5.216   6.868   3.382
 8261SOL    HW125682   5.251   6.775   3.394
 8261SOL    HW225683   5.178   6.901   3.468
 8262SOL     OW25684   0.363   4.319   0.995
 8262SOL    HW125685   0.299   4.242   0.994
 8262SOL    HW225686   0.456   4.285   1.006
 8263SOL     OW25687   7.013   2.390   0.210
 8263SOL    HW125688   0.001   2.293   0.230
 8263SOL    HW225689   6.966   2.400   0.122
 8264SOL     OW25690   1.755   6.868   2.407
 8264SOL    HW125691   1.741   6.913   2.495
 8264SOL    HW225692   1.694   6.909   2.339
 8265SOL     OW25693   4.814   0.410   0.822
 8265SOL    HW125694   4.745   0.479   0.846
 8265SOL    HW225695   4.901   0.455   0.805
 8266SOL     OW25696   2.450   6.766   3.703
 8266SOL    HW125697   2.531   6.712   3.683
 8266SOL    HW225698   2.432   6.765   3.802
 8267SOL     OW25699   1.106   4.296   2.712
 8267SOL    HW125700   1.135   4.385   2.747
 8267SOL    HW225701   1.046   4.251   2.779
 8268SOL     OW25702   3.370   3.812   6.951
 8268SOL    HW125703   3.363   3.763   6.864
 8268SOL    HW225704   3.306   3.889   6.950
 8269SOL     OW25705   4.193   2.284   2.862
 8269SOL    HW125706   4.230   2.372   2.893
 8269SOL    HW225707   4.186   2.284   2.763
 8270SOL     OW25708   3.821   6.798   5.477
 8270SOL    HW125709   3.839   6.895   5.492
 8270SOL    HW225710   3.853   6.746   5.556
 8271SOL     OW25711   5.040   6.364   4.597
 8271SOL    HW125712   4.998   6.423   4.666
 8271SOL    HW225713   4.983   6.283   4.584
 8272SOL     OW25714   0.658   0.330   2.086
 8272SOL    HW125715   0.568   0.302   2.052
 8272SOL    HW225716   0.649   0.417   2.134
 8273SOL     OW25717   2.682   6.367   6.988
 8273SOL    HW125718   2.643   6.393   0.050
 8273SOL    HW225719   2.774   6.329   7.002
 8274SOL     OW25720   5.091   5.392   7.001
 8274SOL    HW125721   5.080   5.371   6.904
 8274SOL    HW225722   5.170   5.452   7.014
 8275SOL     OW25723   6.643   0.570   4.160
 8275SOL    HW125724   6.605   0.478   4.151
 8275SOL    HW225725   6.618   0.607   4.250
 8276SOL     OW25726   6.884   2.874   6.556
 8276SOL    HW125727   6.981   2.885   6.532
 8276SOL    HW225728   6.873   2.794   6.614
 8277SOL     OW25729   0.987   6.168   5.940
 8277SOL    HW125730   0.965   6.243   6.002
 8277SOL    HW225731   1.037   6.097   5.990
 8278SOL     OW25732   3.485   2.042   6.478
 8278SOL    HW125733   3.492   2.142   6.469
 8278SOL    HW225734   3.418   2.020   6.549
 8279SOL     OW25735   4.359   6.131   6.288
 8279SOL    HW125736   4.269   6.167   6.309
 8279SOL    HW225737   4.410   6.197   6.233
 8280SOL     OW25738   5.209   2.443   0.874
 8280SOL    HW125739   5.114   2.429   0.848
 8280SOL    HW225740   5.239   2.533   0.843
 8281SOL     OW25741   1.864   5.090   0.449
 8281SOL    HW125742   1.859   5.000   0.407
 8281SOL    HW225743   1.847   5.160   0.379
 8282SOL     OW25744   2.983   2.809   1.086
 8282SOL    HW125745   2.891   2.848   1.090
 8282SOL    HW225746   3.009   2.796   0.990
 8283SOL     OW25747   0.305   5.110   3.725
 8283SOL    HW125748   0.211   5.084   3.704
 8283SOL    HW225749   0.325   5.088   3.821
 8284SOL     OW25750   2.453   2.299   2.384
 8284SOL    HW125751   2.428   2.244   2.304
 8284SOL    HW225752   2.413   2.258   2.465
 8285SOL     OW25753   3.318   4.499   5.802
 8285SOL    HW125754   3.277   4.462   5.885
 8285SOL    HW225755   3.249   4.502   5.729
 8286SOL     OW25756   5.097   1.112   4.375
 8286SOL    HW125757   5.059   1.028   4.337
 8286SOL    HW225758   5.190   1.126   4.341
 8287SOL     OW25759   1.301   0.526   3.506
 8287SOL    HW125760   1.249   0.597   3.458
 8287SOL    HW225761   1.381   0.501   3.452
 8288SOL     OW25762   1.562   1.605   2.546
 8288SOL    HW125763   1.488   1.544   2.519
 8288SOL    HW225764   1.525   1.680   2.601
 8289SOL     OW25765   6.411   2.017   5.802
 8289SOL    HW125766   6.345   1.943   5.813
 8289SOL    HW225767   6.474   1.993   5.728
 8290SOL     OW25768   3.627   2.522   1.698
 8290SOL    HW125769   3.644   2.443   1.757
 8290SOL    HW225770   3.622   2.605   1.754
 8291SOL     OW25771   5.866   6.925   6.157
 8291SOL    HW125772   5.812   6.953   6.078
 8291SOL    HW225773   5.959   6.904   6.128
 8292SOL     OW25774   0.810   4.369   5.099
 8292SOL    HW125775   0.809   4.420   5.185
 8292SOL    HW225776   0.838   4.275   5.116
 8293SOL     OW25777   2.567   5.276   2.235
 8293SOL    HW125778   2.626   5.208   2.279
 8293SOL    HW225779   2.606   5.300   2.146
 8294SOL     OW25780   6.507   3.578   6.372
 8294SOL    HW125781   6.583   3.517   6.348
 8294SOL    HW225782   6.438   3.526   6.423
 8295SOL     OW25783   5.221   3.944   2.772
 8295SOL    HW125784   5.125   3.962   2.791
 8295SOL    HW225785   5.236   3.938   2.674
 8296SOL     OW25786   3.362   5.874   0.773
 8296SOL    HW125787   3.297   5.798   0.773
 8296SOL    HW225788   3.397   5.887   0.681
 8297SOL     OW25789   6.572   4.154   2.877
 8297SOL    HW125790   6.602   4.135   2.784
 8297SOL    HW225791   6.507   4.231   2.876
 8298SOL     OW25792   0.259   0.818   0.140
 8298SOL    HW125793   0.211   0.790   0.223
 8298SOL    HW225794   0.353   0.785   0.143
 8299SOL     OW25795   0.641   4.117   1.821
 8299SOL    HW125796   0.577   4.188   1.793
 8299SOL    HW225797   0.625   4.093   1.916
 8300SOL     OW25798   6.058   5.023   3.515
 8300SOL    HW125799   6.099   5.095   3.458
 8300SOL    HW225800   6.128   4.955   3.537
 8301SOL     OW25801   3.727   6.630   0.606
 8301SOL    HW125802   3.738   6.535   0.636
 8301SOL    HW225803   3.733   6.634   0.506
 8302SOL     OW25804   3.644   6.265   4.599
 8302SOL    HW125805   3.581   6.258   4.522
 8302SOL    HW225806   3.721   6.324   4.574
 8303SOL     OW25807   6.408   6.846   2.604
 8303SOL    HW125808   6.309   6.853   2.593
 8303SOL    HW225809   6.441   6.921   2.662
 8304SOL     OW25810   6.223   3.650   3.726
 8304SOL    HW125811   6.211   3.681   3.821
 8304SOL    HW225812   6.135   3.650   3.679
 8305SOL     OW25813   4.606   5.364   4.045
 8305SOL    HW125814   4.593   5.283   4.102
 8305SOL    HW225815   4.694   5.358   3.997
 8306SOL     OW25816   5.816   0.921   2.231
 8306SOL    HW125817   5.802   0.826   2.202
 8306SOL    HW225818   5.856   0.972   2.155
 8307SOL     OW25819   1.849   4.577   2.136
 8307SOL    HW125820   1.817   4.656   2.084
 8307SOL    HW225821   1.849   4.599   2.234
 8308SOL     OW25822   0.650   5.091   0.044
 8308SOL    HW125823   0.564   5.043   0.030
 8308SOL    HW225824   0.721   5.024   0.068
 8309SOL     OW25825   6.953   4.255   4.602
 8309SOL    HW125826   6.901   4.257   4.517
 8309SOL    HW225827   6.892   4.276   4.679
 8310SOL     OW25828   0.514   6.974   0.515
 8310SOL    HW125829   0.534   0.031   0.568
 8310SOL    HW225830   0.534   6.893   0.571
 8311SOL     OW25831   5.796   6.768   4.019
 8311SOL    HW125832   5.823   6.864   4.010
 8311SOL    HW225833   5.700   6.763   4.047
 8312SOL     OW25834   5.004   0.651   6.718
 8312SOL    HW125835   4.970   0.641   6.811
 8312SOL    HW225836   4.932   0.687   6.659
 8313SOL     OW25837   4.488   0.790   4.481
 8313SOL    HW125838   4.524   0.857   4.546
 8313SOL    HW225839   4.413   0.830   4.429
 8314SOL     OW25840   5.361   6.206   5.520
 8314SOL    HW125841   5.390   6.290   5.565
 8314SOL    HW225842   5.325   6.142   5.588
 8315SOL     OW25843   3.431   2.932   4.634
 8315SOL    HW125844   3.358   2.911   4.699
 8315SOL    HW225845   3.402   2.907   4.542
 8316SOL     OW25846   1.221   2.561   0.402
 8316SOL    HW125847   1.127   2.549   0.368
 8316SOL    HW225848   1.275   2.480   0.380
 8317SOL     OW25849   1.758   1.836   4.446
 8317SOL    HW125850   1.824   1.789   4.504
 8317SOL    HW225851   1.805   1.870   4.364
 8318SOL     OW25852   3.723   0.311   6.556
 8318SOL    HW125853   3.738   0.311   6.655
 8318SOL    HW225854   3.629   0.339   6.536
 8319SOL     OW25855   1.951   0.136   5.822
 8319SOL    HW125856   1.955   0.169   5.916
 8319SOL    HW225857   1.868   0.082   5.808
 8320SOL     OW25858   3.508   3.733   4.661
 8320SOL    HW125859   3.424   3.705   4.707
 8320SOL    HW225860   3.530   3.827   4.687
 8321SOL     OW25861   0.049   7.009   0.259
 8321SOL    HW125862   0.017   6.996   0.165
 8321SOL    HW225863   7.021   6.951   0.320
 8322SOL     OW25864   6.809   0.795   0.224
 8322SOL    HW125865   6.832   0.702   0.193
 8322SOL    HW225866   6.714   0.815   0.198
 8323SOL     OW25867   4.634   4.283   0.946
 8323SOL    HW125868   4.569   4.311   1.017
 8323SOL    HW225869   4.600   4.313   0.857
 8324SOL     OW25870   6.645   6.506   6.692
 8324SOL    HW125871   6.726   6.538   6.643
 8324SOL    HW225872   6.629   6.566   6.771
 8325SOL     OW25873   1.383   5.745   5.140
 8325SOL    HW125874   1.340   5.830   5.111
 8325SOL    HW225875   1.350   5.669   5.084
 8326SOL     OW25876   2.267   3.754   0.813
 8326SOL    HW125877   2.240   3.841   0.772
 8326SOL    HW225878   2.184   3.702   0.835
 8327SOL     OW25879   0.795   0.615   5.129
 8327SOL    HW125880   0.841   0.535   5.093
 8327SOL    HW225881   0.699   0.593   5.148
 8328SOL     OW25882   1.063   6.704   6.035
 8328SOL    HW125883   0.978   6.754   6.017
 8328SOL    HW225884   1.090   6.718   6.130
 8329SOL     OW25885   0.723   2.993   5.059
 8329SOL    HW125886   0.722   3.092   5.045
 8329SOL    HW225887   0.811   2.956   5.029
 8330SOL     OW25888   3.884   0.724   6.676
 8330SOL    HW125889   3.788   0.743   6.693
 8330SOL    HW225890   3.936   0.810   6.679
 8331SOL     OW25891   1.974   2.209   0.262
 8331SOL    HW125892   1.920   2.213   0.177
 8331SOL    HW225893   1.933   2.269   0.331
 8332SOL     OW25894   5.390   4.763   2.013
 8332SOL    HW125895   5.383   4.679   1.959
 8332SOL    HW225896   5.299   4.790   2.045
 8333SOL     OW25897   2.522   4.806   1.445
 8333SOL    HW125898   2.529   4.820   1.346
 8333SOL    HW225899   2.558   4.886   1.493
 8334SOL     OW25900   3.175   2.528   6.325
 8334SOL    HW125901   3.145   2.490   6.238
 8334SOL    HW225902   3.102   2.521   6.392
 8335SOL     OW25903   5.192   3.141   6.281
 8335SOL    HW125904   5.128   3.084   6.229
 8335SOL    HW225905   5.281   3.095   6.286
 8336SOL     OW25906   0.902   3.659   3.181
 8336SOL    HW125907   0.935   3.565   3.185
 8336SOL    HW225908   0.860   3.677   3.092
 8337SOL     OW25909   1.014   1.090   4.230
 8337SOL    HW125910   1.044   1.009   4.281
 8337SOL    HW225911   0.917   1.106   4.249
 8338SOL     OW25912   3.784   4.883   2.268
 8338SOL    HW125913   3.698   4.922   2.299
 8338SOL    HW225914   3.784   4.875   2.168
 8339SOL     OW25915   6.550   0.638   0.565
 8339SOL    HW125916   6.540   0.619   0.467
 8339SOL    HW225917   6.642   0.673   0.582
 8340SOL     OW25918   5.079   2.159   0.957
 8340SOL    HW125919   4.985   2.174   0.929
 8340SOL    HW225920   5.137   2.144   0.877
 8341SOL     OW25921   3.537   0.388   0.103
 8341SOL    HW125922   3.447   0.346   0.090
 8341SOL    HW225923   3.570   0.423   0.016
 8342SOL     OW25924   4.152   6.329   6.846
 8342SOL    HW125925   4.118   6.423   6.847
 8342SOL    HW225926   4.103   6.275   6.914
 8343SOL     OW25927   6.947   4.097   3.880
 8343SOL    HW125928   6.961   4.105   3.782
 8343SOL    HW225929   0.009   4.081   3.925
 8344SOL     OW25930   0.777   5.419   4.657
 8344SOL    HW125931   0.867   5.457   4.676
 8344SOL    HW225932   0.723   5.485   4.605
 8345SOL     OW25933   4.950   0.807   2.439
 8345SOL    HW125934   4.992   0.757   2.363
 8345SOL    HW225935   4.987   0.774   2.525
 8346SOL     OW25936   4.228   3.351   5.826
 8346SOL    HW125937   4.214   3.431   5.884
 8346SOL    HW225938   4.173   3.361   5.743
 8347SOL     OW25939   2.501   0.339   5.999
 8347SOL    HW125940   2.427   0.273   6.009
 8347SOL    HW225941   2.579   0.296   5.954
 8348SOL     OW25942   3.511   6.454   1.773
 8348SOL    HW125943   3.506   6.377   1.710
 8348SOL    HW225944   3.540   6.423   1.863
 8349SOL     OW25945   0.978   6.589   2.125
 8349SOL    HW125946   1.007   6.509   2.073
 8349SOL    HW225947   1.056   6.624   2.178
 8350SOL     OW25948   2.689   0.087   6.317
 8350SOL    HW125949   2.630   0.043   6.249
 8350SOL    HW225950   2.734   0.167   6.276
 8351SOL     OW25951   6.997   4.339   4.108
 8351SOL    HW125952   6.978   4.264   4.171
 8351SOL    HW225953   6.914   4.364   4.058
 8352SOL     OW25954   2.581   5.869   2.000
 8352SOL    HW125955   2.545   5.898   2.089
 8352SOL    HW225956   2.669   5.913   1.984
 8353SOL     OW25957   0.940   3.541   2.096
 8353SOL    HW125958   0.990   3.628   2.101
 8353SOL    HW225959   0.898   3.522   2.184
 8354SOL     OW25960   3.630   6.851   4.237
 8354SOL    HW125961   3.673   6.799   4.164
 8354SOL    HW225962   3.533   6.864   4.216
 8355SOL     OW25963   1.467   6.928   5.678
 8355SOL    HW125964   1.438   6.833   5.681
 8355SOL    HW225965   1.561   6.934   5.644
 8356SOL     OW25966   1.977   5.584   1.557
 8356SOL    HW125967   2.030   5.584   1.473
 8356SOL    HW225968   2.034   5.550   1.632
 8357SOL     OW25969   3.886   5.587   5.596
 8357SOL    HW125970   3.969   5.534   5.580
 8357SOL    HW225971   3.909   5.670   5.647
 8358SOL     OW25972   1.235   2.340   5.303
 8358SOL    HW125973   1.208   2.435   5.316
 8358SOL    HW225974   1.190   2.283   5.373
 8359SOL     OW25975   3.337   1.329   4.869
 8359SOL    HW125976   3.421   1.294   4.911
 8359SOL    HW225977   3.353   1.346   4.772
 8360SOL     OW25978   5.032   5.988   0.369
 8360SOL    HW125979   4.998   5.947   0.284
 8360SOL    HW225980   5.071   6.078   0.348
 8361SOL     OW25981   2.480   6.804   0.252
 8361SOL    HW125982   2.515   6.898   0.258
 8361SOL    HW225983   2.555   6.739   0.255
 8362SOL     OW25984   6.707   3.144   0.760
 8362SOL    HW125985   6.670   3.067   0.708
 8362SOL    HW225986   6.648   3.224   0.749
 8363SOL     OW25987   3.734   1.978   0.540
 8363SOL    HW125988   3.644   2.003   0.575
 8363SOL    HW225989   3.799   1.974   0.616
 8364SOL     OW25990   0.855   2.914   3.678
 8364SOL    HW125991   0.783   2.845   3.684
 8364SOL    HW225992   0.865   2.959   3.767
 8365SOL     OW25993   2.482   2.566   2.248
 8365SOL    HW125994   2.542   2.601   2.176
 8365SOL    HW225995   2.535   2.507   2.309
 8366SOL     OW25996   4.592   5.465   1.052
 8366SOL    HW125997   4.610   5.374   1.089
 8366SOL    HW225998   4.544   5.456   0.965
 8367SOL     OW25999   4.184   5.025   5.024
 8367SOL    HW126000   4.120   5.092   4.987
 8367SOL    HW226001   4.195   5.040   5.122
 8368SOL     OW26002   1.013   6.075   6.992
 8368SOL    HW126003   1.078   6.150   6.978
 8368SOL    HW226004   1.064   5.992   7.016
 8369SOL     OW26005   1.163   1.672   0.640
 8369SOL    HW126006   1.116   1.714   0.562
 8369SOL    HW226007   1.244   1.623   0.607
 8370SOL     OW26008   2.965   2.004   0.242
 8370SOL    HW126009   2.921   1.915   0.253
 8370SOL    HW226010   3.038   1.997   0.173
 8371SOL     OW26011   1.447   3.154   5.968
 8371SOL    HW126012   1.514   3.138   5.896
 8371SOL    HW226013   1.494   3.163   6.056
 8372SOL     OW26014   2.178   6.521   2.489
 8372SOL    HW126015   2.101   6.585   2.494
 8372SOL    HW226016   2.186   6.472   2.575
 8373SOL     OW26017   0.510   1.103   4.230
 8373SOL    HW126018   0.418   1.108   4.267
 8373SOL    HW226019   0.509   1.129   4.134
 8374SOL     OW26020   1.139   1.328   4.300
 8374SOL    HW126021   1.099   1.248   4.254
 8374SOL    HW226022   1.065   1.388   4.332
 8375SOL     OW26023   4.087   0.967   5.511
 8375SOL    HW126024   4.159   0.981   5.443
 8375SOL    HW226025   4.093   1.038   5.581
 8376SOL     OW26026   1.958   0.561   3.371
 8376SOL    HW126027   2.031   0.506   3.409
 8376SOL    HW226028   1.988   0.656   3.364
 8377SOL     OW26029   5.492   5.278   6.550
 8377SOL    HW126030   5.477   5.199   6.609
 8377SOL    HW226031   5.590   5.300   6.548
 8378SOL     OW26032   5.378   5.776   3.420
 8378SOL    HW126033   5.332   5.689   3.440
 8378SOL    HW226034   5.475   5.767   3.442
 8379SOL     OW26035   5.600   1.819   1.875
 8379SOL    HW126036   5.677   1.860   1.922
 8379SOL    HW226037   5.518   1.826   1.932
 8380SOL     OW26038   6.972   5.446   6.455
 8380SOL    HW126039   6.962   5.501   6.372
 8380SOL    HW226040   7.007   5.504   6.528
 8381SOL     OW26041   0.219   1.982   2.616
 8381SOL    HW126042   0.297   1.996   2.556
 8381SOL    HW226043   0.229   1.895   2.664
 8382SOL     OW26044   2.794   0.043   6.981
 8382SOL    HW126045   2.756   6.994   6.926
 8382SOL    HW226046   2.735   0.123   6.974
 8383SOL     OW26047   2.816   6.968   4.515
 8383SOL    HW126048   2.747   0.013   4.533
 8383SOL    HW226049   2.886   6.971   4.586
 8384SOL     OW26050   6.932   2.033   1.034
 8384SOL    HW126051   6.894   2.001   0.947
 8384SOL    HW226052   6.895   1.979   1.109
 8385SOL     OW26053   4.710   3.353   0.665
 8385SOL    HW126054   4.761   3.276   0.626
 8385SOL    HW226055   4.644   3.319   0.732
 8386SOL     OW26056   2.132   6.654   1.595
 8386SOL    HW126057   2.092   6.695   1.677
 8386SOL    HW226058   2.102   6.559   1.588
 8387SOL     OW26059   2.380   1.554   0.674
 8387SOL    HW126060   2.401   1.531   0.578
 8387SOL    HW226061   2.283   1.541   0.691
 8388SOL     OW26062   2.660   6.525   0.585
 8388SOL    HW126063   2.579   6.575   0.619
 8388SOL    HW226064   2.637   6.428   0.576
 8389SOL     OW26065   1.294   3.317   4.313
 8389SOL    HW126066   1.381   3.352   4.278
 8389SOL    HW226067   1.261   3.377   4.386
 8390SOL     OW26068   2.577   0.744   5.815
 8390SOL    HW126069   2.640   0.748   5.892
 8390SOL    HW226070   2.552   0.837   5.787
 8391SOL     OW26071   5.077   5.451   2.063
 8391SOL    HW126072   5.034   5.415   2.146
 8391SOL    HW226073   5.054   5.547   2.051
 8392SOL     OW26074   6.200   5.675   4.885
 8392SOL    HW126075   6.290   5.695   4.924
 8392SOL    HW226076   6.139   5.643   4.957
 8393SOL     OW26077   6.548   6.361   3.447
 8393SOL    HW126078   6.470   6.300   3.457
 8393SOL    HW226079   6.529   6.448   3.492
 8394SOL     OW26080   0.888   1.502   2.785
 8394SOL    HW126081   0.820   1.487   2.714
 8394SOL    HW226082   0.937   1.416   2.804
 8395SOL     OW26083   0.571   6.064   4.539
 8395SOL    HW126084   0.576   6.156   4.579
 8395SOL    HW226085   0.509   6.007   4.594
 8396SOL     OW26086   4.783   4.069   2.344
 8396SOL    HW126087   4.761   4.149   2.289
 8396SOL    HW226088   4.802   3.991   2.284
 8397SOL     OW26089   1.662   6.463   2.620
 8397SOL    HW126090   1.653   6.499   2.713
 8397SOL    HW226091   1.615   6.523   2.556
 8398SOL     OW26092   4.049   1.356   6.815
 8398SOL    HW126093   3.952   1.356   6.842
 8398SOL    HW226094   4.101   1.410   6.881
 8399SOL     OW26095   5.724   5.887   0.956
 8399SOL    HW126096   5.798   5.935   1.003
 8399SOL    HW226097   5.666   5.954   0.910
 8400SOL     OW26098   0.288   0.549   2.981
 8400SOL    HW126099   0.238   0.633   3.004
 8400SOL    HW226100   0.241   0.502   2.906
 8401SOL     OW26101   4.317   3.305   6.247
 8401SOL    HW126102   4.309   3.210   6.216
 8401SOL    HW226103   4.227   3.348   6.245
 8402SOL     OW26104   3.914   1.935   6.178
 8402SOL    HW126105   3.916   1.958   6.081
 8402SOL    HW226106   3.826   1.894   6.201
 8403SOL     OW26107   1.190   1.679   3.750
 8403SOL    HW126108   1.242   1.653   3.668
 8403SOL    HW226109   1.154   1.772   3.737
 8404SOL     OW26110   4.941   6.005   5.344
 8404SOL    HW126111   4.908   6.059   5.421
 8404SOL    HW226112   4.915   6.050   5.258
 8405SOL     OW26113   1.367   2.003   6.589
 8405SOL    HW126114   1.460   1.984   6.559
 8405SOL    HW226115   1.304   1.991   6.513
 8406SOL     OW26116   4.190   1.744   0.777
 8406SOL    HW126117   4.211   1.786   0.689
 8406SOL    HW226118   4.095   1.762   0.801
 8407SOL     OW26119   5.682   4.427   4.139
 8407SOL    HW126120   5.656   4.473   4.054
 8407SOL    HW226121   5.655   4.484   4.217
 8408SOL     OW26122   4.934   0.215   3.700
 8408SOL    HW126123   4.997   0.171   3.636
 8408SOL    HW226124   4.981   0.230   3.787
 8409SOL     OW26125   0.626   2.137   4.224
 8409SOL    HW126126   0.713   2.128   4.273
 8409SOL    HW226127   0.552   2.152   4.290
 8410SOL     OW26128   5.455   0.220   1.912
 8410SOL    HW126129   5.516   0.148   1.878
 8410SOL    HW226130   5.408   0.263   1.834
 8411SOL     OW26131   1.584   5.447   4.086
 8411SOL    HW126132   1.621   5.534   4.052
 8411SOL    HW226133   1.523   5.465   4.163
 8412SOL     OW26134   4.378   2.287   1.303
 8412SOL    HW126135   4.363   2.330   1.393
 8412SOL    HW226136   4.436   2.346   1.247
 8413SOL     OW26137   4.028   5.068   0.867
 8413SOL    HW126138   4.046   4.980   0.823
 8413SOL    HW226139   3.941   5.105   0.833
 8414SOL     OW26140   3.452   6.919   2.590
 8414SOL    HW126141   3.422   7.003   2.545
 8414SOL    HW226142   3.525   6.940   2.655
 8415SOL     OW26143   6.745   4.787   3.683
 8415SOL    HW126144   6.793   4.831   3.607
 8415SOL    HW226145   6.682   4.717   3.647
 8416SOL     OW26146   5.410   4.145   2.564
 8416SOL    HW126147   5.505   4.143   2.532
 8416SOL    HW226148   5.408   4.151   2.663
 8417SOL     OW26149   2.697   6.318   5.679
 8417SOL    HW126150   2.677   6.401   5.627
 8417SOL    HW226151   2.685   6.335   5.776
 8418SOL     OW26152   5.876   5.944   2.572
 8418SOL    HW126153   5.958   5.897   2.538
 8418SOL    HW226154   5.797   5.884   2.562
 8419SOL     OW26155   5.065   0.170   1.724
 8419SOL    HW126156   5.094   0.265   1.730
 8419SOL    HW226157   4.973   0.160   1.761
 8420SOL     OW26158   4.475   0.189   0.250
 8420SOL    HW126159   4.447   0.205   0.156
 8420SOL    HW226160   4.458   0.094   0.275
 8421SOL     OW26161   2.048   0.276   1.717
 8421SOL    HW126162   2.107   0.293   1.638
 8421SOL    HW226163   2.100   0.230   1.788
 8422SOL     OW26164   5.293   6.121   0.391
 8422SOL    HW126165   5.318   6.211   0.428
 8422SOL    HW226166   5.236   6.073   0.458
 8423SOL     OW26167   3.651   5.068   0.180
 8423SOL    HW126168   3.700   5.079   0.093
 8423SOL    HW226169   3.563   5.115   0.174
 8424SOL     OW26170   3.681   1.992   2.635
 8424SOL    HW126171   3.759   2.021   2.692
 8424SOL    HW226172   3.596   2.025   2.676
 8425SOL     OW26173   6.622   5.390   1.345
 8425SOL    HW126174   6.693   5.439   1.295
 8425SOL    HW226175   6.642   5.393   1.443
 8426SOL     OW26176   3.877   3.081   3.741
 8426SOL    HW126177   3.828   3.074   3.827
 8426SOL    HW226178   3.938   3.160   3.744
 8427SOL     OW26179   1.752   4.534   6.191
 8427SOL    HW126180   1.695   4.475   6.134
 8427SOL    HW226181   1.833   4.562   6.139
 8428SOL     OW26182   0.017   4.501   2.003
 8428SOL    HW126183   0.072   4.544   1.931
 8428SOL    HW226184   0.039   4.404   2.009
 8429SOL     OW26185   2.929   4.828   4.347
 8429SOL    HW126186   2.879   4.827   4.261
 8429SOL    HW226187   2.866   4.816   4.423
 8430SOL     OW26188   4.690   5.475   2.485
 8430SOL    HW126189   4.742   5.559   2.506
 8430SOL    HW226190   4.647   5.441   2.569
 8431SOL     OW26191   3.020   4.869   1.546
 8431SOL    HW126192   2.960   4.805   1.498
 8431SOL    HW226193   3.113   4.832   1.548
 8432SOL     OW26194   4.417   5.402   6.117
 8432SOL    HW126195   4.485   5.472   6.139
 8432SOL    HW226196   4.455   5.338   6.051
 8433SOL     OW26197   1.007   2.699   6.808
 8433SOL    HW126198   0.983   2.701   6.905
 8433SOL    HW226199   1.051   2.785   6.782
 8434SOL     OW26200   3.909   6.700   5.209
 8434SOL    HW126201   3.841   6.740   5.148
 8434SOL    HW226202   3.902   6.743   5.299
 8435SOL     OW26203   4.641   2.211   1.374
 8435SOL    HW126204   4.712   2.280   1.383
 8435SOL    HW226205   4.554   2.255   1.354
 8436SOL     OW26206   3.471   5.300   2.967
 8436SOL    HW126207   3.536   5.248   3.022
 8436SOL    HW226208   3.380   5.293   3.008
 8437SOL     OW26209   0.380   0.859   1.419
 8437SOL    HW126210   0.356   0.878   1.514
 8437SOL    HW226211   0.407   0.764   1.409
 8438SOL     OW26212   2.889   4.819   2.611
 8438SOL    HW126213   2.850   4.751   2.548
 8438SOL    HW226214   2.867   4.793   2.705
 8439SOL     OW26215   6.406   5.464   1.979
 8439SOL    HW126216   6.490   5.420   2.010
 8439SOL    HW226217   6.395   5.552   2.026
 8440SOL     OW26218   0.127   0.961   2.088
 8440SOL    HW126219   0.154   0.876   2.042
 8440SOL    HW226220   0.179   1.037   2.051
 8441SOL     OW26221   5.708   6.455   6.777
 8441SOL    HW126222   5.650   6.452   6.859
 8441SOL    HW226223   5.691   6.374   6.722
 8442SOL     OW26224   3.264   3.720   0.153
 8442SOL    HW126225   3.232   3.806   0.191
 8442SOL    HW226226   3.307   3.737   0.064
 8443SOL     OW26227   0.918   0.573   3.264
 8443SOL    HW126228   0.859   0.643   3.223
 8443SOL    HW226229   0.929   0.498   3.199
 8444SOL     OW26230   3.772   6.312   3.819
 8444SOL    HW126231   3.824   6.290   3.736
 8444SOL    HW226232   3.695   6.249   3.828
 8445SOL     OW26233   3.399   4.889   2.579
 8445SOL    HW126234   3.302   4.867   2.588
 8445SOL    HW226235   3.412   4.987   2.597
 8446SOL     OW26236   5.220   5.890   2.960
 8446SOL    HW126237   5.316   5.918   2.949
 8446SOL    HW226238   5.197   5.888   3.057
 8447SOL     OW26239   5.482   2.249   2.070
 8447SOL    HW126240   5.493   2.266   1.972
 8447SOL    HW226241   5.493   2.335   2.120
 8448SOL     OW26242   0.213   3.678   6.213
 8448SOL    HW126243   0.277   3.731   6.157
 8448SOL    HW226244   0.128   3.730   6.225
 8449SOL     OW26245   0.411   3.366   4.650
 8449SOL    HW126246   0.456   3.445   4.690
 8449SOL    HW226247   0.451   3.282   4.686
 8450SOL     OW26248   1.542   6.231   2.861
 8450SOL    HW126249   1.515   6.310   2.917
 8450SOL    HW226250   1.496   6.236   2.773
 8451SOL     OW26251   3.928   2.543   0.558
 8451SOL    HW126252   4.021   2.580   0.565
 8451SOL    HW226253   3.864   2.618   0.542
 8452SOL     OW26254   6.862   7.002   1.556
 8452SOL    HW126255   6.808   0.032   1.618
 8452SOL    HW226256   6.842   0.002   1.462
 8453SOL     OW26257   0.236   4.654   6.154
 8453SOL    HW126258   0.305   4.684   6.088
 8453SOL    HW226259   0.147   4.693   6.130
 8454SOL     OW26260   1.485   6.589   2.448
 8454SOL    HW126261   1.476   6.608   2.350
 8454SOL    HW226262   1.430   6.510   2.472
 8455SOL     OW26263   5.012   1.486   1.053
 8455SOL    HW126264   5.072   1.554   1.095
 8455SOL    HW226265   4.919   1.499   1.087
 8456SOL     OW26266   5.874   5.812   3.877
 8456SOL    HW126267   5.860   5.716   3.900
 8456SOL    HW226268   5.930   5.856   3.947
 8457SOL     OW26269   6.436   6.788   5.562
 8457SOL    HW126270   6.528   6.826   5.570
 8457SOL    HW226271   6.397   6.814   5.474
 8458SOL     OW26272   1.850   1.142   7.009
 8458SOL    HW126273   1.751   1.155   7.014
 8458SOL    HW226274   1.891   1.167   0.070
 8459SOL     OW26275   3.583   6.699   2.102
 8459SOL    HW126276   3.661   6.762   2.100
 8459SOL    HW226277   3.520   6.727   2.175
 8460SOL     OW26278   4.330   3.006   0.059
 8460SOL    HW126279   4.302   3.054   0.142
 8460SOL    HW226280   4.304   2.910   0.065
 8461SOL     OW26281   0.654   3.657   1.417
 8461SOL    HW126282   0.606   3.744   1.418
 8461SOL    HW226283   0.591   3.584   1.443
 8462SOL     OW26284   4.065   3.322   0.336
 8462SOL    HW126285   4.003   3.281   0.402
 8462SOL    HW226286   4.080   3.259   0.260
 8463SOL     OW26287   6.522   2.638   0.672
 8463SOL    HW126288   6.481   2.642   0.763
 8463SOL    HW226289   6.518   2.728   0.630
 8464SOL     OW26290   6.969   3.806   5.842
 8464SOL    HW126291   6.874   3.836   5.839
 8464SOL    HW226292   6.977   3.724   5.898
 8465SOL     OW26293   2.907   2.517   1.213
 8465SOL    HW126294   2.958   2.589   1.259
 8465SOL    HW226295   2.811   2.542   1.208
 8466SOL     OW26296   6.083   0.526   5.425
 8466SOL    HW126297   6.100   0.610   5.373
 8466SOL    HW226298   6.112   0.447   5.370
 8467SOL     OW26299   3.857   0.454   0.596
 8467SOL    HW126300   3.823   0.547   0.610
 8467SOL    HW226301   3.886   0.415   0.683
 8468SOL     OW26302   6.052   3.651   6.448
 8468SOL    HW126303   6.069   3.600   6.364
 8468SOL    HW226304   5.996   3.596   6.510
 8469SOL     OW26305   3.545   2.843   6.280
 8469SOL    HW126306   3.496   2.763   6.315
 8469SOL    HW226307   3.600   2.817   6.201
 8470SOL     OW26308   1.051   5.038   0.528
 8470SOL    HW126309   0.956   5.019   0.554
 8470SOL    HW226310   1.091   4.956   0.488
 8471SOL     OW26311   3.844   0.370   5.199
 8471SOL    HW126312   3.790   0.390   5.117
 8471SOL    HW226313   3.860   0.455   5.250
 8472SOL     OW26314   5.974   1.803   5.461
 8472SOL    HW126315   5.985   1.731   5.529
 8472SOL    HW226316   6.054   1.863   5.463
 8473SOL     OW26317   4.222   4.554   0.320
 8473SOL    HW126318   4.135   4.521   0.283
 8473SOL    HW226319   4.285   4.574   0.245
 8474SOL     OW26320   2.998   3.884   2.896
 8474SOL    HW126321   2.983   3.920   2.988
 8474SOL    HW226322   2.990   3.785   2.898
 8475SOL     OW26323   0.452   3.502   1.503
 8475SOL    HW126324   0.390   3.579   1.488
 8475SOL    HW226325   0.399   3.417   1.510
 8476SOL     OW26326   6.690   0.862   1.073
 8476SOL    HW126327   6.740   0.889   1.156
 8476SOL    HW226328   6.663   0.944   1.022
 8477SOL     OW26329   5.361   5.894   2.010
 8477SOL    HW126330   5.408   5.978   2.037
 8477SOL    HW226331   5.373   5.879   1.912
 8478SOL     OW26332   0.911   0.904   5.753
 8478SOL    HW126333   0.819   0.944   5.761
 8478SOL    HW226334   0.968   0.964   5.697
 8479SOL     OW26335   1.675   2.507   1.295
 8479SOL    HW126336   1.590   2.498   1.243
 8479SOL    HW226337   1.732   2.426   1.281
 8480SOL     OW26338   4.918   2.756   6.423
 8480SOL    HW126339   4.971   2.678   6.457
 8480SOL    HW226340   4.876   2.803   6.500
 8481SOL     OW26341   3.979   2.219   4.615
 8481SOL    HW126342   3.983   2.191   4.711
 8481SOL    HW226343   4.064   2.265   4.591
 8482SOL     OW26344   4.713   0.923   0.505
 8482SOL    HW126345   4.652   0.996   0.474
 8482SOL    HW226346   4.787   0.910   0.439
 8483SOL     OW26347   3.074   6.242   3.770
 8483SOL    HW126348   3.004   6.183   3.730
 8483SOL    HW226349   3.038   6.335   3.781
 8484SOL     OW26350   6.592   5.936   4.853
 8484SOL    HW126351   6.643   5.994   4.917
 8484SOL    HW226352   6.555   5.992   4.779
 8485SOL     OW26353   4.192   2.397   6.856
 8485SOL    HW126354   4.221   2.416   6.762
 8485SOL    HW226355   4.180   2.483   6.905
 8486SOL     OW26356   1.995   1.259   2.651
 8486SOL    HW126357   2.003   1.248   2.552
 8486SOL    HW226358   1.909   1.220   2.683
 8487SOL     OW26359   5.099   1.486   6.145
 8487SOL    HW126360   5.129   1.390   6.149
 8487SOL    HW226361   5.148   1.532   6.071
 8488SOL     OW26362   5.375   5.307   3.282
 8488SOL    HW126363   5.310   5.231   3.271
 8488SOL    HW226364   5.378   5.360   3.197
 8489SOL     OW26365   6.455   0.357   1.729
 8489SOL    HW126366   6.486   0.369   1.634
 8489SOL    HW226367   6.358   0.335   1.730
 8490SOL     OW26368   3.545   6.769   5.418
 8490SOL    HW126369   3.640   6.761   5.448
 8490SOL    HW226370   3.532   6.716   5.334
 8491SOL     OW26371   2.110   5.931   2.797
 8491SOL    HW126372   2.050   5.994   2.747
 8491SOL    HW226373   2.151   5.867   2.732
 8492SOL     OW26374   5.853   4.651   3.737
 8492SOL    HW126375   5.853   4.751   3.742
 8492SOL    HW226376   5.866   4.622   3.642
 8493SOL     OW26377   2.702   1.423   0.271
 8493SOL    HW126378   2.726   1.485   0.345
 8493SOL    HW226379   2.659   1.341   0.308
 8494SOL     OW26380   5.179   4.774   2.226
 8494SOL    HW126381   5.112   4.821   2.169
 8494SOL    HW226382   5.179   4.676   2.205
 8495SOL     OW26383   6.971   5.822   0.607
 8495SOL    HW126384   0.041   5.793   0.603
 8495SOL    HW226385   6.923   5.769   0.677
 8496SOL     OW26386   5.148   1.114   2.289
 8496SOL    HW126387   5.202   1.195   2.309
 8496SOL    HW226388   5.061   1.142   2.248
 8497SOL     OW26389   0.636   0.147   3.734
 8497SOL    HW126390   0.550   0.101   3.753
 8497SOL    HW226391   0.688   0.096   3.666
 8498SOL     OW26392   5.793   0.243   3.224
 8498SOL    HW126393   5.889   0.212   3.225
 8498SOL    HW226394   5.734   0.166   3.247
 8499SOL     OW26395   0.671   5.443   0.430
 8499SOL    HW126396   0.598   5.403   0.375
 8499SOL    HW226397   0.760   5.415   0.395
 8500SOL     OW26398   1.565   6.854   5.965
 8500SOL    HW126399   1.498   6.779   5.966
 8500SOL    HW226400   1.529   6.931   6.018
 8501SOL     OW26401   0.662   2.394   0.027
 8501SOL    HW126402   0.621   2.437   6.973
 8501SOL    HW226403   0.591   2.350   0.082
 8502SOL     OW26404   0.719   2.470   0.489
 8502SOL    HW126405   0.620   2.455   0.497
 8502SOL    HW226406   0.738   2.569   0.488
 8503SOL     OW26407   6.697   5.416   5.109
 8503SOL    HW126408   6.645   5.385   5.030
 8503SOL    HW226409   6.636   5.468   5.170
 8504SOL     OW26410   1.952   5.459   2.376
 8504SOL    HW126411   1.983   5.385   2.316
 8504SOL    HW226412   1.967   5.547   2.332
 8505SOL     OW26413   5.169   3.716   2.306
 8505SOL    HW126414   5.196   3.634   2.357
 8505SOL    HW226415   5.197   3.797   2.357
 8506SOL     OW26416   1.594   1.217   6.773
 8506SOL    HW126417   1.552   1.177   6.855
 8506SOL    HW226418   1.673   1.162   6.747
 8507SOL     OW26419   4.615   0.459   4.395
 8507SOL    HW126420   4.577   0.409   4.317
 8507SOL    HW226421   4.564   0.437   4.477
 8508SOL     OW26422   4.224   1.914   5.726
 8508SOL    HW126423   4.159   1.903   5.800
 8508SOL    HW226424   4.218   1.835   5.664
 8509SOL     OW26425   5.338   6.611   3.905
 8509SOL    HW126426   5.434   6.598   3.880
 8509SOL    HW226427   5.281   6.549   3.851
 8510SOL     OW26428   5.180   2.906   3.530
 8510SOL    HW126429   5.172   2.987   3.587
 8510SOL    HW226430   5.095   2.853   3.535
 8511SOL     OW26431   6.310   3.411   2.293
 8511SOL    HW126432   6.306   3.418   2.194
 8511SOL    HW226433   6.258   3.486   2.334
 8512SOL     OW26434   2.046   0.145   2.926
 8512SOL    HW126435   2.011   0.116   3.015
 8512SOL    HW226436   2.141   0.116   2.917
 8513SOL     OW26437   6.709   6.346   7.025
 8513SOL    HW126438   6.663   6.394   0.074
 8513SOL    HW226439   6.738   6.256   0.030
 8514SOL     OW26440   3.293   6.491   3.058
 8514SOL    HW126441   3.253   6.551   3.128
 8514SOL    HW226442   3.226   6.478   2.985
 8515SOL     OW26443   5.179   2.796   1.160
 8515SOL    HW126444   5.218   2.883   1.130
 8515SOL    HW226445   5.127   2.811   1.244
 8516SOL     OW26446   6.620   1.413   2.949
 8516SOL    HW126447   6.616   1.506   2.912
 8516SOL    HW226448   6.648   1.416   3.045
 8517SOL     OW26449   0.688   2.336   6.715
 8517SOL    HW126450   0.710   2.304   6.807
 8517SOL    HW226451   0.658   2.259   6.659
 8518SOL     OW26452   4.184   4.884   0.724
 8518SOL    HW126453   4.161   4.791   0.694
 8518SOL    HW226454   4.225   4.935   0.648
 8519SOL     OW26455   2.060   5.603   2.149
 8519SOL    HW126456   2.062   5.668   2.073
 8519SOL    HW226457   2.146   5.552   2.151
 8520SOL     OW26458   3.797   1.040   0.849
 8520SOL    HW126459   3.800   1.136   0.821
 8520SOL    HW226460   3.842   1.030   0.938
 8521SOL     OW26461   0.938   6.051   6.273
 8521SOL    HW126462   0.855   6.105   6.256
 8521SOL    HW226463   0.987   6.088   6.351
 8522SOL     OW26464   1.331   6.512   2.744
 8522SOL    HW126465   1.425   6.510   2.778
 8522SOL    HW226466   1.300   6.419   2.725
 8523SOL     OW26467   2.145   7.016   5.533
 8523SOL    HW126468   2.076   6.969   5.478
 8523SOL    HW226469   2.226   0.006   5.478
 8524SOL     OW26470   1.406   3.513   4.589
 8524SOL    HW126471   1.481   3.578   4.576
 8524SOL    HW226472   1.444   3.422   4.610
 8525SOL     OW26473   6.127   3.289   3.062
 8525SOL    HW126474   6.190   3.248   3.128
 8525SOL    HW226475   6.177   3.312   2.978
 8526SOL     OW26476   2.615   2.834   1.680
 8526SOL    HW126477   2.658   2.924   1.693
 8526SOL    HW226478   2.631   2.804   1.586
 8527SOL     OW26479   4.230   0.819   4.385
 8527SOL    HW126480   4.191   0.869   4.308
 8527SOL    HW226481   4.161   0.812   4.457
 8528SOL     OW26482   4.874   3.556   6.478
 8528SOL    HW126483   4.849   3.476   6.532
 8528SOL    HW226484   4.972   3.553   6.459
 8529SOL     OW26485   1.776   5.614   6.968
 8529SOL    HW126486   1.778   5.713   6.985
 8529SOL    HW226487   1.856   5.588   6.915
 8530SOL     OW26488   1.715   4.959   5.347
 8530SOL    HW126489   1.777   5.014   5.291
 8530SOL    HW226490   1.741   4.968   5.444
 8531SOL     OW26491   5.448   3.754   3.103
 8531SOL    HW126492   5.354   3.756   3.068
 8531SOL    HW226493   5.505   3.699   3.041
 8532SOL     OW26494   3.990   4.774   5.145
 8532SOL    HW126495   3.993   4.863   5.100
 8532SOL    HW226496   4.078   4.754   5.187
 8533SOL     OW26497   2.095   0.924   4.946
 8533SOL    HW126498   2.100   0.887   5.038
 8533SOL    HW226499   2.030   0.871   4.891
 8534SOL     OW26500   0.859   3.829   2.676
 8534SOL    HW126501   0.874   3.749   2.618
 8534SOL    HW226502   0.826   3.905   2.620
 8535SOL     OW26503   0.944   2.343   4.623
 8535SOL    HW126504   0.882   2.318   4.548
 8535SOL    HW226505   0.979   2.435   4.608
 8536SOL     OW26506   6.567   2.475   5.243
 8536SOL    HW126507   6.588   2.422   5.161
 8536SOL    HW226508   6.570   2.415   5.323
 8537SOL     OW26509   5.968   0.625   0.701
 8537SOL    HW126510   6.023   0.693   0.748
 8537SOL    HW226511   6.010   0.604   0.612
 8538SOL     OW26512   0.009   0.276   4.800
 8538SOL    HW126513   6.986   0.202   4.753
 8538SOL    HW226514   0.099   0.243   4.828
 8539SOL     OW26515   6.604   2.346   2.163
 8539SOL    HW126516   6.634   2.277   2.097
 8539SOL    HW226517   6.672   2.419   2.168
 8540SOL     OW26518   2.740   1.247   0.581
 8540SOL    HW126519   2.643   1.236   0.602
 8540SOL    HW226520   2.794   1.190   0.643
 8541SOL     OW26521   3.083   1.424   4.889
 8541SOL    HW126522   3.046   1.382   4.971
 8541SOL    HW226523   3.178   1.395   4.876
 8542SOL     OW26524   2.779   4.532   6.699
 8542SOL    HW126525   2.745   4.439   6.715
 8542SOL    HW226526   2.727   4.596   6.755
 8543SOL     OW26527   2.863   1.964   5.517
 8543SOL    HW126528   2.833   2.025   5.443
 8543SOL    HW226529   2.902   2.018   5.591
 8544SOL     OW26530   4.765   3.961   5.188
 8544SOL    HW126531   4.675   3.933   5.220
 8544SOL    HW226532   4.795   4.042   5.238
 8545SOL     OW26533   3.661   6.786   4.685
 8545SOL    HW126534   3.718   6.772   4.604
 8545SOL    HW226535   3.682   6.717   4.753
 8546SOL     OW26536   5.836   0.412   1.651
 8546SOL    HW126537   5.778   0.445   1.726
 8546SOL    HW226538   5.932   0.424   1.677
 8547SOL     OW26539   6.931   0.144   5.829
 8547SOL    HW126540   6.835   0.164   5.849
 8547SOL    HW226541   6.985   0.148   5.913
 8548SOL     OW26542   0.636   2.816   6.222
 8548SOL    HW126543   0.570   2.889   6.206
 8548SOL    HW226544   0.596   2.747   6.282
 8549SOL     OW26545   1.629   1.073   3.726
 8549SOL    HW126546   1.582   1.028   3.802
 8549SOL    HW226547   1.692   1.141   3.761
 8550SOL     OW26548   0.658   4.450   6.645
 8550SOL    HW126549   0.671   4.521   6.575
 8550SOL    HW226550   0.611   4.490   6.724
 8551SOL     OW26551   1.747   2.260   6.707
 8551SOL    HW126552   1.690   2.218   6.637
 8551SOL    HW226553   1.843   2.235   6.691
 8552SOL     OW26554   3.142   1.019   2.357
 8552SOL    HW126555   3.223   1.078   2.357
 8552SOL    HW226556   3.108   1.009   2.450
 8553SOL     OW26557   4.469   2.812   0.891
 8553SOL    HW126558   4.425   2.900   0.910
 8553SOL    HW226559   4.430   2.773   0.807
 8554SOL     OW26560   1.116   6.903   0.987
 8554SOL    HW126561   1.130   6.837   1.060
 8554SOL    HW226562   1.197   6.908   0.929
 8555SOL     OW26563   4.271   1.817   4.010
 8555SOL    HW126564   4.319   1.795   4.095
 8555SOL    HW226565   4.307   1.760   3.936
 8556SOL     OW26566   2.041   6.171   6.131
 8556SOL    HW126567   2.048   6.215   6.220
 8556SOL    HW226568   2.009   6.237   6.063
 8557SOL     OW26569   6.533   0.888   0.168
 8557SOL    HW126570   6.499   0.900   0.261
 8557SOL    HW226571   6.506   0.966   0.112
 8558SOL     OW26572   2.629   5.339   3.082
 8558SOL    HW126573   2.624   5.383   2.992
 8558SOL    HW226574   2.604   5.242   3.073
 8559SOL     OW26575   0.799   5.670   1.961
 8559SOL    HW126576   0.860   5.597   1.989
 8559SOL    HW226577   0.722   5.676   2.025
 8560SOL     OW26578   2.198   4.906   1.445
 8560SOL    HW126579   2.139   4.954   1.510
 8560SOL    HW226580   2.286   4.886   1.489
 8561SOL     OW26581   3.468   0.541   2.946
 8561SOL    HW126582   3.374   0.525   2.915
 8561SOL    HW226583   3.501   0.460   2.995
 8562SOL     OW26584   3.704   1.231   0.246
 8562SOL    HW126585   3.715   1.325   0.278
 8562SOL    HW226586   3.634   1.229   0.174
 8563SOL     OW26587   1.695   5.389   2.505
 8563SOL    HW126588   1.781   5.430   2.474
 8563SOL    HW226589   1.647   5.349   2.427
 8564SOL     OW26590   3.451   6.493   0.369
 8564SOL    HW126591   3.543   6.530   0.353
 8564SOL    HW226592   3.420   6.446   0.287
 8565SOL     OW26593   3.921   5.520   1.557
 8565SOL    HW126594   3.973   5.470   1.488
 8565SOL    HW226595   3.839   5.468   1.582
 8566SOL     OW26596   2.714   1.045   2.626
 8566SOL    HW126597   2.705   1.143   2.607
 8566SOL    HW226598   2.800   1.011   2.588
 8567SOL     OW26599   1.347   2.020   1.426
 8567SOL    HW126600   1.289   2.080   1.371
 8567SOL    HW226601   1.440   2.057   1.429
 8568SOL     OW26602   7.019   1.197   0.472
 8568SOL    HW126603   6.935   1.193   0.525
 8568SOL    HW226604   7.000   1.170   0.377
 8569SOL     OW26605   5.586   2.555   6.052
 8569SOL    HW126606   5.495   2.518   6.029
 8569SOL    HW226607   5.651   2.529   5.980
 8570SOL     OW26608   1.331   2.087   5.232
 8570SOL    HW126609   1.321   2.180   5.266
 8570SOL    HW226610   1.389   2.087   5.150
 8571SOL     OW26611   1.361   1.131   4.316
 8571SOL    HW126612   1.449   1.177   4.306
 8571SOL    HW226613   1.288   1.189   4.279
 8572SOL     OW26614   3.350   4.039   5.668
 8572SOL    HW126615   3.420   3.980   5.629
 8572SOL    HW226616   3.262   3.991   5.668
 8573SOL     OW26617   3.109   5.755   0.530
 8573SOL    HW126618   3.145   5.706   0.610
 8573SOL    HW226619   3.027   5.707   0.497
 8574SOL     OW26620   0.179   6.708   6.146
 8574SOL    HW126621   0.123   6.790   6.136
 8574SOL    HW226622   0.133   6.630   6.104
 8575SOL     OW26623   3.659   0.364   2.697
 8575SOL    HW126624   3.682   0.446   2.749
 8575SOL    HW226625   3.559   0.353   2.696
 8576SOL     OW26626   1.034   3.879   4.299
 8576SOL    HW126627   1.031   3.965   4.350
 8576SOL    HW226628   1.020   3.898   4.202
 8577SOL     OW26629   2.253   0.908   5.969
 8577SOL    HW126630   2.267   0.849   6.049
 8577SOL    HW226631   2.317   0.984   5.972
 8578SOL     OW26632   6.207   6.260   5.310
 8578SOL    HW126633   6.300   6.294   5.327
 8578SOL    HW226634   6.170   6.222   5.394
 8579SOL     OW26635   2.489   6.304   2.589
 8579SOL    HW126636   2.524   6.396   2.568
 8579SOL    HW226637   2.456   6.261   2.505
 8580SOL     OW26638   1.264   6.323   1.525
 8580SOL    HW126639   1.228   6.345   1.434
 8580SOL    HW226640   1.347   6.269   1.516
 8581SOL     OW26641   3.773   4.973   1.292
 8581SOL    HW126642   3.845   4.999   1.357
 8581SOL    HW226643   3.758   5.047   1.227
 8582SOL     OW26644   4.002   4.417   5.575
 8582SOL    HW126645   3.937   4.481   5.617
 8582SOL    HW226646   4.073   4.393   5.641
 8583SOL     OW26647   4.048   0.956   3.159
 8583SOL    HW126648   4.104   0.873   3.170
 8583SOL    HW226649   3.966   0.948   3.215
 8584SOL     OW26650   6.234   1.356   4.872
 8584SOL    HW126651   6.316   1.346   4.816
 8584SOL    HW226652   6.216   1.454   4.886
 8585SOL     OW26653   5.718   2.115   1.123
 8585SOL    HW126654   5.666   2.197   1.147
 8585SOL    HW226655   5.655   2.044   1.091
 8586SOL     OW26656   5.754   6.234   1.118
 8586SOL    HW126657   5.819   6.159   1.105
 8586SOL    HW226658   5.667   6.198   1.150
 8587SOL     OW26659   0.851   1.648   5.164
 8587SOL    HW126660   0.829   1.708   5.241
 8587SOL    HW226661   0.936   1.679   5.121
 8588SOL     OW26662   3.741   1.524   0.069
 8588SOL    HW126663   3.692   1.522   7.008
 8588SOL    HW226664   3.697   1.589   0.131
 8589SOL     OW26665   6.920   2.985   5.119
 8589SOL    HW126666   6.928   3.012   5.215
 8589SOL    HW226667   6.915   3.066   5.062
 8590SOL     OW26668   6.596   0.949   2.575
 8590SOL    HW126669   6.683   0.947   2.526
 8590SOL    HW226670   6.611   0.926   2.671
 8591SOL     OW26671   6.323   5.171   0.488
 8591SOL    HW126672   6.369   5.168   0.400
 8591SOL    HW226673   6.390   5.166   0.562
 8592SOL     OW26674   0.580   2.563   6.798
 8592SOL    HW126675   0.630   2.482   6.769
 8592SOL    HW226676   0.642   2.641   6.807
 8593SOL     OW26677   3.090   0.934   6.793
 8593SOL    HW126678   3.120   0.893   6.879
 8593SOL    HW226679   3.116   1.031   6.791
 8594SOL     OW26680   6.068   2.768   6.335
 8594SOL    HW126681   6.019   2.751   6.421
 8594SOL    HW226682   6.013   2.732   6.259
 8595SOL     OW26683   5.448   0.217   2.973
 8595SOL    HW126684   5.378   0.152   3.002
 8595SOL    HW226685   5.492   0.256   3.054
 8596SOL     OW26686   1.159   3.212   3.426
 8596SOL    HW126687   1.110   3.277   3.484
 8596SOL    HW226688   1.094   3.149   3.384
 8597SOL     OW26689   6.544   2.861   0.955
 8597SOL    HW126690   6.472   2.797   0.981
 8597SOL    HW226691   6.616   2.860   1.023
 8598SOL     OW26692   5.715   0.838   4.851
 8598SOL    HW126693   5.769   0.779   4.911
 8598SOL    HW226694   5.647   0.887   4.905
 8599SOL     OW26695   1.467   3.096   3.253
 8599SOL    HW126696   1.490   3.092   3.350
 8599SOL    HW226697   1.397   3.165   3.238
 8600SOL     OW26698   4.811   3.826   1.091
 8600SOL    HW126699   4.905   3.794   1.076
 8600SOL    HW226700   4.813   3.908   1.148
 8601SOL     OW26701   0.642   1.478   3.749
 8601SOL    HW126702   0.592   1.416   3.810
 8601SOL    HW226703   0.704   1.424   3.692
 8602SOL     OW26704   2.720   7.015   3.311
 8602SOL    HW126705   2.630   6.996   3.351
 8602SOL    HW226706   2.723   0.085   3.281
 8603SOL     OW26707   6.055   1.196   0.120
 8603SOL    HW126708   6.057   1.096   0.113
 8603SOL    HW226709   5.988   1.224   0.189
 8604SOL     OW26710   0.428   3.342   6.295
 8604SOL    HW126711   0.445   3.376   6.203
 8604SOL    HW226712   0.329   3.330   6.308
 8605SOL     OW26713   0.255   4.743   4.394
 8605SOL    HW126714   0.232   4.694   4.478
 8605SOL    HW226715   0.345   4.715   4.362
 8606SOL     OW26716   2.891   2.187   6.433
 8606SOL    HW126717   2.807   2.186   6.488
 8606SOL    HW226718   2.875   2.238   6.348
 8607SOL     OW26719   2.205   4.840   0.983
 8607SOL    HW126720   2.266   4.785   0.925
 8607SOL    HW226721   2.259   4.886   1.053
 8608SOL     OW26722   2.657   4.612   2.663
 8608SOL    HW126723   2.684   4.631   2.569
 8608SOL    HW226724   2.731   4.639   2.725
 8609SOL     OW26725   4.692   1.147   3.833
 8609SOL    HW126726   4.682   1.207   3.912
 8609SOL    HW226727   4.771   1.176   3.779
 8610SOL     OW26728   6.898   6.905   2.653
 8610SOL    HW126729   6.833   6.864   2.588
 8610SOL    HW226730   6.985   6.921   2.607
 8611SOL     OW26731   3.177   1.187   3.841
 8611SOL    HW126732   3.270   1.152   3.827
 8611SOL    HW226733   3.130   1.191   3.752
 8612SOL     OW26734   2.947   3.440   2.764
 8612SOL    HW126735   2.885   3.385   2.707
 8612SOL    HW226736   3.027   3.466   2.711
 8613SOL     OW26737   2.891   2.835   1.469
 8613SOL    HW126738   2.885   2.798   1.561
 8613SOL    HW226739   2.963   2.788   1.419
 8614SOL     OW26740   1.302   2.611   1.954
 8614SOL    HW126741   1.396   2.615   1.919
 8614SOL    HW226742   1.239   2.597   1.878
 8615SOL     OW26743   5.022   2.149   4.609
 8615SOL    HW126744   5.057   2.068   4.657
 8615SOL    HW226745   5.027   2.228   4.670
 8616SOL     OW26746   3.282   5.242   2.332
 8616SOL    HW126747   3.232   5.184   2.396
 8616SOL    HW226748   3.320   5.185   2.259
 8617SOL     OW26749   5.838   7.025   4.024
 8617SOL    HW126750   5.765   0.047   3.976
 8617SOL    HW226751   5.924   0.049   4.014
 8618SOL     OW26752   6.447   3.918   1.088
 8618SOL    HW126753   6.452   3.843   1.022
 8618SOL    HW226754   6.515   3.988   1.063
 8619SOL     OW26755   4.928   4.956   2.146
 8619SOL    HW126756   4.841   4.911   2.166
 8619SOL    HW226757   4.924   4.996   2.054
 8620SOL     OW26758   2.243   0.201   4.572
 8620SOL    HW126759   2.337   0.231   4.587
 8620SOL    HW226760   2.222   0.204   4.474
 8621SOL     OW26761   4.792   2.859   2.172
 8621SOL    HW126762   4.814   2.897   2.261
 8621SOL    HW226763   4.790   2.932   2.104
 8622SOL     OW26764   6.319   5.259   2.369
 8622SOL    HW126765   6.351   5.182   2.424
 8622SOL    HW226766   6.398   5.316   2.343
 8623SOL     OW26767   6.905   3.448   4.690
 8623SOL    HW126768   6.976   3.466   4.758
 8623SOL    HW226769   6.947   3.409   4.608
 8624SOL     OW26770   3.256   3.586   6.124
 8624SOL    HW126771   3.173   3.535   6.107
 8624SOL    HW226772   3.329   3.554   6.063
 8625SOL     OW26773   3.983   1.159   5.133
 8625SOL    HW126774   3.907   1.172   5.070
 8625SOL    HW226775   4.059   1.114   5.086
 8626SOL     OW26776   4.545   2.574   0.497
 8626SOL    HW126777   4.542   2.599   0.400
 8626SOL    HW226778   4.528   2.476   0.506
 8627SOL     OW26779   1.697   1.677   2.326
 8627SOL    HW126780   1.769   1.747   2.328
 8627SOL    HW226781   1.666   1.659   2.419
 8628SOL     OW26782   6.843   6.610   0.128
 8628SOL    HW126783   6.791   6.693   0.145
 8628SOL    HW226784   6.885   6.616   0.037
 8629SOL     OW26785   0.821   0.130   4.626
 8629SOL    HW126786   0.763   0.161   4.551
 8629SOL    HW226787   0.897   0.194   4.638
 8630SOL     OW26788   5.051   3.406   3.550
 8630SOL    HW126789   5.141   3.449   3.543
 8630SOL    HW226790   5.057   3.326   3.610
 8631SOL     OW26791   2.513   5.754   0.262
 8631SOL    HW126792   2.512   5.684   0.333
 8631SOL    HW226793   2.556   5.718   0.179
 8632SOL     OW26794   4.042   4.512   5.316
 8632SOL    HW126795   4.042   4.463   5.403
 8632SOL    HW226796   4.112   4.475   5.256
 8633SOL     OW26797   5.448   3.978   5.715
 8633SOL    HW126798   5.523   3.916   5.694
 8633SOL    HW226799   5.361   3.937   5.687
 8634SOL     OW26800   5.273   5.078   0.470
 8634SOL    HW126801   5.269   4.990   0.518
 8634SOL    HW226802   5.233   5.149   0.528
 8635SOL     OW26803   5.958   2.962   6.928
 8635SOL    HW126804   6.050   2.924   6.929
 8635SOL    HW226805   5.894   2.893   6.893
 8636SOL     OW26806   4.003   5.989   0.351
 8636SOL    HW126807   4.087   6.041   0.335
 8636SOL    HW226808   3.930   6.052   0.380
 8637SOL     OW26809   1.899   1.479   6.626
 8637SOL    HW126810   1.976   1.447   6.570
 8637SOL    HW226811   1.813   1.462   6.577
 8638SOL     OW26812   4.197   2.965   5.618
 8638SOL    HW126813   4.127   2.977   5.547
 8638SOL    HW226814   4.287   2.965   5.575
 8639SOL     OW26815   5.075   3.423   0.024
 8639SOL    HW126816   5.112   3.478   0.098
 8639SOL    HW226817   5.092   3.468   6.963
 8640SOL     OW26818   3.730   3.072   1.098
 8640SOL    HW126819   3.791   3.149   1.117
 8640SOL    HW226820   3.666   3.098   1.026
 8641SOL     OW26821   4.287   5.791   3.254
 8641SOL    HW126822   4.249   5.847   3.328
 8641SOL    HW226823   4.307   5.699   3.289
 8642SOL     OW26824   1.024   6.497   3.674
 8642SOL    HW126825   0.968   6.463   3.599
 8642SOL    HW226826   1.068   6.420   3.721
 8643SOL     OW26827   2.711   6.829   0.501
 8643SOL    HW126828   2.658   6.760   0.550
 8643SOL    HW226829   2.772   6.785   0.436
 8644SOL     OW26830   5.954   2.069   6.240
 8644SOL    HW126831   5.860   2.086   6.210
 8644SOL    HW226832   5.953   2.027   6.331
 8645SOL     OW26833   5.490   4.685   1.420
 8645SOL    HW126834   5.401   4.727   1.439
 8645SOL    HW226835   5.541   4.744   1.357
 8646SOL     OW26836   7.009   2.303   6.049
 8646SOL    HW126837   6.961   2.390   6.042
 8646SOL    HW226838   6.983   2.244   5.973
 8647SOL     OW26839   3.306   5.265   1.270
 8647SOL    HW126840   3.273   5.231   1.181
 8647SOL    HW226841   3.230   5.266   1.335
 8648SOL     OW26842   5.359   6.741   0.969
 8648SOL    HW126843   5.409   6.797   0.903
 8648SOL    HW226844   5.263   6.769   0.971
 8649SOL     OW26845   4.452   6.517   6.784
 8649SOL    HW126846   4.415   6.432   6.820
 8649SOL    HW226847   4.505   6.499   6.702
 8650SOL     OW26848   1.923   0.140   4.308
 8650SOL    HW126849   1.955   0.229   4.339
 8650SOL    HW226850   1.831   0.150   4.269
 8651SOL     OW26851   2.796   1.359   0.878
 8651SOL    HW126852   2.783   1.274   0.928
 8651SOL    HW226853   2.715   1.416   0.887
 8652SOL     OW26854   0.654   5.038   4.030
 8652SOL    HW126855   0.646   5.102   3.954
 8652SOL    HW226856   0.660   4.945   3.994
 8653SOL     OW26857   6.546   1.510   5.936
 8653SOL    HW126858   6.634   1.540   5.900
 8653SOL    HW226859   6.531   1.549   6.027
 8654SOL     OW26860   0.924   4.711   1.868
 8654SOL    HW126861   0.892   4.679   1.958
 8654SOL    HW226862   0.939   4.809   1.872
 8655SOL     OW26863   6.659   1.274   5.352
 8655SOL    HW126864   6.597   1.321   5.414
 8655SOL    HW226865   6.748   1.262   5.397
 8656SOL     OW26866   5.617   6.791   1.984
 8656SOL    HW126867   5.647   6.720   1.920
 8656SOL    HW226868   5.540   6.756   2.039
 8657SOL     OW26869   5.762   6.521   0.565
 8657SOL    HW126870   5.742   6.605   0.614
 8657SOL    HW226871   5.803   6.455   0.627
 8658SOL     OW26872   6.083   5.626   1.099
 8658SOL    HW126873   6.023   5.702   1.122
 8658SOL    HW226874   6.147   5.610   1.174
 8659SOL     OW26875   4.493   2.568   2.895
 8659SOL    HW126876   4.506   2.538   2.801
 8659SOL    HW226877   4.486   2.668   2.898
 8660SOL     OW26878   0.384   2.796   1.832
 8660SOL    HW126879   0.447   2.843   1.894
 8660SOL    HW226880   0.400   2.697   1.837
 8661SOL     OW26881   6.335   3.169   3.491
 8661SOL    HW126882   6.319   3.252   3.544
 8661SOL    HW226883   6.361   3.193   3.398
 8662SOL     OW26884   3.734   5.903   2.184
 8662SOL    HW126885   3.678   5.873   2.106
 8662SOL    HW226886   3.709   5.997   2.208
 8663SOL     OW26887   2.861   5.541   3.030
 8663SOL    HW126888   2.896   5.600   2.958
 8663SOL    HW226889   2.922   5.544   3.109
 8664SOL     OW26890   1.688   5.380   2.776
 8664SOL    HW126891   1.649   5.295   2.809
 8664SOL    HW226892   1.671   5.389   2.678
 8665SOL     OW26893   6.412   5.087   5.768
 8665SOL    HW126894   6.410   5.027   5.688
 8665SOL    HW226895   6.336   5.065   5.828
 8666SOL     OW26896   5.655   0.122   4.276
 8666SOL    HW126897   5.683   0.199   4.219
 8666SOL    HW226898   5.591   0.064   4.225
 8667SOL     OW26899   5.181   1.584   4.525
 8667SOL    HW126900   5.127   1.561   4.606
 8667SOL    HW226901   5.162   1.518   4.452
 8668SOL     OW26902   5.094   3.202   4.793
 8668SOL    HW126903   5.147   3.171   4.872
 8668SOL    HW226904   4.999   3.218   4.821
 8669SOL     OW26905   6.856   6.375   6.291
 8669SOL    HW126906   6.796   6.453   6.309
 8669SOL    HW226907   6.937   6.381   6.350
 8670SOL     OW26908   5.211   4.731   5.795
 8670SOL    HW126909   5.231   4.671   5.717
 8670SOL    HW226910   5.271   4.811   5.791
 8671SOL     OW26911   0.532   1.731   2.333
 8671SOL    HW126912   0.502   1.826   2.347
 8671SOL    HW226913   0.601   1.728   2.261
 8672SOL     OW26914   0.244   0.394   3.650
 8672SOL    HW126915   0.277   0.397   3.556
 8672SOL    HW226916   0.184   0.315   3.663
 8673SOL     OW26917   6.859   1.676   0.169
 8673SOL    HW126918   6.948   1.693   0.128
 8673SOL    HW226919   6.844   1.578   0.178
 8674SOL     OW26920   0.077   4.415   3.147
 8674SOL    HW126921   0.067   4.454   3.056
 8674SOL    HW226922   0.128   4.479   3.205
 8675SOL     OW26923   3.858   1.470   5.723
 8675SOL    HW126924   3.773   1.426   5.692
 8675SOL    HW226925   3.877   1.550   5.666
 8676SOL     OW26926   5.792   1.018   1.522
 8676SOL    HW126927   5.882   1.036   1.482
 8676SOL    HW226928   5.762   1.097   1.575
 8677SOL     OW26929   1.675   6.136   5.434
 8677SOL    HW126930   1.605   6.069   5.410
 8677SOL    HW226931   1.740   6.145   5.358
 8678SOL     OW26932   1.386   6.711   0.471
 8678SOL    HW126933   1.342   6.644   0.530
 8678SOL    HW226934   1.389   6.676   0.377
 8679SOL     OW26935   2.098   0.919   3.986
 8679SOL    HW126936   2.017   0.948   4.037
 8679SOL    HW226937   2.173   0.901   4.050
 8680SOL     OW26938   6.357   2.621   6.302
 8680SOL    HW126939   6.262   2.651   6.315
 8680SOL    HW226940   6.418   2.681   6.354
 8681SOL     OW26941   4.778   5.903   1.514
 8681SOL    HW126942   4.717   5.936   1.442
 8681SOL    HW226943   4.735   5.826   1.561
 8682SOL     OW26944   6.549   0.390   1.190
 8682SOL    HW126945   6.620   0.427   1.129
 8682SOL    HW226946   6.466   0.372   1.138
 8683SOL     OW26947   1.594   3.335   5.021
 8683SOL    HW126948   1.521   3.362   5.085
 8683SOL    HW226949   1.624   3.242   5.043
 8684SOL     OW26950   0.414   3.623   4.315
 8684SOL    HW126951   0.514   3.631   4.312
 8684SOL    HW226952   0.380   3.589   4.228
 8685SOL     OW26953   5.218   2.386   6.413
 8685SOL    HW126954   5.309   2.427   6.420
 8685SOL    HW226955   5.225   2.287   6.428
 8686SOL     OW26956   6.547   6.472   3.086
 8686SOL    HW126957   6.621   6.406   3.074
 8686SOL    HW226958   6.508   6.495   2.997
 8687SOL     OW26959   6.444   3.824   3.134
 8687SOL    HW126960   6.379   3.750   3.116
 8687SOL    HW226961   6.435   3.854   3.229
 8688SOL     OW26962   1.671   3.693   6.447
 8688SOL    HW126963   1.740   3.676   6.518
 8688SOL    HW226964   1.591   3.635   6.464
 8689SOL     OW26965   4.800   3.164   0.500
 8689SOL    HW126966   4.898   3.144   0.514
 8689SOL    HW226967   4.785   3.194   0.406
 8690SOL     OW26968   0.805   2.349   2.902
 8690SOL    HW126969   0.836   2.416   2.834
 8690SOL    HW226970   0.877   2.335   2.970
 8691SOL     OW26971   3.343   1.719   4.577
 8691SOL    HW126972   3.310   1.740   4.669
 8691SOL    HW226973   3.354   1.804   4.525
 8692SOL     OW26974   4.313   2.154   5.636
 8692SOL    HW126975   4.283   2.067   5.675
 8692SOL    HW226976   4.284   2.159   5.541
 8693SOL     OW26977   6.669   1.312   6.612
 8693SOL    HW126978   6.728   1.355   6.679
 8693SOL    HW226979   6.720   1.243   6.561
 8694SOL     OW26980   6.319   2.695   4.614
 8694SOL    HW126981   6.394   2.738   4.664
 8694SOL    HW226982   6.291   2.611   4.661
 8695SOL     OW26983   3.860   3.510   6.582
 8695SOL    HW126984   3.856   3.610   6.582
 8695SOL    HW226985   3.941   3.480   6.532
 8696SOL     OW26986   2.344   5.835   5.355
 8696SOL    HW126987   2.303   5.920   5.388
 8696SOL    HW226988   2.439   5.853   5.327
 8697SOL     OW26989   1.889   4.136   5.799
 8697SOL    HW126990   1.903   4.090   5.712
 8697SOL    HW226991   1.884   4.068   5.872
 8698SOL     OW26992   5.062   5.863   6.110
 8698SOL    HW126993   5.122   5.924   6.059
 8698SOL    HW226994   4.980   5.914   6.139
 8699SOL     OW26995   2.721   2.833   6.087
 8699SOL    HW126996   2.642   2.864   6.034
 8699SOL    HW226997   2.700   2.745   6.129
 8700SOL     OW26998   0.836   0.234   5.268
 8700SOL    HW126999   0.870   0.284   5.188
 8700SOL    HW227000   0.838   0.294   5.348
 8701SOL     OW27001   1.498   1.774   6.989
 8701SOL    HW127002   1.508   1.674   6.986
 8701SOL    HW227003   1.448   1.804   6.908
 8702SOL     OW27004   5.138   5.200   1.536
 8702SOL    HW127005   5.097   5.191   1.445
 8702SOL    HW227006   5.231   5.235   1.527
 8703SOL     OW27007   2.622   4.671   6.880
 8703SOL    HW127008   2.660   4.699   6.967
 8703SOL    HW227009   2.540   4.616   6.895
 8704SOL     OW27010   0.017   2.601   4.305
 8704SOL    HW127011   0.029   2.674   4.238
 8704SOL    HW227012   0.078   2.525   4.285
 8705SOL     OW27013   4.664   2.657   6.781
 8705SOL    HW127014   4.725   2.722   6.733
 8705SOL    HW227015   4.690   2.564   6.756
 8706SOL     OW27016   5.571   2.929   0.172
 8706SOL    HW127017   5.502   2.949   0.103
 8706SOL    HW227018   5.657   2.972   0.146
 8707SOL     OW27019   1.331   1.868   4.374
 8707SOL    HW127020   1.323   1.846   4.277
 8707SOL    HW227021   1.405   1.935   4.387
 8708SOL     OW27022   4.898   2.355   4.116
 8708SOL    HW127023   4.934   2.297   4.188
 8708SOL    HW227024   4.928   2.449   4.129
 8709SOL     OW27025   6.710   0.045   6.989
 8709SOL    HW127026   6.786   0.075   6.932
 8709SOL    HW227027   6.745   0.002   0.047
 8710SOL     OW27028   1.798   2.106   4.066
 8710SOL    HW127029   1.868   2.110   3.995
 8710SOL    HW227030   1.827   2.043   4.138
 8711SOL     OW27031   0.653   1.459   1.930
 8711SOL    HW127032   0.590   1.488   2.002
 8711SOL    HW227033   0.621   1.496   1.842
 8712SOL     OW27034   2.521   2.167   5.356
 8712SOL    HW127035   2.483   2.079   5.385
 8712SOL    HW227036   2.481   2.193   5.268
 8713SOL     OW27037   1.077   3.948   2.066
 8713SOL    HW127038   1.016   3.931   1.989
 8713SOL    HW227039   1.056   3.884   2.140
 8714SOL     OW27040   0.171   6.387   0.142
 8714SOL    HW127041   0.191   6.294   0.172
 8714SOL    HW227042   0.116   6.385   0.059
 8715SOL     OW27043   2.333   1.728   0.196
 8715SOL    HW127044   2.299   1.762   0.108
 8715SOL    HW227045   2.256   1.704   0.254
 8716SOL     OW27046   6.917   6.147   1.622
 8716SOL    HW127047   6.904   6.051   1.648
 8716SOL    HW227048   6.876   6.162   1.532
 8717SOL     OW27049   2.550   3.967   6.194
 8717SOL    HW127050   2.492   3.902   6.243
 8717SOL    HW227051   2.493   4.031   6.143
 8718SOL     OW27052   1.490   3.117   6.264
 8718SOL    HW127053   1.585   3.089   6.253
 8718SOL    HW227054   1.430   3.041   6.238
 8719SOL     OW27055   3.692   0.901   6.850
 8719SOL    HW127056   3.636   0.982   6.869
 8719SOL    HW227057   3.751   0.882   6.929
 8720SOL     OW27058   6.633   4.659   5.351
 8720SOL    HW127059   6.691   4.699   5.280
 8720SOL    HW227060   6.631   4.559   5.339
 8721SOL     OW27061   6.757   5.999   6.559
 8721SOL    HW127062   6.847   6.041   6.548
 8721SOL    HW227063   6.691   6.068   6.589
 8722SOL     OW27064   3.087   0.431   0.767
 8722SOL    HW127065   3.073   0.518   0.814
 8722SOL    HW227066   3.175   0.393   0.794
 8723SOL     OW27067   5.674   0.017   2.324
 8723SOL    HW127068   5.711   6.967   2.272
 8723SOL    HW227069   5.642   0.088   2.261
 8724SOL     OW27070   4.543   0.344   4.139
 8724SOL    HW127071   4.554   0.394   4.053
 8724SOL    HW227072   4.446   0.324   4.153
 8725SOL     OW27073   0.593   6.539   4.832
 8725SOL    HW127074   0.519   6.595   4.870
 8725SOL    HW227075   0.603   6.455   4.885
 8726SOL     OW27076   0.046   1.470   0.467
 8726SOL    HW127077   0.077   1.501   0.377
 8726SOL    HW227078   0.026   1.372   0.462
 8727SOL     OW27079   6.393   6.636   6.448
 8727SOL    HW127080   6.428   6.547   6.479
 8727SOL    HW227081   6.460   6.707   6.469
 8728SOL     OW27082   5.307   1.050   2.786
 8728SOL    HW127083   5.383   1.114   2.800
 8728SOL    HW227084   5.341   0.956   2.792
 8729SOL     OW27085   3.404   5.172   5.341
 8729SOL    HW127086   3.418   5.089   5.288
 8729SOL    HW227087   3.360   5.149   5.428
 8730SOL     OW27088   5.456   4.389   3.342
 8730SOL    HW127089   5.382   4.329   3.312
 8730SOL    HW227090   5.508   4.420   3.262
 8731SOL     OW27091   0.148   2.412   2.922
 8731SOL    HW127092   0.154   2.337   2.857
 8731SOL    HW227093   0.239   2.450   2.939
 8732SOL     OW27094   5.349   4.883   1.176
 8732SOL    HW127095   5.438   4.850   1.147
 8732SOL    HW227096   5.361   4.949   1.251
 8733SOL     OW27097   0.796   5.673   0.786
 8733SOL    HW127098   0.857   5.594   0.793
 8733SOL    HW227099   0.714   5.647   0.736
 8734SOL     OW27100   6.931   3.619   2.445
 8734SOL    HW127101   6.979   3.693   2.491
 8734SOL    HW227102   6.996   3.546   2.422
 8735SOL     OW27103   1.544   3.489   5.354
 8735SOL    HW127104   1.490   3.450   5.279
 8735SOL    HW227105   1.587   3.574   5.324
 8736SOL     OW27106   0.608   5.676   2.141
 8736SOL    HW127107   0.621   5.604   2.210
 8736SOL    HW227108   0.517   5.668   2.102
 8737SOL     OW27109   2.182   5.603   6.423
 8737SOL    HW127110   2.233   5.589   6.338
 8737SOL    HW227111   2.237   5.571   6.500
 8738SOL     OW27112   1.125   3.845   3.539
 8738SOL    HW127113   1.149   3.903   3.461
 8738SOL    HW227114   1.185   3.765   3.540
 8739SOL     OW27115   5.463   3.900   5.271
 8739SOL    HW127116   5.469   3.996   5.300
 8739SOL    HW227117   5.539   3.879   5.210
 8740SOL     OW27118   3.868   2.118   3.445
 8740SOL    HW127119   3.889   2.174   3.365
 8740SOL    HW227120   3.837   2.177   3.520
 8741SOL     OW27121   2.094   0.012   2.505
 8741SOL    HW127122   2.179   6.994   2.476
 8741SOL    HW227123   2.093   0.107   2.474
 8742SOL     OW27124   3.842   0.700   2.554
 8742SOL    HW127125   3.795   0.669   2.636
 8742SOL    HW227126   3.821   0.797   2.538
 8743SOL     OW27127   1.306   1.011   1.935
 8743SOL    HW127128   1.387   0.952   1.925
 8743SOL    HW227129   1.277   1.044   1.846
 8744SOL     OW27130   4.581   3.073   7.000
 8744SOL    HW127131   4.590   3.173   6.996
 8744SOL    HW227132   4.485   3.049   7.013
 8745SOL     OW27133   6.642   2.399   6.672
 8745SOL    HW127134   6.720   2.340   6.695
 8745SOL    HW227135   6.669   2.464   6.601
 8746SOL     OW27136   4.672   4.841   3.916
 8746SOL    HW127137   4.587   4.828   3.864
 8746SOL    HW227138   4.703   4.936   3.904
 8747SOL     OW27139   6.407   1.015   2.197
 8747SOL    HW127140   6.471   1.070   2.250
 8747SOL    HW227141   6.439   0.920   2.195
 8748SOL     OW27142   0.710   1.758   4.113
 8748SOL    HW127143   0.689   1.812   4.032
 8748SOL    HW227144   0.809   1.740   4.116
 8749SOL     OW27145   2.050   0.999   5.282
 8749SOL    HW127146   2.082   0.911   5.246
 8749SOL    HW227147   2.104   1.023   5.362
 8750SOL     OW27148   4.081   2.766   5.768
 8750SOL    HW127149   4.111   2.849   5.722
 8750SOL    HW227150   4.033   2.790   5.853
 8751SOL     OW27151   6.798   6.916   0.710
 8751SOL    HW127152   6.878   6.880   0.758
 8751SOL    HW227153   6.726   6.938   0.776
 8752SOL     OW27154   5.153   2.547   0.239
 8752SOL    HW127155   5.161   2.514   0.333
 8752SOL    HW227156   5.057   2.550   0.212
 8753SOL     OW27157   1.697   3.522   0.040
 8753SOL    HW127158   1.674   3.481   0.129
 8753SOL    HW227159   1.628   3.495   6.998
 8754SOL     OW27160   2.791   4.935   6.244
 8754SOL    HW127161   2.783   4.852   6.300
 8754SOL    HW227162   2.888   4.961   6.237
 8755SOL     OW27163   0.605   1.516   1.429
 8755SOL    HW127164   0.643   1.477   1.345
 8755SOL    HW227165   0.529   1.460   1.461
 8756SOL     OW27166   2.309   2.845   4.121
 8756SOL    HW127167   2.279   2.940   4.109
 8756SOL    HW227168   2.339   2.808   4.033
 8757SOL     OW27169   5.181   5.863   5.260
 8757SOL    HW127170   5.172   5.862   5.161
 8757SOL    HW227171   5.123   5.935   5.299
 8758SOL     OW27172   3.856   0.233   3.198
 8758SOL    HW127173   3.867   0.168   3.272
 8758SOL    HW227174   3.850   0.185   3.111
 8759SOL     OW27175   6.375   1.274   6.691
 8759SOL    HW127176   6.330   1.355   6.729
 8759SOL    HW227177   6.472   1.292   6.680
 8760SOL     OW27178   1.907   1.930   4.230
 8760SOL    HW127179   1.932   1.842   4.191
 8760SOL    HW227180   1.990   1.982   4.251
 8761SOL     OW27181   5.365   1.341   2.024
 8761SOL    HW127182   5.311   1.422   2.001
 8761SOL    HW227183   5.364   1.278   1.947
 8762SOL     OW27184   1.755   6.002   4.068
 8762SOL    HW127185   1.772   6.063   3.991
 8762SOL    HW227186   1.807   5.917   4.055
 8763SOL     OW27187   6.903   0.768   5.404
 8763SOL    HW127188   6.968   0.843   5.392
 8763SOL    HW227189   6.816   0.803   5.436
 8764SOL     OW27190   4.145   5.510   5.906
 8764SOL    HW127191   4.081   5.577   5.944
 8764SOL    HW227192   4.198   5.551   5.832
 8765SOL     OW27193   5.917   0.832   5.520
 8765SOL    HW127194   5.943   0.915   5.570
 8765SOL    HW227195   5.989   0.809   5.455
 8766SOL     OW27196   4.657   4.201   5.884
 8766SOL    HW127197   4.619   4.127   5.939
 8766SOL    HW227198   4.694   4.163   5.799
 8767SOL     OW27199   3.240   0.319   3.513
 8767SOL    HW127200   3.261   0.284   3.605
 8767SOL    HW227201   3.141   0.320   3.500
 8768SOL     OW27202   0.339   2.270   6.702
 8768SOL    HW127203   0.240   2.274   6.691
 8768SOL    HW227204   0.365   2.304   6.792
 8769SOL     OW27205   6.262   0.994   1.728
 8769SOL    HW127206   6.321   0.947   1.793
 8769SOL    HW227207   6.166   0.971   1.748
 8770SOL     OW27208   5.334   4.015   1.967
 8770SOL    HW127209   5.252   4.047   1.918
 8770SOL    HW227210   5.315   3.927   2.009
 8771SOL     OW27211   0.458   3.547   6.910
 8771SOL    HW127212   0.557   3.559   6.901
 8771SOL    HW227213   0.424   3.605   6.984
 8772SOL     OW27214   5.559   0.610   4.745
 8772SOL    HW127215   5.639   0.666   4.764
 8772SOL    HW227216   5.500   0.657   4.679
 8773SOL     OW27217   6.392   2.395   4.199
 8773SOL    HW127218   6.355   2.373   4.290
 8773SOL    HW227219   6.402   2.494   4.191
 8774SOL     OW27220   0.872   6.725   0.062
 8774SOL    HW127221   0.869   6.677   7.001
 8774SOL    HW227222   0.838   6.819   0.050
 8775SOL     OW27223   5.487   1.722   4.816
 8775SOL    HW127224   5.471   1.711   4.914
 8775SOL    HW227225   5.576   1.766   4.802
 8776SOL     OW27226   4.354   3.040   0.970
 8776SOL    HW127227   4.351   3.136   0.995
 8776SOL    HW227228   4.263   3.000   0.978
 8777SOL     OW27229   1.188   3.356   2.793
 8777SOL    HW127230   1.200   3.289   2.720
 8777SOL    HW227231   1.255   3.340   2.865
 8778SOL     OW27232   4.156   4.134   6.054
 8778SOL    HW127233   4.243   4.183   6.064
 8778SOL    HW227234   4.092   4.166   6.123
 8779SOL     OW27235   3.089   5.132   2.525
 8779SOL    HW127236   3.144   5.184   2.591
 8779SOL    HW227237   3.110   5.035   2.535
 8780SOL     OW27238   0.324   5.710   2.145
 8780SOL    HW127239   0.231   5.727   2.180
 8780SOL    HW227240   0.382   5.676   2.218
 8781SOL     OW27241   4.212   0.222   2.586
 8781SOL    HW127242   4.235   0.301   2.528
 8781SOL    HW227243   4.229   0.138   2.535
 8782SOL     OW27244   5.434   0.891   1.852
 8782SOL    HW127245   5.461   0.930   1.765
 8782SOL    HW227246   5.443   0.961   1.924
 8783SOL     OW27247   5.480   3.458   4.582
 8783SOL    HW127248   5.425   3.451   4.666
 8783SOL    HW227249   5.544   3.382   4.578
 8784SOL     OW27250   6.182   6.312   0.512
 8784SOL    HW127251   6.237   6.387   0.477
 8784SOL    HW227252   6.129   6.271   0.437
 8785SOL     OW27253   0.626   5.345   6.122
 8785SOL    HW127254   0.643   5.438   6.156
 8785SOL    HW227255   0.687   5.326   6.046
 8786SOL     OW27256   4.327   2.360   2.154
 8786SOL    HW127257   4.346   2.338   2.059
 8786SOL    HW227258   4.228   2.352   2.171
 8787SOL     OW27259   3.506   0.824   1.643
 8787SOL    HW127260   3.432   0.876   1.687
 8787SOL    HW227261   3.488   0.816   1.545
 8788SOL     OW27262   0.333   0.419   5.692
 8788SOL    HW127263   0.373   0.419   5.601
 8788SOL    HW227264   0.233   0.424   5.684
 8789SOL     OW27265   0.317   3.692   5.312
 8789SOL    HW127266   0.247   3.740   5.363
 8789SOL    HW227267   0.322   3.728   5.219
 8790SOL     OW27268   6.269   2.401   0.422
 8790SOL    HW127269   6.220   2.356   0.347
 8790SOL    HW227270   6.270   2.342   0.502
 8791SOL     OW27271   4.592   6.205   5.199
 8791SOL    HW127272   4.675   6.153   5.179
 8791SOL    HW227273   4.609   6.302   5.186
 8792SOL     OW27274   4.135   5.289   1.615
 8792SOL    HW127275   4.120   5.257   1.709
 8792SOL    HW227276   4.225   5.330   1.608
 8793SOL     OW27277   1.116   5.261   4.313
 8793SOL    HW127278   1.144   5.212   4.396
 8793SOL    HW227279   1.059   5.339   4.338
 8794SOL     OW27280   6.078   1.149   2.997
 8794SOL    HW127281   6.153   1.146   3.063
 8794SOL    HW227282   5.993   1.175   3.043
 8795SOL     OW27283   1.290   5.120   5.471
 8795SOL    HW127284   1.365   5.103   5.407
 8795SOL    HW227285   1.317   5.190   5.537
 8796SOL     OW27286   6.244   3.527   3.330
 8796SOL    HW127287   6.239   3.539   3.231
 8796SOL    HW227288   6.185   3.594   3.375
 8797SOL     OW27289   6.881   6.625   3.675
 8797SOL    HW127290   6.828   6.647   3.592
 8797SOL    HW227291   6.974   6.598   3.648
 8798SOL     OW27292   4.669   6.646   4.955
 8798SOL    HW127293   4.754   6.692   4.979
 8798SOL    HW227294   4.595   6.713   4.948
 8799SOL     OW27295   2.282   4.801   1.977
 8799SOL    HW127296   2.203   4.823   1.920
 8799SOL    HW227297   2.253   4.740   2.051
 8800SOL     OW27298   6.828   6.520   5.633
 8800SOL    HW127299   6.903   6.585   5.639
 8800SOL    HW227300   6.770   6.527   5.714
 8801SOL     OW27301   6.094   2.200   5.374
 8801SOL    HW127302   6.069   2.259   5.297
 8801SOL    HW227303   6.020   2.199   5.441
 8802SOL     OW27304   1.280   5.680   5.844
 8802SOL    HW127305   1.192   5.719   5.817
 8802SOL    HW227306   1.265   5.595   5.895
 8803SOL     OW27307   6.359   0.766   6.897
 8803SOL    HW127308   6.273   0.726   6.865
 8803SOL    HW227309   6.436   0.711   6.864
 8804SOL     OW27310   1.712   5.918   1.037
 8804SOL    HW127311   1.713   5.984   1.113
 8804SOL    HW227312   1.619   5.884   1.023
 8805SOL     OW27313   4.544   5.975   3.406
 8805SOL    HW127314   4.568   5.955   3.501
 8805SOL    HW227315   4.444   5.982   3.398
 8806SOL     OW27316   2.568   6.250   0.522
 8806SOL    HW127317   2.571   6.150   0.530
 8806SOL    HW227318   2.476   6.282   0.546
 8807SOL     OW27319   4.583   1.856   0.478
 8807SOL    HW127320   4.654   1.814   0.421
 8807SOL    HW227321   4.599   1.831   0.574
 8808SOL     OW27322   1.925   2.782   0.744
 8808SOL    HW127323   1.928   2.687   0.777
 8808SOL    HW227324   1.963   2.786   0.652
 8809SOL     OW27325   1.932   3.805   3.408
 8809SOL    HW127326   1.900   3.895   3.378
 8809SOL    HW227327   1.856   3.741   3.410
 8810SOL     OW27328   6.431   1.478   5.417
 8810SOL    HW127329   6.411   1.495   5.513
 8810SOL    HW227330   6.392   1.390   5.390
 8811SOL     OW27331   4.709   0.049   2.677
 8811SOL    HW127332   4.711   0.124   2.611
 8811SOL    HW227333   4.803   0.024   2.701
 8812SOL     OW27334   3.611   0.718   6.531
 8812SOL    HW127335   3.569   0.665   6.457
 8812SOL    HW227336   3.710   0.709   6.527
 8813SOL     OW27337   2.293   4.216   2.749
 8813SOL    HW127338   2.245   4.165   2.678
 8813SOL    HW227339   2.361   4.276   2.707
 8814SOL     OW27340   5.682   0.093   0.131
 8814SOL    HW127341   5.590   0.100   0.170
 8814SOL    HW227342   5.735   0.024   0.181
 8815SOL     OW27343   5.493   0.678   0.770
 8815SOL    HW127344   5.489   0.627   0.685
 8815SOL    HW227345   5.405   0.671   0.818
 8816SOL     OW27346   0.174   6.242   6.203
 8816SOL    HW127347   0.083   6.284   6.201
 8816SOL    HW227348   0.177   6.164   6.140
 8817SOL     OW27349   0.976   3.465   4.736
 8817SOL    HW127350   0.888   3.492   4.697
 8817SOL    HW227351   1.045   3.460   4.663
 8818SOL     OW27352   1.862   6.676   3.877
 8818SOL    HW127353   1.779   6.729   3.894
 8818SOL    HW227354   1.892   6.690   3.783
 8819SOL     OW27355   5.501   4.564   5.870
 8819SOL    HW127356   5.456   4.653   5.874
 8819SOL    HW227357   5.436   4.496   5.836
 8820SOL     OW27358   3.861   0.924   4.819
 8820SOL    HW127359   3.882   0.893   4.912
 8820SOL    HW227360   3.874   1.023   4.813
 8821SOL     OW27361   0.881   5.068   0.887
 8821SOL    HW127362   0.794   5.050   0.841
 8821SOL    HW227363   0.939   5.124   0.829
 8822SOL     OW27364   6.619   7.004   4.163
 8822SOL    HW127365   6.550   6.932   4.168
 8822SOL    HW227366   6.587   0.058   4.214
 8823SOL     OW27367   2.667   1.291   2.536
 8823SOL    HW127368   2.573   1.264   2.515
 8823SOL    HW227369   2.722   1.292   2.452
 8824SOL     OW27370   1.637   0.574   0.793
 8824SOL    HW127371   1.697   0.651   0.815
 8824SOL    HW227372   1.684   0.512   0.731
 8825SOL     OW27373   0.290   0.622   1.181
 8825SOL    HW127374   0.264   0.710   1.220
 8825SOL    HW227375   0.360   0.580   1.238
 8826SOL     OW27376   1.138   3.575   0.685
 8826SOL    HW127377   1.087   3.621   0.758
 8826SOL    HW227378   1.235   3.597   0.693
 8827SOL     OW27379   3.876   0.330   2.336
 8827SOL    HW127380   3.857   0.250   2.392
 8827SOL    HW227381   3.894   0.303   2.242
 8828SOL     OW27382   4.430   4.120   6.479
 8828SOL    HW127383   4.368   4.052   6.439
 8828SOL    HW227384   4.519   4.115   6.432
 8829SOL     OW27385   0.191   1.480   2.252
 8829SOL    HW127386   0.211   1.386   2.226
 8829SOL    HW227387   0.271   1.521   2.296
 8830SOL     OW27388   2.170   1.590   2.658
 8830SOL    HW127389   2.213   1.596   2.568
 8830SOL    HW227390   2.214   1.655   2.721
 8831SOL     OW27391   0.257   2.456   2.467
 8831SOL    HW127392   0.188   2.464   2.539
 8831SOL    HW227393   0.249   2.534   2.405
 8832SOL     OW27394   6.332   6.967   3.916
 8832SOL    HW127395   6.385   6.884   3.933
 8832SOL    HW227396   6.305   6.972   3.820
 8833SOL     OW27397   4.105   2.374   0.817
 8833SOL    HW127398   4.114   2.349   0.914
 8833SOL    HW227399   4.014   2.348   0.784
 8834SOL     OW27400   5.969   3.550   5.496
 8834SOL    HW127401   5.951   3.482   5.425
 8834SOL    HW227402   6.003   3.634   5.453
 8835SOL     OW27403   5.664   0.734   6.184
 8835SOL    HW127404   5.570   0.759   6.204
 8835SOL    HW227405   5.716   0.728   6.270
 8836SOL     OW27406   5.626   2.461   0.120
 8836SOL    HW127407   5.698   2.506   0.068
 8836SOL    HW227408   5.596   2.521   0.195
 8837SOL     OW27409   0.220   6.721   1.990
 8837SOL    HW127410   0.237   6.623   1.993
 8837SOL    HW227411   0.214   6.751   1.894
 8838SOL     OW27412   0.763   4.389   3.024
 8838SOL    HW127413   0.668   4.369   3.047
 8838SOL    HW227414   0.796   4.324   2.956
 8839SOL     OW27415   5.308   5.693   2.478
 8839SOL    HW127416   5.371   5.760   2.438
 8839SOL    HW227417   5.305   5.705   2.577
 8840SOL     OW27418   6.961   0.276   1.827
 8840SOL    HW127419   6.892   0.221   1.781
 8840SOL    HW227420   0.020   0.273   1.775
 8841SOL     OW27421   4.282   0.990   2.097
 8841SOL    HW127422   4.272   0.895   2.069
 8841SOL    HW227423   4.196   1.039   2.079
 8842SOL     OW27424   3.540   4.154   4.037
 8842SOL    HW127425   3.473   4.163   3.963
 8842SOL    HW227426   3.631   4.143   3.999
 8843SOL     OW27427   2.011   3.204   5.403
 8843SOL    HW127428   1.921   3.240   5.378
 8843SOL    HW227429   2.081   3.273   5.386
 8844SOL     OW27430   6.093   1.677   5.203
 8844SOL    HW127431   6.070   1.757   5.148
 8844SOL    HW227432   6.092   1.701   5.299
 8845SOL     OW27433   2.116   5.547   1.335
 8845SOL    HW127434   2.178   5.475   1.367
 8845SOL    HW227435   2.044   5.507   1.279
 8846SOL     OW27436   5.022   4.422   3.931
 8846SOL    HW127437   5.092   4.461   3.870
 8846SOL    HW227438   4.933   4.463   3.910
 8847SOL     OW27439   1.468   2.176   2.639
 8847SOL    HW127440   1.533   2.122   2.691
 8847SOL    HW227441   1.392   2.118   2.609
 8848SOL     OW27442   3.240   2.043   1.181
 8848SOL    HW127443   3.280   1.955   1.156
 8848SOL    HW227444   3.167   2.066   1.117
 8849SOL     OW27445   2.655   5.685   4.133
 8849SOL    HW127446   2.664   5.595   4.176
 8849SOL    HW227447   2.735   5.703   4.076
 8850SOL     OW27448   2.622   1.851   0.058
 8850SOL    HW127449   2.594   1.856   0.154
 8850SOL    HW227450   2.588   1.766   0.017
 8851SOL     OW27451   0.955   4.649   2.997
 8851SOL    HW127452   0.926   4.634   2.902
 8851SOL    HW227453   0.876   4.676   3.052
 8852SOL     OW27454   5.188   2.797   5.924
 8852SOL    HW127455   5.151   2.800   6.016
 8852SOL    HW227456   5.172   2.884   5.878
 8853SOL     OW27457   3.736   1.156   4.972
 8853SOL    HW127458   3.659   1.216   4.994
 8853SOL    HW227459   3.782   1.188   4.890
 8854SOL     OW27460   1.992   0.642   5.752
 8854SOL    HW127461   2.075   0.586   5.762
 8854SOL    HW227462   1.960   0.670   5.842
 8855SOL     OW27463   6.072   6.174   6.524
 8855SOL    HW127464   6.040   6.262   6.560
 8855SOL    HW227465   6.054   6.170   6.426
 8856SOL     OW27466   6.811   0.417   4.491
 8856SOL    HW127467   6.743   0.483   4.459
 8856SOL    HW227468   6.880   0.465   4.545
 8857SOL     OW27469   6.344   1.998   3.197
 8857SOL    HW127470   6.443   2.011   3.191
 8857SOL    HW227471   6.317   1.919   3.143
 8858SOL     OW27472   1.019   4.101   5.830
 8858SOL    HW127473   1.052   4.182   5.782
 8858SOL    HW227474   1.095   4.057   5.878
 8859SOL     OW27475   0.607   6.856   5.086
 8859SOL    HW127476   0.632   6.911   5.166
 8859SOL    HW227477   0.513   6.877   5.059
 8860SOL     OW27478   1.363   2.765   2.157
 8860SOL    HW127479   1.300   2.715   2.097
 8860SOL    HW227480   1.445   2.791   2.106
 8861SOL     OW27481   3.257   3.396   0.200
 8861SOL    HW127482   3.351   3.386   0.166
 8861SOL    HW227483   3.259   3.434   0.292
 8862SOL     OW27484   5.920   1.319   4.646
 8862SOL    HW127485   5.865   1.402   4.657
 8862SOL    HW227486   5.963   1.295   4.733
 8863SOL     OW27487   2.026   5.403   4.634
 8863SOL    HW127488   2.074   5.423   4.548
 8863SOL    HW227489   2.037   5.306   4.656
 8864SOL     OW27490   2.179   3.228   6.353
 8864SOL    HW127491   2.201   3.180   6.438
 8864SOL    HW227492   2.108   3.178   6.304
 8865SOL     OW27493   3.021   1.423   4.410
 8865SOL    HW127494   3.064   1.513   4.405
 8865SOL    HW227495   2.935   1.425   4.360
 8866SOL     OW27496   4.293   6.559   3.422
 8866SOL    HW127497   4.299   6.460   3.424
 8866SOL    HW227498   4.319   6.597   3.511
 8867SOL     OW27499   6.010   2.230   2.637
 8867SOL    HW127500   6.034   2.134   2.652
 8867SOL    HW227501   6.024   2.253   2.541
 8868SOL     OW27502   5.368   3.501   0.358
 8868SOL    HW127503   5.460   3.497   0.397
 8868SOL    HW227504   5.303   3.457   0.420
 8869SOL     OW27505   4.786   3.994   3.075
 8869SOL    HW127506   4.738   4.074   3.039
 8869SOL    HW227507   4.767   3.986   3.173
 8870SOL     OW27508   3.717   0.690   1.215
 8870SOL    HW127509   3.750   0.602   1.181
 8870SOL    HW227510   3.641   0.721   1.158
 8871SOL     OW27511   2.293   1.330   4.026
 8871SOL    HW127512   2.374   1.346   3.969
 8871SOL    HW227513   2.211   1.338   3.970
 8872SOL     OW27514   1.914   4.467   4.207
 8872SOL    HW127515   2.006   4.450   4.172
 8872SOL    HW227516   1.882   4.386   4.257
 8873SOL     OW27517   6.876   5.802   2.799
 8873SOL    HW127518   6.868   5.705   2.773
 8873SOL    HW227519   6.949   5.844   2.746
 8874SOL     OW27520   1.938   6.895   0.983
 8874SOL    HW127521   1.983   6.975   0.946
 8874SOL    HW227522   1.862   6.868   0.924
 8875SOL     OW27523   1.334   2.612   4.875
 8875SOL    HW127524   1.396   2.642   4.803
 8875SOL    HW227525   1.250   2.667   4.872
 8876SOL     OW27526   0.032   0.726   4.370
 8876SOL    HW127527   0.012   0.821   4.395
 8876SOL    HW227528   0.094   0.686   4.438
 8877SOL     OW27529   2.981   0.859   4.088
 8877SOL    HW127530   3.030   0.825   4.008
 8877SOL    HW227531   3.032   0.834   4.171
 8878SOL     OW27532   0.036   5.098   0.853
 8878SOL    HW127533   0.106   5.038   0.814
 8878SOL    HW227534   6.998   5.044   0.907
 8879SOL     OW27535   5.010   5.383   0.496
 8879SOL    HW127536   5.106   5.374   0.523
 8879SOL    HW227537   5.003   5.378   0.397
 8880SOL     OW27538   6.980   5.673   4.742
 8880SOL    HW127539   0.026   5.735   4.713
 8880SOL    HW227540   7.016   5.608   4.808
 8881SOL     OW27541   6.292   1.036   3.171
 8881SOL    HW127542   6.315   1.019   3.075
 8881SOL    HW227543   6.228   0.967   3.203
 8882SOL     OW27544   5.411   0.752   6.825
 8882SOL    HW127545   5.443   0.821   6.761
 8882SOL    HW227546   5.489   0.710   6.871
 8883SOL     OW27547   0.349   1.225   5.835
 8883SOL    HW127548   0.261   1.248   5.792
 8883SOL    HW227549   0.380   1.136   5.801
 8884SOL     OW27550   6.150   6.525   6.553
 8884SOL    HW127551   6.092   6.603   6.529
 8884SOL    HW227552   6.246   6.553   6.549
 8885SOL     OW27553   6.657   3.735   1.389
 8885SOL    HW127554   6.634   3.640   1.368
 8885SOL    HW227555   6.574   3.790   1.388
 8886SOL     OW27556   2.643   5.950   5.392
 8886SOL    HW127557   2.716   5.884   5.413
 8886SOL    HW227558   2.590   5.968   5.475
 8887SOL     OW27559   2.833   1.048   0.768
 8887SOL    HW127560   2.891   1.015   0.843
 8887SOL    HW227561   2.829   0.978   0.697
 8888SOL     OW27562   1.127   2.130   1.138
 8888SOL    HW127563   1.100   2.173   1.052
 8888SOL    HW227564   1.158   2.037   1.121
 8889SOL     OW27565   5.460   6.823   5.193
 8889SOL    HW127566   5.505   6.840   5.280
 8889SOL    HW227567   5.400   6.900   5.170
 8890SOL     OW27568   6.169   5.908   4.664
 8890SOL    HW127569   6.175   5.838   4.735
 8890SOL    HW227570   6.113   5.874   4.589
 8891SOL     OW27571   6.143   3.082   6.617
 8891SOL    HW127572   6.062   3.129   6.652
 8891SOL    HW227573   6.115   3.021   6.542
 8892SOL     OW27574   3.086   6.923   3.143
 8892SOL    HW127575   3.100   6.942   3.240
 8892SOL    HW227576   2.994   6.949   3.117
 8893SOL     OW27577   0.376   1.280   1.771
 8893SOL    HW127578   0.462   1.256   1.728
 8893SOL    HW227579   0.305   1.214   1.746
 8894SOL     OW27580   4.010   3.281   6.191
 8894SOL    HW127581   4.025   3.191   6.231
 8894SOL    HW227582   3.920   3.316   6.220
 8895SOL     OW27583   0.482   0.199   1.924
 8895SOL    HW127584   0.534   0.245   1.852
 8895SOL    HW227585   0.473   0.102   1.902
 8896SOL     OW27586   0.986   3.464   5.323
 8896SOL    HW127587   0.961   3.539   5.384
 8896SOL    HW227588   1.035   3.500   5.243
 8897SOL     OW27589   1.511   1.462   1.933
 8897SOL    HW127590   1.545   1.373   1.964
 8897SOL    HW227591   1.497   1.460   1.834
 8898SOL     OW27592   6.383   2.954   4.415
 8898SOL    HW127593   6.292   2.959   4.455
 8898SOL    HW227594   6.430   3.041   4.429
 8899SOL     OW27595   2.283   4.107   6.562
 8899SOL    HW127596   2.231   4.186   6.595
 8899SOL    HW227597   2.255   4.085   6.469
 8900SOL     OW27598   5.334   3.206   3.541
 8900SOL    HW127599   5.310   3.186   3.636
 8900SOL    HW227600   5.430   3.233   3.536
 8901SOL     OW27601   1.868   0.777   3.044
 8901SOL    HW127602   1.895   0.868   3.076
 8901SOL    HW227603   1.945   0.715   3.053
 8902SOL     OW27604   3.065   5.539   6.316
 8902SOL    HW127605   3.111   5.590   6.388
 8902SOL    HW227606   2.968   5.564   6.314
 8903SOL     OW27607   2.219   1.578   4.175
 8903SOL    HW127608   2.241   1.608   4.268
 8903SOL    HW227609   2.240   1.481   4.165
 8904SOL     OW27610   6.977   5.238   3.525
 8904SOL    HW127611   6.888   5.201   3.499
 8904SOL    HW227612   6.969   5.288   3.611
 8905SOL     OW27613   2.196   3.416   5.273
 8905SOL    HW127614   2.114   3.462   5.238
 8905SOL    HW227615   2.277   3.460   5.237
 8906SOL     OW27616   6.710   6.950   6.672
 8906SOL    HW127617   6.810   6.940   6.666
 8906SOL    HW227618   6.687   0.021   6.679
 8907SOL     OW27619   3.306   2.575   5.310
 8907SOL    HW127620   3.326   2.560   5.407
 8907SOL    HW227621   3.272   2.491   5.269
 8908SOL     OW27622   1.717   2.932   0.442
 8908SOL    HW127623   1.724   3.031   0.433
 8908SOL    HW227624   1.696   2.891   0.353
 8909SOL     OW27625   2.613   0.406   5.254
 8909SOL    HW127626   2.560   0.461   5.190
 8909SOL    HW227627   2.565   0.319   5.271
 8910SOL     OW27628   2.783   3.363   6.010
 8910SOL    HW127629   2.746   3.356   5.918
 8910SOL    HW227630   2.813   3.272   6.040
 8911SOL     OW27631   3.306   2.135   4.358
 8911SOL    HW127632   3.243   2.204   4.394
 8911SOL    HW227633   3.374   2.111   4.428
 8912SOL     OW27634   3.954   1.454   6.237
 8912SOL    HW127635   3.928   1.369   6.283
 8912SOL    HW227636   4.046   1.481   6.265
 8913SOL     OW27637   5.320   4.248   1.611
 8913SOL    HW127638   5.250   4.313   1.582
 8913SOL    HW227639   5.404   4.296   1.633
 8914SOL     OW27640   4.554   1.413   5.313
 8914SOL    HW127641   4.460   1.390   5.337
 8914SOL    HW227642   4.616   1.344   5.351
 8915SOL     OW27643   1.475   2.781   3.858
 8915SOL    HW127644   1.567   2.745   3.849
 8915SOL    HW227645   1.449   2.828   3.774
 8916SOL     OW27646   0.335   3.737   1.780
 8916SOL    HW127647   0.432   3.756   1.796
 8916SOL    HW227648   0.325   3.678   1.700
 8917SOL     OW27649   6.011   5.107   6.730
 8917SOL    HW127650   6.102   5.090   6.768
 8917SOL    HW227651   6.004   5.202   6.703
 8918SOL     OW27652   6.437   6.302   6.997
 8918SOL    HW127653   6.531   6.332   6.984
 8918SOL    HW227654   6.412   6.312   0.068
 8919SOL     OW27655   3.985   3.597   0.839
 8919SOL    HW127656   3.937   3.605   0.752
 8919SOL    HW227657   4.001   3.688   0.877
 8920SOL     OW27658   6.554   5.900   6.178
 8920SOL    HW127659   6.644   5.900   6.134
 8920SOL    HW227660   6.497   5.972   6.137
 8921SOL     OW27661   1.321   1.429   2.968
 8921SOL    HW127662   1.307   1.402   3.063
 8921SOL    HW227663   1.413   1.402   2.939
 8922SOL     OW27664   2.486   5.203   1.112
 8922SOL    HW127665   2.456   5.111   1.135
 8922SOL    HW227666   2.533   5.202   1.024
 8923SOL     OW27667   1.798   3.643   6.731
 8923SOL    HW127668   1.774   3.691   6.815
 8923SOL    HW227669   1.851   3.562   6.753
 8924SOL     OW27670   2.672   5.404   5.572
 8924SOL    HW127671   2.769   5.405   5.548
 8924SOL    HW227672   2.652   5.482   5.631
 8925SOL     OW27673   0.876   0.657   2.076
 8925SOL    HW127674   0.796   0.609   2.113
 8925SOL    HW227675   0.938   0.590   2.034
 8926SOL     OW27676   5.884   2.634   1.607
 8926SOL    HW127677   5.826   2.673   1.678
 8926SOL    HW227678   5.827   2.584   1.541
 8927SOL     OW27679   2.774   2.279   5.033
 8927SOL    HW127680   2.816   2.337   5.103
 8927SOL    HW227681   2.837   2.204   5.010
 8928SOL     OW27682   0.248   0.904   5.485
 8928SOL    HW127683   0.344   0.875   5.494
 8928SOL    HW227684   0.188   0.827   5.508
 8929SOL     OW27685   0.239   3.352   3.822
 8929SOL    HW127686   0.228   3.261   3.862
 8929SOL    HW227687   0.336   3.378   3.823
 8930SOL     OW27688   1.517   5.134   5.293
 8930SOL    HW127689   1.540   5.158   5.199
 8930SOL    HW227690   1.579   5.062   5.325
 8931SOL     OW27691   4.585   2.384   1.129
 8931SOL    HW127692   4.583   2.417   1.035
 8931SOL    HW227693   4.666   2.419   1.175
 8932SOL     OW27694   5.279   6.828   6.347
 8932SOL    HW127695   5.285   6.812   6.249
 8932SOL    HW227696   5.275   6.927   6.365
 8933SOL     OW27697   1.095   0.906   5.155
 8933SOL    HW127698   1.029   0.853   5.208
 8933SOL    HW227699   1.095   1.001   5.187
 8934SOL     OW27700   3.446   5.164   2.596
 8934SOL    HW127701   3.528   5.195   2.644
 8934SOL    HW227702   3.392   5.243   2.567
 8935SOL     OW27703   4.915   3.410   2.323
 8935SOL    HW127704   4.898   3.320   2.283
 8935SOL    HW227705   4.872   3.481   2.267
 8936SOL     OW27706   0.793   3.766   0.850
 8936SOL    HW127707   0.816   3.837   0.784
 8936SOL    HW227708   0.747   3.691   0.804
 8937SOL     OW27709   0.515   0.534   4.114
 8937SOL    HW127710   0.547   0.547   4.020
 8937SOL    HW227711   0.591   0.503   4.171
 8938SOL     OW27712   5.586   0.652   0.376
 8938SOL    HW127713   5.555   0.582   0.312
 8938SOL    HW227714   5.631   0.608   0.453
 8939SOL     OW27715   6.532   2.846   4.767
 8939SOL    HW127716   6.573   2.919   4.713
 8939SOL    HW227717   6.592   2.765   4.765
 8940SOL     OW27718   6.412   2.834   0.471
 8940SOL    HW127719   6.429   2.896   0.548
 8940SOL    HW227720   6.316   2.841   0.444
 8941SOL     OW27721   5.256   1.911   1.938
 8941SOL    HW127722   5.275   1.968   1.858
 8941SOL    HW227723   5.164   1.932   1.971
 8942SOL     OW27724   6.830   4.657   4.113
 8942SOL    HW127725   6.927   4.663   4.133
 8942SOL    HW227726   6.807   4.565   4.082
 8943SOL     OW27727   4.462   3.815   0.216
 8943SOL    HW127728   4.533   3.826   0.147
 8943SOL    HW227729   4.457   3.897   0.272
 8944SOL     OW27730   4.481   5.018   4.479
 8944SOL    HW127731   4.437   5.088   4.423
 8944SOL    HW227732   4.579   5.037   4.484
 8945SOL     OW27733   6.266   3.395   5.529
 8945SOL    HW127734   6.224   3.310   5.497
 8945SOL    HW227735   6.200   3.445   5.585
 8946SOL     OW27736   4.701   0.607   4.093
 8946SOL    HW127737   4.673   0.562   4.178
 8946SOL    HW227738   4.676   0.704   4.096
 8947SOL     OW27739   1.251   4.383   6.771
 8947SOL    HW127740   1.191   4.421   6.841
 8947SOL    HW227741   1.251   4.443   6.691
 8948SOL     OW27742   6.493   6.673   3.960
 8948SOL    HW127743   6.461   6.659   4.053
 8948SOL    HW227744   6.557   6.601   3.934
 8949SOL     OW27745   3.657   6.154   0.145
 8949SOL    HW127746   3.590   6.228   0.138
 8949SOL    HW227747   3.667   6.127   0.241
 8950SOL     OW27748   4.821   4.032   1.282
 8950SOL    HW127749   4.880   4.088   1.340
 8950SOL    HW227750   4.725   4.057   1.298
 8951SOL     OW27751   2.444   1.070   4.176
 8951SOL    HW127752   2.478   1.089   4.083
 8951SOL    HW227753   2.398   0.982   4.176
 8952SOL     OW27754   2.288   4.822   3.239
 8952SOL    HW127755   2.222   4.765   3.190
 8952SOL    HW227756   2.343   4.874   3.174
 8953SOL     OW27757   2.380   5.165   1.921
 8953SOL    HW127758   2.455   5.108   1.953
 8953SOL    HW227759   2.416   5.250   1.883
 8954SOL     OW27760   0.922   5.794   4.709
 8954SOL    HW127761   0.939   5.797   4.610
 8954SOL    HW227762   0.825   5.775   4.725
 8955SOL     OW27763   6.311   3.053   2.773
 8955SOL    HW127764   6.370   3.018   2.700
 8955SOL    HW227765   6.354   3.038   2.861
 8956SOL     OW27766   0.468   6.704   6.587
 8956SOL    HW127767   0.451   6.609   6.561
 8956SOL    HW227768   0.467   6.711   6.687
 8957SOL     OW27769   1.747   5.175   2.110
 8957SOL    HW127770   1.678   5.148   2.043
 8957SOL    HW227771   1.810   5.240   2.067
 8958SOL     OW27772   1.276   3.588   5.551
 8958SOL    HW127773   1.284   3.625   5.458
 8958SOL    HW227774   1.232   3.656   5.610
 8959SOL     OW27775   0.933   3.195   2.383
 8959SOL    HW127776   0.888   3.284   2.391
 8959SOL    HW227777   1.014   3.204   2.324
 8960SOL     OW27778   6.829   3.865   4.033
 8960SOL    HW127779   6.913   3.920   4.032
 8960SOL    HW227780   6.845   3.779   3.985
 8961SOL     OW27781   2.967   6.827   4.359
 8961SOL    HW127782   2.895   6.877   4.406
 8961SOL    HW227783   2.947   6.824   4.261
 8962SOL     OW27784   1.322   5.792   1.216
 8962SOL    HW127785   1.387   5.795   1.292
 8962SOL    HW227786   1.230   5.779   1.252
 8963SOL     OW27787   3.569   5.721   4.286
 8963SOL    HW127788   3.483   5.773   4.282
 8963SOL    HW227789   3.563   5.642   4.226
 8964SOL     OW27790   5.985   4.043   3.000
 8964SOL    HW127791   5.959   4.023   3.095
 8964SOL    HW227792   5.904   4.047   2.943
 8965SOL     OW27793   4.407   4.591   0.744
 8965SOL    HW127794   4.353   4.632   0.671
 8965SOL    HW227795   4.349   4.580   0.825
 8966SOL     OW27796   5.740   5.345   6.014
 8966SOL    HW127797   5.738   5.402   5.932
 8966SOL    HW227798   5.713   5.400   6.094
 8967SOL     OW27799   3.533   0.890   2.708
 8967SOL    HW127800   3.520   0.879   2.806
 8967SOL    HW227801   3.628   0.916   2.689
 8968SOL     OW27802   2.606   4.743   1.731
 8968SOL    HW127803   2.696   4.758   1.772
 8968SOL    HW227804   2.553   4.681   1.789
 8969SOL     OW27805   6.885   6.929   3.252
 8969SOL    HW127806   6.859   6.985   3.331
 8969SOL    HW227807   6.813   6.933   3.183
 8970SOL     OW27808   1.137   1.447   6.016
 8970SOL    HW127809   1.188   1.533   6.020
 8970SOL    HW227810   1.158   1.400   5.930
 8971SOL     OW27811   4.303   6.311   1.019
 8971SOL    HW127812   4.249   6.321   1.102
 8971SOL    HW227813   4.326   6.401   0.982
 8972SOL     OW27814   5.633   5.373   0.229
 8972SOL    HW127815   5.672   5.460   0.260
 8972SOL    HW227816   5.637   5.307   0.303
 8973SOL     OW27817   0.661   2.479   2.015
 8973SOL    HW127818   0.703   2.391   2.037
 8973SOL    HW227819   0.675   2.543   2.091
 8974SOL     OW27820   2.218   4.150   4.562
 8974SOL    HW127821   2.218   4.087   4.639
 8974SOL    HW227822   2.141   4.129   4.502
 8975SOL     OW27823   0.565   0.236   6.723
 8975SOL    HW127824   0.535   0.324   6.760
 8975SOL    HW227825   0.559   0.237   6.624
 8976SOL     OW27826   6.031   6.667   1.372
 8976SOL    HW127827   6.062   6.572   1.377
 8976SOL    HW227828   6.072   6.719   1.446
 8977SOL     OW27829   0.381   4.932   6.475
 8977SOL    HW127830   0.386   4.989   6.394
 8977SOL    HW227831   0.398   4.836   6.450
 8978SOL     OW27832   5.999   5.892   5.291
 8978SOL    HW127833   6.081   5.880   5.347
 8978SOL    HW227834   6.024   5.939   5.206
 8979SOL     OW27835   1.018   5.436   6.152
 8979SOL    HW127836   0.996   5.528   6.184
 8979SOL    HW227837   0.985   5.368   6.218
 8980SOL     OW27838   4.328   1.834   5.353
 8980SOL    HW127839   4.319   1.931   5.374
 8980SOL    HW227840   4.393   1.792   5.417
 8981SOL     OW27841   4.472   2.025   6.014
 8981SOL    HW127842   4.541   2.080   6.060
 8981SOL    HW227843   4.402   1.997   6.079
 8982SOL     OW27844   6.458   0.928   1.930
 8982SOL    HW127845   6.417   0.941   2.020
 8982SOL    HW227846   6.546   0.976   1.926
 8983SOL     OW27847   1.169   4.943   2.130
 8983SOL    HW127848   1.259   4.901   2.138
 8983SOL    HW227849   1.131   4.924   2.039
 8984SOL     OW27850   6.156   0.516   4.611
 8984SOL    HW127851   6.088   0.494   4.681
 8984SOL    HW227852   6.232   0.566   4.651
 8985SOL     OW27853   4.623   1.733   0.773
 8985SOL    HW127854   4.691   1.684   0.719
 8985SOL    HW227855   4.639   1.716   0.870
 8986SOL     OW27856   6.170   4.601   1.974
 8986SOL    HW127857   6.223   4.600   1.890
 8986SOL    HW227858   6.140   4.508   1.996
 8987SOL     OW27859   2.671   0.253   1.348
 8987SOL    HW127860   2.604   0.288   1.413
 8987SOL    HW227861   2.757   0.236   1.395
 8988SOL     OW27862   2.428   5.568   0.955
 8988SOL    HW127863   2.421   5.662   0.989
 8988SOL    HW227864   2.506   5.523   0.998
 8989SOL     OW27865   5.159   2.586   2.495
 8989SOL    HW127866   5.144   2.664   2.554
 8989SOL    HW227867   5.257   2.567   2.487
 8990SOL     OW27868   3.438   6.249   0.750
 8990SOL    HW127869   3.413   6.331   0.802
 8990SOL    HW227870   3.499   6.192   0.806
 8991SOL     OW27871   2.019   2.507   0.870
 8991SOL    HW127872   2.013   2.594   0.920
 8991SOL    HW227873   1.991   2.432   0.929
 8992SOL     OW27874   0.692   2.872   0.304
 8992SOL    HW127875   0.785   2.904   0.287
 8992SOL    HW227876   0.627   2.938   0.266
 8993SOL     OW27877   5.155   1.910   3.613
 8993SOL    HW127878   5.092   1.876   3.543
 8993SOL    HW227879   5.199   1.994   3.580
 8994SOL     OW27880   1.637   5.685   3.952
 8994SOL    HW127881   1.705   5.699   3.880
 8994SOL    HW227882   1.600   5.774   3.981
 8995SOL     OW27883   1.428   2.911   5.117
 8995SOL    HW127884   1.333   2.909   5.147
 8995SOL    HW227885   1.479   2.980   5.168
 8996SOL     OW27886   0.474   3.902   1.410
 8996SOL    HW127887   0.463   3.981   1.469
 8996SOL    HW227888   0.468   3.930   1.314
 8997SOL     OW27889   4.530   1.231   6.110
 8997SOL    HW127890   4.570   1.163   6.048
 8997SOL    HW227891   4.438   1.254   6.078
 8998SOL     OW27892   1.175   2.885   5.240
 8998SOL    HW127893   1.108   2.946   5.198
 8998SOL    HW227894   1.150   2.867   5.335
 8999SOL     OW27895   4.627   1.851   6.279
 8999SOL    HW127896   4.656   1.802   6.361
 8999SOL    HW227897   4.666   1.806   6.198
 9000SOL     OW27898   2.894   3.578   0.011
 9000SOL    HW127899   2.926   3.630   0.090
 9000SOL    HW227900   2.969   3.523   7.000
 9001SOL     OW27901   1.904   4.694   3.437
 9001SOL    HW127902   1.940   4.712   3.528
 9001SOL    HW227903   1.887   4.781   3.390
 9002SOL     OW27904   6.184   5.101   5.951
 9002SOL    HW127905   6.114   5.151   6.001
 9002SOL    HW227906   6.146   5.068   5.864
 9003SOL     OW27907   6.076   2.600   0.474
 9003SOL    HW127908   6.147   2.530   0.487
 9003SOL    HW227909   6.059   2.612   0.377
 9004SOL     OW27910   5.028   6.561   1.014
 9004SOL    HW127911   5.050   6.496   0.940
 9004SOL    HW227912   5.031   6.513   1.102
 9005SOL     OW27913   4.730   2.190   3.640
 9005SOL    HW127914   4.777   2.245   3.708
 9005SOL    HW227915   4.683   2.114   3.685
 9006SOL     OW27916   1.580   4.845   0.989
 9006SOL    HW127917   1.678   4.830   0.988
 9006SOL    HW227918   1.534   4.776   0.933
 9007SOL     OW27919   3.094   5.544   3.875
 9007SOL    HW127920   3.102   5.447   3.898
 9007SOL    HW227921   3.094   5.555   3.776
 9008SOL     OW27922   0.275   4.207   2.058
 9008SOL    HW127923   0.179   4.200   2.031
 9008SOL    HW227924   0.326   4.128   2.023
 9009SOL     OW27925   2.420   7.017   1.130
 9009SOL    HW127926   2.503   0.046   1.129
 9009SOL    HW227927   2.440   6.926   1.094
 9010SOL     OW27928   0.807   6.842   4.528
 9010SOL    HW127929   0.732   6.783   4.499
 9010SOL    HW227930   0.829   6.824   4.624
 9011SOL     OW27931   3.701   2.021   0.937
 9011SOL    HW127932   3.661   1.931   0.918
 9011SOL    HW227933   3.718   2.030   1.035
 9012SOL     OW27934   0.806   4.951   1.313
 9012SOL    HW127935   0.871   4.881   1.342
 9012SOL    HW227936   0.855   5.022   1.262
 9013SOL     OW27937   6.207   6.164   4.247
 9013SOL    HW127938   6.224   6.163   4.346
 9013SOL    HW227939   6.292   6.184   4.199
 9014SOL     OW27940   1.068   0.878   0.300
 9014SOL    HW127941   1.074   0.823   0.383
 9014SOL    HW227942   1.104   0.826   0.223
 9015SOL     OW27943   0.184   1.117   6.205
 9015SOL    HW127944   0.165   1.178   6.282
 9015SOL    HW227945   0.154   1.160   6.120
 9016SOL     OW27946   6.959   6.309   5.925
 9016SOL    HW127947   6.899   6.279   5.999
 9016SOL    HW227948   7.012   6.231   5.892
 9017SOL     OW27949   5.870   2.165   4.147
 9017SOL    HW127950   5.878   2.110   4.064
 9017SOL    HW227951   5.922   2.250   4.137
 9018SOL     OW27952   3.588   0.872   4.795
 9018SOL    HW127953   3.686   0.890   4.799
 9018SOL    HW227954   3.565   0.828   4.708
 9019SOL     OW27955   2.903   6.165   0.061
 9019SOL    HW127956   2.978   6.223   0.028
 9019SOL    HW227957   2.929   6.122   0.147
 9020SOL     OW27958   2.008   4.431   2.963
 9020SOL    HW127959   2.069   4.465   2.890
 9020SOL    HW227960   1.933   4.496   2.975
 9021SOL     OW27961   6.827   6.074   4.319
 9021SOL    HW127962   6.866   6.129   4.393
 9021SOL    HW227963   6.775   5.998   4.358
 9022SOL     OW27964   2.760   0.548   0.333
 9022SOL    HW127965   2.772   0.466   0.277
 9022SOL    HW227966   2.703   0.526   0.412
 9023SOL     OW27967   3.395   3.492   3.705
 9023SOL    HW127968   3.417   3.398   3.729
 9023SOL    HW227969   3.478   3.538   3.673
 9024SOL     OW27970   1.645   6.154   5.975
 9024SOL    HW127971   1.677   6.091   6.046
 9024SOL    HW227972   1.546   6.142   5.963
 9025SOL     OW27973   6.301   5.201   1.818
 9025SOL    HW127974   6.376   5.155   1.771
 9025SOL    HW227975   6.336   5.281   1.867
 9026SOL     OW27976   3.746   2.917   4.583
 9026SOL    HW127977   3.687   2.899   4.662
 9026SOL    HW227978   3.777   3.011   4.586
 9027SOL     OW27979   2.601   1.919   3.163
 9027SOL    HW127980   2.528   1.957   3.106
 9027SOL    HW227981   2.586   1.946   3.258
 9028SOL     OW27982   2.391   4.307   5.717
 9028SOL    HW127983   2.387   4.235   5.649
 9028SOL    HW227984   2.399   4.267   5.808
 9029SOL     OW27985   4.074   5.424   3.863
 9029SOL    HW127986   4.099   5.407   3.958
 9029SOL    HW227987   4.156   5.426   3.806
 9030SOL     OW27988   2.170   0.929   2.762
 9030SOL    HW127989   2.211   0.994   2.826
 9030SOL    HW227990   2.082   0.897   2.799
 9031SOL     OW27991   2.901   6.067   5.860
 9031SOL    HW127992   2.908   6.042   5.956
 9031SOL    HW227993   2.817   6.120   5.845
 9032SOL     OW27994   2.716   2.377   1.732
 9032SOL    HW127995   2.801   2.376   1.784
 9032SOL    HW227996   2.648   2.433   1.780
 9033SOL     OW27997   1.901   3.534   4.288
 9033SOL    HW127998   1.831   3.489   4.344
 9033SOL    HW227999   1.878   3.631   4.279
 9034SOL     OW28000   2.724   6.383   5.357
 9034SOL    HW128001   2.776   6.353   5.277
 9034SOL    HW228002   2.787   6.400   5.433
 9035SOL     OW28003   6.776   6.970   4.974
 9035SOL    HW128004   6.797   6.910   4.897
 9035SOL    HW228005   6.824   6.938   5.055
 9036SOL     OW28006   1.789   2.489   5.579
 9036SOL    HW128007   1.817   2.575   5.537
 9036SOL    HW228008   1.729   2.439   5.516
 9037SOL     OW28009   2.211   3.858   5.992
 9037SOL    HW128010   2.303   3.835   5.961
 9037SOL    HW228011   2.182   3.793   6.062
 9038SOL     OW28012   5.382   0.931   5.575
 9038SOL    HW128013   5.343   0.846   5.540
 9038SOL    HW228014   5.353   0.944   5.670
 9039SOL     OW28015   1.982   4.779   5.396
 9039SOL    HW128016   1.915   4.730   5.341
 9039SOL    HW228017   2.003   4.726   5.478
 9040SOL     OW28018   2.948   1.354   2.383
 9040SOL    HW128019   2.974   1.361   2.479
 9040SOL    HW228020   2.903   1.266   2.367
 9041SOL     OW28021   0.702   2.793   1.893
 9041SOL    HW128022   0.656   2.715   1.934
 9041SOL    HW228023   0.654   2.877   1.917
 9042SOL     OW28024   2.560   5.767   2.905
 9042SOL    HW128025   2.590   5.702   2.975
 9042SOL    HW228026   2.558   5.721   2.816
 9043SOL     OW28027   1.176   2.311   6.182
 9043SOL    HW128028   1.089   2.353   6.205
 9043SOL    HW228029   1.160   2.225   6.134
 9044SOL     OW28030   5.974   0.361   0.738
 9044SOL    HW128031   6.064   0.350   0.694
 9044SOL    HW228032   5.955   0.458   0.748
 9045SOL     OW28033   3.531   0.550   3.335
 9045SOL    HW128034   3.528   0.492   3.416
 9045SOL    HW228035   3.441   0.590   3.318
 9046SOL     OW28036   3.422   4.282   5.408
 9046SOL    HW128037   3.449   4.292   5.504
 9046SOL    HW228038   3.363   4.358   5.381
 9047SOL     OW28039   1.552   4.039   4.609
 9047SOL    HW128040   1.523   4.107   4.677
 9047SOL    HW228041   1.489   3.962   4.611
 9048SOL     OW28042   1.565   3.980   5.578
 9048SOL    HW128043   1.605   3.891   5.599
 9048SOL    HW228044   1.627   4.053   5.607
 9049SOL     OW28045   5.356   5.899   6.197
 9049SOL    HW128046   5.384   5.978   6.252
 9049SOL    HW228047   5.258   5.884   6.206
 9050SOL     OW28048   0.710   5.313   6.939
 9050SOL    HW128049   0.794   5.361   6.963
 9050SOL    HW228050   0.706   5.226   6.989
 9051SOL     OW28051   4.765   6.359   0.344
 9051SOL    HW128052   4.708   6.435   0.375
 9051SOL    HW228053   4.845   6.351   0.404
 9052SOL     OW28054   2.752   4.770   4.536
 9052SOL    HW128055   2.730   4.684   4.491
 9052SOL    HW228056   2.712   4.771   4.628
 9053SOL     OW28057   2.039   2.777   3.834
 9053SOL    HW128058   2.097   2.839   3.782
 9053SOL    HW228059   2.048   2.685   3.797
 9054SOL     OW28060   1.697   0.702   1.469
 9054SOL    HW128061   1.761   0.642   1.516
 9054SOL    HW228062   1.734   0.729   1.380
 9055SOL     OW28063   1.097   2.842   3.963
 9055SOL    HW128064   1.176   2.841   4.025
 9055SOL    HW228065   1.125   2.807   3.873
 9056SOL     OW28066   5.549   0.273   1.479
 9056SOL    HW128067   5.463   0.221   1.480
 9056SOL    HW228068   5.529   0.370   1.490
 9057SOL     OW28069   6.108   5.401   6.714
 9057SOL    HW128070   6.096   5.425   6.811
 9057SOL    HW228071   6.128   5.484   6.661
 9058SOL     OW28072   2.056   2.536   4.685
 9058SOL    HW128073   2.078   2.619   4.634
 9058SOL    HW228074   2.127   2.519   4.754
 9059SOL     OW28075   6.434   1.179   3.620
 9059SOL    HW128076   6.426   1.279   3.621
 9059SOL    HW228077   6.475   1.149   3.706
 9060SOL     OW28078   6.664   3.706   1.991
 9060SOL    HW128079   6.717   3.656   2.058
 9060SOL    HW228080   6.620   3.784   2.034
 9061SOL     OW28081   4.387   5.976   3.072
 9061SOL    HW128082   4.437   6.055   3.106
 9061SOL    HW228083   4.378   5.908   3.146
 9062SOL     OW28084   1.513   4.695   2.171
 9062SOL    HW128085   1.478   4.788   2.179
 9062SOL    HW228086   1.567   4.672   2.252
 9063SOL     OW28087   2.968   1.577   2.575
 9063SOL    HW128088   3.062   1.550   2.554
 9063SOL    HW228089   2.932   1.518   2.648
 9064SOL     OW28090   6.840   4.358   3.666
 9064SOL    HW128091   6.879   4.365   3.574
 9064SOL    HW228092   6.855   4.266   3.701
 9065SOL     OW28093   2.662   6.096   5.195
 9065SOL    HW128094   2.579   6.147   5.173
 9065SOL    HW228095   2.647   6.040   5.276
 9066SOL     OW28096   6.678   6.557   6.261
 9066SOL    HW128097   6.601   6.507   6.221
 9066SOL    HW228098   6.692   6.642   6.211
 9067SOL     OW28099   6.801   6.486   4.421
 9067SOL    HW128100   6.873   6.533   4.370
 9067SOL    HW228101   6.722   6.546   4.429
 9068SOL     OW28102   4.722   0.488   5.149
 9068SOL    HW128103   4.645   0.467   5.210
 9068SOL    HW228104   4.687   0.527   5.064
 9069SOL     OW28105   4.607   2.656   2.273
 9069SOL    HW128106   4.669   2.706   2.213
 9069SOL    HW228107   4.580   2.714   2.350
 9070SOL     OW28108   1.689   1.872   6.454
 9070SOL    HW128109   1.789   1.867   6.450
 9070SOL    HW228110   1.650   1.809   6.387
 9071SOL     OW28111   4.172   1.187   5.694
 9071SOL    HW128112   4.254   1.228   5.652
 9071SOL    HW228113   4.139   1.246   5.767
 9072SOL     OW28114   5.396   6.673   2.106
 9072SOL    HW128115   5.365   6.594   2.055
 9072SOL    HW228116   5.320   6.738   2.117
 9073SOL     OW28117   4.438   6.962   0.357
 9073SOL    HW128118   4.438   6.868   0.324
 9073SOL    HW228119   4.464   6.963   0.454
 9074SOL     OW28120   1.483   0.363   1.250
 9074SOL    HW128121   1.548   0.398   1.182
 9074SOL    HW228122   1.392   0.398   1.230
 9075SOL     OW28123   6.871   0.932   2.485
 9075SOL    HW128124   6.904   0.841   2.460
 9075SOL    HW228125   6.912   1.000   2.424
 9076SOL     OW28126   4.800   1.670   3.367
 9076SOL    HW128127   4.736   1.617   3.423
 9076SOL    HW228128   4.756   1.695   3.281
 9077SOL     OW28129   4.857   1.511   6.238
 9077SOL    HW128130   4.949   1.508   6.199
 9077SOL    HW228131   4.820   1.419   6.245
 9078SOL     OW28132   5.152   5.026   6.422
 9078SOL    HW128133   5.069   5.029   6.478
 9078SOL    HW228134   5.127   5.028   6.325
 9079SOL     OW28135   1.576   0.640   4.900
 9079SOL    HW128136   1.508   0.583   4.854
 9079SOL    HW228137   1.539   0.673   4.987
 9080SOL     OW28138   5.978   3.403   0.170
 9080SOL    HW128139   5.934   3.394   0.259
 9080SOL    HW228140   6.069   3.363   0.173
 9081SOL     OW28141   3.937   1.548   1.287
 9081SOL    HW128142   3.869   1.559   1.360
 9081SOL    HW228143   4.023   1.516   1.327
 9082SOL     OW28144   2.280   6.669   5.291
 9082SOL    HW128145   2.212   6.597   5.277
 9082SOL    HW228146   2.372   6.628   5.292
 9083SOL     OW28147   4.637   4.581   6.457
 9083SOL    HW128148   4.723   4.538   6.483
 9083SOL    HW228149   4.634   4.591   6.357
 9084SOL     OW28150   0.495   2.699   5.565
 9084SOL    HW128151   0.538   2.716   5.654
 9084SOL    HW228152   0.498   2.783   5.510
 9085SOL     OW28153   3.201   5.310   0.653
 9085SOL    HW128154   3.189   5.316   0.752
 9085SOL    HW228155   3.275   5.372   0.625
 9086SOL     OW28156   6.062   4.489   1.125
 9086SOL    HW128157   6.032   4.575   1.165
 9086SOL    HW228158   5.987   4.446   1.075
 9087SOL     OW28159   5.892   3.191   2.982
 9087SOL    HW128160   5.985   3.210   3.014
 9087SOL    HW228161   5.860   3.268   2.925
 9088SOL     OW28162   6.157   6.984   2.059
 9088SOL    HW128163   6.202   0.016   1.991
 9088SOL    HW228164   6.139   6.894   2.020
 9089SOL     OW28165   4.242   5.472   4.240
 9089SOL    HW128166   4.313   5.468   4.169
 9089SOL    HW228167   4.152   5.478   4.197
 9090SOL     OW28168   4.963   6.312   4.925
 9090SOL    HW128169   4.906   6.349   4.852
 9090SOL    HW228170   5.034   6.253   4.886
 9091SOL     OW28171   3.188   2.401   0.492
 9091SOL    HW128172   3.115   2.336   0.514
 9091SOL    HW228173   3.148   2.490   0.472
 9092SOL     OW28174   1.552   0.766   6.098
 9092SOL    HW128175   1.591   0.674   6.108
 9092SOL    HW228176   1.471   0.761   6.039
 9093SOL     OW28177   1.471   6.396   6.910
 9093SOL    HW128178   1.508   6.487   6.891
 9093SOL    HW228179   1.508   6.330   6.845
 9094SOL     OW28180   0.525   6.048   2.120
 9094SOL    HW128181   0.557   5.978   2.055
 9094SOL    HW228182   0.426   6.045   2.125
 9095SOL     OW28183   5.483   4.003   6.336
 9095SOL    HW128184   5.470   3.962   6.246
 9095SOL    HW228185   5.527   3.937   6.397
 9096SOL     OW28186   5.415   3.606   2.698
 9096SOL    HW128187   5.334   3.659   2.670
 9096SOL    HW228188   5.472   3.589   2.618
 9097SOL     OW28189   0.749   3.848   0.255
 9097SOL    HW128190   0.738   3.892   0.166
 9097SOL    HW228191   0.787   3.757   0.243
 9098SOL     OW28192   4.035   3.302   1.081
 9098SOL    HW128193   3.980   3.378   1.116
 9098SOL    HW228194   4.002   3.275   0.990
 9099SOL     OW28195   3.564   3.437   0.942
 9099SOL    HW128196   3.632   3.418   0.871
 9099SOL    HW228197   3.516   3.353   0.965
 9100SOL     OW28198   0.889   2.562   2.194
 9100SOL    HW128199   0.868   2.585   2.289
 9100SOL    HW228200   0.872   2.464   2.179
 9101SOL     OW28201   2.180   2.991   2.610
 9101SOL    HW128202   2.199   2.959   2.518
 9101SOL    HW228203   2.157   2.913   2.668
 9102SOL     OW28204   3.549   6.419   2.067
 9102SOL    HW128205   3.591   6.509   2.082
 9102SOL    HW228206   3.604   6.349   2.113
 9103SOL     OW28207   6.999   3.632   0.452
 9103SOL    HW128208   0.016   3.549   0.416
 9103SOL    HW228209   7.010   3.707   0.387
 9104SOL     OW28210   4.231   6.260   1.979
 9104SOL    HW128211   4.308   6.234   2.038
 9104SOL    HW228212   4.209   6.183   1.919
 9105SOL     OW28213   1.547   0.577   0.082
 9105SOL    HW128214   1.575   0.568   0.178
 9105SOL    HW228215   1.560   0.671   0.052
 9106SOL     OW28216   5.393   3.433   0.071
 9106SOL    HW128217   5.464   3.387   0.124
 9106SOL    HW228218   5.418   3.530   0.060
 9107SOL     OW28219   4.048   6.946   6.548
 9107SOL    HW128220   4.076   6.857   6.513
 9107SOL    HW228221   4.079   7.017   6.485
 9108SOL     OW28222   4.851   4.591   5.640
 9108SOL    HW128223   4.876   4.681   5.677
 9108SOL    HW228224   4.905   4.573   5.558
 9109SOL     OW28225   1.416   2.549   2.790
 9109SOL    HW128226   1.478   2.579   2.863
 9109SOL    HW228227   1.469   2.506   2.717
 9110SOL     OW28228   2.140   4.347   4.102
 9110SOL    HW128229   2.199   4.319   4.026
 9110SOL    HW228230   2.047   4.315   4.086
 9111SOL     OW28231   4.230   3.362   0.600
 9111SOL    HW128232   4.318   3.345   0.556
 9111SOL    HW228233   4.155   3.342   0.537
 9112SOL     OW28234   0.167   4.244   4.471
 9112SOL    HW128235   0.231   4.281   4.538
 9112SOL    HW228236   0.073   4.260   4.503
 9113SOL     OW28237   4.501   6.938   0.637
 9113SOL    HW128238   4.590   6.965   0.601
 9113SOL    HW228239   4.454   7.017   0.675
 9114SOL     OW28240   1.440   4.977   2.187
 9114SOL    HW128241   1.470   5.057   2.239
 9114SOL    HW228242   1.457   4.992   2.089
 9115SOL     OW28243   0.690   5.797   5.369
 9115SOL    HW128244   0.638   5.713   5.352
 9115SOL    HW228245   0.773   5.797   5.313
 9116SOL     OW28246   6.683   2.160   0.369
 9116SOL    HW128247   6.673   2.238   0.307
 9116SOL    HW228248   6.736   2.187   0.449
 9117SOL     OW28249   5.830   2.629   0.030
 9117SOL    HW128250   5.857   2.559   6.989
 9117SOL    HW228251   5.795   2.709   7.009
 9118SOL     OW28252   5.982   5.995   0.529
 9118SOL    HW128253   5.925   5.917   0.554
 9118SOL    HW228254   6.026   5.978   0.441
 9119SOL     OW28255   5.491   1.230   2.902
 9119SOL    HW128256   5.486   1.318   2.855
 9119SOL    HW228257   5.575   1.183   2.876
 9120SOL     OW28258   5.310   3.174   5.510
 9120SOL    HW128259   5.230   3.114   5.517
 9120SOL    HW228260   5.303   3.230   5.428
 9121SOL     OW28261   1.015   2.988   6.747
 9121SOL    HW128262   0.971   2.959   6.662
 9121SOL    HW228263   0.946   3.022   6.810
 9122SOL     OW28264   1.727   2.704   1.726
 9122SOL    HW128265   1.722   2.605   1.728
 9122SOL    HW228266   1.821   2.733   1.747
 9123SOL     OW28267   3.977   0.513   4.402
 9123SOL    HW128268   3.927   0.596   4.378
 9123SOL    HW228269   4.074   0.527   4.388
 9124SOL     OW28270   5.755   6.845   5.265
 9124SOL    HW128271   5.844   6.844   5.310
 9124SOL    HW228272   5.767   6.839   5.166
 9125SOL     OW28273   4.892   3.855   2.703
 9125SOL    HW128274   4.915   3.809   2.789
 9125SOL    HW228275   4.921   3.798   2.627
 9126SOL     OW28276   5.632   2.359   1.800
 9126SOL    HW128277   5.670   2.284   1.744
 9126SOL    HW228278   5.704   2.395   1.859
 9127SOL     OW28279   6.205   0.862   6.506
 9127SOL    HW128280   6.289   0.905   6.473
 9127SOL    HW228281   6.181   0.786   6.446
 9128SOL     OW28282   3.864   2.130   4.897
 9128SOL    HW128283   3.887   2.216   4.942
 9128SOL    HW228284   3.775   2.098   4.930
 9129SOL     OW28285   1.611   2.927   1.071
 9129SOL    HW128286   1.611   2.931   0.972
 9129SOL    HW228287   1.680   2.861   1.102
 9130SOL     OW28288   0.078   3.371   0.354
 9130SOL    HW128289   0.067   3.273   0.374
 9130SOL    HW228290   0.130   3.381   0.269
 9131SOL     OW28291   0.302   3.595   5.825
 9131SOL    HW128292   0.266   3.688   5.827
 9131SOL    HW228293   0.385   3.592   5.768
 9132SOL     OW28294   0.333   5.001   4.449
 9132SOL    HW128295   0.432   5.005   4.437
 9132SOL    HW228296   0.302   4.907   4.437
 9133SOL     OW28297   3.155   5.579   1.396
 9133SOL    HW128298   3.139   5.481   1.411
 9133SOL    HW228299   3.175   5.623   1.483
 9134SOL     OW28300   3.184   6.207   0.633
 9134SOL    HW128301   3.281   6.218   0.656
 9134SOL    HW228302   3.140   6.297   0.632
 9135SOL     OW28303   6.672   6.074   2.373
 9135SOL    HW128304   6.700   6.119   2.288
 9135SOL    HW228305   6.620   6.139   2.429
 9136SOL     OW28306   4.938   5.062   5.600
 9136SOL    HW128307   4.951   5.052   5.501
 9136SOL    HW228308   4.940   5.159   5.624
 9137SOL     OW28309   4.821   1.893   1.221
 9137SOL    HW128310   4.762   1.965   1.184
 9137SOL    HW228311   4.801   1.880   1.318
 9138SOL     OW28312   6.284   5.390   5.668
 9138SOL    HW128313   6.352   5.462   5.684
 9138SOL    HW228314   6.276   5.334   5.751
 9139SOL     OW28315   2.186   1.405   4.994
 9139SOL    HW128316   2.278   1.386   4.959
 9139SOL    HW228317   2.131   1.322   4.988
 9140SOL     OW28318   6.108   3.210   2.605
 9140SOL    HW128319   6.160   3.179   2.684
 9140SOL    HW228320   6.085   3.307   2.615
 9141SOL     OW28321   5.703   0.212   6.733
 9141SOL    HW128322   5.648   0.133   6.759
 9141SOL    HW228323   5.793   0.181   6.701
 9142SOL     OW28324   0.759   2.192   0.331
 9142SOL    HW128325   0.805   2.219   0.416
 9142SOL    HW228326   0.827   2.177   0.259
 9143SOL     OW28327   5.148   3.574   1.168
 9143SOL    HW128328   5.111   3.661   1.137
 9143SOL    HW228329   5.194   3.528   1.091
 9144SOL     OW28330   2.462   5.458   5.275
 9144SOL    HW128331   2.395   5.397   5.232
 9144SOL    HW228332   2.434   5.477   5.369
 9145SOL     OW28333   6.613   5.505   6.866
 9145SOL    HW128334   6.700   5.554   6.873
 9145SOL    HW228335   6.619   5.434   6.796
 9146SOL     OW28336   5.487   2.408   2.530
 9146SOL    HW128337   5.573   2.390   2.578
 9146SOL    HW228338   5.466   2.506   2.534
 9147SOL     OW28339   5.654   0.332   4.050
 9147SOL    HW128340   5.643   0.373   3.959
 9147SOL    HW228341   5.676   0.403   4.117
 9148SOL     OW28342   4.839   6.645   0.636
 9148SOL    HW128343   4.740   6.632   0.648
 9148SOL    HW228344   4.888   6.567   0.673
 9149SOL     OW28345   5.134   3.101   3.747
 9149SOL    HW128346   5.062   3.162   3.778
 9149SOL    HW228347   5.177   3.057   3.825
 9150SOL     OW28348   3.179   5.244   3.106
 9150SOL    HW128349   3.151   5.328   3.154
 9150SOL    HW228350   3.229   5.185   3.169
 9151SOL     OW28351   1.660   4.334   3.949
 9151SOL    HW128352   1.660   4.418   4.003
 9151SOL    HW228353   1.629   4.354   3.856
 9152SOL     OW28354   2.427   4.861   4.874
 9152SOL    HW128355   2.434   4.902   4.964
 9152SOL    HW228356   2.356   4.791   4.874
 9153SOL     OW28357   1.160   2.941   1.038
 9153SOL    HW128358   1.232   3.008   1.057
 9153SOL    HW228359   1.082   2.988   0.996
 9154SOL     OW28360   4.410   5.284   6.514
 9154SOL    HW128361   4.327   5.250   6.470
 9154SOL    HW228362   4.475   5.209   6.525
 9155SOL     OW28363   0.838   3.306   1.426
 9155SOL    HW128364   0.813   3.216   1.391
 9155SOL    HW228365   0.856   3.368   1.350
 9156SOL     OW28366   1.812   2.587   0.196
 9156SOL    HW128367   1.858   2.628   0.274
 9156SOL    HW228368   1.879   2.559   0.127
 9157SOL     OW28369   6.024   4.563   6.617
 9157SOL    HW128370   5.954   4.512   6.667
 9157SOL    HW228371   6.067   4.503   6.550
 9158SOL     OW28372   5.764   3.542   4.342
 9158SOL    HW128373   5.705   3.618   4.313
 9158SOL    HW228374   5.799   3.494   4.262
 9159SOL     OW28375   1.436   6.983   2.950
 9159SOL    HW128376   1.441   0.057   2.960
 9159SOL    HW228377   1.367   6.959   2.882
 9160SOL     OW28378   6.267   0.102   4.807
 9160SOL    HW128379   6.280   0.150   4.720
 9160SOL    HW228380   6.357   0.082   4.847
 9161SOL     OW28381   4.795   4.405   4.971
 9161SOL    HW128382   4.812   4.310   4.944
 9161SOL    HW228383   4.870   4.438   5.028
 9162SOL     OW28384   4.624   0.864   4.034
 9162SOL    HW128385   4.692   0.919   4.082
 9162SOL    HW228386   4.649   0.855   3.938
 9163SOL     OW28387   2.125   3.420   4.603
 9163SOL    HW128388   2.214   3.407   4.558
 9163SOL    HW228389   2.133   3.395   4.699
 9164SOL     OW28390   2.524   0.853   6.813
 9164SOL    HW128391   2.550   0.900   6.728
 9164SOL    HW228392   2.579   0.770   6.822
 9165SOL     OW28393   5.845   2.223   5.024
 9165SOL    HW128394   5.931   2.266   5.051
 9165SOL    HW228395   5.861   2.162   4.947
 9166SOL     OW28396   4.331   6.158   0.775
 9166SOL    HW128397   4.319   6.232   0.841
 9166SOL    HW228398   4.263   6.087   0.792
 9167SOL     OW28399   2.282   2.651   6.535
 9167SOL    HW128400   2.376   2.677   6.513
 9167SOL    HW228401   2.281   2.599   6.620
 9168SOL     OW28402   0.727   0.474   6.622
 9168SOL    HW128403   0.706   0.380   6.649
 9168SOL    HW228404   0.750   0.527   6.703
 9169SOL     OW28405   5.957   1.242   5.262
 9169SOL    HW128406   6.041   1.188   5.260
 9169SOL    HW228407   5.897   1.212   5.188
 9170SOL     OW28408   1.261   5.113   0.157
 9170SOL    HW128409   1.305   5.174   0.092
 9170SOL    HW228410   1.329   5.049   0.194
 9171SOL     OW28411   3.848   5.117   0.663
 9171SOL    HW128412   3.749   5.110   0.673
 9171SOL    HW228413   3.870   5.191   0.599
 9172SOL     OW28414   3.564   0.292   4.298
 9172SOL    HW128415   3.564   0.252   4.390
 9172SOL    HW228416   3.617   0.377   4.299
 9173SOL     OW28417   6.450   3.689   5.061
 9173SOL    HW128418   6.361   3.692   5.014
 9173SOL    HW228419   6.476   3.594   5.077
 9174SOL     OW28420   6.068   3.987   1.597
 9174SOL    HW128421   5.986   4.025   1.639
 9174SOL    HW228422   6.143   4.054   1.605
 9175SOL     OW28423   0.120   6.793   4.227
 9175SOL    HW128424   0.046   6.853   4.259
 9175SOL    HW228425   0.203   6.846   4.214
 9176SOL     OW28426   2.991   1.224   5.051
 9176SOL    HW128427   2.891   1.217   5.056
 9176SOL    HW228428   3.030   1.132   5.043
 9177SOL     OW28429   0.544   5.116   4.907
 9177SOL    HW128430   0.472   5.086   4.970
 9177SOL    HW228431   0.518   5.204   4.866
 9178SOL     OW28432   2.065   5.573   0.537
 9178SOL    HW128433   2.143   5.632   0.515
 9178SOL    HW228434   2.021   5.542   0.452
 9179SOL     OW28435   3.112   5.384   4.455
 9179SOL    HW128436   3.079   5.302   4.502
 9179SOL    HW228437   3.143   5.451   4.523
 9180SOL     OW28438   5.888   2.421   2.986
 9180SOL    HW128439   5.896   2.520   2.996
 9180SOL    HW228440   5.973   2.384   2.951
 9181SOL     OW28441   4.252   2.277   4.638
 9181SOL    HW128442   4.307   2.194   4.644
 9181SOL    HW228443   4.280   2.329   4.557
 9182SOL     OW28444   2.217   6.904   2.062
 9182SOL    HW128445   2.138   6.878   2.118
 9182SOL    HW228446   2.220   6.848   1.980
 9183SOL     OW28447   5.053   5.834   0.610
 9183SOL    HW128448   5.059   5.854   0.512
 9183SOL    HW228449   4.987   5.761   0.625
 9184SOL     OW28450   5.147   1.563   0.827
 9184SOL    HW128451   5.080   1.531   0.894
 9184SOL    HW228452   5.101   1.614   0.755
 9185SOL     OW28453   4.404   6.677   4.596
 9185SOL    HW128454   4.358   6.602   4.548
 9185SOL    HW228455   4.492   6.696   4.552
 9186SOL     OW28456   5.870   6.979   4.347
 9186SOL    HW128457   5.797   7.013   4.288
 9186SOL    HW228458   5.879   6.880   4.336
 9187SOL     OW28459   2.599   1.822   1.034
 9187SOL    HW128460   2.631   1.916   1.044
 9187SOL    HW228461   2.599   1.777   1.124
 9188SOL     OW28462   1.596   6.468   1.946
 9188SOL    HW128463   1.538   6.514   1.878
 9188SOL    HW228464   1.689   6.462   1.912
 9189SOL     OW28465   4.779   6.391   1.491
 9189SOL    HW128466   4.828   6.309   1.521
 9189SOL    HW228467   4.709   6.366   1.425
 9190SOL     OW28468   2.381   4.382   6.692
 9190SOL    HW128469   2.312   4.453   6.677
 9190SOL    HW228470   2.448   4.385   6.617
 9191SOL     OW28471   6.480   2.194   5.352
 9191SOL    HW128472   6.569   2.166   5.390
 9191SOL    HW228473   6.434   2.114   5.312
 9192SOL     OW28474   0.466   3.641   6.616
 9192SOL    HW128475   0.379   3.624   6.569
 9192SOL    HW228476   0.460   3.609   6.710
 9193SOL     OW28477   4.729   4.322   0.079
 9193SOL    HW128478   4.770   4.318   0.170
 9193SOL    HW228479   4.784   4.269   0.015
 9194SOL     OW28480   2.721   0.145   3.566
 9194SOL    HW128481   2.804   0.118   3.517
 9194SOL    HW228482   2.678   0.223   3.519
 9195SOL     OW28483   1.553   1.674   3.926
 9195SOL    HW128484   1.497   1.746   3.886
 9195SOL    HW228485   1.572   1.604   3.856
 9196SOL     OW28486   4.785   6.625   3.077
 9196SOL    HW128487   4.765   6.716   3.041
 9196SOL    HW228488   4.857   6.582   3.022
 9197SOL     OW28489   1.741   4.835   1.997
 9197SOL    HW128490   1.676   4.874   2.062
 9197SOL    HW228491   1.695   4.818   1.909
 9198SOL     OW28492   6.390   5.066   6.582
 9198SOL    HW128493   6.301   5.050   6.540
 9198SOL    HW228494   6.460   5.072   6.510
 9199SOL     OW28495   1.093   4.349   5.706
 9199SOL    HW128496   1.004   4.392   5.689
 9199SOL    HW228497   1.147   4.407   5.766
 9200SOL     OW28498   2.653   0.049   0.394
 9200SOL    HW128499   2.666   6.977   0.413
 9200SOL    HW228500   2.603   0.091   0.470
 9201SOL     OW28501   0.763   2.675   0.903
 9201SOL    HW128502   0.758   2.694   1.001
 9201SOL    HW228503   0.844   2.620   0.883
 9202SOL     OW28504   1.042   6.936   2.295
 9202SOL    HW128505   1.104   6.858   2.302
 9202SOL    HW228506   1.083   7.016   2.339
 9203SOL     OW28507   0.897   4.328   6.747
 9203SOL    HW128508   0.891   4.268   6.827
 9203SOL    HW228509   0.805   4.354   6.718
 9204SOL     OW28510   5.023   3.010   6.110
 9204SOL    HW128511   4.958   2.949   6.065
 9204SOL    HW228512   5.053   3.080   6.045
 9205SOL     OW28513   6.154   4.787   3.138
 9205SOL    HW128514   6.088   4.854   3.104
 9205SOL    HW228515   6.107   4.717   3.192
 9206SOL     OW28516   3.810   5.360   2.212
 9206SOL    HW128517   3.764   5.322   2.292
 9206SOL    HW228518   3.744   5.410   2.156
 9207SOL     OW28519   5.006   3.986   6.095
 9207SOL    HW128520   5.071   3.912   6.109
 9207SOL    HW228521   5.053   4.074   6.103
 9208SOL     OW28522   6.314   3.978   3.819
 9208SOL    HW128523   6.235   3.925   3.848
 9208SOL    HW228524   6.349   4.031   3.896
 9209SOL     OW28525   3.443   0.401   6.807
 9209SOL    HW128526   3.516   0.468   6.824
 9209SOL    HW228527   3.417   0.403   6.711
 9210SOL     OW28528   0.043   1.343   2.737
 9210SOL    HW128529   0.004   1.256   2.707
 9210SOL    HW228530   0.114   1.372   2.672
 9211SOL     OW28531   0.341   2.337   5.836
 9211SOL    HW128532   0.418   2.338   5.772
 9211SOL    HW228533   0.334   2.426   5.881
 9212SOL     OW28534   5.067   5.028   4.335
 9212SOL    HW128535   5.059   4.948   4.276
 9212SOL    HW228536   5.120   5.099   4.288
 9213SOL     OW28537   5.115   3.530   5.754
 9213SOL    HW128538   5.194   3.584   5.726
 9213SOL    HW228539   5.043   3.538   5.686
 9214SOL     OW28540   6.543   3.574   6.912
 9214SOL    HW128541   6.479   3.649   6.896
 9214SOL    HW228542   6.509   3.516   6.986
 9215SOL     OW28543   0.878   2.317   1.424
 9215SOL    HW128544   0.870   2.414   1.449
 9215SOL    HW228545   0.787   2.280   1.405
 9216SOL     OW28546   2.778   0.574   2.240
 9216SOL    HW128547   2.745   0.657   2.284
 9216SOL    HW228548   2.793   0.592   2.143
 9217SOL     OW28549   0.663   2.017   6.875
 9217SOL    HW128550   0.663   2.034   6.777
 9217SOL    HW228551   0.757   2.025   6.910
 9218SOL     OW28552   2.118   6.560   0.499
 9218SOL    HW128553   2.034   6.544   0.447
 9218SOL    HW228554   2.197   6.555   0.437
 9219SOL     OW28555   6.998   2.605   1.666
 9219SOL    HW128556   0.049   2.568   1.615
 9219SOL    HW228557   6.964   2.536   1.730
 9220SOL     OW28558   1.767   6.544   1.426
 9220SOL    HW128559   1.708   6.591   1.492
 9220SOL    HW228560   1.834   6.609   1.390
 9221SOL     OW28561   2.893   0.712   3.205
 9221SOL    HW128562   2.958   0.699   3.131
 9221SOL    HW228563   2.936   0.688   3.292
 9222SOL     OW28564   1.985   0.198   6.103
 9222SOL    HW128565   1.940   0.114   6.134
 9222SOL    HW228566   1.953   0.275   6.157
 9223SOL     OW28567   0.687   1.263   4.047
 9223SOL    HW128568   0.757   1.216   4.101
 9223SOL    HW228569   0.699   1.362   4.056
 9224SOL     OW28570   1.604   4.770   5.029
 9224SOL    HW128571   1.648   4.763   5.118
 9224SOL    HW228572   1.505   4.761   5.039
 9225SOL     OW28573   3.225   6.791   5.867
 9225SOL    HW128574   3.250   6.727   5.941
 9225SOL    HW228575   3.270   6.762   5.782
 9226SOL     OW28576   6.174   6.845   1.166
 9226SOL    HW128577   6.115   6.795   1.229
 9226SOL    HW228578   6.118   6.898   1.103
 9227SOL     OW28579   0.984   5.236   0.718
 9227SOL    HW128580   0.994   5.332   0.691
 9227SOL    HW228581   1.035   5.178   0.655
 9228SOL     OW28582   1.533   1.317   5.624
 9228SOL    HW128583   1.503   1.256   5.698
 9228SOL    HW228584   1.471   1.395   5.618
 9229SOL     OW28585   0.446   5.931   4.720
 9229SOL    HW128586   0.468   5.940   4.818
 9229SOL    HW228587   0.381   5.856   4.707
 9230SOL     OW28588   4.975   1.858   3.430
 9230SOL    HW128589   4.914   1.934   3.409
 9230SOL    HW228590   4.929   1.771   3.411
 9231SOL     OW28591   0.749   4.310   4.487
 9231SOL    HW128592   0.731   4.237   4.421
 9231SOL    HW228593   0.666   4.365   4.500
 9232SOL     OW28594   3.609   5.326   0.415
 9232SOL    HW128595   3.672   5.247   0.416
 9232SOL    HW228596   3.517   5.295   0.436
 9233SOL     OW28597   5.355   5.166   2.109
 9233SOL    HW128598   5.433   5.142   2.051
 9233SOL    HW228599   5.278   5.195   2.051
 9234SOL     OW28600   3.668   5.585   5.769
 9234SOL    HW128601   3.714   5.563   5.855
 9234SOL    HW228602   3.736   5.596   5.697
 9235SOL     OW28603   1.873   3.191   2.953
 9235SOL    HW128604   1.829   3.154   3.035
 9235SOL    HW228605   1.957   3.139   2.934
 9236SOL     OW28606   2.968   3.924   5.442
 9236SOL    HW128607   2.915   3.992   5.494
 9236SOL    HW228608   2.994   3.963   5.354
 9237SOL     OW28609   1.491   5.390   4.594
 9237SOL    HW128610   1.581   5.430   4.613
 9237SOL    HW228611   1.494   5.291   4.610
 9238SOL     OW28612   3.975   1.693   6.750
 9238SOL    HW128613   3.903   1.761   6.765
 9238SOL    HW228614   3.940   1.621   6.690
 9239SOL     OW28615   6.816   4.615   0.764
 9239SOL    HW128616   6.907   4.653   0.781
 9239SOL    HW228617   6.801   4.605   0.666
 9240SOL     OW28618   4.787   1.527   1.219
 9240SOL    HW128619   4.746   1.436   1.222
 9240SOL    HW228620   4.733   1.590   1.276
 9241SOL     OW28621   0.615   5.003   5.584
 9241SOL    HW128622   0.588   4.990   5.488
 9241SOL    HW228623   0.592   4.922   5.637
 9242SOL     OW28624   7.008   5.393   0.600
 9242SOL    HW128625   6.988   5.310   0.548
 9242SOL    HW228626   0.014   5.368   0.691
 9243SOL     OW28627   6.145   6.715   1.991
 9243SOL    HW128628   6.199   6.633   2.013
 9243SOL    HW228629   6.070   6.689   1.931
 9244SOL     OW28630   4.568   5.076   6.615
 9244SOL    HW128631   4.608   4.989   6.585
 9244SOL    HW228632   4.535   5.067   6.709
 9245SOL     OW28633   1.537   4.864   3.455
 9245SOL    HW128634   1.442   4.873   3.483
 9245SOL    HW228635   1.563   4.767   3.459
 9246SOL     OW28636   0.463   4.536   2.634
 9246SOL    HW128637   0.539   4.500   2.580
 9246SOL    HW228638   0.417   4.461   2.682
 9247SOL     OW28639   1.116   0.156   2.669
 9247SOL    HW128640   1.020   0.167   2.698
 9247SOL    HW228641   1.121   0.156   2.569
 9248SOL     OW28642   1.612   2.384   5.389
 9248SOL    HW128643   1.556   2.466   5.390
 9248SOL    HW228644   1.582   2.324   5.315
 9249SOL     OW28645   4.835   3.625   6.909
 9249SOL    HW128646   4.834   3.605   7.007
 9249SOL    HW228647   4.912   3.577   6.866
 9250SOL     OW28648   5.427   3.208   5.103
 9250SOL    HW128649   5.523   3.181   5.107
 9250SOL    HW228650   5.421   3.308   5.093
 9251SOL     OW28651   4.105   2.211   3.279
 9251SOL    HW128652   4.170   2.164   3.219
 9251SOL    HW228653   4.154   2.253   3.356
 9252SOL     OW28654   5.897   0.561   4.412
 9252SOL    HW128655   5.809   0.537   4.453
 9252SOL    HW228656   5.971   0.540   4.477
 9253SOL     OW28657   5.868   6.502   5.652
 9253SOL    HW128658   5.815   6.419   5.637
 9253SOL    HW228659   5.881   6.550   5.565
 9254SOL     OW28660   6.426   4.409   2.989
 9254SOL    HW128661   6.369   4.332   3.017
 9254SOL    HW228662   6.387   4.494   3.024
 9255SOL     OW28663   4.716   4.052   0.262
 9255SOL    HW128664   4.705   4.105   0.346
 9255SOL    HW228665   4.742   3.958   0.285
 9256SOL     OW28666   4.110   6.794   2.540
 9256SOL    HW128667   4.031   6.854   2.526
 9256SOL    HW228668   4.101   6.713   2.482
 9257SOL     OW28669   0.762   3.995   3.188
 9257SOL    HW128670   0.680   4.047   3.212
 9257SOL    HW228671   0.823   3.989   3.267
 9258SOL     OW28672   3.158   3.473   3.543
 9258SOL    HW128673   3.222   3.479   3.619
 9258SOL    HW228674   3.209   3.464   3.457
 9259SOL     OW28675   1.351   2.302   0.556
 9259SOL    HW128676   1.387   2.268   0.469
 9259SOL    HW228677   1.419   2.363   0.598
 9260SOL     OW28678   5.273   1.656   5.652
 9260SOL    HW128679   5.238   1.627   5.562
 9260SOL    HW228680   5.370   1.679   5.644
 9261SOL     OW28681   4.509   0.462   6.719
 9261SOL    HW128682   4.518   0.546   6.665
 9261SOL    HW228683   4.597   0.413   6.719
 9262SOL     OW28684   6.642   3.133   5.277
 9262SOL    HW128685   6.547   3.108   5.297
 9262SOL    HW228686   6.669   3.209   5.337
 9263SOL     OW28687   5.592   5.139   1.987
 9263SOL    HW128688   5.659   5.141   2.061
 9263SOL    HW228689   5.637   5.163   1.901
 9264SOL     OW28690   5.559   4.010   0.319
 9264SOL    HW128691   5.657   4.024   0.331
 9264SOL    HW228692   5.542   3.958   0.236
 9265SOL     OW28693   3.206   1.657   6.593
 9265SOL    HW128694   3.192   1.685   6.498
 9265SOL    HW228695   3.164   1.567   6.608
 9266SOL     OW28696   1.623   6.279   2.229
 9266SOL    HW128697   1.637   6.344   2.154
 9266SOL    HW228698   1.657   6.319   2.314
 9267SOL     OW28699   0.616   3.782   5.963
 9267SOL    HW128700   0.699   3.836   5.951
 9267SOL    HW228701   0.621   3.699   5.907
 9268SOL     OW28702   1.643   4.939   1.326
 9268SOL    HW128703   1.696   4.984   1.255
 9268SOL    HW228704   1.545   4.949   1.305
 9269SOL     OW28705   3.276   2.121   5.727
 9269SOL    HW128706   3.285   2.070   5.641
 9269SOL    HW228707   3.189   2.170   5.728
 9270SOL     OW28708   4.845   0.060   5.824
 9270SOL    HW128709   4.794   0.083   5.907
 9270SOL    HW228710   4.781   0.025   5.755
 9271SOL     OW28711   1.892   5.923   6.388
 9271SOL    HW128712   1.829   5.866   6.441
 9271SOL    HW228713   1.893   5.891   6.293
 9272SOL     OW28714   1.734   5.758   5.765
 9272SOL    HW128715   1.670   5.685   5.740
 9272SOL    HW228716   1.828   5.724   5.761
 9273SOL     OW28717   5.131   5.722   4.168
 9273SOL    HW128718   5.069   5.747   4.242
 9273SOL    HW228719   5.078   5.696   4.087
 9274SOL     OW28720   6.727   2.449   0.379
 9274SOL    HW128721   6.721   2.434   0.478
 9274SOL    HW228722   6.812   2.495   0.357
 9275SOL     OW28723   0.058   2.165   0.313
 9275SOL    HW128724   0.039   2.072   0.282
 9275SOL    HW228725   0.156   2.175   0.331
 9276SOL     OW28726   2.131   4.663   3.091
 9276SOL    HW128727   2.074   4.595   3.137
 9276SOL    HW228728   2.179   4.621   3.014
 9277SOL     OW28729   5.685   3.010   0.426
 9277SOL    HW128730   5.707   2.927   0.477
 9277SOL    HW228731   5.622   2.988   0.352
 9278SOL     OW28732   1.339   0.566   4.803
 9278SOL    HW128733   1.291   0.637   4.855
 9278SOL    HW228734   1.326   0.581   4.705
 9279SOL     OW28735   4.745   0.642   2.026
 9279SOL    HW128736   4.735   0.625   2.124
 9279SOL    HW228737   4.809   0.718   2.012
 9280SOL     OW28738   1.730   1.188   2.765
 9280SOL    HW128739   1.671   1.131   2.821
 9280SOL    HW228740   1.685   1.209   2.678
 9281SOL     OW28741   3.152   4.402   0.945
 9281SOL    HW128742   3.127   4.483   0.999
 9281SOL    HW228743   3.069   4.357   0.913
 9282SOL     OW28744   5.014   1.275   4.991
 9282SOL    HW128745   5.065   1.190   4.974
 9282SOL    HW228746   5.001   1.288   5.089
 9283SOL     OW28747   5.621   0.475   3.808
 9283SOL    HW128748   5.695   0.533   3.774
 9283SOL    HW228749   5.560   0.451   3.733
 9284SOL     OW28750   3.181   4.833   5.665
 9284SOL    HW128751   3.205   4.851   5.761
 9284SOL    HW228752   3.255   4.781   5.623
 9285SOL     OW28753   5.288   3.049   1.123
 9285SOL    HW128754   5.378   3.017   1.150
 9285SOL    HW228755   5.288   3.071   1.026
 9286SOL     OW28756   5.344   6.494   6.186
 9286SOL    HW128757   5.370   6.578   6.139
 9286SOL    HW228758   5.245   6.481   6.179
 9287SOL     OW28759   3.397   5.539   0.609
 9287SOL    HW128760   3.491   5.556   0.637
 9287SOL    HW228761   3.389   5.547   0.510
 9288SOL     OW28762   4.040   1.383   4.211
 9288SOL    HW128763   4.006   1.446   4.281
 9288SOL    HW228764   4.140   1.387   4.208
 9289SOL     OW28765   3.420   2.012   2.749
 9289SOL    HW128766   3.448   2.067   2.828
 9289SOL    HW228767   3.454   1.919   2.760
 9290SOL     OW28768   4.882   1.861   3.778
 9290SOL    HW128769   4.920   1.899   3.863
 9290SOL    HW228770   4.948   1.874   3.704
 9291SOL     OW28771   2.576   6.969   4.739
 9291SOL    HW128772   2.515   0.006   4.690
 9291SOL    HW228773   2.592   6.888   4.683
 9292SOL     OW28774   0.559   3.199   6.793
 9292SOL    HW128775   0.464   3.229   6.799
 9292SOL    HW228776   0.590   3.207   6.698
 9293SOL     OW28777   5.677   3.916   6.987
 9293SOL    HW128778   5.628   3.830   7.000
 9293SOL    HW228779   5.614   3.986   6.953
 9294SOL     OW28780   3.338   6.833   5.075
 9294SOL    HW128781   3.339   6.824   4.976
 9294SOL    HW228782   3.329   6.930   5.100
 9295SOL     OW28783   4.897   2.613   4.414
 9295SOL    HW128784   4.822   2.547   4.416
 9295SOL    HW228785   4.935   2.623   4.506
 9296SOL     OW28786   0.658   6.679   6.185
 9296SOL    HW128787   0.580   6.632   6.144
 9296SOL    HW228788   0.713   6.722   6.113
 9297SOL     OW28789   6.183   1.050   0.556
 9297SOL    HW128790   6.266   1.042   0.610
 9297SOL    HW228791   6.204   1.093   0.468
 9298SOL     OW28792   1.685   0.366   4.536
 9298SOL    HW128793   1.615   0.416   4.484
 9298SOL    HW228794   1.766   0.352   4.479
 9299SOL     OW28795   0.810   2.794   4.431
 9299SOL    HW128796   0.732   2.781   4.370
 9299SOL    HW228797   0.895   2.790   4.377
 9300SOL     OW28798   0.315   4.457   5.494
 9300SOL    HW128799   0.335   4.484   5.589
 9300SOL    HW228800   0.251   4.523   5.454
 9301SOL     OW28801   5.001   4.174   3.524
 9301SOL    HW128802   5.037   4.255   3.477
 9301SOL    HW228803   5.070   4.138   3.586
 9302SOL     OW28804   2.030   2.971   4.368
 9302SOL    HW128805   2.045   2.925   4.280
 9302SOL    HW228806   2.064   3.065   4.363
 9303SOL     OW28807   3.925   5.950   0.074
 9303SOL    HW128808   3.940   5.942   0.173
 9303SOL    HW228809   3.912   6.046   0.049
 9304SOL     OW28810   4.813   4.149   1.574
 9304SOL    HW128811   4.799   4.124   1.670
 9304SOL    HW228812   4.909   4.136   1.550
 9305SOL     OW28813   3.457   1.261   2.098
 9305SOL    HW128814   3.438   1.297   2.189
 9305SOL    HW228815   3.375   1.273   2.041
 9306SOL     OW28816   0.368   4.304   4.687
 9306SOL    HW128817   0.438   4.344   4.628
 9306SOL    HW228818   0.411   4.241   4.751
 9307SOL     OW28819   1.515   3.463   0.994
 9307SOL    HW128820   1.611   3.450   1.018
 9307SOL    HW228821   1.459   3.458   1.077
 9308SOL     OW28822   1.060   4.222   0.814
 9308SOL    HW128823   1.106   4.235   0.902
 9308SOL    HW228824   1.126   4.231   0.740
 9309SOL     OW28825   3.406   4.708   5.523
 9309SOL    HW128826   3.458   4.793   5.531
 9309SOL    HW228827   3.459   4.633   5.563
 9310SOL     OW28828   4.230   5.233   5.950
 9310SOL    HW128829   4.323   5.198   5.959
 9310SOL    HW228830   4.225   5.324   5.991
 9311SOL     OW28831   4.779   5.328   2.033
 9311SOL    HW128832   4.828   5.347   2.118
 9311SOL    HW228833   4.785   5.231   2.011
 9312SOL     OW28834   1.371   3.431   1.204
 9312SOL    HW128835   1.303   3.502   1.186
 9312SOL    HW228836   1.404   3.439   1.298
 9313SOL     OW28837   6.649   0.590   1.002
 9313SOL    HW128838   6.551   0.571   1.005
 9313SOL    HW228839   6.665   0.686   1.026
 9314SOL     OW28840   4.580   5.959   6.204
 9314SOL    HW128841   4.506   6.014   6.241
 9314SOL    HW228842   4.553   5.921   6.116
 9315SOL     OW28843   6.613   0.854   5.200
 9315SOL    HW128844   6.558   0.925   5.156
 9315SOL    HW228845   6.553   0.784   5.237
 9316SOL     OW28846   4.452   6.117   5.436
 9316SOL    HW128847   4.448   6.021   5.462
 9316SOL    HW228848   4.510   6.127   5.355
 9317SOL     OW28849   6.592   4.950   3.403
 9317SOL    HW128850   6.552   5.012   3.470
 9317SOL    HW228851   6.529   4.937   3.327
 9318SOL     OW28852   6.076   0.672   5.714
 9318SOL    HW128853   6.062   0.575   5.697
 9318SOL    HW228854   6.021   0.726   5.650
 9319SOL     OW28855   1.052   2.669   0.059
 9319SOL    HW128856   1.036   2.571   0.050
 9319SOL    HW228857   1.036   2.697   0.154
 9320SOL     OW28858   3.885   1.238   6.039
 9320SOL    HW128859   3.871   1.193   5.951
 9320SOL    HW228860   3.937   1.322   6.027
 9321SOL     OW28861   6.199   0.366   3.304
 9321SOL    HW128862   6.191   0.384   3.402
 9321SOL    HW228863   6.146   0.285   3.280
 9322SOL     OW28864   1.151   4.851   6.326
 9322SOL    HW128865   1.196   4.932   6.363
 9322SOL    HW228866   1.052   4.864   6.329
 9323SOL     OW28867   1.443   0.304   5.250
 9323SOL    HW128868   1.396   0.216   5.242
 9323SOL    HW228869   1.430   0.340   5.343
 9324SOL     OW28870   1.633   4.930   0.663
 9324SOL    HW128871   1.641   5.020   0.705
 9324SOL    HW228872   1.683   4.863   0.717
 9325SOL     OW28873   5.146   0.833   6.590
 9325SOL    HW128874   5.239   0.806   6.562
 9325SOL    HW228875   5.102   0.755   6.635
 9326SOL     OW28876   2.289   6.667   0.972
 9326SOL    HW128877   2.220   6.671   0.900
 9326SOL    HW228878   2.245   6.677   1.061
 9327SOL     OW28879   4.975   6.991   2.678
 9327SOL    HW128880   5.052   0.001   2.731
 9327SOL    HW228881   4.971   6.892   2.688
 9328SOL     OW28882   3.247   0.758   5.468
 9328SOL    HW128883   3.243   0.756   5.368
 9328SOL    HW228884   3.340   0.781   5.497
 9329SOL     OW28885   6.720   4.279   2.380
 9329SOL    HW128886   6.793   4.240   2.436
 9329SOL    HW228887   6.749   4.367   2.344
 9330SOL     OW28888   6.927   6.251   6.606
 9330SOL    HW128889   6.982   6.177   6.567
 9330SOL    HW228890   6.958   6.338   6.569
 9331SOL     OW28891   1.635   1.373   6.531
 9331SOL    HW128892   1.621   1.313   6.609
 9331SOL    HW228893   1.546   1.407   6.499
 9332SOL     OW28894   4.040   3.925   1.784
 9332SOL    HW128895   4.031   4.021   1.757
 9332SOL    HW228896   4.016   3.866   1.708
 9333SOL     OW28897   4.476   3.477   1.223
 9333SOL    HW128898   4.405   3.536   1.183
 9333SOL    HW228899   4.482   3.493   1.321
 9334SOL     OW28900   4.851   5.324   3.898
 9334SOL    HW128901   4.807   5.236   3.881
 9334SOL    HW228902   4.931   5.311   3.957
 9335SOL     OW28903   1.026   1.216   6.047
 9335SOL    HW128904   0.987   1.280   5.980
 9335SOL    HW228905   1.093   1.264   6.103
 9336SOL     OW28906   2.878   5.212   5.451
 9336SOL    HW128907   2.792   5.207   5.400
 9336SOL    HW228908   2.941   5.142   5.416
 9337SOL     OW28909   5.514   1.905   3.909
 9337SOL    HW128910   5.508   1.819   3.859
 9337SOL    HW228911   5.558   1.889   3.998
 9338SOL     OW28912   3.977   0.329   2.059
 9338SOL    HW128913   4.076   0.338   2.058
 9338SOL    HW228914   3.942   0.336   1.965
 9339SOL     OW28915   5.797   0.181   1.531
 9339SOL    HW128916   5.697   0.185   1.520
 9339SOL    HW228917   5.829   0.265   1.574
 9340SOL     OW28918   5.497   3.809   3.819
 9340SOL    HW128919   5.499   3.731   3.881
 9340SOL    HW228920   5.559   3.880   3.852
 9341SOL     OW28921   0.259   6.122   0.218
 9341SOL    HW128922   0.346   6.085   0.250
 9341SOL    HW228923   0.187   6.100   0.283
 9342SOL     OW28924   1.646   6.902   3.341
 9342SOL    HW128925   1.661   6.809   3.308
 9342SOL    HW228926   1.562   6.905   3.395
 9343SOL     OW28927   5.954   4.205   2.656
 9343SOL    HW128928   5.942   4.107   2.673
 9343SOL    HW228929   5.912   4.257   2.731
 9344SOL     OW28930   4.699   6.451   1.767
 9344SOL    HW128931   4.696   6.418   1.673
 9344SOL    HW228932   4.699   6.551   1.768
 9345SOL     OW28933   6.591   4.536   2.819
 9345SOL    HW128934   6.530   4.594   2.764
 9345SOL    HW228935   6.537   4.487   2.887
 9346SOL     OW28936   6.113   0.851   1.258
 9346SOL    HW128937   6.081   0.946   1.252
 9346SOL    HW228938   6.127   0.827   1.354
 9347SOL     OW28939   1.046   4.324   0.364
 9347SOL    HW128940   0.950   4.312   0.388
 9347SOL    HW228941   1.080   4.239   0.323
 9348SOL     OW28942   4.156   6.014   1.838
 9348SOL    HW128943   4.112   6.001   1.749
 9348SOL    HW228944   4.205   5.930   1.863
 9349SOL     OW28945   0.986   6.324   2.442
 9349SOL    HW128946   0.898   6.364   2.416
 9349SOL    HW228947   0.998   6.235   2.397
 9350SOL     OW28948   0.097   3.305   5.281
 9350SOL    HW128949   0.053   3.329   5.367
 9350SOL    HW228950   0.112   3.206   5.277
 9351SOL     OW28951   2.672   0.277   6.763
 9351SOL    HW128952   2.632   0.197   6.719
 9351SOL    HW228953   2.761   0.297   6.720
 9352SOL     OW28954   3.451   1.956   6.857
 9352SOL    HW128955   3.528   2.015   6.883
 9352SOL    HW228956   3.407   1.993   6.776
 9353SOL     OW28957   0.274   4.979   0.718
 9353SOL    HW128958   0.306   5.041   0.790
 9353SOL    HW228959   0.353   4.944   0.667
 9354SOL     OW28960   6.343   1.922   6.389
 9354SOL    HW128961   6.281   1.859   6.344
 9354SOL    HW228962   6.432   1.919   6.343
 9355SOL     OW28963   0.540   2.505   4.833
 9355SOL    HW128964   0.541   2.501   4.933
 9355SOL    HW228965   0.619   2.558   4.801
 9356SOL     OW28966   4.573   0.063   1.603
 9356SOL    HW128967   4.513   0.112   1.539
 9356SOL    HW228968   4.654   0.032   1.555
 9357SOL     OW28969   0.925   3.617   6.518
 9357SOL    HW128970   0.845   3.640   6.462
 9357SOL    HW228971   0.987   3.558   6.466
 9358SOL     OW28972   0.145   3.878   2.290
 9358SOL    HW128973   0.217   3.854   2.355
 9358SOL    HW228974   0.163   3.835   2.202
 9359SOL     OW28975   1.469   4.922   0.218
 9359SOL    HW128976   1.457   4.841   0.161
 9359SOL    HW228977   1.477   4.894   0.314
 9360SOL     OW28978   2.109   5.336   6.152
 9360SOL    HW128979   2.091   5.284   6.069
 9360SOL    HW228980   2.025   5.343   6.206
 9361SOL     OW28981   1.891   5.363   3.289
 9361SOL    HW128982   1.800   5.333   3.260
 9361SOL    HW228983   1.882   5.442   3.349
 9362SOL     OW28984   0.991   0.880   2.617
 9362SOL    HW128985   0.911   0.887   2.556
 9362SOL    HW228986   1.071   0.855   2.563
 9363SOL     OW28987   3.743   5.262   1.825
 9363SOL    HW128988   3.767   5.184   1.883
 9363SOL    HW228989   3.644   5.272   1.822
 9364SOL     OW28990   2.586   2.196   0.153
 9364SOL    HW128991   2.571   2.101   0.183
 9364SOL    HW228992   2.591   2.199   0.054
 9365SOL     OW28993   3.109   1.712   3.530
 9365SOL    HW128994   3.030   1.708   3.468
 9365SOL    HW228995   3.079   1.689   3.623
 9366SOL     OW28996   3.209   5.044   0.753
 9366SOL    HW128997   3.212   5.116   0.683
 9366SOL    HW228998   3.278   5.062   0.823
 9367SOL     OW28999   6.613   0.398   1.507
 9367SOL    HW129000   6.676   0.340   1.456
 9367SOL    HW229001   6.571   0.465   1.445
 9368SOL     OW29002   3.881   6.401   2.156
 9368SOL    HW129003   3.855   6.324   2.097
 9368SOL    HW229004   3.875   6.486   2.105
 9369SOL     OW29005   0.047   5.998   4.974
 9369SOL    HW129006   0.047   5.915   5.029
 9369SOL    HW229007   0.045   5.974   4.877
 9370SOL     OW29008   5.362   0.071   3.563
 9370SOL    HW129009   5.460   0.085   3.549
 9370SOL    HW229010   5.334   7.012   3.520
 9371SOL     OW29011   2.658   5.848   1.213
 9371SOL    HW129012   2.563   5.841   1.245
 9371SOL    HW229013   2.659   5.854   1.113
 9372SOL     OW29014   5.266   0.163   1.540
 9372SOL    HW129015   5.311   0.074   1.547
 9372SOL    HW229016   5.198   0.172   1.612
 9373SOL     OW29017   5.521   1.858   0.705
 9373SOL    HW129018   5.588   1.929   0.726
 9373SOL    HW229019   5.455   1.851   0.779
 9374SOL     OW29020   6.762   3.386   5.622
 9374SOL    HW129021   6.683   3.437   5.588
 9374SOL    HW229022   6.784   3.418   5.714
 9375SOL     OW29023   6.808   1.888   0.805
 9375SOL    HW129024   6.716   1.859   0.830
 9375SOL    HW229025   6.858   1.812   0.764
 9376SOL     OW29026   2.307   3.727   1.743
 9376SOL    HW129027   2.247   3.686   1.674
 9376SOL    HW229028   2.322   3.662   1.817
 9377SOL     OW29029   2.037   5.146   3.228
 9377SOL    HW129030   1.954   5.200   3.246
 9377SOL    HW229031   2.086   5.186   3.151
 9378SOL     OW29032   3.428   1.049   3.806
 9378SOL    HW129033   3.510   1.084   3.761
 9378SOL    HW229034   3.397   0.966   3.758
 9379SOL     OW29035   5.471   0.124   5.068
 9379SOL    HW129036   5.412   0.178   5.129
 9379SOL    HW229037   5.483   0.173   4.982
 9380SOL     OW29038   3.413   5.581   5.838
 9380SOL    HW129039   3.499   5.604   5.791
 9380SOL    HW229040   3.387   5.488   5.813
 9381SOL     OW29041   5.105   2.593   5.095
 9381SOL    HW129042   5.168   2.664   5.127
 9381SOL    HW229043   5.144   2.549   5.014
 9382SOL     OW29044   3.704   1.144   3.731
 9382SOL    HW129045   3.737   1.232   3.764
 9382SOL    HW229046   3.720   1.138   3.632
 9383SOL     OW29047   4.968   4.402   4.455
 9383SOL    HW129048   4.985   4.303   4.450
 9383SOL    HW229049   5.056   4.450   4.452
 9384SOL     OW29050   3.145   6.884   1.963
 9384SOL    HW129051   3.235   6.883   1.920
 9384SOL    HW229052   3.153   6.915   2.058
 9385SOL     OW29053   4.409   1.715   4.208
 9385SOL    HW129054   4.378   1.647   4.275
 9385SOL    HW229055   4.503   1.695   4.182
 9386SOL     OW29056   3.070   5.780   5.146
 9386SOL    HW129057   3.057   5.685   5.116
 9386SOL    HW229058   3.098   5.782   5.242
 9387SOL     OW29059   3.788   2.344   0.397
 9387SOL    HW129060   3.794   2.443   0.408
 9387SOL    HW229061   3.879   2.306   0.381
 9388SOL     OW29062   1.856   6.500   3.020
 9388SOL    HW129063   1.866   6.426   3.087
 9388SOL    HW229064   1.901   6.473   2.935
 9389SOL     OW29065   3.222   6.150   2.556
 9389SOL    HW129066   3.147   6.101   2.512
 9389SOL    HW229067   3.204   6.248   2.555
 9390SOL     OW29068   5.660   5.123   5.887
 9390SOL    HW129069   5.739   5.116   5.826
 9390SOL    HW229070   5.661   5.212   5.932
 9391SOL     OW29071   0.462   0.347   4.911
 9391SOL    HW129072   0.480   0.294   4.828
 9391SOL    HW229073   0.510   0.435   4.905
 9392SOL     OW29074   4.577   4.447   4.093
 9392SOL    HW129075   4.589   4.425   4.190
 9392SOL    HW229076   4.627   4.381   4.037
 9393SOL     OW29077   2.832   0.298   6.235
 9393SOL    HW129078   2.853   0.322   6.141
 9393SOL    HW229079   2.891   0.350   6.297
 9394SOL     OW29080   5.791   0.550   1.409
 9394SOL    HW129081   5.804   0.516   1.502
 9394SOL    HW229082   5.829   0.642   1.402
 9395SOL     OW29083   2.228   1.381   0.942
 9395SOL    HW129084   2.261   1.391   1.036
 9395SOL    HW229085   2.264   1.455   0.886
 9396SOL     OW29086   2.265   5.291   5.168
 9396SOL    HW129087   2.254   5.313   5.071
 9396SOL    HW229088   2.175   5.290   5.212
 9397SOL     OW29089   2.839   6.770   5.584
 9397SOL    HW129090   2.876   6.780   5.492
 9397SOL    HW229091   2.869   6.682   5.623
 9398SOL     OW29092   5.998   1.411   5.487
 9398SOL    HW129093   5.945   1.348   5.431
 9398SOL    HW229094   6.079   1.364   5.523
 9399SOL     OW29095   0.962   2.615   4.588
 9399SOL    HW129096   1.023   2.687   4.620
 9399SOL    HW229097   0.924   2.640   4.499
 9400SOL     OW29098   4.875   0.263   0.330
 9400SOL    HW129099   4.891   0.246   0.427
 9400SOL    HW229100   4.779   0.290   0.316
 9401SOL     OW29101   0.163   2.903   1.759
 9401SOL    HW129102   0.247   2.859   1.791
 9401SOL    HW229103   0.092   2.833   1.744
 9402SOL     OW29104   1.615   5.268   3.539
 9402SOL    HW129105   1.522   5.247   3.506
 9402SOL    HW229106   1.609   5.325   3.621
 9403SOL     OW29107   0.235   1.507   2.602
 9403SOL    HW129108   0.314   1.503   2.541
 9403SOL    HW229109   0.226   1.599   2.640
 9404SOL     OW29110   0.318   2.376   1.246
 9404SOL    HW129111   0.219   2.363   1.239
 9404SOL    HW229112   0.365   2.316   1.182
 9405SOL     OW29113   0.658   4.560   4.789
 9405SOL    HW129114   0.573   4.609   4.773
 9405SOL    HW229115   0.734   4.612   4.750
 9406SOL     OW29116   1.221   3.179   6.932
 9406SOL    HW129117   1.133   3.132   6.934
 9406SOL    HW229118   1.233   3.223   6.842
 9407SOL     OW29119   2.789   5.174   4.739
 9407SOL    HW129120   2.695   5.159   4.710
 9407SOL    HW229121   2.809   5.118   4.819
 9408SOL     OW29122   0.070   2.697   5.756
 9408SOL    HW129123   0.139   2.766   5.733
 9408SOL    HW229124   0.055   2.697   5.855
 9409SOL     OW29125   6.512   5.460   2.337
 9409SOL    HW129126   6.594   5.507   2.303
 9409SOL    HW229127   6.483   5.503   2.423
 9410SOL     OW29128   5.015   1.178   1.532
 9410SOL    HW129129   5.027   1.274   1.507
 9410SOL    HW229130   4.919   1.159   1.549
 9411SOL     OW29131   3.164   3.136   3.102
 9411SOL    HW129132   3.252   3.169   3.138
 9411SOL    HW229133   3.180   3.053   3.048
 9412SOL     OW29134   0.876   0.666   1.198
 9412SOL    HW129135   0.836   0.579   1.168
 9412SOL    HW229136   0.832   0.695   1.282
 9413SOL     OW29137   4.686   4.777   4.740
 9413SOL    HW129138   4.592   4.750   4.760
 9413SOL    HW229139   4.729   4.707   4.683
 9414SOL     OW29140   2.430   2.149   4.667
 9414SOL    HW129141   2.366   2.221   4.641
 9414SOL    HW229142   2.505   2.188   4.719
 9415SOL     OW29143   2.718   0.136   1.860
 9415SOL    HW129144   2.680   0.105   1.947
 9415SOL    HW229145   2.700   0.234   1.849
 9416SOL     OW29146   0.537   0.618   5.264
 9416SOL    HW129147   0.558   0.645   5.358
 9416SOL    HW229148   0.462   0.674   5.229
 9417SOL     OW29149   3.196   6.237   1.811
 9417SOL    HW129150   3.212   6.274   1.903
 9417SOL    HW229151   3.220   6.306   1.743
 9418SOL     OW29152   2.875   1.550   2.923
 9418SOL    HW129153   2.863   1.601   3.008
 9418SOL    HW229154   2.786   1.539   2.878
 9419SOL     OW29155   2.857   2.972   6.542
 9419SOL    HW129156   2.763   3.002   6.530
 9419SOL    HW229157   2.905   3.034   6.603
 9420SOL     OW29158   5.814   4.736   0.766
 9420SOL    HW129159   5.765   4.652   0.746
 9420SOL    HW229160   5.794   4.804   0.696
 9421SOL     OW29161   3.189   5.629   4.339
 9421SOL    HW129162   3.213   5.672   4.251
 9421SOL    HW229163   3.198   5.530   4.330
 9422SOL     OW29164   2.455   6.310   4.064
 9422SOL    HW129165   2.506   6.347   3.986
 9422SOL    HW229166   2.515   6.303   4.143
 9423SOL     OW29167   4.114   6.521   2.722
 9423SOL    HW129168   4.069   6.597   2.675
 9423SOL    HW229169   4.212   6.540   2.728
 9424SOL     OW29170   5.327   1.804   4.599
 9424SOL    HW129171   5.372   1.802   4.688
 9424SOL    HW229172   5.306   1.711   4.570
 9425SOL     OW29173   6.166   4.808   1.528
 9425SOL    HW129174   6.163   4.755   1.443
 9425SOL    HW229175   6.254   4.854   1.536
 9426SOL     OW29176   1.585   1.687   6.282
 9426SOL    HW129177   1.526   1.611   6.309
 9426SOL    HW229178   1.584   1.696   6.182
 9427SOL     OW29179   2.399   6.013   3.056
 9427SOL    HW129180   2.383   5.958   2.973
 9427SOL    HW229181   2.312   6.050   3.088
 9428SOL     OW29182   6.344   6.299   0.213
 9428SOL    HW129183   6.260   6.339   0.250
 9428SOL    HW229184   6.422   6.332   0.265
 9429SOL     OW29185   1.341   2.229   4.057
 9429SOL    HW129186   1.408   2.163   4.025
 9429SOL    HW229187   1.384   2.290   4.124
 9430SOL     OW29188   0.162   2.463   4.677
 9430SOL    HW129189   0.099   2.469   4.599
 9430SOL    HW229190   0.146   2.377   4.725
 9431SOL     OW29191   6.722   4.446   0.950
 9431SOL    HW129192   6.747   4.529   0.900
 9431SOL    HW229193   6.748   4.366   0.896
 9432SOL     OW29194   6.556   1.898   4.220
 9432SOL    HW129195   6.578   1.826   4.154
 9432SOL    HW229196   6.550   1.986   4.173
 9433SOL     OW29197   4.242   5.649   2.989
 9433SOL    HW129198   4.341   5.649   2.975
 9433SOL    HW229199   4.219   5.704   3.068
 9434SOL     OW29200   5.747   5.431   3.670
 9434SOL    HW129201   5.834   5.396   3.633
 9434SOL    HW229202   5.766   5.485   3.752
 9435SOL     OW29203   0.398   2.512   2.202
 9435SOL    HW129204   0.306   2.480   2.222
 9435SOL    HW229205   0.453   2.437   2.165
 9436SOL     OW29206   1.126   1.104   2.402
 9436SOL    HW129207   1.172   1.054   2.329
 9436SOL    HW229208   1.090   1.190   2.366
 9437SOL     OW29209   0.677   5.240   3.316
 9437SOL    HW129210   0.619   5.161   3.339
 9437SOL    HW229211   0.696   5.293   3.399
 9438SOL     OW29212   1.359   0.046   1.885
 9438SOL    HW129213   1.300   7.003   1.844
 9438SOL    HW229214   1.393   0.107   1.814
 9439SOL     OW29215   0.296   3.202   1.104
 9439SOL    HW129216   0.358   3.253   1.044
 9439SOL    HW229217   0.280   3.110   1.067
 9440SOL     OW29218   2.753   5.051   3.356
 9440SOL    HW129219   2.667   5.100   3.370
 9440SOL    HW229220   2.746   4.959   3.395
 9441SOL     OW29221   6.798   5.593   5.601
 9441SOL    HW129222   6.784   5.652   5.522
 9441SOL    HW229223   6.874   5.530   5.583
 9442SOL     OW29224   4.698   3.661   1.355
 9442SOL    HW129225   4.626   3.627   1.416
 9442SOL    HW229226   4.657   3.717   1.283
 9443SOL     OW29227   2.874   5.725   1.631
 9443SOL    HW129228   2.791   5.759   1.675
 9443SOL    HW229229   2.852   5.651   1.568
 9444SOL     OW29230   1.829   3.802   0.874
 9444SOL    HW129231   1.809   3.705   0.860
 9444SOL    HW229232   1.864   3.842   0.790
 9445SOL     OW29233   6.860   2.085   3.900
 9445SOL    HW129234   6.837   2.039   3.986
 9445SOL    HW229235   6.821   2.177   3.899
 9446SOL     OW29236   6.197   4.925   4.368
 9446SOL    HW129237   6.208   4.990   4.293
 9446SOL    HW229238   6.100   4.923   4.396
 9447SOL     OW29239   4.841   5.176   2.659
 9447SOL    HW129240   4.821   5.257   2.713
 9447SOL    HW229241   4.935   5.182   2.623
 9448SOL     OW29242   6.075   6.800   5.936
 9448SOL    HW129243   6.173   6.818   5.935
 9448SOL    HW229244   6.029   6.865   5.875
 9449SOL     OW29245   5.214   6.934   6.744
 9449SOL    HW129246   5.145   6.861   6.747
 9449SOL    HW229247   5.295   6.901   6.697
 9450SOL     OW29248   1.817   5.506   4.246
 9450SOL    HW129249   1.725   5.525   4.211
 9450SOL    HW229250   1.820   5.413   4.284
 9451SOL     OW29251   3.831   5.757   6.291
 9451SOL    HW129252   3.809   5.818   6.367
 9451SOL    HW229253   3.787   5.790   6.208
 9452SOL     OW29254   0.658   4.222   0.889
 9452SOL    HW129255   0.753   4.237   0.918
 9452SOL    HW229256   0.637   4.125   0.895
 9453SOL     OW29257   2.810   5.344   3.328
 9453SOL    HW129258   2.738   5.341   3.258
 9453SOL    HW229259   2.841   5.251   3.346
 9454SOL     OW29260   4.548   3.774   1.081
 9454SOL    HW129261   4.514   3.718   1.006
 9454SOL    HW229262   4.643   3.800   1.064
 9455SOL     OW29263   2.344   2.196   2.625
 9455SOL    HW129264   2.424   2.148   2.661
 9455SOL    HW229265   2.289   2.230   2.702
 9456SOL     OW29266   6.170   4.115   2.296
 9456SOL    HW129267   6.150   4.210   2.273
 9456SOL    HW229268   6.268   4.105   2.312
 9457SOL     OW29269   0.600   5.375   4.380
 9457SOL    HW129270   0.658   5.307   4.427
 9457SOL    HW229271   0.618   5.465   4.418
 9458SOL     OW29272   0.005   4.487   0.388
 9458SOL    HW129273   6.988   4.417   0.330
 9458SOL    HW229274   0.088   4.449   0.429
 9459SOL     OW29275   5.243   4.044   4.025
 9459SOL    HW129276   5.227   3.962   4.081
 9459SOL    HW229277   5.321   4.094   4.062
 9460SOL     OW29278   1.511   3.282   4.670
 9460SOL    HW129279   1.556   3.195   4.656
 9460SOL    HW229280   1.506   3.302   4.767
 9461SOL     OW29281   1.210   1.504   1.332
 9461SOL    HW129282   1.228   1.569   1.258
 9461SOL    HW229283   1.250   1.540   1.417
 9462SOL     OW29284   1.741   3.119   3.196
 9462SOL    HW129285   1.747   3.024   3.227
 9462SOL    HW229286   1.646   3.147   3.193
 9463SOL     OW29287   5.048   6.494   1.306
 9463SOL    HW129288   5.047   6.498   1.406
 9463SOL    HW229289   5.109   6.564   1.270
 9464SOL     OW29290   6.746   0.143   1.733
 9464SOL    HW129291   6.703   0.085   1.801
 9464SOL    HW229292   6.687   0.221   1.713
 9465SOL     OW29293   0.339   4.114   1.535
 9465SOL    HW129294   0.357   4.154   1.625
 9465SOL    HW229295   0.242   4.092   1.527
 9466SOL     OW29296   4.477   5.723   6.715
 9466SOL    HW129297   4.408   5.770   6.770
 9466SOL    HW229298   4.560   5.710   6.769
 9467SOL     OW29299   1.667   2.865   0.819
 9467SOL    HW129300   1.615   2.820   0.746
 9467SOL    HW229301   1.763   2.838   0.812
 9468SOL     OW29302   6.303   3.472   6.799
 9468SOL    HW129303   6.397   3.453   6.826
 9468SOL    HW229304   6.241   3.414   6.852
 9469SOL     OW29305   6.644   6.489   0.232
 9469SOL    HW129306   6.734   6.524   0.206
 9469SOL    HW229307   6.646   6.459   0.328
 9470SOL     OW29308   4.889   3.649   0.192
 9470SOL    HW129309   4.857   3.707   0.267
 9470SOL    HW229310   4.989   3.648   0.190
 9471SOL     OW29311   5.863   2.235   5.508
 9471SOL    HW129312   5.836   2.285   5.590
 9471SOL    HW229313   5.799   2.160   5.491
 9472SOL     OW29314   1.336   4.341   6.196
 9472SOL    HW129315   1.267   4.409   6.220
 9472SOL    HW229316   1.419   4.358   6.247
 9473SOL     OW29317   3.180   3.503   6.940
 9473SOL    HW129318   3.230   3.508   0.001
 9473SOL    HW229319   3.232   3.548   6.868
 9474SOL     OW29320   6.411   3.368   1.680
 9474SOL    HW129321   6.376   3.449   1.632
 9474SOL    HW229322   6.361   3.288   1.648
 9475SOL     OW29323   4.291   3.602   6.597
 9475SOL    HW129324   4.229   3.536   6.554
 9475SOL    HW229325   4.251   3.636   6.682
 9476SOL     OW29326   3.761   4.243   5.782
 9476SOL    HW129327   3.765   4.222   5.684
 9476SOL    HW229328   3.824   4.184   5.832
 9477SOL     OW29329   1.527   3.472   0.718
 9477SOL    HW129330   1.502   3.458   0.814
 9477SOL    HW229331   1.498   3.393   0.664
 9478SOL     OW29332   4.428   2.675   1.161
 9478SOL    HW129333   4.399   2.588   1.121
 9478SOL    HW229334   4.433   2.745   1.090
 9479SOL     OW29335   4.067   0.436   1.378
 9479SOL    HW129336   4.128   0.391   1.313
 9479SOL    HW229337   4.059   0.533   1.355
 9480SOL     OW29338   5.586   5.760   6.677
 9480SOL    HW129339   5.639   5.815   6.742
 9480SOL    HW229340   5.592   5.664   6.702
 9481SOL     OW29341   4.862   2.353   3.089
 9481SOL    HW129342   4.821   2.303   3.165
 9481SOL    HW229343   4.947   2.395   3.120
 9482SOL     OW29344   5.899   6.957   1.453
 9482SOL    HW129345   5.852   7.024   1.510
 9482SOL    HW229346   5.839   6.929   1.378
 9483SOL     OW29347   1.607   0.648   6.677
 9483SOL    HW129348   1.632   0.553   6.697
 9483SOL    HW229349   1.512   0.664   6.702
 9484SOL     OW29350   2.500   0.021   4.461
 9484SOL    HW129351   2.515   0.044   4.365
 9484SOL    HW229352   2.524   0.100   4.518
 9485SOL     OW29353   5.874   1.663   1.434
 9485SOL    HW129354   5.846   1.755   1.462
 9485SOL    HW229355   5.915   1.667   1.342
 9486SOL     OW29356   4.890   5.571   1.003
 9486SOL    HW129357   4.927   5.639   1.067
 9486SOL    HW229358   4.810   5.527   1.043
 9487SOL     OW29359   3.170   3.344   4.674
 9487SOL    HW129360   3.135   3.429   4.633
 9487SOL    HW229361   3.096   3.300   4.725
 9488SOL     OW29362   1.965   1.321   1.424
 9488SOL    HW129363   1.911   1.353   1.347
 9488SOL    HW229364   2.001   1.399   1.475
 9489SOL     OW29365   5.486   4.458   1.314
 9489SOL    HW129366   5.484   4.546   1.360
 9489SOL    HW229367   5.416   4.456   1.241
 9490SOL     OW29368   6.620   5.801   4.032
 9490SOL    HW129369   6.715   5.822   4.012
 9490SOL    HW229370   6.574   5.884   4.066
 9491SOL     OW29371   5.559   5.573   4.056
 9491SOL    HW129372   5.498   5.601   3.983
 9491SOL    HW229373   5.597   5.653   4.102
 9492SOL     OW29374   4.523   3.352   5.511
 9492SOL    HW129375   4.441   3.296   5.513
 9492SOL    HW229376   4.570   3.346   5.599
 9493SOL     OW29377   3.332   6.178   3.871
 9493SOL    HW129378   3.406   6.136   3.819
 9493SOL    HW229379   3.256   6.200   3.809
 9494SOL     OW29380   6.085   3.045   2.163
 9494SOL    HW129381   6.136   3.097   2.232
 9494SOL    HW229382   6.024   3.106   2.113
 9495SOL     OW29383   6.980   1.386   2.437
 9495SOL    HW129384   6.941   1.478   2.441
 9495SOL    HW229385   0.053   1.392   2.435
 9496SOL     OW29386   4.533   2.151   2.086
 9496SOL    HW129387   4.573   2.243   2.088
 9496SOL    HW229388   4.435   2.157   2.102
 9497SOL     OW29389   5.466   5.864   5.326
 9497SOL    HW129390   5.372   5.845   5.298
 9497SOL    HW229391   5.525   5.790   5.295
 9498SOL     OW29392   0.275   4.769   4.844
 9498SOL    HW129393   0.189   4.721   4.856
 9498SOL    HW229394   0.330   4.724   4.774
 9499SOL     OW29395   0.086   5.432   5.315
 9499SOL    HW129396   0.057   5.432   5.411
 9499SOL    HW229397   0.009   5.456   5.257
 9500SOL     OW29398   3.915   6.227   1.148
 9500SOL    HW129399   3.858   6.304   1.175
 9500SOL    HW229400   3.997   6.224   1.205
 9501SOL     OW29401   1.614   1.504   4.278
 9501SOL    HW129402   1.664   1.572   4.224
 9501SOL    HW229403   1.582   1.546   4.363
 9502SOL     OW29404   6.202   3.946   4.849
 9502SOL    HW129405   6.171   4.041   4.854
 9502SOL    HW229406   6.291   3.943   4.802
 9503SOL     OW29407   0.592   2.195   0.795
 9503SOL    HW129408   0.634   2.137   0.864
 9503SOL    HW229409   0.588   2.289   0.829
 9504SOL     OW29410   6.709   3.997   1.789
 9504SOL    HW129411   6.742   3.975   1.697
 9504SOL    HW229412   6.786   4.021   1.848
 9505SOL     OW29413   4.968   4.815   5.801
 9505SOL    HW129414   5.058   4.772   5.794
 9505SOL    HW229415   4.966   4.897   5.744
 9506SOL     OW29416   2.423   2.540   0.274
 9506SOL    HW129417   2.475   2.553   0.190
 9506SOL    HW229418   2.439   2.447   0.308
 9507SOL     OW29419   6.410   0.516   0.762
 9507SOL    HW129420   6.473   0.553   0.693
 9507SOL    HW229421   6.426   0.561   0.849
 9508SOL     OW29422   5.666   1.794   2.513
 9508SOL    HW129423   5.747   1.853   2.518
 9508SOL    HW229424   5.623   1.805   2.423
 9509SOL     OW29425   6.469   0.276   3.291
 9509SOL    HW129426   6.377   0.313   3.297
 9509SOL    HW229427   6.467   0.177   3.308
 9510SOL     OW29428   0.933   4.035   3.389
 9510SOL    HW129429   1.019   4.000   3.352
 9510SOL    HW229430   0.937   4.032   3.489
 9511SOL     OW29431   0.902   0.926   1.591
 9511SOL    HW129432   0.912   0.856   1.662
 9511SOL    HW229433   0.915   1.017   1.631
 9512SOL     OW29434   0.173   2.597   0.998
 9512SOL    HW129435   0.074   2.611   0.992
 9512SOL    HW229436   0.201   2.592   1.094
 9513SOL     OW29437   3.360   5.075   5.890
 9513SOL    HW129438   3.328   5.103   5.981
 9513SOL    HW229439   3.423   5.144   5.854
 9514SOL     OW29440   2.681   3.820   6.927
 9514SOL    HW129441   2.742   3.740   6.935
 9514SOL    HW229442   2.689   3.858   6.835
 9515SOL     OW29443   2.443   5.131   3.395
 9515SOL    HW129444   2.345   5.110   3.401
 9515SOL    HW229445   2.458   5.225   3.427
 9516SOL     OW29446   5.496   4.526   0.738
 9516SOL    HW129447   5.442   4.465   0.681
 9516SOL    HW229448   5.529   4.477   0.818
 9517SOL     OW29449   0.972   4.379   1.222
 9517SOL    HW129450   0.972   4.282   1.246
 9517SOL    HW229451   0.918   4.392   1.139
 9518SOL     OW29452   2.708   1.544   0.499
 9518SOL    HW129453   2.737   1.470   0.560
 9518SOL    HW229454   2.708   1.631   0.549
 9519SOL     OW29455   1.343   1.958   5.818
 9519SOL    HW129456   1.329   1.969   5.916
 9519SOL    HW229457   1.305   2.037   5.770
 9520SOL     OW29458   2.909   0.347   2.291
 9520SOL    HW129459   2.879   0.258   2.255
 9520SOL    HW229460   2.844   0.417   2.263
 9521SOL     OW29461   5.352   6.127   3.292
 9521SOL    HW129462   5.424   6.061   3.271
 9521SOL    HW229463   5.335   6.128   3.391
 9522SOL     OW29464   3.662   5.837   1.211
 9522SOL    HW129465   3.703   5.775   1.279
 9522SOL    HW229466   3.682   5.804   1.119
 9523SOL     OW29467   3.208   5.703   4.078
 9523SOL    HW129468   3.269   5.780   4.059
 9523SOL    HW229469   3.159   5.677   3.995
 9524SOL     OW29470   3.972   2.554   1.462
 9524SOL    HW129471   3.873   2.538   1.470
 9524SOL    HW229472   3.994   2.579   1.368
 9525SOL     OW29473   1.931   1.251   6.453
 9525SOL    HW129474   2.006   1.293   6.401
 9525SOL    HW229475   1.955   1.248   6.550
 9526SOL     OW29476   5.551   5.951   3.223
 9526SOL    HW129477   5.643   5.963   3.260
 9526SOL    HW229478   5.532   5.853   3.211
 9527SOL     OW29479   1.274   0.963   2.215
 9527SOL    HW129480   1.256   0.996   2.122
 9527SOL    HW229481   1.264   0.863   2.217
 9528SOL     OW29482   6.395   0.266   0.855
 9528SOL    HW129483   6.408   0.363   0.835
 9528SOL    HW229484   6.349   0.257   0.944
 9529SOL     OW29485   1.088   2.985   6.172
 9529SOL    HW129486   1.035   3.052   6.223
 9529SOL    HW229487   1.169   2.959   6.225
 9530SOL     OW29488   1.514   2.992   2.772
 9530SOL    HW129489   1.512   3.002   2.673
 9530SOL    HW229490   1.609   2.980   2.802
 9531SOL     OW29491   4.003   6.030   2.886
 9531SOL    HW129492   4.067   6.065   2.955
 9531SOL    HW229493   4.024   5.934   2.867
 9532SOL     OW29494   1.599   5.835   1.342
 9532SOL    HW129495   1.674   5.900   1.334
 9532SOL    HW229496   1.622   5.765   1.410
 9533SOL     OW29497   0.398   1.455   5.169
 9533SOL    HW129498   0.383   1.511   5.088
 9533SOL    HW229499   0.450   1.508   5.237
 9534SOL     OW29500   5.396   2.734   5.057
 9534SOL    HW129501   5.495   2.745   5.067
 9534SOL    HW229502   5.350   2.783   5.131
 9535SOL     OW29503   2.730   1.143   5.508
 9535SOL    HW129504   2.679   1.125   5.592
 9535SOL    HW229505   2.683   1.101   5.431
 9536SOL     OW29506   1.964   5.813   5.458
 9536SOL    HW129507   1.941   5.906   5.489
 9536SOL    HW229508   1.936   5.802   5.363
 9537SOL     OW29509   3.119   0.350   2.463
 9537SOL    HW129510   3.065   0.342   2.379
 9537SOL    HW229511   3.143   0.446   2.478
 9538SOL     OW29512   6.760   1.662   4.270
 9538SOL    HW129513   6.694   1.683   4.342
 9538SOL    HW229514   6.795   1.747   4.231
 9539SOL     OW29515   2.222   4.790   5.885
 9539SOL    HW129516   2.313   4.784   5.845
 9539SOL    HW229517   2.196   4.886   5.894
 9540SOL     OW29518   4.611   4.715   5.395
 9540SOL    HW129519   4.572   4.807   5.388
 9540SOL    HW229520   4.630   4.694   5.491
 9541SOL     OW29521   1.596   2.199   5.099
 9541SOL    HW129522   1.680   2.223   5.147
 9541SOL    HW229523   1.599   2.237   5.006
 9542SOL     OW29524   4.961   3.405   5.107
 9542SOL    HW129525   5.028   3.453   5.164
 9542SOL    HW229526   4.899   3.472   5.066
 9543SOL     OW29527   4.734   0.718   4.421
 9543SOL    HW129528   4.643   0.759   4.416
 9543SOL    HW229529   4.725   0.618   4.416
 9544SOL     OW29530   5.829   6.931   2.114
 9544SOL    HW129531   5.754   6.871   2.086
 9544SOL    HW229532   5.870   6.974   2.034
 9545SOL     OW29533   6.809   6.484   3.277
 9545SOL    HW129534   6.783   6.553   3.345
 9545SOL    HW229535   6.767   6.397   3.301
 9546SOL     OW29536   2.971   3.993   6.494
 9546SOL    HW129537   2.934   3.961   6.407
 9546SOL    HW229538   3.062   3.954   6.507
 9547SOL     OW29539   2.007   6.236   4.238
 9547SOL    HW129540   2.064   6.170   4.188
 9547SOL    HW229541   2.019   6.327   4.198
 9548SOL     OW29542   6.337   5.028   4.772
 9548SOL    HW129543   6.375   5.111   4.730
 9548SOL    HW229544   6.411   4.977   4.816
 9549SOL     OW29545   3.645   5.734   0.963
 9549SOL    HW129546   3.580   5.659   0.959
 9549SOL    HW229547   3.654   5.775   0.873
 9550SOL     OW29548   0.443   1.402   0.209
 9550SOL    HW129549   0.355   1.438   0.239
 9550SOL    HW229550   0.482   1.462   0.139
 9551SOL     OW29551   0.008   7.023   5.116
 9551SOL    HW129552   6.995   0.071   5.172
 9551SOL    HW229553   0.020   0.030   5.022
 9552SOL     OW29554   1.046   7.023   3.282
 9552SOL    HW129555   1.117   0.050   3.236
 9552SOL    HW229556   1.030   0.035   3.373
 9553SOL     OW29557   6.214   4.487   6.791
 9553SOL    HW129558   6.188   4.511   6.885
 9553SOL    HW229559   6.150   4.529   6.727
 9554SOL     OW29560   2.795   0.640   1.969
 9554SOL    HW129561   2.732   0.640   1.892
 9554SOL    HW229562   2.853   0.559   1.966
 9555SOL     OW29563   6.362   2.334   1.424
 9555SOL    HW129564   6.375   2.235   1.432
 9555SOL    HW229565   6.408   2.379   1.501
 9556SOL     OW29566   2.722   1.349   1.235
 9556SOL    HW129567   2.636   1.385   1.197
 9556SOL    HW229568   2.702   1.272   1.295
 9557SOL     OW29569   6.366   0.483   2.683
 9557SOL    HW129570   6.296   0.538   2.728
 9557SOL    HW229571   6.414   0.538   2.614
 9558SOL     OW29572   0.056   4.940   3.195
 9558SOL    HW129573   0.113   4.969   3.272
 9558SOL    HW229574   6.998   4.994   3.194
 9559SOL     OW29575   0.632   3.832   1.818
 9559SOL    HW129576   0.645   3.927   1.788
 9559SOL    HW229577   0.651   3.825   1.916
 9560SOL     OW29578   2.243   1.390   3.220
 9560SOL    HW129579   2.330   1.340   3.214
 9560SOL    HW229580   2.196   1.365   3.305
 9561SOL     OW29581   3.335   6.449   0.893
 9561SOL    HW129582   3.333   6.505   0.810
 9561SOL    HW229583   3.295   6.501   0.968
 9562SOL     OW29584   4.258   5.950   3.492
 9562SOL    HW129585   4.199   6.030   3.483
 9562SOL    HW229586   4.266   5.925   3.588
 9563SOL     OW29587   0.025   6.471   6.458
 9563SOL    HW129588   6.986   6.542   6.488
 9563SOL    HW229589   0.117   6.496   6.487
 9564SOL     OW29590   2.859   6.609   6.425
 9564SOL    HW129591   2.857   6.683   6.358
 9564SOL    HW229592   2.821   6.526   6.384
 9565SOL     OW29593   3.779   5.784   4.490
 9565SOL    HW129594   3.717   5.741   4.424
 9565SOL    HW229595   3.792   5.723   4.568
 9566SOL     OW29596   3.416   4.605   6.423
 9566SOL    HW129597   3.474   4.571   6.349
 9566SOL    HW229598   3.430   4.549   6.504
 9567SOL     OW29599   5.919   6.059   6.268
 9567SOL    HW129600   5.903   5.960   6.272
 9567SOL    HW229601   5.913   6.090   6.173
 9568SOL     OW29602   5.225   3.904   6.454
 9568SOL    HW129603   5.299   3.948   6.403
 9568SOL    HW229604   5.139   3.952   6.437
 9569SOL     OW29605   6.309   1.656   0.474
 9569SOL    HW129606   6.383   1.669   0.541
 9569SOL    HW229607   6.222   1.683   0.516
 9570SOL     OW29608   6.805   1.481   0.869
 9570SOL    HW129609   6.839   1.501   0.961
 9570SOL    HW229610   6.852   1.400   0.834
 9571SOL     OW29611   2.341   4.100   0.435
 9571SOL    HW129612   2.423   4.061   0.392
 9571SOL    HW229613   2.364   4.190   0.474
 9572SOL     OW29614   0.827   4.660   0.826
 9572SOL    HW129615   0.872   4.725   0.887
 9572SOL    HW229616   0.896   4.609   0.775
 9573SOL     OW29617   1.056   1.437   6.969
 9573SOL    HW129618   1.117   1.363   6.997
 9573SOL    HW229619   1.089   1.477   6.884
 9574SOL     OW29620   3.771   3.575   5.735
 9574SOL    HW129621   3.674   3.589   5.752
 9574SOL    HW229622   3.800   3.634   5.659
 9575SOL     OW29623   5.599   0.691   1.899
 9575SOL    HW129624   5.566   0.655   1.987
 9575SOL    HW229625   5.535   0.761   1.867
 9576SOL     OW29626   3.257   1.317   4.186
 9576SOL    HW129627   3.217   1.407   4.168
 9576SOL    HW229628   3.196   1.246   4.152
 9577SOL     OW29629   0.082   6.865   2.395
 9577SOL    HW129630   0.146   6.802   2.351
 9577SOL    HW229631   0.120   6.894   2.483
 9578SOL     OW29632   6.202   2.634   2.555
 9578SOL    HW129633   6.182   2.645   2.652
 9578SOL    HW229634   6.192   2.723   2.509
 9579SOL     OW29635   1.718   6.993   1.448
 9579SOL    HW129636   1.774   7.010   1.367
 9579SOL    HW229637   1.706   6.894   1.460
 9580SOL     OW29638   4.820   3.780   0.416
 9580SOL    HW129639   4.871   3.804   0.498
 9580SOL    HW229640   4.795   3.683   0.420
 9581SOL     OW29641   1.220   5.027   5.938
 9581SOL    HW129642   1.255   4.960   6.003
 9581SOL    HW229643   1.181   5.105   5.987
 9582SOL     OW29644   4.008   5.129   4.239
 9582SOL    HW129645   3.933   5.155   4.299
 9582SOL    HW229646   4.004   5.031   4.221
 9583SOL     OW29647   2.171   3.860   1.974
 9583SOL    HW129648   2.080   3.862   2.014
 9583SOL    HW229649   2.201   3.765   1.964
 9584SOL     OW29650   6.159   5.052   6.384
 9584SOL    HW129651   6.133   5.147   6.399
 9584SOL    HW229652   6.218   5.046   6.304
 9585SOL     OW29653   5.782   6.967   2.778
 9585SOL    HW129654   5.830   0.012   2.830
 9585SOL    HW229655   5.826   6.879   2.794
 9586SOL     OW29656   5.438   2.938   3.089
 9586SOL    HW129657   5.398   2.956   3.178
 9586SOL    HW229658   5.483   3.021   3.055
 9587SOL     OW29659   6.003   0.160   1.818
 9587SOL    HW129660   6.085   0.152   1.874
 9587SOL    HW229661   5.923   0.174   1.877
 9588SOL     OW29662   0.047   0.772   1.498
 9588SOL    HW129663   0.082   0.854   1.452
 9588SOL    HW229664   7.025   0.799   1.582
 9589SOL     OW29665   2.138   6.674   5.663
 9589SOL    HW129666   2.214   6.610   5.679
 9589SOL    HW229667   2.108   6.667   5.568
 9590SOL     OW29668   0.485   4.293   2.982
 9590SOL    HW129669   0.412   4.356   2.953
 9590SOL    HW229670   0.482   4.211   2.925
 9591SOL     OW29671   2.586   6.197   1.130
 9591SOL    HW129672   2.654   6.157   1.192
 9591SOL    HW229673   2.537   6.270   1.178
 9592SOL     OW29674   4.548   5.447   2.717
 9592SOL    HW129675   4.519   5.494   2.800
 9592SOL    HW229676   4.471   5.396   2.679
 9593SOL     OW29677   6.632   2.602   4.682
 9593SOL    HW129678   6.631   2.502   4.683
 9593SOL    HW229679   6.616   2.635   4.589
 9594SOL     OW29680   6.849   6.510   2.432
 9594SOL    HW129681   6.769   6.503   2.372
 9594SOL    HW229682   6.834   6.455   2.514
 9595SOL     OW29683   1.750   5.634   4.486
 9595SOL    HW129684   1.781   5.582   4.406
 9595SOL    HW229685   1.828   5.681   4.527
 9596SOL     OW29686   6.397   5.945   5.363
 9596SOL    HW129687   6.467   6.012   5.385
 9596SOL    HW229688   6.380   5.886   5.442
 9597SOL     OW29689   0.918   4.371   1.800
 9597SOL    HW129690   0.978   4.443   1.765
 9597SOL    HW229691   0.927   4.364   1.899
 9598SOL     OW29692   0.099   4.504   6.307
 9598SOL    HW129693   0.164   4.557   6.252
 9598SOL    HW229694   0.044   4.567   6.362
 9599SOL     OW29695   3.709   0.383   5.750
 9599SOL    HW129696   3.774   0.456   5.766
 9599SOL    HW229697   3.729   0.339   5.662
 9600SOL     OW29698   1.121   0.212   5.593
 9600SOL    HW129699   1.041   0.174   5.640
 9600SOL    HW229700   1.204   0.191   5.646
 9601SOL     OW29701   0.675   4.591   5.953
 9601SOL    HW129702   0.732   4.509   5.962
 9601SOL    HW229703   0.673   4.621   5.858
 9602SOL     OW29704   0.632   4.707   6.515
 9602SOL    HW129705   0.553   4.685   6.572
 9602SOL    HW229706   0.655   4.804   6.526
 9603SOL     OW29707   1.993   6.041   4.478
 9603SOL    HW129708   2.049   6.090   4.544
 9603SOL    HW229709   1.980   6.097   4.396
 9604SOL     OW29710   4.748   1.405   6.682
 9604SOL    HW129711   4.738   1.353   6.767
 9604SOL    HW229712   4.811   1.359   6.621
 9605SOL     OW29713   2.300   5.737   5.931
 9605SOL    HW129714   2.306   5.836   5.921
 9605SOL    HW229715   2.392   5.698   5.927
 9606SOL     OW29716   0.118   6.011   3.494
 9606SOL    HW129717   0.110   6.007   3.593
 9606SOL    HW229718   0.026   6.006   3.453
 9607SOL     OW29719   1.027   1.758   2.462
 9607SOL    HW129720   1.011   1.714   2.374
 9607SOL    HW229721   1.083   1.698   2.519
 9608SOL     OW29722   0.148   0.350   2.768
 9608SOL    HW129723   0.155   0.426   2.704
 9608SOL    HW229724   0.074   0.289   2.739
 9609SOL     OW29725   2.123   4.166   4.871
 9609SOL    HW129726   2.082   4.094   4.815
 9609SOL    HW229727   2.201   4.128   4.921
 9610SOL     OW29728   2.308   1.975   6.162
 9610SOL    HW129729   2.215   1.997   6.132
 9610SOL    HW229730   2.371   1.988   6.085
 9611SOL     OW29731   6.368   0.601   1.020
 9611SOL    HW129732   6.376   0.693   1.060
 9611SOL    HW229733   6.277   0.564   1.040
 9612SOL     OW29734   6.153   3.111   1.124
 9612SOL    HW129735   6.236   3.094   1.176
 9612SOL    HW229736   6.076   3.064   1.167
 9613SOL     OW29737   6.314   6.457   5.057
 9613SOL    HW129738   6.376   6.403   5.115
 9613SOL    HW229739   6.281   6.536   5.109
 9614SOL     OW29740   3.687   3.752   2.108
 9614SOL    HW129741   3.659   3.688   2.180
 9614SOL    HW229742   3.768   3.716   2.062
 9615SOL     OW29743   1.327   6.022   2.553
 9615SOL    HW129744   1.301   5.952   2.487
 9615SOL    HW229745   1.410   5.993   2.602
 9616SOL     OW29746   3.550   2.247   0.932
 9616SOL    HW129747   3.599   2.160   0.932
 9616SOL    HW229748   3.533   2.276   0.837
 9617SOL     OW29749   1.288   3.226   3.819
 9617SOL    HW129750   1.246   3.182   3.898
 9617SOL    HW229751   1.222   3.287   3.775
 9618SOL     OW29752   3.789   6.263   6.306
 9618SOL    HW129753   3.764   6.209   6.386
 9618SOL    HW229754   3.729   6.343   6.299
 9619SOL     OW29755   2.321   6.018   0.461
 9619SOL    HW129756   2.360   6.006   0.552
 9619SOL    HW229757   2.244   5.955   0.449
 9620SOL     OW29758   3.224   0.855   0.005
 9620SOL    HW129759   3.252   0.765   6.996
 9620SOL    HW229760   3.196   0.846   0.101
 9621SOL     OW29761   0.395   1.051   2.472
 9621SOL    HW129762   0.480   1.057   2.420
 9621SOL    HW229763   0.391   1.125   2.539
 9622SOL     OW29764   5.470   0.466   6.904
 9622SOL    HW129765   5.464   0.528   6.983
 9622SOL    HW229766   5.396   0.488   6.840
 9623SOL     OW29767   4.853   6.037   6.165
 9623SOL    HW129768   4.836   6.133   6.187
 9623SOL    HW229769   4.769   5.984   6.180
 9624SOL     OW29770   4.505   5.807   4.990
 9624SOL    HW129771   4.513   5.873   4.916
 9624SOL    HW229772   4.422   5.826   5.043
 9625SOL     OW29773   5.204   4.275   6.608
 9625SOL    HW129774   5.210   4.228   6.697
 9625SOL    HW229775   5.123   4.244   6.559
 9626SOL     OW29776   2.146   4.207   5.897
 9626SOL    HW129777   2.135   4.280   5.830
 9626SOL    HW229778   2.060   4.156   5.907
 9627SOL     OW29779   1.320   5.061   6.411
 9627SOL    HW129780   1.411   5.094   6.386
 9627SOL    HW229781   1.305   5.073   6.509
 9628SOL     OW29782   5.570   4.384   6.767
 9628SOL    HW129783   5.561   4.472   6.720
 9628SOL    HW229784   5.525   4.312   6.713
 9629SOL     OW29785   0.236   5.927   2.539
 9629SOL    HW129786   0.244   5.908   2.636
 9629SOL    HW229787   0.241   6.026   2.524
 9630SOL     OW29788   6.533   6.444   5.765
 9630SOL    HW129789   6.481   6.362   5.789
 9630SOL    HW229790   6.541   6.449   5.666
 9631SOL     OW29791   4.118   1.221   1.064
 9631SOL    HW129792   4.061   1.263   0.994
 9631SOL    HW229793   4.087   1.249   1.154
 9632SOL     OW29794   3.259   5.827   1.027
 9632SOL    HW129795   3.300   5.870   0.947
 9632SOL    HW229796   3.161   5.846   1.029
 9633SOL     OW29797   3.988   3.053   2.239
 9633SOL    HW129798   3.966   3.021   2.147
 9633SOL    HW229799   4.058   2.992   2.279
 9634SOL     OW29800   5.283   4.831   3.136
 9634SOL    HW129801   5.244   4.739   3.141
 9634SOL    HW229802   5.377   4.829   3.171
 9635SOL     OW29803   1.357   4.102   4.313
 9635SOL    HW129804   1.393   4.098   4.220
 9635SOL    HW229805   1.297   4.023   4.328
 9636SOL     OW29806   4.614   2.130   5.296
 9636SOL    HW129807   4.592   2.136   5.394
 9636SOL    HW229808   4.706   2.166   5.281
 9637SOL     OW29809   2.037   3.072   0.930
 9637SOL    HW129810   2.038   2.983   0.884
 9637SOL    HW229811   1.945   3.091   0.964
 9638SOL     OW29812   0.551   3.873   6.273
 9638SOL    HW129813   0.613   3.923   6.212
 9638SOL    HW229814   0.481   3.827   6.219
 9639SOL     OW29815   4.598   2.190   1.669
 9639SOL    HW129816   4.684   2.229   1.703
 9639SOL    HW229817   4.591   2.208   1.571
 9640SOL     OW29818   3.940   0.993   2.350
 9640SOL    HW129819   4.039   0.994   2.367
 9640SOL    HW229820   3.919   1.057   2.276
 9641SOL     OW29821   5.556   4.744   2.663
 9641SOL    HW129822   5.464   4.710   2.681
 9641SOL    HW229823   5.555   4.844   2.656
 9642SOL     OW29824   1.304   0.314   3.710
 9642SOL    HW129825   1.285   0.357   3.622
 9642SOL    HW229826   1.344   0.381   3.772
 9643SOL     OW29827   5.115   3.815   4.129
 9643SOL    HW129828   5.018   3.816   4.153
 9643SOL    HW229829   5.134   3.735   4.073
 9644SOL     OW29830   1.285   6.371   5.209
 9644SOL    HW129831   1.326   6.299   5.265
 9644SOL    HW229832   1.293   6.348   5.113
 9645SOL     OW29833   1.380   5.384   6.361
 9645SOL    HW129834   1.317   5.341   6.297
 9645SOL    HW229835   1.414   5.316   6.425
 9646SOL     OW29836   2.716   6.764   5.133
 9646SOL    HW129837   2.796   6.708   5.114
 9646SOL    HW229838   2.711   6.840   5.069
 9647SOL     OW29839   6.312   6.265   3.539
 9647SOL    HW129840   6.280   6.315   3.619
 9647SOL    HW229841   6.238   6.207   3.504
 9648SOL     OW29842   5.030   2.182   1.498
 9648SOL    HW129843   4.936   2.193   1.465
 9648SOL    HW229844   5.092   2.231   1.437
 9649SOL     OW29845   2.241   3.529   0.569
 9649SOL    HW129846   2.261   3.598   0.499
 9649SOL    HW229847   2.233   3.574   0.658
 9650SOL     OW29848   6.399   4.615   4.137
 9650SOL    HW129849   6.317   4.644   4.185
 9650SOL    HW229850   6.422   4.521   4.164
 9651SOL     OW29851   2.682   1.526   7.009
 9651SOL    HW129852   2.701   1.505   0.079
 9651SOL    HW229853   2.584   1.517   6.992
 9652SOL     OW29854   0.264   4.014   0.943
 9652SOL    HW129855   0.192   3.945   0.931
 9652SOL    HW229856   0.353   3.973   0.924
 9653SOL     OW29857   4.627   4.160   6.266
 9653SOL    HW129858   4.580   4.108   6.195
 9653SOL    HW229859   4.662   4.245   6.227
 9654SOL     OW29860   4.061   3.287   3.737
 9654SOL    HW129861   4.058   3.267   3.639
 9654SOL    HW229862   4.140   3.345   3.757
 9655SOL     OW29863   5.854   0.790   1.885
 9655SOL    HW129864   5.761   0.761   1.865
 9655SOL    HW229865   5.912   0.710   1.897
 9656SOL     OW29866   5.712   3.679   0.781
 9656SOL    HW129867   5.710   3.753   0.713
 9656SOL    HW229868   5.784   3.615   0.758
 9657SOL     OW29869   5.728   3.782   3.219
 9657SOL    HW129870   5.664   3.824   3.154
 9657SOL    HW229871   5.722   3.829   3.307
 9658SOL     OW29872   4.394   1.831   2.711
 9658SOL    HW129873   4.405   1.791   2.621
 9658SOL    HW229874   4.298   1.826   2.739
 9659SOL     OW29875   3.696   2.702   0.844
 9659SOL    HW129876   3.677   2.610   0.880
 9659SOL    HW229877   3.629   2.724   0.773
 9660SOL     OW29878   0.386   5.873   0.514
 9660SOL    HW129879   0.430   5.913   0.434
 9660SOL    HW229880   0.445   5.802   0.552
 9661SOL     OW29881   5.179   4.927   1.654
 9661SOL    HW129882   5.270   4.903   1.689
 9661SOL    HW229883   5.178   5.022   1.624
 9662SOL     OW29884   5.472   4.862   0.228
 9662SOL    HW129885   5.519   4.906   0.152
 9662SOL    HW229886   5.480   4.919   0.310
 9663SOL     OW29887   1.042   4.495   3.897
 9663SOL    HW129888   1.046   4.513   3.799
 9663SOL    HW229889   1.094   4.565   3.946
 9664SOL     OW29890   5.139   3.695   3.565
 9664SOL    HW129891   5.140   3.793   3.547
 9664SOL    HW229892   5.049   3.668   3.598
 9665SOL     OW29893   6.590   7.025   6.229
 9665SOL    HW129894   6.676   0.034   6.267
 9665SOL    HW229895   6.513   0.053   6.264
 9666SOL     OW29896   6.453   4.509   1.353
 9666SOL    HW129897   6.400   4.429   1.380
 9666SOL    HW229898   6.491   4.494   1.262
 9667SOL     OW29899   4.238   5.657   0.560
 9667SOL    HW129900   4.286   5.697   0.482
 9667SOL    HW229901   4.279   5.570   0.585
 9668SOL     OW29902   1.219   6.407   5.662
 9668SOL    HW129903   1.311   6.392   5.700
 9668SOL    HW229904   1.227   6.446   5.570
 9669SOL     OW29905   2.666   0.127   1.083
 9669SOL    HW129906   2.649   0.196   1.153
 9669SOL    HW229907   2.736   0.063   1.115
 9670SOL     OW29908   0.636   0.400   6.004
 9670SOL    HW129909   0.705   0.327   6.001
 9670SOL    HW229910   0.547   0.362   5.977
 9671SOL     OW29911   1.191   4.846   6.758
 9671SOL    HW129912   1.165   4.881   6.848
 9671SOL    HW229913   1.110   4.819   6.707
 9672SOL     OW29914   0.296   4.156   3.636
 9672SOL    HW129915   0.330   4.168   3.729
 9672SOL    HW229916   0.355   4.206   3.573
 9673SOL     OW29917   3.397   4.284   1.688
 9673SOL    HW129918   3.466   4.219   1.656
 9673SOL    HW229919   3.306   4.244   1.679
 9674SOL     OW29920   3.511   6.623   2.715
 9674SOL    HW129921   3.474   6.670   2.795
 9674SOL    HW229922   3.445   6.626   2.640
 9675SOL     OW29923   4.855   4.088   0.759
 9675SOL    HW129924   4.759   4.064   0.775
 9675SOL    HW229925   4.908   4.069   0.842
 9676SOL     OW29926   1.226   2.594   6.209
 9676SOL    HW129927   1.267   2.504   6.195
 9676SOL    HW229928   1.246   2.626   6.301
 9677SOL     OW29929   6.010   5.316   0.195
 9677SOL    HW129930   6.036   5.242   0.257
 9677SOL    HW229931   5.988   5.398   0.247
 9678SOL     OW29932   3.288   3.691   4.345
 9678SOL    HW129933   3.231   3.669   4.425
 9678SOL    HW229934   3.237   3.671   4.261
 9679SOL     OW29935   2.885   1.822   4.400
 9679SOL    HW129936   2.789   1.809   4.376
 9679SOL    HW229937   2.893   1.832   4.499
 9680SOL     OW29938   4.875   6.684   4.476
 9680SOL    HW129939   4.784   6.684   4.435
 9680SOL    HW229940   4.938   6.633   4.417
 9681SOL     OW29941   2.343   1.102   1.079
 9681SOL    HW129942   2.368   1.017   1.032
 9681SOL    HW229943   2.243   1.109   1.083
 9682SOL     OW29944   5.222   5.256   4.318
 9682SOL    HW129945   5.195   5.234   4.412
 9682SOL    HW229946   5.322   5.259   4.313
 9683SOL     OW29947   1.845   6.545   0.955
 9683SOL    HW129948   1.892   6.482   1.017
 9683SOL    HW229949   1.912   6.608   0.915
 9684SOL     OW29950   1.270   4.232   5.294
 9684SOL    HW129951   1.238   4.262   5.204
 9684SOL    HW229952   1.345   4.168   5.283
 9685SOL     OW29953   4.484   3.647   0.864
 9685SOL    HW129954   4.551   3.644   0.791
 9685SOL    HW229955   4.405   3.591   0.840
 9686SOL     OW29956   6.870   2.312   6.787
 9686SOL    HW129957   6.888   2.316   6.886
 9686SOL    HW229958   6.952   2.280   6.740
 9687SOL     OW29959   6.407   6.646   1.117
 9687SOL    HW129960   6.350   6.718   1.076
 9687SOL    HW229961   6.494   6.641   1.069
 9688SOL     OW29962   1.478   4.645   1.160
 9688SOL    HW129963   1.537   4.592   1.220
 9688SOL    HW229964   1.534   4.702   1.100
 9689SOL     OW29965   1.080   5.742   6.241
 9689SOL    HW129966   1.031   5.762   6.156
 9689SOL    HW229967   1.176   5.765   6.230
 9690SOL     OW29968   4.645   5.530   4.661
 9690SOL    HW129969   4.702   5.449   4.649
 9690SOL    HW229970   4.586   5.517   4.741
 9691SOL     OW29971   3.532   4.067   2.300
 9691SOL    HW129972   3.598   4.096   2.369
 9691SOL    HW229973   3.457   4.018   2.344
 9692SOL     OW29974   4.243   5.253   0.181
 9692SOL    HW129975   4.270   5.157   0.182
 9692SOL    HW229976   4.275   5.298   0.265
 9693SOL     OW29977   6.023   3.904   4.159
 9693SOL    HW129978   5.927   3.921   4.181
 9693SOL    HW229979   6.075   3.893   4.244
 9694SOL     OW29980   2.503   0.032   2.037
 9694SOL    HW129981   2.547   0.089   2.107
 9694SOL    HW229982   2.479   6.970   2.076
 9695SOL     OW29983   0.058   3.809   3.028
 9695SOL    HW129984   0.063   3.893   2.973
 9695SOL    HW229985   0.107   3.823   3.114
 9696SOL     OW29986   5.958   1.532   3.115
 9696SOL    HW129987   5.883   1.587   3.076
 9696SOL    HW229988   6.037   1.536   3.054
 9697SOL     OW29989   6.861   6.117   0.092
 9697SOL    HW129990   6.847   6.093   7.022
 9697SOL    HW229991   6.940   6.068   0.127
 9698SOL     OW29992   5.848   3.484   6.603
 9698SOL    HW129993   5.798   3.403   6.573
 9698SOL    HW229994   5.795   3.532   6.673
 9699SOL     OW29995   1.033   5.331   6.824
 9699SOL    HW129996   0.996   5.242   6.798
 9699SOL    HW229997   1.092   5.365   6.751
 9700SOL     OW29998   6.272   6.569   3.835
 9700SOL    HW129999   6.362   6.598   3.870
 9700SOL    HW230000   6.208   6.559   3.911
 9701SOL     OW30001   4.873   3.122   6.594
 9701SOL    HW130002   4.958   3.164   6.562
 9701SOL    HW230003   4.796   3.180   6.568
 9702SOL     OW30004   3.602   2.610   0.359
 9702SOL    HW130005   3.674   2.678   0.342
 9702SOL    HW230006   3.544   2.603   0.278
 9703SOL     OW30007   6.409   3.687   4.432
 9703SOL    HW130008   6.506   3.710   4.432
 9703SOL    HW230009   6.383   3.653   4.523
 9704SOL     OW30010   3.150   4.887   2.653
 9704SOL    HW130011   3.057   4.859   2.629
 9704SOL    HW230012   3.147   4.943   2.736
 9705SOL     OW30013   6.313   4.165   5.574
 9705SOL    HW130014   6.326   4.079   5.525
 9705SOL    HW230015   6.306   4.240   5.508
 9706SOL     OW30016   1.694   1.802   1.872
 9706SOL    HW130017   1.745   1.887   1.874
 9706SOL    HW230018   1.704   1.754   1.959
 9707SOL     OW30019   5.666   4.764   2.084
 9707SOL    HW130020   5.568   4.783   2.075
 9707SOL    HW230021   5.702   4.810   2.165
 9708SOL     OW30022   1.775   1.418   2.368
 9708SOL    HW130023   1.825   1.375   2.293
 9708SOL    HW230024   1.756   1.514   2.345
 9709SOL     OW30025   5.569   3.339   2.253
 9709SOL    HW130026   5.517   3.287   2.320
 9709SOL    HW230027   5.506   3.399   2.203
 9710SOL     OW30028   6.356   6.982   6.634
 9710SOL    HW130029   6.427   6.945   6.573
 9710SOL    HW230030   6.392   6.987   6.727
 9711SOL     OW30031   3.870   6.187   6.070
 9711SOL    HW130032   3.847   6.204   6.166
 9711SOL    HW230033   3.930   6.259   6.036
 9712SOL     OW30034   6.277   2.788   1.054
 9712SOL    HW130035   6.277   2.878   1.009
 9712SOL    HW230036   6.308   2.718   0.990
 9713SOL     OW30037   2.386   6.390   3.353
 9713SOL    HW130038   2.367   6.406   3.256
 9713SOL    HW230039   2.430   6.300   3.364
 9714SOL     OW30040   3.876   5.364   4.806
 9714SOL    HW130041   3.792   5.310   4.813
 9714SOL    HW230042   3.937   5.341   4.882
 9715SOL     OW30043   6.359   4.761   1.313
 9715SOL    HW130044   6.301   4.760   1.232
 9715SOL    HW230045   6.404   4.673   1.323
 9716SOL     OW30046   3.633   4.100   6.773
 9716SOL    HW130047   3.728   4.094   6.744
 9716SOL    HW230048   3.629   4.136   6.867
 9717SOL     OW30049   4.580   6.750   6.172
 9717SOL    HW130050   4.516   6.797   6.111
 9717SOL    HW230051   4.629   6.679   6.121
 9718SOL     OW30052   4.015   1.779   0.263
 9718SOL    HW130053   3.974   1.784   0.173
 9718SOL    HW230054   4.101   1.831   0.264
 9719SOL     OW30055   5.207   6.578   5.362
 9719SOL    HW130056   5.228   6.545   5.270
 9719SOL    HW230057   5.161   6.667   5.356
 9720SOL     OW30058   1.787   3.815   2.701
 9720SOL    HW130059   1.855   3.866   2.648
 9720SOL    HW230060   1.789   3.846   2.796
 9721SOL     OW30061   0.355   1.715   0.797
 9721SOL    HW130062   0.348   1.781   0.872
 9721SOL    HW230063   0.286   1.736   0.728
 9722SOL     OW30064   3.644   2.330   5.336
 9722SOL    HW130065   3.572   2.311   5.402
 9722SOL    HW230066   3.683   2.420   5.355
 9723SOL     OW30067   5.926   4.779   4.845
 9723SOL    HW130068   6.007   4.767   4.788
 9723SOL    HW230069   5.900   4.876   4.845
 9724SOL     OW30070   2.290   5.327   6.376
 9724SOL    HW130071   2.274   5.336   6.278
 9724SOL    HW230072   2.205   5.299   6.422
 9725SOL     OW30073   3.933   5.775   4.922
 9725SOL    HW130074   3.908   5.727   4.838
 9725SOL    HW230075   3.948   5.709   4.995
 9726SOL     OW30076   5.025   0.848   4.116
 9726SOL    HW130077   5.004   0.811   4.026
 9726SOL    HW230078   5.114   0.813   4.147
 9727SOL     OW30079   0.917   2.437   0.074
 9727SOL    HW130080   0.823   2.421   0.044
 9727SOL    HW230081   0.980   2.402   0.005
 9728SOL     OW30082   6.211   1.460   6.158
 9728SOL    HW130083   6.206   1.380   6.098
 9728SOL    HW230084   6.144   1.528   6.129
 9729SOL     OW30085   1.667   3.733   3.962
 9729SOL    HW130086   1.712   3.794   3.897
 9729SOL    HW230087   1.705   3.641   3.954
 9730SOL     OW30088   0.656   4.118   4.348
 9730SOL    HW130089   0.634   4.037   4.294
 9730SOL    HW230090   0.606   4.197   4.313
 9731SOL     OW30091   4.948   4.433   2.264
 9731SOL    HW130092   4.876   4.427   2.195
 9731SOL    HW230093   5.037   4.445   2.220
 9732SOL     OW30094   0.874   3.091   1.837
 9732SOL    HW130095   0.872   3.120   1.933
 9732SOL    HW230096   0.810   3.147   1.784
 9733SOL     OW30097   6.168   5.701   2.146
 9733SOL    HW130098   6.130   5.794   2.147
 9733SOL    HW230099   6.267   5.706   2.136
 9734SOL     OW30100   6.374   6.739   6.884
 9734SOL    HW130101   6.463   6.773   6.853
 9734SOL    HW230102   6.360   6.646   6.849
 9735SOL     OW30103   1.367   2.280   3.450
 9735SOL    HW130104   1.395   2.192   3.489
 9735SOL    HW230105   1.411   2.354   3.501
 9736SOL     OW30106   5.037   1.801   6.061
 9736SOL    HW130107   5.032   1.755   6.150
 9736SOL    HW230108   5.004   1.895   6.070
 9737SOL     OW30109   5.738   2.321   2.661
 9737SOL    HW130110   5.834   2.301   2.642
 9737SOL    HW230111   5.688   2.235   2.669
 9738SOL     OW30112   2.074   6.674   0.766
 9738SOL    HW130113   1.997   6.725   0.728
 9738SOL    HW230114   2.120   6.624   0.692
 9739SOL     OW30115   4.633   6.082   6.756
 9739SOL    HW130116   4.567   6.017   6.794
 9739SOL    HW230117   4.616   6.093   6.658
 9740SOL     OW30118   5.651   0.461   2.273
 9740SOL    HW130119   5.665   0.550   2.316
 9740SOL    HW230120   5.734   0.405   2.283
 9741SOL     OW30121   2.839   0.999   3.898
 9741SOL    HW130122   2.824   0.926   3.831
 9741SOL    HW230123   2.889   0.963   3.977
 9742SOL     OW30124   4.456   1.104   6.693
 9742SOL    HW130125   4.428   1.137   6.784
 9742SOL    HW230126   4.456   1.180   6.629
 9743SOL     OW30127   0.659   3.458   3.336
 9743SOL    HW130128   0.651   3.554   3.364
 9743SOL    HW230129   0.750   3.441   3.298
 9744SOL     OW30130   2.363   6.817   2.735
 9744SOL    HW130131   2.294   6.751   2.766
 9744SOL    HW230132   2.318   6.902   2.710
 9745SOL     OW30133   5.141   2.117   6.189
 9745SOL    HW130134   5.176   2.036   6.141
 9745SOL    HW230135   5.185   2.124   6.278
 9746SOL     OW30136   5.014   6.717   6.704
 9746SOL    HW130137   5.004   6.779   6.625
 9746SOL    HW230138   4.983   6.625   6.678
 9747SOL     OW30139   2.565   1.945   1.562
 9747SOL    HW130140   2.639   2.008   1.589
 9747SOL    HW230141   2.521   1.979   1.479
 9748SOL     OW30142   0.105   0.305   3.172
 9748SOL    HW130143   0.180   0.331   3.111
 9748SOL    HW230144   0.094   0.206   3.172
 9749SOL     OW30145   0.435   2.008   2.326
 9749SOL    HW130146   0.493   2.026   2.406
 9749SOL    HW230147   0.362   2.077   2.322
 9750SOL     OW30148   6.006   4.587   3.962
 9750SOL    HW130149   5.936   4.613   3.896
 9750SOL    HW230150   6.062   4.514   3.924
 9751SOL     OW30151   2.912   0.556   1.300
 9751SOL    HW130152   2.867   0.557   1.210
 9751SOL    HW230153   2.998   0.506   1.293
 9752SOL     OW30154   4.160   2.672   6.795
 9752SOL    HW130155   4.203   2.641   6.710
 9752SOL    HW230156   4.061   2.681   6.782
 9753SOL     OW30157   0.970   5.416   5.893
 9753SOL    HW130158   0.888   5.363   5.873
 9753SOL    HW230159   0.984   5.421   5.992
 9754SOL     OW30160   3.900   0.299   0.371
 9754SOL    HW130161   3.931   0.213   0.413
 9754SOL    HW230162   3.888   0.368   0.441
 9755SOL     OW30163   3.041   4.122   5.231
 9755SOL    HW130164   3.053   4.123   5.132
 9755SOL    HW230165   3.044   4.216   5.265
 9756SOL     OW30166   5.420   1.796   6.319
 9756SOL    HW130167   5.483   1.727   6.282
 9756SOL    HW230168   5.349   1.751   6.373
 9757SOL     OW30169   5.483   4.712   4.089
 9757SOL    HW130170   5.538   4.655   4.027
 9757SOL    HW230171   5.495   4.679   4.182
 9758SOL     OW30172   1.207   1.235   0.144
 9758SOL    HW130173   1.231   1.208   0.050
 9758SOL    HW230174   1.277   1.295   0.180
 9759SOL     OW30175   0.713   1.427   0.647
 9759SOL    HW130176   0.782   1.356   0.660
 9759SOL    HW230177   0.651   1.400   0.574
 9760SOL     OW30178   5.016   2.482   6.832
 9760SOL    HW130179   4.936   2.485   6.892
 9760SOL    HW230180   5.097   2.507   6.885
 9761SOL     OW30181   1.215   1.346   2.019
 9761SOL    HW130182   1.251   1.439   2.032
 9761SOL    HW230183   1.286   1.288   1.979
 9762SOL     OW30184   3.112   1.680   4.412
 9762SOL    HW130185   3.171   1.757   4.389
 9762SOL    HW230186   3.019   1.713   4.426
 9763SOL     OW30187   6.005   1.196   2.685
 9763SOL    HW130188   6.083   1.248   2.718
 9763SOL    HW230189   6.029   1.149   2.600
 9764SOL     OW30190   6.386   2.322   2.838
 9764SOL    HW130191   6.452   2.396   2.828
 9764SOL    HW230192   6.431   2.234   2.818
 9765SOL     OW30193   6.340   1.409   2.532
 9765SOL    HW130194   6.389   1.337   2.581
 9765SOL    HW230195   6.387   1.429   2.445
 9766SOL     OW30196   2.004   0.199   3.271
 9766SOL    HW130197   1.923   0.141   3.272
 9766SOL    HW230198   2.086   0.142   3.271
 9767SOL     OW30199   2.049   2.967   5.290
 9767SOL    HW130200   2.014   3.052   5.327
 9767SOL    HW230201   2.139   2.948   5.330
 9768SOL     OW30202   5.610   2.114   0.780
 9768SOL    HW130203   5.553   2.195   0.762
 9768SOL    HW230204   5.690   2.141   0.833
 9769SOL     OW30205   3.600   0.689   5.014
 9769SOL    HW130206   3.523   0.730   5.064
 9769SOL    HW230207   3.645   0.760   4.959
 9770SOL     OW30208   3.509   1.889   5.403
 9770SOL    HW130209   3.534   1.967   5.346
 9770SOL    HW230210   3.478   1.814   5.346
 9771SOL     OW30211   2.304   0.139   1.578
 9771SOL    HW130212   2.303   0.087   1.663
 9771SOL    HW230213   2.377   0.107   1.519
 9772SOL     OW30214   1.831   6.482   1.821
 9772SOL    HW130215   1.898   6.455   1.889
 9772SOL    HW230216   1.867   6.464   1.729
 9773SOL     OW30217   5.575   5.140   3.403
 9773SOL    HW130218   5.519   5.197   3.342
 9773SOL    HW230219   5.530   5.133   3.492
 9774SOL     OW30220   1.095   4.764   4.028
 9774SOL    HW130221   1.000   4.764   4.059
 9774SOL    HW230222   1.112   4.847   3.975
 9775SOL     OW30223   2.771   0.475   3.062
 9775SOL    HW130224   2.839   0.541   3.032
 9775SOL    HW230225   2.684   0.492   3.015
 9776SOL     OW30226   1.461   4.653   5.960
 9776SOL    HW130227   1.558   4.645   5.938
 9776SOL    HW230228   1.448   4.730   6.023
 9777SOL     OW30229   5.260   6.383   6.868
 9777SOL    HW130230   5.213   6.340   6.945
 9777SOL    HW230231   5.284   6.313   6.801
 9778SOL     OW30232   0.214   2.119   4.696
 9778SOL    HW130233   0.305   2.147   4.726
 9778SOL    HW230234   0.218   2.025   4.661
 9779SOL     OW30235   0.548   2.704   3.976
 9779SOL    HW130236   0.601   2.649   3.911
 9779SOL    HW230237   0.464   2.655   3.999
 9780SOL     OW30238   1.826   1.343   1.171
 9780SOL    HW130239   1.749   1.284   1.148
 9780SOL    HW230240   1.802   1.439   1.155
 9781SOL     OW30241   2.120   3.689   4.652
 9781SOL    HW130242   2.070   3.674   4.737
 9781SOL    HW230243   2.130   3.603   4.602
 9782SOL     OW30244   0.781   1.906   0.805
 9782SOL    HW130245   0.855   1.935   0.744
 9782SOL    HW230246   0.723   1.841   0.756
 9783SOL     OW30247   4.551   1.858   3.457
 9783SOL    HW130248   4.598   1.835   3.371
 9783SOL    HW230249   4.568   1.786   3.524
 9784SOL     OW30250   3.610   1.251   6.437
 9784SOL    HW130251   3.554   1.231   6.356
 9784SOL    HW230252   3.677   1.177   6.449
 9785SOL     OW30253   6.282   2.536   5.499
 9785SOL    HW130254   6.290   2.540   5.399
 9785SOL    HW230255   6.359   2.485   5.537
 9786SOL     OW30256   2.539   4.366   0.507
 9786SOL    HW130257   2.552   4.456   0.548
 9786SOL    HW230258   2.545   4.295   0.578
 9787SOL     OW30259   4.015   3.627   4.396
 9787SOL    HW130260   3.973   3.711   4.363
 9787SOL    HW230261   3.993   3.551   4.334
 9788SOL     OW30262   1.457   5.774   1.907
 9788SOL    HW130263   1.533   5.728   1.861
 9788SOL    HW230264   1.391   5.706   1.938
 9789SOL     OW30265   2.941   6.984   0.163
 9789SOL    HW130266   2.909   0.008   0.082
 9789SOL    HW230267   2.865   6.935   0.204
 9790SOL     OW30268   6.478   4.503   6.165
 9790SOL    HW130269   6.441   4.518   6.256
 9790SOL    HW230270   6.496   4.405   6.152
 9791SOL     OW30271   0.627   0.272   0.280
 9791SOL    HW130272   0.725   0.274   0.303
 9791SOL    HW230273   0.596   0.177   0.273
 9792SOL     OW30274   4.088   5.112   1.130
 9792SOL    HW130275   4.067   5.085   1.036
 9792SOL    HW230276   4.066   5.209   1.142
 9793SOL     OW30277   4.296   0.105   1.864
 9793SOL    HW130278   4.276   0.125   1.768
 9793SOL    HW230279   4.284   0.188   1.919
 9794SOL     OW30280   5.214   4.156   4.930
 9794SOL    HW130281   5.256   4.074   4.970
 9794SOL    HW230282   5.264   4.182   4.848
 9795SOL     OW30283   1.178   3.162   4.110
 9795SOL    HW130284   1.215   3.232   4.170
 9795SOL    HW230285   1.198   3.071   4.147
 9796SOL     OW30286   3.940   3.934   3.708
 9796SOL    HW130287   3.956   3.925   3.610
 9796SOL    HW230288   3.880   3.860   3.740
 9797SOL     OW30289   2.295   6.317   0.440
 9797SOL    HW130290   2.271   6.225   0.471
 9797SOL    HW230291   2.255   6.332   0.349
 9798SOL     OW30292   1.901   1.654   1.125
 9798SOL    HW130293   1.981   1.614   1.170
 9798SOL    HW230294   1.931   1.703   1.043
 9799SOL     OW30295   3.136   4.030   6.251
 9799SOL    HW130296   3.108   3.941   6.284
 9799SOL    HW230297   3.200   4.072   6.315
 9800SOL     OW30298   5.860   3.713   3.941
 9800SOL    HW130299   5.801   3.794   3.934
 9800SOL    HW230300   5.822   3.639   3.885
 9801SOL     OW30301   5.147   4.470   0.389
 9801SOL    HW130302   5.176   4.562   0.360
 9801SOL    HW230303   5.175   4.403   0.320
 9802SOL     OW30304   4.192   4.649   0.572
 9802SOL    HW130305   4.106   4.604   0.595
 9802SOL    HW230306   4.230   4.608   0.489
 9803SOL     OW30307   1.861   3.423   6.433
 9803SOL    HW130308   1.953   3.441   6.467
 9803SOL    HW230309   1.833   3.496   6.371
 9804SOL     OW30310   0.156   6.044   3.076
 9804SOL    HW130311   0.149   6.013   3.170
 9804SOL    HW230312   0.142   6.143   3.072
 9805SOL     OW30313   1.177   0.159   3.066
 9805SOL    HW130314   1.270   0.193   3.052
 9805SOL    HW230315   1.159   0.084   3.003
 9806SOL     OW30316   2.965   2.793   6.169
 9806SOL    HW130317   2.969   2.696   6.146
 9806SOL    HW230318   2.872   2.828   6.154
 9807SOL     OW30319   3.233   3.010   2.454
 9807SOL    HW130320   3.242   3.021   2.355
 9807SOL    HW230321   3.287   2.932   2.484
 9808SOL     OW30322   3.719   5.533   3.813
 9808SOL    HW130323   3.718   5.435   3.793
 9808SOL    HW230324   3.803   5.557   3.862
 9809SOL     OW30325   1.228   3.415   0.392
 9809SOL    HW130326   1.308   3.471   0.412
 9809SOL    HW230327   1.253   3.344   0.326
 9810SOL     OW30328   2.975   2.127   4.875
 9810SOL    HW130329   3.004   2.034   4.855
 9810SOL    HW230330   3.052   2.180   4.911
 9811SOL     OW30331   5.979   3.729   3.367
 9811SOL    HW130332   5.919   3.652   3.347
 9811SOL    HW230333   6.004   3.727   3.464
 9812SOL     OW30334   3.309   0.476   4.148
 9812SOL    HW130335   3.311   0.574   4.166
 9812SOL    HW230336   3.374   0.430   4.209
 9813SOL     OW30337   5.862   2.159   0.907
 9813SOL    HW130338   5.807   2.147   0.989
 9813SOL    HW230339   5.946   2.210   0.929
 9814SOL     OW30340   5.180   1.386   6.827
 9814SOL    HW130341   5.274   1.350   6.825
 9814SOL    HW230342   5.180   1.479   6.791
 9815SOL     OW30343   4.943   2.619   4.154
 9815SOL    HW130344   4.974   2.711   4.133
 9815SOL    HW230345   4.925   2.611   4.252
 9816SOL     OW30346   1.191   0.502   6.630
 9816SOL    HW130347   1.264   0.529   6.567
 9816SOL    HW230348   1.116   0.567   6.625
 9817SOL     OW30349   0.696   6.756   3.230
 9817SOL    HW130350   0.689   6.662   3.195
 9817SOL    HW230351   0.622   6.772   3.296
 9818SOL     OW30352   6.221   1.900   4.957
 9818SOL    HW130353   6.319   1.917   4.965
 9818SOL    HW230354   6.197   1.890   4.860
 9819SOL     OW30355   4.521   2.488   3.325
 9819SOL    HW130356   4.551   2.437   3.405
 9819SOL    HW230357   4.590   2.556   3.301
 9820SOL     OW30358   3.508   3.251   6.885
 9820SOL    HW130359   3.440   3.232   6.814
 9820SOL    HW230360   3.592   3.284   6.841
 9821SOL     OW30361   5.690   0.450   6.354
 9821SOL    HW130362   5.708   0.527   6.415
 9821SOL    HW230363   5.657   0.373   6.408
 9822SOL     OW30364   0.648   6.926   2.782
 9822SOL    HW130365   0.571   6.903   2.841
 9822SOL    HW230366   0.710   6.848   2.775
 9823SOL     OW30367   3.691   0.168   1.646
 9823SOL    HW130368   3.747   0.213   1.577
 9823SOL    HW230369   3.637   0.236   1.695
 9824SOL     OW30370   2.190   3.931   5.721
 9824SOL    HW130371   2.201   3.958   5.817
 9824SOL    HW230372   2.160   4.010   5.667
 9825SOL     OW30373   3.355   5.447   5.245
 9825SOL    HW130374   3.440   5.497   5.229
 9825SOL    HW230375   3.374   5.370   5.306
 9826SOL     OW30376   4.569   5.626   6.196
 9826SOL    HW130377   4.534   5.691   6.128
 9826SOL    HW230378   4.507   5.623   6.274
 9827SOL     OW30379   2.384   4.289   4.351
 9827SOL    HW130380   2.350   4.218   4.289
 9827SOL    HW230381   2.329   4.289   4.435
 9828SOL     OW30382   2.980   2.894   6.919
 9828SOL    HW130383   2.952   2.800   6.900
 9828SOL    HW230384   2.997   2.904   7.017
 9829SOL     OW30385   2.686   6.347   0.938
 9829SOL    HW130386   2.726   6.436   0.964
 9829SOL    HW230387   2.612   6.325   1.001
 9830SOL     OW30388   5.682   2.649   1.788
 9830SOL    HW130389   5.634   2.654   1.875
 9830SOL    HW230390   5.687   2.553   1.758
 9831SOL     OW30391   1.765   6.189   0.805
 9831SOL    HW130392   1.720   6.266   0.760
 9831SOL    HW230393   1.787   6.214   0.899
 9832SOL     OW30394   5.055   5.138   2.295
 9832SOL    HW130395   5.143   5.180   2.270
 9832SOL    HW230396   5.042   5.055   2.241
 9833SOL     OW30397   3.285   2.912   4.900
 9833SOL    HW130398   3.385   2.913   4.910
 9833SOL    HW230399   3.252   2.818   4.913
 9834SOL     OW30400   2.900   3.701   5.900
 9834SOL    HW130401   2.843   3.719   5.981
 9834SOL    HW230402   2.940   3.609   5.907
 9835SOL     OW30403   3.635   2.407   5.782
 9835SOL    HW130404   3.541   2.420   5.814
 9835SOL    HW230405   3.699   2.425   5.856
 9836SOL     OW30406   6.307   4.225   3.696
 9836SOL    HW130407   6.407   4.219   3.697
 9836SOL    HW230408   6.268   4.142   3.734
 9837SOL     OW30409   2.073   0.304   2.478
 9837SOL    HW130410   2.133   0.325   2.401
 9837SOL    HW230411   2.124   0.315   2.564
 9838SOL     OW30412   0.793   6.767   5.959
 9838SOL    HW130413   0.792   6.674   5.921
 9838SOL    HW230414   0.737   6.827   5.902
 9839SOL     OW30415   5.803   1.144   2.869
 9839SOL    HW130416   5.815   1.197   2.952
 9839SOL    HW230417   5.890   1.141   2.819
 9840SOL     OW30418   0.383   1.056   1.219
 9840SOL    HW130419   0.378   0.974   1.276
 9840SOL    HW230420   0.410   1.030   1.126
 9841SOL     OW30421   1.056   4.950   4.716
 9841SOL    HW130422   1.091   4.907   4.633
 9841SOL    HW230423   1.126   5.008   4.756
 9842SOL     OW30424   3.476   4.072   3.414
 9842SOL    HW130425   3.410   4.006   3.450
 9842SOL    HW230426   3.569   4.037   3.428
 9843SOL     OW30427   6.734   1.965   1.778
 9843SOL    HW130428   6.814   1.924   1.822
 9843SOL    HW230429   6.685   1.895   1.726
 9844SOL     OW30430   4.934   0.362   2.450
 9844SOL    HW130431   4.997   0.389   2.523
 9844SOL    HW230432   4.939   0.429   2.376
 9845SOL     OW30433   2.492   1.606   4.657
 9845SOL    HW130434   2.482   1.704   4.641
 9845SOL    HW230435   2.529   1.590   4.748
 9846SOL     OW30436   3.783   3.368   2.113
 9846SOL    HW130437   3.716   3.337   2.180
 9846SOL    HW230438   3.865   3.402   2.160
 9847SOL     OW30439   3.554   2.750   5.575
 9847SOL    HW130440   3.530   2.797   5.660
 9847SOL    HW230441   3.498   2.667   5.566
 9848SOL     OW30442   3.428   2.614   6.394
 9848SOL    HW130443   3.438   2.604   6.493
 9848SOL    HW230444   3.340   2.577   6.365
 9849SOL     OW30445   5.890   0.268   0.241
 9849SOL    HW130446   5.939   0.355   0.249
 9849SOL    HW230447   5.843   0.264   0.153
 9850SOL     OW30448   5.756   6.266   2.704
 9850SOL    HW130449   5.723   6.251   2.797
 9850SOL    HW230450   5.680   6.295   2.646
 9851SOL     OW30451   4.815   2.090   5.753
 9851SOL    HW130452   4.845   2.134   5.668
 9851SOL    HW230453   4.721   2.060   5.742
 9852SOL     OW30454   4.458   2.110   3.344
 9852SOL    HW130455   4.484   2.032   3.399
 9852SOL    HW230456   4.438   2.188   3.403
 9853SOL     OW30457   4.762   4.021   3.374
 9853SOL    HW130458   4.788   4.040   3.469
 9853SOL    HW230459   4.742   3.923   3.364
 9854SOL     OW30460   6.607   5.061   5.215
 9854SOL    HW130461   6.580   5.137   5.155
 9854SOL    HW230462   6.551   5.062   5.297
 9855SOL     OW30463   2.235   4.350   2.239
 9855SOL    HW130464   2.148   4.326   2.284
 9855SOL    HW230465   2.271   4.269   2.193
 9856SOL     OW30466   4.994   3.847   0.009
 9856SOL    HW130467   4.986   3.945   0.029
 9856SOL    HW230468   4.941   3.795   0.075
 9857SOL     OW30469   4.497   2.092   4.383
 9857SOL    HW130470   4.542   2.116   4.297
 9857SOL    HW230471   4.428   2.161   4.405
 9858SOL     OW30472   7.010   1.119   1.591
 9858SOL    HW130473   6.942   1.188   1.611
 9858SOL    HW230474   0.013   1.127   1.496
 9859SOL     OW30475   6.330   0.024   1.286
 9859SOL    HW130476   6.430   0.014   1.281
 9859SOL    HW230477   6.288   6.982   1.226
 9860SOL     OW30478   6.963   0.912   2.920
 9860SOL    HW130479   6.968   0.959   2.832
 9860SOL    HW230480   6.933   0.976   2.991
 9861SOL     OW30481   2.873   0.033   3.016
 9861SOL    HW130482   2.797   6.996   3.002
 9861SOL    HW230483   2.883   0.092   2.936
 9862SOL     OW30484   2.409   4.707   0.490
 9862SOL    HW130485   2.384   4.754   0.406
 9862SOL    HW230486   2.438   4.774   0.559
 9863SOL     OW30487   3.028   0.216   3.216
 9863SOL    HW130488   3.080   0.292   3.176
 9863SOL    HW230489   2.976   0.170   3.144
 9864SOL     OW30490   3.998   5.711   4.144
 9864SOL    HW130491   3.932   5.637   4.154
 9864SOL    HW230492   4.024   5.746   4.234
 9865SOL     OW30493   1.363   1.545   4.101
 9865SOL    HW130494   1.382   1.480   4.174
 9865SOL    HW230495   1.449   1.574   4.059
 9866SOL     OW30496   5.701   4.188   5.169
 9866SOL    HW130497   5.782   4.245   5.180
 9866SOL    HW230498   5.678   4.181   5.072
 9867SOL     OW30499   6.100   0.452   1.204
 9867SOL    HW130500   6.012   0.410   1.223
 9867SOL    HW230501   6.122   0.518   1.276
 9868SOL     OW30502   1.444   4.367   5.677
 9868SOL    HW130503   1.396   4.360   5.589
 9868SOL    HW230504   1.381   4.346   5.751
 9869SOL     OW30505   1.741   3.692   2.355
 9869SOL    HW130506   1.675   3.681   2.429
 9869SOL    HW230507   1.755   3.789   2.337
 9870SOL     OW30508   4.480   5.793   2.565
 9870SOL    HW130509   4.575   5.784   2.596
 9870SOL    HW230510   4.461   5.725   2.494
 9871SOL     OW30511   1.183   0.131   5.324
 9871SOL    HW130512   1.111   0.069   5.295
 9871SOL    HW230513   1.160   0.170   5.413
 9872SOL     OW30514   3.113   5.178   4.204
 9872SOL    HW130515   3.033   5.123   4.226
 9872SOL    HW230516   3.139   5.234   4.283
 9873SOL     OW30517   2.919   2.136   1.225
 9873SOL    HW130518   2.951   2.089   1.308
 9873SOL    HW230519   2.985   2.121   1.151
 9874SOL     OW30520   1.000   3.890   4.025
 9874SOL    HW130521   0.966   3.817   3.967
 9874SOL    HW230522   0.943   3.971   4.014
 9875SOL     OW30523   0.292   6.742   2.260
 9875SOL    HW130524   0.252   6.749   2.169
 9875SOL    HW230525   0.344   6.657   2.268
 9876SOL     OW30526   6.463   0.642   2.486
 9876SOL    HW130527   6.517   0.580   2.429
 9876SOL    HW230528   6.522   0.715   2.520
 9877SOL     OW30529   0.364   5.902   3.325
 9877SOL    HW130530   0.346   5.876   3.230
 9877SOL    HW230531   0.278   5.925   3.370
 9878SOL     OW30532   2.523   5.493   4.845
 9878SOL    HW130533   2.449   5.539   4.893
 9878SOL    HW230534   2.611   5.524   4.881
 9879SOL     OW30535   5.907   5.341   4.140
 9879SOL    HW130536   5.910   5.250   4.182
 9879SOL    HW230537   5.991   5.355   4.086
 9880SOL     OW30538   2.682   1.801   5.657
 9880SOL    HW130539   2.604   1.765   5.605
 9880SOL    HW230540   2.737   1.860   5.598
 9881SOL     OW30541   2.046   1.166   5.021
 9881SOL    HW130542   2.042   1.104   4.942
 9881SOL    HW230543   2.040   1.112   5.105
 9882SOL     OW30544   1.056   2.338   4.241
 9882SOL    HW130545   1.127   2.406   4.259
 9882SOL    HW230546   1.079   2.285   4.159
 9883SOL     OW30547   1.979   5.529   0.239
 9883SOL    HW130548   1.987   5.430   0.251
 9883SOL    HW230549   1.892   5.551   0.197
 9884SOL     OW30550   4.078   1.752   3.158
 9884SOL    HW130551   4.108   1.665   3.119
 9884SOL    HW230552   4.151   1.789   3.216
 9885SOL     OW30553   6.753   3.093   5.601
 9885SOL    HW130554   6.780   3.063   5.693
 9885SOL    HW230555   6.710   3.183   5.606
 9886SOL     OW30556   0.970   4.567   1.451
 9886SOL    HW130557   1.036   4.539   1.521
 9886SOL    HW230558   0.974   4.504   1.374
 9887SOL     OW30559   3.612   0.557   6.064
 9887SOL    HW130560   3.598   0.547   5.965
 9887SOL    HW230561   3.640   0.651   6.084
 9888SOL     OW30562   6.229   4.101   1.923
 9888SOL    HW130563   6.162   4.028   1.925
 9888SOL    HW230564   6.321   4.062   1.911
 9889SOL     OW30565   0.038   5.698   1.533
 9889SOL    HW130566   7.014   5.613   1.519
 9889SOL    HW230567   0.109   5.684   1.602
 9890SOL     OW30568   1.632   1.770   0.571
 9890SOL    HW130569   1.713   1.829   0.577
 9890SOL    HW230570   1.550   1.827   0.564
 9891SOL     OW30571   5.665   2.874   1.504
 9891SOL    HW130572   5.715   2.953   1.468
 9891SOL    HW230573   5.722   2.826   1.571
 9892SOL     OW30574   6.769   4.991   0.630
 9892SOL    HW130575   6.867   4.990   0.609
 9892SOL    HW230576   6.756   4.976   0.728
 9893SOL     OW30577   1.016   0.059   1.156
 9893SOL    HW130578   1.022   0.008   1.242
 9893SOL    HW230579   1.055   0.003   1.082
 9894SOL     OW30580   2.438   2.780   1.886
 9894SOL    HW130581   2.474   2.699   1.933
 9894SOL    HW230582   2.467   2.778   1.790
 9895SOL     OW30583   6.883   3.587   5.139
 9895SOL    HW130584   6.983   3.587   5.147
 9895SOL    HW230585   6.843   3.622   5.224
 9896SOL     OW30586   6.179   0.444   6.846
 9896SOL    HW130587   6.275   0.418   6.836
 9896SOL    HW230588   6.125   0.364   6.872
 9897SOL     OW30589   6.330   5.716   3.141
 9897SOL    HW130590   6.267   5.781   3.097
 9897SOL    HW230591   6.404   5.693   3.079
 9898SOL     OW30592   1.443   5.731   4.385
 9898SOL    HW130593   1.382   5.653   4.395
 9898SOL    HW230594   1.532   5.708   4.424
 9899SOL     OW30595   0.837   5.772   6.986
 9899SOL    HW130596   0.846   5.672   6.987
 9899SOL    HW230597   0.924   5.814   7.009
 9900SOL     OW30598   1.771   3.547   3.686
 9900SOL    HW130599   1.726   3.625   3.730
 9900SOL    HW230600   1.791   3.570   3.590
 9901SOL     OW30601   2.994   0.652   6.048
 9901SOL    HW130602   2.897   0.644   6.067
 9901SOL    HW230603   3.017   0.749   6.035
 9902SOL     OW30604   3.142   4.808   0.675
 9902SOL    HW130605   3.141   4.751   0.757
 9902SOL    HW230606   3.174   4.900   0.699
 9903SOL     OW30607   5.274   1.334   2.300
 9903SOL    HW130608   5.314   1.323   2.209
 9903SOL    HW230609   5.280   1.430   2.328
 9904SOL     OW30610   1.348   4.134   6.793
 9904SOL    HW130611   1.350   4.108   6.696
 9904SOL    HW230612   1.324   4.231   6.801
 9905SOL     OW30613   2.294   0.188   6.095
 9905SOL    HW130614   2.196   0.195   6.075
 9905SOL    HW230615   2.308   0.194   6.194
 9906SOL     OW30616   2.584   3.427   1.713
 9906SOL    HW130617   2.520   3.440   1.788
 9906SOL    HW230618   2.545   3.365   1.645
 9907SOL     OW30619   6.508   0.633   1.363
 9907SOL    HW130620   6.419   0.617   1.406
 9907SOL    HW230621   6.505   0.602   1.268
 9908SOL     OW30622   5.585   2.078   4.910
 9908SOL    HW130623   5.493   2.042   4.926
 9908SOL    HW230624   5.581   2.178   4.904
 9909SOL     OW30625   4.216   0.920   3.433
 9909SOL    HW130626   4.180   0.826   3.430
 9909SOL    HW230627   4.219   0.957   3.340
 9910SOL     OW30628   1.388   4.513   2.996
 9910SOL    HW130629   1.418   4.442   3.060
 9910SOL    HW230630   1.421   4.602   3.027
 9911SOL     OW30631   3.243   5.698   2.190
 9911SOL    HW130632   3.299   5.780   2.173
 9911SOL    HW230633   3.216   5.696   2.287
 9912SOL     OW30634   4.269   0.438   1.151
 9912SOL    HW130635   4.227   0.528   1.142
 9912SOL    HW230636   4.353   0.446   1.205
 9913SOL     OW30637   6.276   4.297   1.372
 9913SOL    HW130638   6.230   4.307   1.460
 9913SOL    HW230639   6.210   4.266   1.304
 9914SOL     OW30640   5.610   1.581   4.562
 9914SOL    HW130641   5.653   1.667   4.532
 9914SOL    HW230642   5.543   1.601   4.633
 9915SOL     OW30643   4.893   0.624   3.521
 9915SOL    HW130644   4.794   0.641   3.518
 9915SOL    HW230645   4.939   0.690   3.462
 9916SOL     OW30646   2.273   2.811   3.239
 9916SOL    HW130647   2.195   2.751   3.256
 9916SOL    HW230648   2.267   2.847   3.146
 9917SOL     OW30649   5.570   4.184   6.955
 9917SOL    HW130650   5.582   4.247   6.878
 9917SOL    HW230651   5.622   4.218   0.007
 9918SOL     OW30652   3.369   1.629   3.118
 9918SOL    HW130653   3.303   1.578   3.173
 9918SOL    HW230654   3.440   1.567   3.085
 9919SOL     OW30655   6.398   5.165   1.562
 9919SOL    HW130656   6.450   5.239   1.520
 9919SOL    HW230657   6.375   5.097   1.492
 9920SOL     OW30658   4.830   1.500   1.988
 9920SOL    HW130659   4.832   1.467   2.083
 9920SOL    HW230660   4.879   1.587   1.983
 9921SOL     OW30661   4.199   0.059   5.517
 9921SOL    HW130662   4.213   7.008   5.579
 9921SOL    HW230663   4.121   0.113   5.549
 9922SOL     OW30664   2.752   4.098   0.497
 9922SOL    HW130665   2.709   4.134   0.579
 9922SOL    HW230666   2.683   4.088   0.425
 9923SOL     OW30667   5.117   4.729   6.510
 9923SOL    HW130668   5.137   4.825   6.490
 9923SOL    HW230669   5.142   4.708   6.605
 9924SOL     OW30670   6.419   1.943   4.695
 9924SOL    HW130671   6.417   1.971   4.599
 9924SOL    HW230672   6.334   1.895   4.717
 9925SOL     OW30673   6.989   3.062   4.331
 9925SOL    HW130674   6.985   3.149   4.283
 9925SOL    HW230675   6.920   3.061   4.404
 9926SOL     OW30676   4.050   2.150   0.519
 9926SOL    HW130677   4.008   2.206   0.591
 9926SOL    HW230678   3.979   2.093   0.476
 9927SOL     OW30679   0.241   6.663   0.212
 9927SOL    HW130680   0.184   6.692   0.289
 9927SOL    HW230681   0.215   6.570   0.185
 9928SOL     OW30682   4.807   4.112   2.611
 9928SOL    HW130683   4.804   4.015   2.633
 9928SOL    HW230684   4.785   4.125   2.514
 9929SOL     OW30685   3.080   4.495   5.650
 9929SOL    HW130686   3.033   4.575   5.613
 9929SOL    HW230687   3.014   4.421   5.664
 9930SOL     OW30688   6.671   6.356   4.916
 9930SOL    HW130689   6.655   6.290   4.989
 9930SOL    HW230690   6.586   6.368   4.864
 9931SOL     OW30691   0.297   5.789   4.064
 9931SOL    HW130692   0.242   5.814   4.143
 9931SOL    HW230693   0.286   5.691   4.045
 9932SOL     OW30694   3.192   4.029   6.955
 9932SOL    HW130695   3.117   4.080   6.913
 9932SOL    HW230696   3.230   4.083   0.004
 9933SOL     OW30697   0.141   5.761   3.679
 9933SOL    HW130698   0.240   5.771   3.681
 9933SOL    HW230699   0.114   5.702   3.604
 9934SOL     OW30700   5.857   2.153   5.826
 9934SOL    HW130701   5.850   2.054   5.839
 9934SOL    HW230702   5.916   2.192   5.897
 9935SOL     OW30703   2.428   6.455   6.946
 9935SOL    HW130704   2.389   6.403   6.870
 9935SOL    HW230705   2.525   6.431   6.956
 9936SOL     OW30706   6.579   5.431   6.519
 9936SOL    HW130707   6.485   5.447   6.547
 9936SOL    HW230708   6.626   5.376   6.588
 9937SOL     OW30709   6.396   1.445   1.009
 9937SOL    HW130710   6.405   1.543   0.992
 9937SOL    HW230711   6.321   1.408   0.955
 9938SOL     OW30712   6.781   5.089   2.766
 9938SOL    HW130713   6.847   5.014   2.757
 9938SOL    HW230714   6.694   5.053   2.799
 9939SOL     OW30715   4.233   2.370   0.465
 9939SOL    HW130716   4.167   2.300   0.493
 9939SOL    HW230717   4.325   2.344   0.496
 9940SOL     OW30718   1.132   0.615   1.095
 9940SOL    HW130719   1.055   0.667   1.132
 9940SOL    HW230720   1.117   0.517   1.111
 9941SOL     OW30721   3.133   3.719   5.346
 9941SOL    HW130722   3.075   3.781   5.400
 9941SOL    HW230723   3.180   3.771   5.275
 9942SOL     OW30724   2.584   5.558   2.397
 9942SOL    HW130725   2.624   5.484   2.344
 9942SOL    HW230726   2.487   5.568   2.373
 9943SOL     OW30727   0.177   4.116   5.713
 9943SOL    HW130728   0.134   4.169   5.640
 9943SOL    HW230729   0.276   4.131   5.711
 9944SOL     OW30730   1.557   4.601   6.611
 9944SOL    HW130731   1.546   4.501   6.611
 9944SOL    HW230732   1.646   4.625   6.651
 9945SOL     OW30733   6.007   5.701   6.368
 9945SOL    HW130734   6.080   5.742   6.314
 9945SOL    HW230735   5.918   5.734   6.335
 9946SOL     OW30736   5.064   0.970   3.587
 9946SOL    HW130737   5.103   0.995   3.676
 9946SOL    HW230738   4.985   1.028   3.567
 9947SOL     OW30739   1.763   2.559   4.750
 9947SOL    HW130740   1.760   2.604   4.840
 9947SOL    HW230741   1.857   2.534   4.729
 9948SOL     OW30742   5.841   3.991   4.760
 9948SOL    HW130743   5.926   3.939   4.751
 9948SOL    HW230744   5.764   3.933   4.736
 9949SOL     OW30745   6.693   4.799   4.316
 9949SOL    HW130746   6.730   4.742   4.243
 9949SOL    HW230747   6.615   4.752   4.359
 9950SOL     OW30748   5.614   5.689   4.965
 9950SOL    HW130749   5.646   5.784   4.955
 9950SOL    HW230750   5.518   5.683   4.936
 9951SOL     OW30751   0.205   0.638   4.575
 9951SOL    HW130752   0.257   0.701   4.633
 9951SOL    HW230753   0.265   0.604   4.502
 9952SOL     OW30754   1.238   3.855   0.859
 9952SOL    HW130755   1.228   3.950   0.829
 9952SOL    HW230756   1.304   3.807   0.801
 9953SOL     OW30757   5.583   2.838   4.732
 9953SOL    HW130758   5.517   2.894   4.680
 9953SOL    HW230759   5.533   2.774   4.791
 9954SOL     OW30760   6.475   0.947   6.479
 9954SOL    HW130761   6.519   0.979   6.563
 9954SOL    HW230762   6.542   0.900   6.422
 9955SOL     OW30763   6.520   3.508   5.590
 9955SOL    HW130764   6.523   3.607   5.579
 9955SOL    HW230765   6.430   3.473   5.563
 9956SOL     OW30766   1.440   6.761   2.654
 9956SOL    HW130767   1.459   6.696   2.580
 9956SOL    HW230768   1.368   6.724   2.713
 9957SOL     OW30769   5.045   5.827   2.496
 9957SOL    HW130770   5.125   5.768   2.485
 9957SOL    HW230771   5.048   5.873   2.584
 9958SOL     OW30772   3.385   5.494   0.337
 9958SOL    HW130773   3.465   5.436   0.351
 9958SOL    HW230774   3.385   5.528   0.243
 9959SOL     OW30775   4.123   3.722   5.285
 9959SOL    HW130776   4.149   3.700   5.190
 9959SOL    HW230777   4.165   3.809   5.311
 9960SOL     OW30778   0.059   6.970   1.948
 9960SOL    HW130779   0.135   7.023   1.985
 9960SOL    HW230780   0.064   6.876   1.982
 9961SOL     OW30781   1.289   5.135   4.494
 9961SOL    HW130782   1.376   5.151   4.447
 9961SOL    HW230783   1.307   5.100   4.586
 9962SOL     OW30784   6.414   6.502   2.848
 9962SOL    HW130785   6.362   6.419   2.869
 9962SOL    HW230786   6.354   6.571   2.809
 9963SOL     OW30787   2.705   3.527   6.801
 9963SOL    HW130788   2.736   3.574   6.718
 9963SOL    HW230789   2.783   3.514   6.863
 9964SOL     OW30790   5.192   4.862   5.505
 9964SOL    HW130791   5.211   4.775   5.460
 9964SOL    HW230792   5.131   4.917   5.448
 9965SOL     OW30793   3.854   6.503   6.100
 9965SOL    HW130794   3.871   6.601   6.087
 9965SOL    HW230795   3.941   6.454   6.107
 9966SOL     OW30796   1.847   6.012   1.747
 9966SOL    HW130797   1.847   5.914   1.729
 9966SOL    HW230798   1.915   6.057   1.690
 9967SOL     OW30799   0.467   0.039   2.235
 9967SOL    HW130800   0.485   7.008   2.315
 9967SOL    HW230801   0.547   0.095   2.214
 9968SOL     OW30802   3.295   3.792   1.273
 9968SOL    HW130803   3.340   3.718   1.223
 9968SOL    HW230804   3.212   3.757   1.316
 9969SOL     OW30805   1.796   2.951   2.760
 9969SOL    HW130806   1.810   3.050   2.751
 9969SOL    HW230807   1.775   2.912   2.671
 9970SOL     OW30808   5.228   3.949   2.475
 9970SOL    HW130809   5.162   3.987   2.411
 9970SOL    HW230810   5.303   4.015   2.488
 9971SOL     OW30811   2.374   5.620   1.625
 9971SOL    HW130812   2.445   5.597   1.559
 9971SOL    HW230813   2.309   5.544   1.632
 9972SOL     OW30814   4.601   4.903   1.605
 9972SOL    HW130815   4.594   4.846   1.687
 9972SOL    HW230816   4.512   4.908   1.560
 9973SOL     OW30817   5.172   1.867   3.892
 9973SOL    HW130818   5.200   1.904   3.803
 9973SOL    HW230819   5.217   1.779   3.907
 9974SOL     OW30820   0.436   2.817   2.819
 9974SOL    HW130821   0.528   2.836   2.783
 9974SOL    HW230822   0.374   2.798   2.743
 9975SOL     OW30823   6.050   4.300   0.089
 9975SOL    HW130824   6.050   4.396   0.060
 9975SOL    HW230825   6.127   4.252   0.047
 9976SOL     OW30826   0.663   6.276   5.601
 9976SOL    HW130827   0.608   6.261   5.683
 9976SOL    HW230828   0.705   6.190   5.573
 9977SOL     OW30829   0.041   5.003   5.603
 9977SOL    HW130830   7.005   4.983   5.527
 9977SOL    HW230831   0.135   5.001   5.569
 9978SOL     OW30832   0.366   2.197   4.418
 9978SOL    HW130833   0.356   2.269   4.487
 9978SOL    HW230834   0.305   2.121   4.440
 9979SOL     OW30835   6.344   5.029   5.469
 9979SOL    HW130836   6.348   4.956   5.401
 9979SOL    HW230837   6.277   5.098   5.440
 9980SOL     OW30838   1.799   0.970   5.717
 9980SOL    HW130839   1.710   0.956   5.760
 9980SOL    HW230840   1.872   0.960   5.786
 9981SOL     OW30841   2.681   1.776   2.790
 9981SOL    HW130842   2.745   1.796   2.715
 9981SOL    HW230843   2.654   1.862   2.834
 9982SOL     OW30844   6.388   6.513   4.455
 9982SOL    HW130845   6.304   6.545   4.499
 9982SOL    HW230846   6.458   6.583   4.463
 9983SOL     OW30847   6.818   2.390   2.679
 9983SOL    HW130848   6.880   2.379   2.757
 9983SOL    HW230849   6.772   2.303   2.661
 9984SOL     OW30850   2.049   0.873   6.889
 9984SOL    HW130851   2.062   0.781   6.851
 9984SOL    HW230852   1.995   0.867   6.973
 9985SOL     OW30853   0.950   1.235   0.980
 9985SOL    HW130854   0.913   1.205   0.892
 9985SOL    HW230855   0.999   1.321   0.968
 9986SOL     OW30856   5.525   4.251   6.015
 9986SOL    HW130857   5.464   4.228   6.092
 9986SOL    HW230858   5.576   4.334   6.038
 9987SOL     OW30859   0.204   3.250   4.183
 9987SOL    HW130860   0.238   3.194   4.107
 9987SOL    HW230861   0.281   3.281   4.239
 9988SOL     OW30862   6.457   5.946   4.214
 9988SOL    HW130863   6.518   5.895   4.275
 9988SOL    HW230864   6.477   6.044   4.222
 9989SOL     OW30865   6.487   3.597   3.430
 9989SOL    HW130866   6.393   3.574   3.405
 9989SOL    HW230867   6.486   3.654   3.512
 9990SOL     OW30868   2.468   5.369   1.726
 9990SOL    HW130869   2.565   5.345   1.717
 9990SOL    HW230870   2.460   5.457   1.773
 9991SOL     OW30871   2.235   2.308   3.613
 9991SOL    HW130872   2.316   2.362   3.632
 9991SOL    HW230873   2.248   2.256   3.529
 9992SOL     OW30874   5.647   5.303   6.976
 9992SOL    HW130875   5.654   5.360   0.032
 9992SOL    HW230876   5.722   5.237   6.976
 9993SOL     OW30877   2.812   0.763   0.717
 9993SOL    HW130878   2.805   0.736   0.813
 9993SOL    HW230879   2.908   0.777   0.693
 9994SOL     OW30880   5.940   4.399   3.238
 9994SOL    HW130881   5.875   4.350   3.296
 9994SOL    HW230882   6.034   4.372   3.262
 9995SOL     OW30883   4.762   1.272   2.891
 9995SOL    HW130884   4.790   1.363   2.918
 9995SOL    HW230885   4.825   1.204   2.929
 9996SOL     OW30886   2.885   3.202   0.878
 9996SOL    HW130887   2.955   3.208   0.807
 9996SOL    HW230888   2.845   3.110   0.878
 9997SOL     OW30889   3.737   1.826   6.741
 9997SOL    HW130890   3.729   1.830   6.641
 9997SOL    HW230891   3.653   1.790   6.780
 9998SOL     OW30892   5.707   4.732   6.283
 9998SOL    HW130893   5.716   4.654   6.345
 9998SOL    HW230894   5.759   4.810   6.319
 9999SOL     OW30895   6.214   3.014   5.698
 9999SOL    HW130896   6.201   3.023   5.797
 9999SOL    HW230897   6.307   3.041   5.675
10000SOL     OW30898   0.116   4.523   6.929
10000SOL    HW130899   0.044   4.456   6.944
10000SOL    HW230900   0.190   4.508   6.994
10001SOL     OW30901   5.132   6.791   2.124
10001SOL    HW130902   5.089   6.703   2.108
10001SOL    HW230903   5.068   6.852   2.171
10002SOL     OW30904   0.917   0.610   2.732
10002SOL    HW130905   0.966   0.689   2.769
10002SOL    HW230906   0.948   0.591   2.639
10003SOL     OW30907   3.876   1.506   3.349
10003SOL    HW130908   3.891   1.480   3.444
10003SOL    HW230909   3.859   1.605   3.343
10004SOL     OW30910   6.631   2.395   4.392
10004SOL    HW130911   6.641   2.494   4.393
10004SOL    HW230912   6.534   2.370   4.401
10005SOL     OW30913   5.540   0.516   4.991
10005SOL    HW130914   5.497   0.427   4.976
10005SOL    HW230915   5.571   0.553   4.904
10006SOL     OW30916   4.604   5.110   4.190
10006SOL    HW130917   4.527   5.050   4.172
10006SOL    HW230918   4.689   5.066   4.160
10007SOL     OW30919   6.864   4.641   5.865
10007SOL    HW130920   6.838   4.656   5.770
10007SOL    HW230921   6.787   4.664   5.925
10008SOL     OW30922   3.843   1.421   4.438
10008SOL    HW130923   3.760   1.473   4.417
10008SOL    HW230924   3.845   1.339   4.381
10009SOL     OW30925   2.011   3.878   1.751
10009SOL    HW130926   2.101   3.870   1.793
10009SOL    HW230927   1.943   3.831   1.807
10010SOL     OW30928   2.398   0.778   5.372
10010SOL    HW130929   2.412   0.680   5.383
10010SOL    HW230930   2.428   0.826   5.455
10011SOL     OW30931   5.981   0.991   5.771
10011SOL    HW130932   5.988   0.927   5.847
10011SOL    HW230933   5.895   1.042   5.777
10012SOL     OW30934   5.652   1.241   3.297
10012SOL    HW130935   5.567   1.275   3.257
10012SOL    HW230936   5.675   1.295   3.378
10013SOL     OW30937   0.364   1.284   3.501
10013SOL    HW130938   0.318   1.346   3.564
10013SOL    HW230939   0.387   1.198   3.549
10014SOL     OW30940   6.796   4.101   0.602
10014SOL    HW130941   6.790   4.043   0.683
10014SOL    HW230942   6.764   4.050   0.522
10015SOL     OW30943   2.246   5.144   0.638
10015SOL    HW130944   2.209   5.196   0.561
10015SOL    HW230945   2.225   5.191   0.724
10016SOL     OW30946   1.135   1.277   6.360
10016SOL    HW130947   1.046   1.249   6.395
10016SOL    HW230948   1.176   1.202   6.307
10017SOL     OW30949   2.708   1.663   3.169
10017SOL    HW130950   2.663   1.750   3.152
10017SOL    HW230951   2.645   1.601   3.216
10018SOL     OW30952   4.711   0.576   6.127
10018SOL    HW130953   4.735   0.533   6.214
10018SOL    HW230954   4.672   0.508   6.066
10019SOL     OW30955   0.515   1.755   3.114
10019SOL    HW130956   0.551   1.681   3.058
10019SOL    HW230957   0.458   1.815   3.058
10020SOL     OW30958   1.787   2.062   0.866
10020SOL    HW130959   1.714   1.996   0.884
10020SOL    HW230960   1.875   2.019   0.884
10021SOL     OW30961   0.553   2.546   1.481
10021SOL    HW130962   0.504   2.577   1.399
10021SOL    HW230963   0.647   2.579   1.478
10022SOL     OW30964   2.531   1.523   5.936
10022SOL    HW130965   2.448   1.576   5.954
10022SOL    HW230966   2.594   1.531   6.013
10023SOL     OW30967   6.904   4.896   1.049
10023SOL    HW130968   6.830   4.858   0.993
10023SOL    HW230969   6.866   4.929   1.135
10024SOL     OW30970   1.876   6.388   2.456
10024SOL    HW130971   1.799   6.400   2.519
10024SOL    HW230972   1.897   6.475   2.413
10025SOL     OW30973   1.251   0.681   0.366
10025SOL    HW130974   1.209   0.620   0.434
10025SOL    HW230975   1.303   0.626   0.301
10026SOL     OW30976   4.725   6.711   4.008
10026SOL    HW130977   4.769   6.644   3.947
10026SOL    HW230978   4.732   6.802   3.967
10027SOL     OW30979   6.718   3.950   4.268
10027SOL    HW130980   6.750   3.901   4.186
10027SOL    HW230981   6.622   3.973   4.257
10028SOL     OW30982   0.954   0.382   2.084
10028SOL    HW130983   0.866   0.354   2.046
10028SOL    HW230984   0.945   0.395   2.183
10029SOL     OW30985   4.901   1.769   4.459
10029SOL    HW130986   4.808   1.803   4.449
10029SOL    HW230987   4.953   1.788   4.376
10030SOL     OW30988   1.973   0.844   3.373
10030SOL    HW130989   1.902   0.888   3.427
10030SOL    HW230990   1.978   0.888   3.283
10031SOL     OW30991   5.332   4.409   4.583
10031SOL    HW130992   5.346   4.465   4.664
10031SOL    HW230993   5.311   4.315   4.609
10032SOL     OW30994   3.134   0.981   5.052
10032SOL    HW130995   3.096   0.891   5.076
10032SOL    HW230996   3.180   0.975   4.963
10033SOL     OW30997   6.607   2.761   4.452
10033SOL    HW130998   6.660   2.787   4.371
10033SOL    HW230999   6.520   2.810   4.451
10034SOL     OW31000   3.838   0.036   4.326
10034SOL    HW131001   3.777   0.031   4.405
10034SOL    HW231002   3.793   7.020   4.247
10035SOL     OW31003   6.650   5.413   1.602
10035SOL    HW131004   6.680   5.346   1.669
10035SOL    HW231005   6.568   5.460   1.635
10036SOL     OW31006   6.332   2.375   0.808
10036SOL    HW131007   6.402   2.312   0.777
10036SOL    HW231008   6.246   2.356   0.760
10037SOL     OW31009   6.746   1.782   6.706
10037SOL    HW131010   6.703   1.710   6.761
10037SOL    HW231011   6.721   1.771   6.610
10038SOL     OW31012   5.821   6.914   0.314
10038SOL    HW131013   5.894   6.857   0.276
10038SOL    HW231014   5.848   6.948   0.404
10039SOL     OW31015   3.612   0.732   3.532
10039SOL    HW131016   3.699   0.737   3.580
10039SOL    HW231017   3.618   0.666   3.457
10040SOL     OW31018   5.863   5.098   6.965
10040SOL    HW131019   5.908   5.092   6.876
10040SOL    HW231020   5.913   5.042   0.005
10041SOL     OW31021   3.134   6.048   6.861
10041SOL    HW131022   3.145   6.037   6.960
10041SOL    HW231023   3.140   6.145   6.837
10042SOL     OW31024   6.988   1.533   3.639
10042SOL    HW131025   0.052   1.490   3.640
10042SOL    HW231026   6.984   1.604   3.710
10043SOL     OW31027   6.200   1.408   5.221
10043SOL    HW131028   6.120   1.357   5.191
10043SOL    HW231029   6.173   1.497   5.255
10044SOL     OW31030   2.608   3.352   5.783
10044SOL    HW131031   2.676   3.406   5.734
10044SOL    HW231032   2.568   3.284   5.722
10045SOL     OW31033   4.169   0.675   1.046
10045SOL    HW131034   4.191   0.772   1.057
10045SOL    HW231035   4.148   0.656   0.950
10046SOL     OW31036   1.981   3.796   1.099
10046SOL    HW131037   1.942   3.826   1.012
10046SOL    HW231038   1.958   3.863   1.171
10047SOL     OW31039   0.859   3.305   6.123
10047SOL    HW131040   0.881   3.264   6.211
10047SOL    HW231041   0.832   3.400   6.137
10048SOL     OW31042   6.961   6.644   3.073
10048SOL    HW131043   0.011   6.656   3.009
10048SOL    HW231044   6.879   6.615   3.023
10049SOL     OW31045   0.522   1.693   6.115
10049SOL    HW131046   0.619   1.678   6.130
10049SOL    HW231047   0.505   1.791   6.106
10050SOL     OW31048   5.072   3.929   5.177
10050SOL    HW131049   5.098   3.960   5.269
10050SOL    HW231050   5.148   3.945   5.114
10051SOL     OW31051   0.662   3.863   5.182
10051SOL    HW131052   0.660   3.862   5.282
10051SOL    HW231053   0.593   3.928   5.148
10052SOL     OW31054   1.289   1.054   3.384
10052SOL    HW131055   1.205   1.094   3.422
10052SOL    HW231056   1.335   1.000   3.455
10053SOL     OW31057   4.751   5.096   3.777
10053SOL    HW131058   4.821   5.091   3.707
10053SOL    HW231059   4.674   5.150   3.744
10054SOL     OW31060   5.584   4.454   4.973
10054SOL    HW131061   5.634   4.476   5.056
10054SOL    HW231062   5.620   4.369   4.933
10055SOL     OW31063   6.641   2.612   6.949
10055SOL    HW131064   6.579   2.534   6.946
10055SOL    HW231065   6.592   2.693   6.982
10056SOL     OW31066   5.243   3.379   3.142
10056SOL    HW131067   5.183   3.393   3.063
10056SOL    HW231068   5.339   3.388   3.113
10057SOL     OW31069   5.998   3.666   5.922
10057SOL    HW131070   5.978   3.720   5.840
10057SOL    HW231071   6.061   3.592   5.899
10058SOL     OW31072   7.016   2.901   4.112
10058SOL    HW131073   0.065   2.845   4.076
10058SOL    HW231074   0.027   2.979   4.162
10059SOL     OW31075   5.953   1.434   1.093
10059SOL    HW131076   5.889   1.413   1.166
10059SOL    HW231077   5.963   1.354   1.033
10060SOL     OW31078   2.865   1.819   2.594
10060SOL    HW131079   2.827   1.847   2.506
10060SOL    HW231080   2.900   1.726   2.587
10061SOL     OW31081   4.168   1.333   3.586
10061SOL    HW131082   4.227   1.315   3.665
10061SOL    HW231083   4.083   1.373   3.617
10062SOL     OW31084   0.532   6.731   3.636
10062SOL    HW131085   0.439   6.742   3.672
10062SOL    HW231086   0.541   6.782   3.551
10063SOL     OW31087   2.136   2.103   4.604
10063SOL    HW131088   2.057   2.152   4.639
10063SOL    HW231089   2.179   2.051   4.678
10064SOL     OW31090   3.385   6.333   0.148
10064SOL    HW131091   3.326   6.253   0.140
10064SOL    HW231092   3.346   6.409   0.095
10065SOL     OW31093   1.473   0.877   1.369
10065SOL    HW131094   1.416   0.848   1.446
10065SOL    HW231095   1.539   0.806   1.348
10066SOL     OW31096   0.090   3.789   4.896
10066SOL    HW131097   0.005   3.738   4.890
10066SOL    HW231098   0.069   3.887   4.906
10067SOL     OW31099   0.541   2.883   6.849
10067SOL    HW131100   0.442   2.888   6.840
10067SOL    HW231101   0.583   2.955   6.793
10068SOL     OW31102   1.833   3.557   2.759
10068SOL    HW131103   1.839   3.654   2.736
10068SOL    HW231104   1.740   3.525   2.744
10069SOL     OW31105   3.571   5.013   1.726
10069SOL    HW131106   3.506   5.038   1.654
10069SOL    HW231107   3.576   5.086   1.794
10070SOL     OW31108   2.777   6.047   4.455
10070SOL    HW131109   2.838   6.007   4.523
10070SOL    HW231110   2.693   5.994   4.450
10071SOL     OW31111   0.394   6.361   3.871
10071SOL    HW131112   0.347   6.296   3.931
10071SOL    HW231113   0.345   6.448   3.871
10072SOL     OW31114   0.197   1.363   2.957
10072SOL    HW131115   0.268   1.294   2.941
10072SOL    HW231116   0.130   1.359   2.883
10073SOL     OW31117   6.092   2.759   3.687
10073SOL    HW131118   6.104   2.705   3.770
10073SOL    HW231119   6.049   2.704   3.616
10074SOL     OW31120   1.986   4.983   0.686
10074SOL    HW131121   2.076   5.021   0.662
10074SOL    HW231122   1.914   5.044   0.653
10075SOL     OW31123   1.912   1.620   2.569
10075SOL    HW131124   1.861   1.534   2.573
10075SOL    HW231125   2.008   1.602   2.590
10076SOL     OW31126   4.705   5.506   3.212
10076SOL    HW131127   4.688   5.413   3.178
10076SOL    HW231128   4.768   5.502   3.289
10077SOL     OW31129   6.447   3.460   0.116
10077SOL    HW131130   6.510   3.480   0.191
10077SOL    HW231131   6.382   3.389   0.146
10078SOL     OW31132   6.814   6.032   5.067
10078SOL    HW131133   6.794   6.121   5.108
10078SOL    HW231134   6.903   6.037   5.020
10079SOL     OW31135   5.528   2.818   2.836
10079SOL    HW131136   5.597   2.746   2.825
10079SOL    HW231137   5.476   2.802   2.919
10080SOL     OW31138   5.397   0.772   6.186
10080SOL    HW131139   5.428   0.867   6.192
10080SOL    HW231140   5.353   0.757   6.097
10081SOL     OW31141   1.711   1.952   6.932
10081SOL    HW131142   1.715   1.914   6.840
10081SOL    HW231143   1.643   1.902   6.986
10082SOL     OW31144   1.586   4.579   2.763
10082SOL    HW131145   1.568   4.495   2.815
10082SOL    HW231146   1.526   4.582   2.683
10083SOL     OW31147   3.674   5.254   4.077
10083SOL    HW131148   3.680   5.240   4.176
10083SOL    HW231149   3.578   5.262   4.050
10084SOL     OW31150   0.957   0.401   5.486
10084SOL    HW131151   1.008   0.340   5.547
10084SOL    HW231152   1.015   0.478   5.459
10085SOL     OW31153   4.004   6.786   0.011
10085SOL    HW131154   3.955   6.845   6.974
10085SOL    HW231155   4.076   6.838   0.057
10086SOL     OW31156   6.592   6.493   2.318
10086SOL    HW131157   6.515   6.440   2.283
10086SOL    HW231158   6.568   6.590   2.319
10087SOL     OW31159   0.863   6.648   4.101
10087SOL    HW131160   0.867   6.748   4.111
10087SOL    HW231161   0.954   6.610   4.114
10088SOL     OW31162   0.380   2.867   0.086
10088SOL    HW131163   0.286   2.836   0.069
10088SOL    HW231164   0.438   2.838   0.010
10089SOL     OW31165   4.357   1.842   1.936
10089SOL    HW131166   4.356   1.879   2.029
10089SOL    HW231167   4.370   1.917   1.871
10090SOL     OW31168   0.918   5.122   1.155
10090SOL    HW131169   0.874   5.128   1.066
10090SOL    HW231170   1.017   5.118   1.143
10091SOL     OW31171   6.336   5.234   6.158
10091SOL    HW131172   6.309   5.205   6.066
10091SOL    HW231173   6.355   5.332   6.157
10092SOL     OW31174   0.576   3.111   5.425
10092SOL    HW131175   0.647   3.177   5.398
10092SOL    HW231176   0.488   3.139   5.386
10093SOL     OW31177   5.651   3.806   5.637
10093SOL    HW131178   5.627   3.712   5.662
10093SOL    HW231179   5.750   3.819   5.648
10094SOL     OW31180   3.168   0.140   1.142
10094SOL    HW131181   3.195   0.045   1.156
10094SOL    HW231182   3.094   0.144   1.074
10095SOL     OW31183   5.108   2.500   5.353
10095SOL    HW131184   5.019   2.504   5.398
10095SOL    HW231185   5.097   2.524   5.256
10096SOL     OW31186   4.841   1.022   2.622
10096SOL    HW131187   4.893   1.043   2.705
10096SOL    HW231188   4.898   0.970   2.559
10097SOL     OW31189   1.469   1.432   6.106
10097SOL    HW131190   1.412   1.487   6.045
10097SOL    HW231191   1.565   1.452   6.088
10098SOL     OW31192   3.195   5.792   4.562
10098SOL    HW131193   3.174   5.761   4.470
10098SOL    HW231194   3.284   5.838   4.562
10099SOL     OW31195   0.005   4.232   2.376
10099SOL    HW131196   0.095   4.191   2.369
10099SOL    HW231197   0.006   4.323   2.333
10100SOL     OW31198   5.290   5.020   4.926
10100SOL    HW131199   5.222   5.026   4.854
10100SOL    HW231200   5.261   4.954   4.995
10101SOL     OW31201   1.265   2.512   1.460
10101SOL    HW131202   1.251   2.554   1.550
10101SOL    HW231203   1.225   2.420   1.461
10102SOL     OW31204   5.983   6.609   0.798
10102SOL    HW131205   6.076   6.581   0.822
10102SOL    HW231206   5.986   6.694   0.747
10103SOL     OW31207   0.088   0.014   5.501
10103SOL    HW131208   0.153   7.013   5.430
10103SOL    HW231209   7.025   0.034   5.459
10104SOL     OW31210   2.397   0.599   6.007
10104SOL    HW131211   2.427   0.657   5.931
10104SOL    HW231212   2.433   0.507   5.994
10105SOL     OW31213   2.908   1.113   5.849
10105SOL    HW131214   2.923   1.191   5.788
10105SOL    HW231215   2.936   1.029   5.803
10106SOL     OW31216   5.015   6.036   1.170
10106SOL    HW131217   4.975   5.946   1.185
10106SOL    HW231218   5.101   6.027   1.119
10107SOL     OW31219   5.290   4.525   6.501
10107SOL    HW131220   5.253   4.449   6.556
10107SOL    HW231221   5.226   4.601   6.503
10108SOL     OW31222   1.456   3.256   0.539
10108SOL    HW131223   1.474   3.164   0.504
10108SOL    HW231224   1.362   3.262   0.572
10109SOL     OW31225   0.722   1.584   0.355
10109SOL    HW131226   0.708   1.551   0.261
10109SOL    HW231227   0.734   1.505   0.416
10110SOL     OW31228   4.921   5.673   2.813
10110SOL    HW131229   5.021   5.671   2.813
10110SOL    HW231230   4.889   5.758   2.853
10111SOL     OW31231   1.366   1.916   1.992
10111SOL    HW131232   1.407   1.995   2.038
10111SOL    HW231233   1.435   1.844   1.981
10112SOL     OW31234   6.127   2.644   3.393
10112SOL    HW131235   6.202   2.707   3.413
10112SOL    HW231236   6.148   2.554   3.432
10113SOL     OW31237   4.993   1.284   6.637
10113SOL    HW131238   5.023   1.235   6.555
10113SOL    HW231239   5.072   1.301   6.696
10114SOL     OW31240   4.108   1.783   2.799
10114SOL    HW131241   4.042   1.851   2.830
10114SOL    HW231242   4.096   1.768   2.700
10115SOL     OW31243   3.615   1.739   5.048
10115SOL    HW131244   3.616   1.817   4.986
10115SOL    HW231245   3.651   1.659   5.001
10116SOL     OW31246   6.601   0.521   4.937
10116SOL    HW131247   6.557   0.587   4.876
10116SOL    HW231248   6.662   0.462   4.884
10117SOL     OW31249   6.418   5.300   3.964
10117SOL    HW131250   6.488   5.237   4.000
10117SOL    HW231251   6.447   5.394   3.981
10118SOL     OW31252   3.139   4.873   5.042
10118SOL    HW131253   3.226   4.894   4.997
10118SOL    HW231254   3.072   4.843   4.974
10119SOL     OW31255   0.103   5.265   4.719
10119SOL    HW131256   0.031   5.271   4.650
10119SOL    HW231257   0.135   5.171   4.727
10120SOL     OW31258   2.201   2.861   1.915
10120SOL    HW131259   2.203   2.959   1.900
10120SOL    HW231260   2.294   2.824   1.911
10121SOL     OW31261   6.223   4.352   0.723
10121SOL    HW131262   6.124   4.360   0.727
10121SOL    HW231263   6.254   4.363   0.628
10122SOL     OW31264   0.318   1.873   3.644
10122SOL    HW131265   0.349   1.819   3.722
10122SOL    HW231266   0.230   1.915   3.667
10123SOL     OW31267   5.526   6.022   0.814
10123SOL    HW131268   5.537   6.120   0.797
10123SOL    HW231269   5.471   5.981   0.740
10124SOL     OW31270   0.931   4.579   2.644
10124SOL    HW131271   0.922   4.677   2.623
10124SOL    HW231272   1.021   4.563   2.685
10125SOL     OW31273   1.276   2.053   6.831
10125SOL    HW131274   1.290   2.050   6.732
10125SOL    HW231275   1.362   2.078   6.877
10126SOL     OW31276   6.362   0.247   6.694
10126SOL    HW131277   6.370   0.148   6.684
10126SOL    HW231278   6.432   0.279   6.758
10127SOL     OW31279   2.793   5.287   5.963
10127SOL    HW131280   2.799   5.309   6.061
10127SOL    HW231281   2.842   5.357   5.911
10128SOL     OW31282   3.485   0.657   0.332
10128SOL    HW131283   3.442   0.581   0.379
10128SOL    HW231284   3.442   0.743   0.361
10129SOL     OW31285   6.346   1.313   4.230
10129SOL    HW131286   6.335   1.386   4.297
10129SOL    HW231287   6.440   1.279   4.232
10130SOL     OW31288   1.662   2.212   2.453
10130SOL    HW131289   1.618   2.251   2.533
10130SOL    HW231290   1.652   2.113   2.454
10131SOL     OW31291   1.953   0.546   4.114
10131SOL    HW131292   1.910   0.471   4.064
10131SOL    HW231293   1.957   0.524   4.211
10132SOL     OW31294   0.376   1.134   3.072
10132SOL    HW131295   0.340   1.130   3.166
10132SOL    HW231296   0.367   1.044   3.030
10133SOL     OW31297   4.817   6.034   0.791
10133SOL    HW131298   4.723   6.013   0.817
10133SOL    HW231299   4.819   6.065   0.695
10134SOL     OW31300   6.101   0.768   2.149
10134SOL    HW131301   6.161   0.708   2.202
10134SOL    HW231302   6.073   0.720   2.065
10135SOL     OW31303   5.445   0.264   3.246
10135SOL    HW131304   5.348   0.277   3.269
10135SOL    HW231305   5.483   0.352   3.216
10136SOL     OW31306   4.717   1.894   2.726
10136SOL    HW131307   4.619   1.903   2.743
10136SOL    HW231308   4.736   1.805   2.684
10137SOL     OW31309   0.029   5.914   5.693
10137SOL    HW131310   0.044   5.816   5.710
10137SOL    HW231311   6.969   5.926   5.644
10138SOL     OW31312   5.660   1.000   0.118
10138SOL    HW131313   5.720   0.940   0.171
10138SOL    HW231314   5.605   1.055   0.180
10139SOL     OW31315   3.377   3.496   5.306
10139SOL    HW131316   3.287   3.494   5.350
10139SOL    HW231317   3.378   3.567   5.236
10140SOL     OW31318   6.997   5.276   6.057
10140SOL    HW131319   6.972   5.353   6.115
10140SOL    HW231320   6.961   5.290   5.965
10141SOL     OW31321   2.749   1.206   4.425
10141SOL    HW131322   2.668   1.249   4.384
10141SOL    HW231323   2.830   1.231   4.373
10142SOL     OW31324   5.991   6.248   4.112
10142SOL    HW131325   6.028   6.206   4.029
10142SOL    HW231326   6.056   6.235   4.187
10143SOL     OW31327   5.795   3.056   0.094
10143SOL    HW131328   5.758   3.137   0.048
10143SOL    HW231329   5.854   3.006   0.031
10144SOL     OW31330   3.810   6.428   5.313
10144SOL    HW131331   3.713   6.425   5.334
10144SOL    HW231332   3.835   6.520   5.281
10145SOL     OW31333   5.367   5.796   0.159
10145SOL    HW131334   5.438   5.742   0.114
10145SOL    HW231335   5.375   5.892   0.133
10146SOL     OW31336   0.412   2.700   4.462
10146SOL    HW131337   0.482   2.728   4.528
10146SOL    HW231338   0.322   2.728   4.495
10147SOL     OW31339   4.813   5.895   6.413
10147SOL    HW131340   4.859   5.850   6.490
10147SOL    HW231341   4.809   5.832   6.335
10148SOL     OW31342   0.958   4.753   6.640
10148SOL    HW131343   0.891   4.727   6.710
10148SOL    HW231344   0.956   4.687   6.565
10149SOL     OW31345   4.597   4.029   0.865
10149SOL    HW131346   4.608   3.994   0.958
10149SOL    HW231347   4.590   4.129   0.868
10150SOL     OW31348   4.497   4.198   0.081
10150SOL    HW131349   4.484   4.157   0.171
10150SOL    HW231350   4.575   4.261   0.084
10151SOL     OW31351   6.141   0.010   5.566
10151SOL    HW131352   6.053   0.058   5.574
10151SOL    HW231353   6.128   6.940   5.590
10152SOL     OW31354   5.516   6.458   2.877
10152SOL    HW131355   5.573   6.533   2.912
10152SOL    HW231356   5.564   6.371   2.890
10153SOL     OW31357   5.501   4.382   3.782
10153SOL    HW131358   5.463   4.392   3.689
10153SOL    HW231359   5.461   4.302   3.826
10154SOL     OW31360   4.800   5.291   4.805
10154SOL    HW131361   4.886   5.295   4.754
10154SOL    HW231362   4.744   5.216   4.771
10155SOL     OW31363   4.572   2.198   5.559
10155SOL    HW131364   4.473   2.210   5.551
10155SOL    HW231365   4.591   2.114   5.609
10156SOL     OW31366   5.067   0.917   0.823
10156SOL    HW131367   5.068   0.953   0.916
10156SOL    HW231368   4.976   0.928   0.783
10157SOL     OW31369   0.372   3.233   1.532
10157SOL    HW131370   0.411   3.160   1.475
10157SOL    HW231371   0.344   3.195   1.620
10158SOL     OW31372   5.764   6.217   1.616
10158SOL    HW131373   5.767   6.159   1.697
10158SOL    HW231374   5.681   6.198   1.564
10159SOL     OW31375   3.620   3.347   2.957
10159SOL    HW131376   3.686   3.379   3.025
10159SOL    HW231377   3.669   3.314   2.876
10160SOL     OW31378   2.308   4.462   3.580
10160SOL    HW131379   2.365   4.541   3.601
10160SOL    HW231380   2.237   4.453   3.650
10161SOL     OW31381   4.356   4.327   6.083
10161SOL    HW131382   4.453   4.321   6.060
10161SOL    HW231383   4.322   4.418   6.061
10162SOL     OW31384   1.510   3.915   2.708
10162SOL    HW131385   1.468   3.901   2.798
10162SOL    HW231386   1.596   3.865   2.704
10163SOL     OW31387   0.842   6.585   4.981
10163SOL    HW131388   0.772   6.522   4.947
10163SOL    HW231389   0.902   6.536   5.044
10164SOL     OW31390   0.116   3.294   3.283
10164SOL    HW131391   0.204   3.341   3.293
10164SOL    HW231392   0.109   3.221   3.351
10165SOL     OW31393   6.621   3.483   4.161
10165SOL    HW131394   6.685   3.429   4.106
10165SOL    HW231395   6.561   3.422   4.213
10166SOL     OW31396   1.229   1.885   1.076
10166SOL    HW131397   1.157   1.875   1.007
10166SOL    HW231398   1.258   1.794   1.106
10167SOL     OW31399   1.180   6.423   6.241
10167SOL    HW131400   1.123   6.425   6.158
10167SOL    HW231401   1.173   6.332   6.283
10168SOL     OW31402   5.591   1.459   0.466
10168SOL    HW131403   5.576   1.507   0.552
10168SOL    HW231404   5.559   1.365   0.475
10169SOL     OW31405   6.571   3.058   3.622
10169SOL    HW131406   6.503   3.087   3.555
10169SOL    HW231407   6.529   2.996   3.689
10170SOL     OW31408   6.220   5.964   6.015
10170SOL    HW131409   6.125   5.995   6.025
10170SOL    HW231410   6.281   6.043   6.012
10171SOL     OW31411   1.944   3.349   5.844
10171SOL    HW131412   2.032   3.346   5.796
10171SOL    HW231413   1.871   3.366   5.779
10172SOL     OW31414   6.308   0.084   2.976
10172SOL    HW131415   6.323   0.099   3.074
10172SOL    HW231416   6.223   0.032   2.964
10173SOL     OW31417   3.465   4.860   6.471
10173SOL    HW131418   3.557   4.851   6.509
10173SOL    HW231419   3.433   4.771   6.439
10174SOL     OW31420   4.717   6.177   2.089
10174SOL    HW131421   4.801   6.153   2.040
10174SOL    HW231422   4.715   6.275   2.107
10175SOL     OW31423   0.236   1.928   4.056
10175SOL    HW131424   0.184   2.010   4.078
10175SOL    HW231425   0.330   1.953   4.032
10176SOL     OW31426   6.398   2.702   5.787
10176SOL    HW131427   6.371   2.793   5.819
10176SOL    HW231428   6.422   2.706   5.690
10177SOL     OW31429   2.095   0.679   2.002
10177SOL    HW131430   2.147   0.597   1.979
10177SOL    HW231431   2.079   0.733   1.920
10178SOL     OW31432   1.605   0.896   0.014
10178SOL    HW131433   1.664   0.853   6.972
10178SOL    HW231434   1.643   0.882   0.106
10179SOL     OW31435   0.054   4.266   1.165
10179SOL    HW131436   0.073   4.351   1.215
10179SOL    HW231437   0.130   4.202   1.177
10180SOL     OW31438   3.531   0.016   5.406
10180SOL    HW131439   3.595   0.017   5.329
10180SOL    HW231440   3.523   6.949   5.442
10181SOL     OW31441   0.083   3.994   1.480
10181SOL    HW131442   0.091   3.956   1.387
10181SOL    HW231443   0.084   3.919   1.546
10182SOL     OW31444   5.137   0.865   6.940
10182SOL    HW131445   5.226   0.906   6.921
10182SOL    HW231446   5.092   0.841   6.854
10183SOL     OW31447   6.070   2.430   6.495
10183SOL    HW131448   6.081   2.399   6.401
10183SOL    HW231449   6.156   2.467   6.529
10184SOL     OW31450   5.635   3.636   6.370
10184SOL    HW131451   5.548   3.586   6.378
10184SOL    HW231452   5.630   3.720   6.424
10185SOL     OW31453   3.698   5.672   2.797
10185SOL    HW131454   3.669   5.725   2.717
10185SOL    HW231455   3.794   5.693   2.817
10186SOL     OW31456   4.825   3.584   6.020
10186SOL    HW131457   4.820   3.550   5.926
10186SOL    HW231458   4.805   3.510   6.084
10187SOL     OW31459   2.620   4.819   6.088
10187SOL    HW131460   2.605   4.849   5.994
10187SOL    HW231461   2.679   4.885   6.135
10188SOL     OW31462   2.915   0.152   0.469
10188SOL    HW131463   2.823   0.121   0.492
10188SOL    HW231464   2.928   0.150   0.370
10189SOL     OW31465   0.879   1.496   6.479
10189SOL    HW131466   0.858   1.406   6.516
10189SOL    HW231467   0.893   1.488   6.380
10190SOL     OW31468   3.318   4.867   1.524
10190SOL    HW131469   3.343   4.819   1.609
10190SOL    HW231470   3.356   4.959   1.526
10191SOL     OW31471   5.569   5.749   6.401
10191SOL    HW131472   5.487   5.802   6.379
10191SOL    HW231473   5.585   5.752   6.500
10192SOL     OW31474   2.305   1.834   5.087
10192SOL    HW131475   2.242   1.785   5.027
10192SOL    HW231476   2.391   1.850   5.039
10193SOL     OW31477   4.097   3.768   2.929
10193SOL    HW131478   4.142   3.764   2.839
10193SOL    HW231479   4.008   3.812   2.919
10194SOL     OW31480   3.652   0.115   4.097
10194SOL    HW131481   3.608   0.042   4.044
10194SOL    HW231482   3.588   0.147   4.167
10195SOL     OW31483   4.920   6.919   2.213
10195SOL    HW131484   4.938   7.003   2.161
10195SOL    HW231485   4.870   6.941   2.296
10196SOL     OW31486   5.449   1.675   3.066
10196SOL    HW131487   5.464   1.773   3.070
10196SOL    HW231488   5.533   1.627   3.090
10197SOL     OW31489   6.264   0.579   2.283
10197SOL    HW131490   6.295   0.508   2.219
10197SOL    HW231491   6.342   0.610   2.338
10198SOL     OW31492   3.064   6.624   1.661
10198SOL    HW131493   2.971   6.659   1.665
10198SOL    HW231494   3.098   6.609   1.754
10199SOL     OW31495   0.623   1.626   6.522
10199SOL    HW131496   0.548   1.562   6.505
10199SOL    HW231497   0.711   1.579   6.510
10200SOL     OW31498   5.009   4.500   5.420
10200SOL    HW131499   5.083   4.550   5.465
10200SOL    HW231500   5.004   4.407   5.457
10201SOL     OW31501   0.682   5.547   2.370
10201SOL    HW131502   0.723   5.618   2.427
10201SOL    HW231503   0.708   5.456   2.405
10202SOL     OW31504   1.031   3.399   1.619
10202SOL    HW131505   1.006   3.415   1.715
10202SOL    HW231506   0.949   3.405   1.563
10203SOL     OW31507   2.155   2.999   2.193
10203SOL    HW131508   2.138   3.002   2.095
10203SOL    HW231509   2.220   2.925   2.214
10204SOL     OW31510   3.081   4.744   5.269
10204SOL    HW131511   3.016   4.676   5.234
10204SOL    HW231512   3.129   4.787   5.193
10205SOL     OW31513   5.625   2.163   3.856
10205SOL    HW131514   5.585   2.236   3.911
10205SOL    HW231515   5.588   2.075   3.886
10206SOL     OW31516   5.759   6.743   5.778
10206SOL    HW131517   5.750   6.652   5.737
10206SOL    HW231518   5.723   6.741   5.871
10207SOL     OW31519   2.940   1.183   2.989
10207SOL    HW131520   2.845   1.172   2.959
10207SOL    HW231521   2.959   1.122   3.065
10208SOL     OW31522   5.590   4.872   5.912
10208SOL    HW131523   5.602   4.971   5.915
10208SOL    HW231524   5.581   4.843   5.816
10209SOL     OW31525   0.041   0.380   6.534
10209SOL    HW131526   6.995   0.351   6.472
10209SOL    HW231527   0.094   0.301   6.564
10210SOL     OW31528   5.963   6.433   2.329
10210SOL    HW131529   5.873   6.426   2.373
10210SOL    HW231530   5.981   6.528   2.304
10211SOL     OW31531   3.860   6.006   5.543
10211SOL    HW131532   3.893   5.953   5.466
10211SOL    HW231533   3.876   5.955   5.628
10212SOL     OW31534   0.470   1.252   3.878
10212SOL    HW131535   0.546   1.249   3.943
10212SOL    HW231536   0.435   1.160   3.863
10213SOL     OW31537   6.118   1.869   3.350
10213SOL    HW131538   6.182   1.884   3.275
10213SOL    HW231539   6.169   1.847   3.434
10214SOL     OW31540   6.546   0.792   2.186
10214SOL    HW131541   6.643   0.811   2.199
10214SOL    HW231542   6.531   0.693   2.182
10215SOL     OW31543   3.808   3.452   6.271
10215SOL    HW131544   3.745   3.455   6.348
10215SOL    HW231545   3.869   3.531   6.273
10216SOL     OW31546   5.967   0.247   0.971
10216SOL    HW131547   5.944   0.310   0.896
10216SOL    HW231548   5.930   0.282   1.057
10217SOL     OW31549   2.582   2.233   3.997
10217SOL    HW131550   2.639   2.219   3.916
10217SOL    HW231551   2.539   2.147   4.023
10218SOL     OW31552   2.099   1.065   0.735
10218SOL    HW131553   2.169   1.065   0.663
10218SOL    HW231554   2.011   1.040   0.696
10219SOL     OW31555   0.854   2.804   1.634
10219SOL    HW131556   0.837   2.829   1.729
10219SOL    HW231557   0.796   2.859   1.574
10220SOL     OW31558   4.379   1.803   1.557
10220SOL    HW131559   4.311   1.734   1.583
10220SOL    HW231560   4.332   1.885   1.524
10221SOL     OW31561   2.842   0.762   5.354
10221SOL    HW131562   2.895   0.713   5.284
10221SOL    HW231563   2.807   0.696   5.421
10222SOL     OW31564   1.306   4.450   4.724
10222SOL    HW131565   1.231   4.399   4.767
10222SOL    HW231566   1.341   4.398   4.645
10223SOL     OW31567   1.807   4.621   6.706
10223SOL    HW131568   1.902   4.640   6.684
10223SOL    HW231569   1.794   4.626   6.805
10224SOL     OW31570   0.317   6.975   4.193
10224SOL    HW131571   0.415   6.976   4.174
10224SOL    HW231572   0.270   0.013   4.132
10225SOL     OW31573   6.735   5.755   4.660
10225SOL    HW131574   6.701   5.769   4.752
10225SOL    HW231575   6.824   5.710   4.664
10226SOL     OW31576   2.574   1.197   6.757
10226SOL    HW131577   2.528   1.172   6.672
10226SOL    HW231578   2.591   1.296   6.759
10227SOL     OW31579   4.579   4.535   0.193
10227SOL    HW131580   4.629   4.449   0.182
10227SOL    HW231581   4.493   4.530   0.142
10228SOL     OW31582   0.887   5.109   2.668
10228SOL    HW131583   0.944   5.123   2.587
10228SOL    HW231584   0.903   5.184   2.732
10229SOL     OW31585   1.017   0.432   3.509
10229SOL    HW131586   1.088   0.491   3.547
10229SOL    HW231587   0.971   0.479   3.435
10230SOL     OW31588   5.794   6.743   3.277
10230SOL    HW131589   5.857   6.803   3.228
10230SOL    HW231590   5.844   6.690   3.345
10231SOL     OW31591   5.787   6.904   4.621
10231SOL    HW131592   5.818   6.809   4.627
10231SOL    HW231593   5.811   6.941   4.531
10232SOL     OW31594   3.441   0.804   4.169
10232SOL    HW131595   3.450   0.794   4.268
10232SOL    HW231596   3.420   0.899   4.147
10233SOL     OW31597   4.234   3.032   6.159
10233SOL    HW131598   4.160   2.969   6.185
10233SOL    HW231599   4.236   3.041   6.059
10234SOL     OW31600   5.232   0.213   0.666
10234SOL    HW131601   5.168   0.283   0.632
10234SOL    HW231602   5.198   0.122   0.642
10235SOL     OW31603   5.108   1.475   0.059
10235SOL    HW131604   5.120   1.460   6.987
10235SOL    HW231605   5.135   1.393   0.110
10236SOL     OW31606   1.999   6.491   2.053
10236SOL    HW131607   2.093   6.478   2.083
10236SOL    HW231608   1.945   6.529   2.128
10237SOL     OW31609   6.583   4.550   2.436
10237SOL    HW131610   6.562   4.473   2.497
10237SOL    HW231611   6.517   4.550   2.360
10238SOL     OW31612   3.780   4.452   5.314
10238SOL    HW131613   3.749   4.366   5.273
10238SOL    HW231614   3.879   4.460   5.302
10239SOL     OW31615   0.507   4.084   5.083
10239SOL    HW131616   0.493   4.092   4.984
10239SOL    HW231617   0.463   4.161   5.129
10240SOL     OW31618   0.952   4.193   2.891
10240SOL    HW131619   0.964   4.215   2.988
10240SOL    HW231620   0.889   4.116   2.881
10241SOL     OW31621   0.702   1.334   2.341
10241SOL    HW131622   0.736   1.358   2.250
10241SOL    HW231623   0.763   1.266   2.382
10242SOL     OW31624   6.925   1.269   5.390
10242SOL    HW131625   7.005   1.210   5.403
10242SOL    HW231626   6.940   1.329   5.312
10243SOL     OW31627   0.679   5.363   1.263
10243SOL    HW131628   0.756   5.341   1.322
10243SOL    HW231629   0.674   5.462   1.251
10244SOL     OW31630   2.452   4.916   0.068
10244SOL    HW131631   2.404   4.967   7.022
10244SOL    HW231632   2.537   4.964   0.091
10245SOL     OW31633   1.550   3.211   6.781
10245SOL    HW131634   1.505   3.206   6.692
10245SOL    HW231635   1.484   3.240   6.850
10246SOL     OW31636   2.972   3.853   4.601
10246SOL    HW131637   2.993   3.820   4.693
10246SOL    HW231638   2.944   3.949   4.606
10247SOL     OW31639   6.913   5.028   6.096
10247SOL    HW131640   6.949   5.120   6.081
10247SOL    HW231641   6.926   4.973   6.014
10248SOL     OW31642   3.007   0.448   2.019
10248SOL    HW131643   3.018   0.350   2.038
10248SOL    HW231644   3.023   0.500   2.103
10249SOL     OW31645   4.524   0.754   5.280
10249SOL    HW131646   4.501   0.657   5.271
10249SOL    HW231647   4.542   0.777   5.376
10250SOL     OW31648   6.048   1.128   1.445
10250SOL    HW131649   6.140   1.090   1.448
10250SOL    HW231650   6.015   1.129   1.350
10251SOL     OW31651   3.065   3.048   6.706
10251SOL    HW131652   3.036   3.003   6.791
10251SOL    HW231653   3.099   2.978   6.642
10252SOL     OW31654   6.241   6.534   0.860
10252SOL    HW131655   6.275   6.440   0.870
10252SOL    HW231656   6.317   6.598   0.864
10253SOL     OW31657   4.613   4.689   0.411
10253SOL    HW131658   4.618   4.647   0.320
10253SOL    HW231659   4.656   4.628   0.478
10254SOL     OW31660   2.892   1.534   4.700
10254SOL    HW131661   2.971   1.516   4.758
10254SOL    HW231662   2.889   1.631   4.675
10255SOL     OW31663   1.803   6.080   2.013
10255SOL    HW131664   1.765   5.991   2.036
10255SOL    HW231665   1.847   6.075   1.923
10256SOL     OW31666   4.874   6.914   0.312
10256SOL    HW131667   4.966   6.882   0.286
10256SOL    HW231668   4.851   6.994   0.256
10257SOL     OW31669   1.448   5.153   5.783
10257SOL    HW131670   1.498   5.126   5.865
10257SOL    HW231671   1.351   5.135   5.796
10258SOL     OW31672   4.489   6.324   3.588
10258SOL    HW131673   4.580   6.284   3.596
10258SOL    HW231674   4.484   6.408   3.643
10259SOL     OW31675   0.074   4.727   4.185
10259SOL    HW131676   0.096   4.778   4.103
10259SOL    HW231677   0.142   4.746   4.256
10260SOL     OW31678   0.641   6.344   2.983
10260SOL    HW131679   0.563   6.283   2.993
10260SOL    HW231680   0.672   6.344   2.888
10261SOL     OW31681   0.200   5.375   2.310
10261SOL    HW131682   0.227   5.305   2.244
10261SOL    HW231683   0.180   5.331   2.398
10262SOL     OW31684   3.412   5.060   4.408
10262SOL    HW131685   3.326   5.010   4.419
10262SOL    HW231686   3.392   5.156   4.386
10263SOL     OW31687   4.983   2.020   6.659
10263SOL    HW131688   4.981   1.921   6.670
10263SOL    HW231689   4.977   2.043   6.561
10264SOL     OW31690   5.806   1.545   6.120
10264SOL    HW131691   5.781   1.448   6.108
10264SOL    HW231692   5.738   1.590   6.177
10265SOL     OW31693   3.487   1.746   2.813
10265SOL    HW131694   3.447   1.664   2.772
10265SOL    HW231695   3.586   1.742   2.805
10266SOL     OW31696   3.650   3.686   6.477
10266SOL    HW131697   3.634   3.753   6.550
10266SOL    HW231698   3.642   3.594   6.514
10267SOL     OW31699   7.019   1.903   0.230
10267SOL    HW131700   6.956   1.848   0.285
10267SOL    HW231701   6.974   1.928   0.144
10268SOL     OW31702   5.531   6.076   1.099
10268SOL    HW131703   5.509   6.051   1.005
10268SOL    HW231704   5.455   6.052   1.159
10269SOL     OW31705   2.436   2.223   5.875
10269SOL    HW131706   2.488   2.190   5.796
10269SOL    HW231707   2.338   2.214   5.858
10270SOL     OW31708   2.165   5.891   0.858
10270SOL    HW131709   2.100   5.829   0.902
10270SOL    HW231710   2.126   5.924   0.771
10271SOL     OW31711   3.429   3.589   1.159
10271SOL    HW131712   3.514   3.642   1.168
10271SOL    HW231713   3.439   3.523   1.085
10272SOL     OW31714   1.089   0.858   4.415
10272SOL    HW131715   1.125   0.918   4.486
10272SOL    HW231716   0.993   0.836   4.436
10273SOL     OW31717   3.245   5.989   4.256
10273SOL    HW131718   3.149   5.972   4.277
10273SOL    HW231719   3.258   5.994   4.157
10274SOL     OW31720   1.652   4.966   5.611
10274SOL    HW131721   1.692   4.883   5.651
10274SOL    HW231722   1.591   5.009   5.676
10275SOL     OW31723   0.882   6.452   2.974
10275SOL    HW131724   0.792   6.434   3.014
10275SOL    HW231725   0.953   6.439   3.043
10276SOL     OW31726   0.052   5.685   5.883
10276SOL    HW131727   0.045   5.750   5.959
10276SOL    HW231728   0.018   5.596   5.912
10277SOL     OW31729   2.748   6.555   3.985
10277SOL    HW131730   2.765   6.500   4.066
10277SOL    HW231731   2.662   6.605   3.996
10278SOL     OW31732   6.546   0.389   6.493
10278SOL    HW131733   6.528   0.455   6.421
10278SOL    HW231734   6.467   0.385   6.555
10279SOL     OW31735   3.389   6.950   4.303
10279SOL    HW131736   3.360   7.019   4.236
10279SOL    HW231737   3.371   6.985   4.395
10280SOL     OW31738   1.972   4.290   1.233
10280SOL    HW131739   2.009   4.377   1.202
10280SOL    HW231740   1.881   4.303   1.271
10281SOL     OW31741   4.863   1.471   2.646
10281SOL    HW131742   4.928   1.536   2.608
10281SOL    HW231743   4.884   1.453   2.742
10282SOL     OW31744   0.395   2.309   3.973
10282SOL    HW131745   0.333   2.346   4.042
10282SOL    HW231746   0.489   2.311   4.008
10283SOL     OW31747   0.917   3.403   0.734
10283SOL    HW131748   0.926   3.303   0.733
10283SOL    HW231749   1.004   3.445   0.708
10284SOL     OW31750   5.697   3.925   5.056
10284SOL    HW131751   5.719   3.957   4.964
10284SOL    HW231752   5.764   3.962   5.121
10285SOL     OW31753   4.954   0.320   1.329
10285SOL    HW131754   4.990   0.364   1.247
10285SOL    HW231755   4.874   0.370   1.362
10286SOL     OW31756   3.657   1.111   3.189
10286SOL    HW131757   3.559   1.125   3.201
10286SOL    HW231758   3.674   1.057   3.107
10287SOL     OW31759   1.132   6.629   1.810
10287SOL    HW131760   1.070   6.627   1.732
10287SOL    HW231761   1.099   6.569   1.882
10288SOL     OW31762   5.115   5.603   3.199
10288SOL    HW131763   5.053   5.577   3.274
10288SOL    HW231764   5.139   5.700   3.208
10289SOL     OW31765   3.029   1.432   1.711
10289SOL    HW131766   2.966   1.464   1.641
10289SOL    HW231767   3.097   1.503   1.730
10290SOL     OW31768   3.952   3.359   2.529
10290SOL    HW131769   3.997   3.322   2.610
10290SOL    HW231770   3.905   3.285   2.480
10291SOL     OW31771   3.852   0.894   3.370
10291SOL    HW131772   3.851   0.809   3.422
10291SOL    HW231773   3.789   0.960   3.411
10292SOL     OW31774   0.314   2.144   5.193
10292SOL    HW131775   0.386   2.092   5.146
10292SOL    HW231776   0.305   2.234   5.151
10293SOL     OW31777   1.789   5.777   3.002
10293SOL    HW131778   1.819   5.723   2.923
10293SOL    HW231779   1.742   5.859   2.970
10294SOL     OW31780   5.285   2.308   2.798
10294SOL    HW131781   5.311   2.275   2.707
10294SOL    HW231782   5.185   2.313   2.804
10295SOL     OW31783   6.948   4.573   5.472
10295SOL    HW131784   7.000   4.531   5.397
10295SOL    HW231785   6.911   4.502   5.531
10296SOL     OW31786   5.748   4.070   5.940
10296SOL    HW131787   5.682   4.133   5.899
10296SOL    HW231788   5.724   4.053   6.035
10297SOL     OW31789   2.126   6.269   3.838
10297SOL    HW131790   2.197   6.312   3.783
10297SOL    HW231791   2.123   6.312   3.929
10298SOL     OW31792   4.923   3.887   3.761
10298SOL    HW131793   4.846   3.940   3.726
10298SOL    HW231794   4.924   3.797   3.718
10299SOL     OW31795   4.786   4.093   3.642
10299SOL    HW131796   4.714   4.162   3.634
10299SOL    HW231797   4.875   4.135   3.625
10300SOL     OW31798   1.194   3.647   1.814
10300SOL    HW131799   1.145   3.666   1.729
10300SOL    HW231800   1.237   3.557   1.809
10301SOL     OW31801   5.847   1.257   3.098
10301SOL    HW131802   5.868   1.354   3.113
10301SOL    HW231803   5.762   1.234   3.144
10302SOL     OW31804   1.000   6.262   2.782
10302SOL    HW131805   0.948   6.318   2.846
10302SOL    HW231806   0.994   6.300   2.690
10303SOL     OW31807   3.864   3.441   1.632
10303SOL    HW131808   3.840   3.536   1.609
10303SOL    HW231809   3.945   3.414   1.580
10304SOL     OW31810   6.772   6.776   3.845
10304SOL    HW131811   6.715   6.717   3.901
10304SOL    HW231812   6.830   6.720   3.786
10305SOL     OW31813   2.038   5.718   6.817
10305SOL    HW131814   2.001   5.803   6.855
10305SOL    HW231815   2.138   5.724   6.813
10306SOL     OW31816   4.852   5.505   0.054
10306SOL    HW131817   4.766   5.457   0.038
10306SOL    HW231818   4.928   5.453   0.014
10307SOL     OW31819   1.418   0.846   5.563
10307SOL    HW131820   1.503   0.831   5.512
10307SOL    HW231821   1.393   0.762   5.611
10308SOL     OW31822   3.391   5.110   3.251
10308SOL    HW131823   3.464   5.178   3.253
10308SOL    HW231824   3.367   5.084   3.345
10309SOL     OW31825   5.686   6.647   3.007
10309SOL    HW131826   5.769   6.638   2.952
10309SOL    HW231827   5.710   6.657   3.103
10310SOL     OW31828   3.114   3.626   2.586
10310SOL    HW131829   3.020   3.606   2.556
10310SOL    HW231830   3.118   3.721   2.618
10311SOL     OW31831   0.393   5.519   0.606
10311SOL    HW131832   0.339   5.528   0.690
10311SOL    HW231833   0.467   5.586   0.608
10312SOL     OW31834   3.382   4.777   0.937
10312SOL    HW131835   3.388   4.711   1.012
10312SOL    HW231836   3.444   4.750   0.863
10313SOL     OW31837   4.686   0.303   2.558
10313SOL    HW131838   4.611   0.360   2.524
10313SOL    HW231839   4.769   0.323   2.507
10314SOL     OW31840   6.293   0.264   1.127
10314SOL    HW131841   6.286   0.195   1.200
10314SOL    HW231842   6.228   0.338   1.146
10315SOL     OW31843   6.704   5.785   5.406
10315SOL    HW131844   6.714   5.777   5.306
10315SOL    HW231845   6.608   5.801   5.428
10316SOL     OW31846   0.292   3.612   4.753
10316SOL    HW131847   0.391   3.620   4.758
10316SOL    HW231848   0.249   3.682   4.810
10317SOL     OW31849   4.247   4.868   6.181
10317SOL    HW131850   4.169   4.891   6.239
10317SOL    HW231851   4.275   4.773   6.199
10318SOL     OW31852   6.421   4.888   1.549
10318SOL    HW131853   6.514   4.909   1.576
10318SOL    HW231854   6.420   4.857   1.453
10319SOL     OW31855   0.063   4.935   3.616
10319SOL    HW131856   0.061   4.861   3.682
10319SOL    HW231857   6.996   4.959   3.589
10320SOL     OW31858   0.739   6.459   0.708
10320SOL    HW131859   0.781   6.439   0.619
10320SOL    HW231860   0.640   6.459   0.698
10321SOL     OW31861   4.464   5.546   4.897
10321SOL    HW131862   4.410   5.556   4.813
10321SOL    HW231863   4.476   5.636   4.940
10322SOL     OW31864   6.389   5.442   0.952
10322SOL    HW131865   6.384   5.410   1.047
10322SOL    HW231866   6.442   5.527   0.948
10323SOL     OW31867   5.850   3.183   6.365
10323SOL    HW131868   5.814   3.109   6.309
10323SOL    HW231869   5.783   3.208   6.435
10324SOL     OW31870   2.899   3.559   3.896
10324SOL    HW131871   2.875   3.630   3.962
10324SOL    HW231872   2.917   3.602   3.807
10325SOL     OW31873   6.719   3.272   3.403
10325SOL    HW131874   6.711   3.173   3.398
10325SOL    HW231875   6.800   3.302   3.353
10326SOL     OW31876   5.118   3.106   6.902
10326SOL    HW131877   5.040   3.169   6.898
10326SOL    HW231878   5.085   3.014   6.923
10327SOL     OW31879   1.231   1.061   3.026
10327SOL    HW131880   1.132   1.047   3.015
10327SOL    HW231881   1.278   1.030   2.943
10328SOL     OW31882   6.206   3.653   2.352
10328SOL    HW131883   6.165   3.740   2.381
10328SOL    HW231884   6.162   3.621   2.268
10329SOL     OW31885   3.237   0.527   2.793
10329SOL    HW131886   3.163   0.592   2.778
10329SOL    HW231887   3.201   0.444   2.837
10330SOL     OW31888   3.746   5.151   2.679
10330SOL    HW131889   3.798   5.109   2.604
10330SOL    HW231890   3.705   5.079   2.735
10331SOL     OW31891   5.351   0.789   3.745
10331SOL    HW131892   5.390   0.737   3.821
10331SOL    HW231893   5.287   0.857   3.781
10332SOL     OW31894   0.016   2.227   0.625
10332SOL    HW131895   0.009   2.213   0.526
10332SOL    HW231896   0.109   2.257   0.647
10333SOL     OW31897   6.093   5.292   4.414
10333SOL    HW131898   5.996   5.315   4.424
10333SOL    HW231899   6.148   5.370   4.443
10334SOL     OW31900   2.152   4.852   4.441
10334SOL    HW131901   2.076   4.860   4.377
10334SOL    HW231902   2.236   4.832   4.390
10335SOL     OW31903   2.549   5.472   0.492
10335SOL    HW131904   2.628   5.435   0.443
10335SOL    HW231905   2.466   5.449   0.442
10336SOL     OW31906   4.781   6.837   2.437
10336SOL    HW131907   4.875   6.818   2.465
10336SOL    HW231908   4.746   6.915   2.489
10337SOL     OW31909   0.267   5.113   4.990
10337SOL    HW131910   0.188   5.085   5.043
10337SOL    HW231911   0.252   5.091   4.894
10338SOL     OW31912   2.902   6.903   2.058
10338SOL    HW131913   2.840   6.834   2.019
10338SOL    HW231914   2.989   6.899   2.011
10339SOL     OW31915   3.234   6.007   1.467
10339SOL    HW131916   3.291   5.964   1.397
10339SOL    HW231917   3.290   6.030   1.546
10340SOL     OW31918   2.456   6.043   0.231
10340SOL    HW131919   2.430   6.052   0.327
10340SOL    HW231920   2.468   5.946   0.209
10341SOL     OW31921   1.908   1.775   2.158
10341SOL    HW131922   1.938   1.863   2.121
10341SOL    HW231923   1.952   1.760   2.247
10342SOL     OW31924   2.313   0.210   5.578
10342SOL    HW131925   2.270   0.123   5.602
10342SOL    HW231926   2.409   0.208   5.605
10343SOL     OW31927   2.685   3.722   6.122
10343SOL    HW131928   2.656   3.633   6.157
10343SOL    HW231929   2.604   3.780   6.109
10344SOL     OW31930   4.193   3.623   5.015
10344SOL    HW131931   4.285   3.588   5.000
10344SOL    HW231932   4.144   3.628   4.927
10345SOL     OW31933   2.190   1.579   6.961
10345SOL    HW131934   2.136   1.532   6.892
10345SOL    HW231935   2.138   1.584   0.020
10346SOL     OW31936   4.839   0.084   0.113
10346SOL    HW131937   4.777   0.158   0.089
10346SOL    HW231938   4.814   0.001   0.062
10347SOL     OW31939   5.428   2.201   1.386
10347SOL    HW131940   5.397   2.142   1.311
10347SOL    HW231941   5.349   2.240   1.432
10348SOL     OW31942   5.858   1.252   6.327
10348SOL    HW131943   5.929   1.233   6.396
10348SOL    HW231944   5.902   1.284   6.243
10349SOL     OW31945   6.336   1.346   1.424
10349SOL    HW131946   6.348   1.360   1.522
10349SOL    HW231947   6.380   1.261   1.396
10350SOL     OW31948   2.955   5.888   4.276
10350SOL    HW131949   2.921   5.814   4.218
10350SOL    HW231950   2.879   5.948   4.301
10351SOL     OW31951   5.805   5.335   5.248
10351SOL    HW131952   5.834   5.318   5.343
10351SOL    HW231953   5.857   5.276   5.187
10352SOL     OW31954   5.391   1.735   6.970
10352SOL    HW131955   5.382   1.833   6.988
10352SOL    HW231956   5.402   1.686   0.031
10353SOL     OW31957   0.498   2.928   3.367
10353SOL    HW131958   0.474   2.969   3.279
10353SOL    HW231959   0.426   2.864   3.395
10354SOL     OW31960   0.276   3.765   0.567
10354SOL    HW131961   0.190   3.766   0.618
10354SOL    HW231962   0.257   3.766   0.469
10355SOL     OW31963   1.536   0.028   0.448
10355SOL    HW131964   1.512   7.014   0.359
10355SOL    HW231965   1.590   0.111   0.434
10356SOL     OW31966   6.762   3.526   0.081
10356SOL    HW131967   6.776   3.613   0.128
10356SOL    HW231968   6.715   3.541   7.021
10357SOL     OW31969   1.269   2.653   6.491
10357SOL    HW131970   1.171   2.667   6.503
10357SOL    HW231971   1.315   2.653   6.580
10358SOL     OW31972   1.045   2.789   3.041
10358SOL    HW131973   1.098   2.870   3.064
10358SOL    HW231974   0.950   2.801   3.070
10359SOL     OW31975   5.334   1.930   2.763
10359SOL    HW131976   5.284   1.963   2.843
10359SOL    HW231977   5.330   1.999   2.690
10360SOL     OW31978   5.626   5.010   3.058
10360SOL    HW131979   5.650   4.962   2.973
10360SOL    HW231980   5.570   5.090   3.036
10361SOL     OW31981   0.972   1.161   1.735
10361SOL    HW131982   1.069   1.178   1.715
10361SOL    HW231983   0.935   1.238   1.786
10362SOL     OW31984   1.294   4.907   2.545
10362SOL    HW131985   1.198   4.877   2.541
10362SOL    HW231986   1.304   4.993   2.496
10363SOL     OW31987   5.185   3.372   0.550
10363SOL    HW131988   5.219   3.349   0.641
10363SOL    HW231989   5.156   3.289   0.503
10364SOL     OW31990   5.257   4.557   1.826
10364SOL    HW131991   5.344   4.571   1.780
10364SOL    HW231992   5.184   4.545   1.758
10365SOL     OW31993   5.973   5.545   0.411
10365SOL    HW131994   6.070   5.519   0.410
10365SOL    HW231995   5.959   5.617   0.480
10366SOL     OW31996   3.941   6.498   2.955
10366SOL    HW131997   4.005   6.505   2.879
10366SOL    HW231998   3.883   6.417   2.943
10367SOL     OW31999   5.901   1.726   1.137
10367SOL    HW132000   5.902   1.630   1.107
10367SOL    HW232001   5.995   1.756   1.153
10368SOL     OW32002   1.822   0.425   1.925
10368SOL    HW132003   1.764   0.479   1.864
10368SOL    HW232004   1.908   0.404   1.879
10369SOL     OW32005   2.954   6.538   5.183
10369SOL    HW132006   2.993   6.629   5.196
10369SOL    HW232007   3.025   6.476   5.150
10370SOL     OW32008   0.396   1.811   4.586
10370SOL    HW132009   0.474   1.776   4.533
10370SOL    HW232010   0.351   1.735   4.632
10371SOL     OW32011   3.659   6.221   3.438
10371SOL    HW132012   3.569   6.252   3.468
10371SOL    HW232013   3.650   6.166   3.355
10372SOL     OW32014   2.671   0.427   1.772
10372SOL    HW132015   2.735   0.480   1.716
10372SOL    HW232016   2.593   0.399   1.715
10373SOL     OW32017   0.052   1.646   5.927
10373SOL    HW132018   0.122   1.712   5.902
10373SOL    HW232019   6.998   1.693   5.963
10374SOL     OW32020   3.364   6.840   4.806
10374SOL    HW132021   3.301   6.786   4.749
10374SOL    HW232022   3.458   6.818   4.782
10375SOL     OW32023   3.889   2.722   0.013
10375SOL    HW132024   3.857   2.810   7.005
10375SOL    HW232025   3.838   2.648   6.993
10376SOL     OW32026   1.537   5.720   2.471
10376SOL    HW132027   1.617   5.692   2.419
10376SOL    HW232028   1.563   5.790   2.538
10377SOL     OW32029   0.337   1.704   1.845
10377SOL    HW132030   0.359   1.801   1.840
10377SOL    HW232031   0.406   1.651   1.797
10378SOL     OW32032   0.370   5.268   5.368
10378SOL    HW132033   0.276   5.274   5.334
10378SOL    HW232034   0.389   5.173   5.396
10379SOL     OW32035   2.533   6.689   4.089
10379SOL    HW132036   2.457   6.707   4.151
10379SOL    HW232037   2.595   6.767   4.089
10380SOL     OW32038   1.511   2.670   4.672
10380SOL    HW132039   1.601   2.648   4.710
10380SOL    HW232040   1.523   2.716   4.584
10381SOL     OW32041   4.280   4.382   1.707
10381SOL    HW132042   4.337   4.316   1.755
10381SOL    HW232043   4.333   4.464   1.687
10382SOL     OW32044   3.248   4.787   1.789
10382SOL    HW132045   3.337   4.770   1.832
10382SOL    HW232046   3.184   4.822   1.858
10383SOL     OW32047   1.888   5.251   0.220
10383SOL    HW132048   1.809   5.297   0.179
10383SOL    HW232049   1.940   5.203   0.148
10384SOL     OW32050   5.998   6.340   1.209
10384SOL    HW132051   6.049   6.278   1.149
10384SOL    HW232052   5.900   6.326   1.195
10385SOL     OW32053   3.590   5.260   6.132
10385SOL    HW132054   3.640   5.186   6.177
10385SOL    HW232055   3.496   5.230   6.115
10386SOL     OW32056   0.093   1.201   6.854
10386SOL    HW132057   0.189   1.195   6.828
10386SOL    HW232058   0.084   1.177   6.951
10387SOL     OW32059   4.863   3.055   3.268
10387SOL    HW132060   4.785   2.993   3.272
10387SOL    HW232061   4.933   3.017   3.207
10388SOL     OW32062   3.045   0.904   5.740
10388SOL    HW132063   3.089   0.815   5.755
10388SOL    HW232064   3.009   0.908   5.647
10389SOL     OW32065   6.690   3.921   0.031
10389SOL    HW132066   6.667   3.843   0.090
10389SOL    HW232067   6.607   3.957   7.016
10390SOL     OW32068   2.122   2.167   0.921
10390SOL    HW132069   2.214   2.150   0.957
10390SOL    HW232070   2.056   2.111   0.971
10391SOL     OW32071   0.806   6.025   3.730
10391SOL    HW132072   0.789   5.974   3.815
10391SOL    HW232073   0.740   6.099   3.722
10392SOL     OW32074   6.896   4.916   4.948
10392SOL    HW132075   6.861   5.009   4.933
10392SOL    HW232076   6.959   4.892   4.874
10393SOL     OW32077   2.146   3.800   4.063
10393SOL    HW132078   2.171   3.810   3.967
10393SOL    HW232079   2.075   3.867   4.086
10394SOL     OW32080   2.826   6.438   4.211
10394SOL    HW132081   2.762   6.366   4.238
10394SOL    HW232082   2.878   6.468   4.291
10395SOL     OW32083   0.305   6.532   1.371
10395SOL    HW132084   0.343   6.616   1.333
10395SOL    HW232085   0.217   6.551   1.414
10396SOL     OW32086   3.327   2.010   3.851
10396SOL    HW132087   3.400   2.019   3.783
10396SOL    HW232088   3.353   2.055   3.935
10397SOL     OW32089   3.157   2.163   2.893
10397SOL    HW132090   3.126   2.116   2.811
10397SOL    HW232091   3.250   2.136   2.914
10398SOL     OW32092   0.042   2.945   1.005
10398SOL    HW132093   7.012   2.872   1.045
10398SOL    HW232094   0.134   2.910   0.986
10399SOL     OW32095   5.447   2.456   2.944
10399SOL    HW132096   5.511   2.474   2.870
10399SOL    HW232097   5.362   2.419   2.907
10400SOL     OW32098   4.199   6.947   0.101
10400SOL    HW132099   4.257   6.982   0.027
10400SOL    HW232100   4.172   7.023   0.160
10401SOL     OW32101   5.947   0.856   3.844
10401SOL    HW132102   5.903   0.777   3.887
10401SOL    HW232103   6.037   0.830   3.810
10402SOL     OW32104   6.696   3.090   4.771
10402SOL    HW132105   6.718   3.161   4.704
10402SOL    HW232106   6.690   3.131   4.862
10403SOL     OW32107   3.739   1.122   3.466
10403SOL    HW132108   3.702   1.125   3.373
10403SOL    HW232109   3.838   1.120   3.463
10404SOL     OW32110   6.286   6.813   4.996
10404SOL    HW132111   6.242   6.825   4.907
10404SOL    HW232112   6.268   6.893   5.053
10405SOL     OW32113   0.348   1.498   5.896
10405SOL    HW132114   0.375   1.403   5.878
10405SOL    HW232115   0.275   1.524   5.833
10406SOL     OW32116   3.137   5.290   2.769
10406SOL    HW132117   3.038   5.304   2.768
10406SOL    HW232118   3.158   5.203   2.815
10407SOL     OW32119   3.300   6.620   6.072
10407SOL    HW132120   3.344   6.530   6.075
10407SOL    HW232121   3.353   6.685   6.127
10408SOL     OW32122   4.398   0.357   0.933
10408SOL    HW132123   4.332   0.390   1.000
10408SOL    HW232124   4.458   0.432   0.905
10409SOL     OW32125   6.777   4.552   1.336
10409SOL    HW132126   6.761   4.621   1.408
10409SOL    HW232127   6.722   4.575   1.256
10410SOL     OW32128   5.882   1.157   6.859
10410SOL    HW132129   5.825   1.227   6.903
10410SOL    HW232130   5.952   1.125   6.924
10411SOL     OW32131   4.046   6.830   3.395
10411SOL    HW132132   4.117   6.821   3.326
10411SOL    HW232133   4.085   6.815   3.486
10412SOL     OW32134   6.468   0.915   0.457
10412SOL    HW132135   6.481   0.837   0.518
10412SOL    HW232136   6.470   1.000   0.511
10413SOL     OW32137   5.928   2.560   0.734
10413SOL    HW132138   5.995   2.576   0.661
10413SOL    HW232139   5.964   2.593   0.821
10414SOL     OW32140   3.879   4.185   5.513
10414SOL    HW132141   3.931   4.267   5.538
10414SOL    HW232142   3.810   4.209   5.445
10415SOL     OW32143   0.787   4.084   4.845
10415SOL    HW132144   0.728   4.163   4.862
10415SOL    HW232145   0.766   4.045   4.755
10416SOL     OW32146   6.629   0.573   3.664
10416SOL    HW132147   6.535   0.595   3.640
10416SOL    HW232148   6.688   0.586   3.585
10417SOL     OW32149   3.461   5.418   4.581
10417SOL    HW132150   3.497   5.503   4.621
10417SOL    HW232151   3.407   5.369   4.650
10418SOL     OW32152   0.426   4.691   6.668
10418SOL    HW132153   0.347   4.633   6.648
10418SOL    HW232154   0.410   4.739   6.754
10419SOL     OW32155   1.295   6.884   6.439
10419SOL    HW132156   1.262   6.976   6.419
10419SOL    HW232157   1.359   6.887   6.515
10420SOL     OW32158   7.014   3.590   2.802
10420SOL    HW132159   0.025   3.670   2.849
10420SOL    HW232160   0.007   3.508   2.856
10421SOL     OW32161   0.372   2.100   3.324
10421SOL    HW132162   0.389   2.157   3.244
10421SOL    HW232163   0.330   2.014   3.295
10422SOL     OW32164   5.964   2.893   5.617
10422SOL    HW132165   5.967   2.807   5.667
10422SOL    HW232166   6.042   2.950   5.643
10423SOL     OW32167   5.452   4.877   4.746
10423SOL    HW132168   5.390   4.854   4.670
10423SOL    HW232169   5.409   4.946   4.804
10424SOL     OW32170   6.017   3.055   0.275
10424SOL    HW132171   5.930   3.017   0.242
10424SOL    HW232172   6.085   3.048   0.202
10425SOL     OW32173   1.569   6.880   1.948
10425SOL    HW132174   1.502   6.928   2.004
10425SOL    HW232175   1.641   6.944   1.919
10426SOL     OW32176   6.706   4.838   0.866
10426SOL    HW132177   6.713   4.752   0.817
10426SOL    HW232178   6.611   4.852   0.895
10427SOL     OW32179   3.854   1.286   0.003
10427SOL    HW132180   3.783   1.239   6.976
10427SOL    HW232181   3.811   1.360   0.056
10428SOL     OW32182   2.589   1.387   3.894
10428SOL    HW132183   2.648   1.410   3.816
10428SOL    HW232184   2.597   1.458   3.963
10429SOL     OW32185   6.965   5.602   0.754
10429SOL    HW132186   6.971   5.527   0.687
10429SOL    HW232187   0.017   5.598   0.816
10430SOL     OW32188   4.271   6.216   3.768
10430SOL    HW132189   4.310   6.245   3.680
10430SOL    HW232190   4.198   6.150   3.753
10431SOL     OW32191   3.450   5.917   4.602
10431SOL    HW132192   3.482   5.975   4.527
10431SOL    HW232193   3.415   5.974   4.676
10432SOL     OW32194   5.928   0.424   4.738
10432SOL    HW132195   5.851   0.448   4.679
10432SOL    HW232196   5.922   0.328   4.764
10433SOL     OW32197   1.931   6.966   1.240
10433SOL    HW132198   1.917   6.933   1.147
10433SOL    HW232199   1.967   0.033   1.237
10434SOL     OW32200   4.159   0.177   3.438
10434SOL    HW132201   4.222   0.111   3.479
10434SOL    HW232202   4.195   0.207   3.349
10435SOL     OW32203   6.852   0.041   4.690
10435SOL    HW132204   6.902   6.980   4.689
10435SOL    HW232205   6.851   0.077   4.784
10436SOL     OW32206   0.940   4.778   5.705
10436SOL    HW132207   0.992   4.862   5.726
10436SOL    HW232208   0.997   4.717   5.651
10437SOL     OW32209   5.957   4.507   5.966
10437SOL    HW132210   5.940   4.427   6.023
10437SOL    HW232211   6.041   4.552   5.996
10438SOL     OW32212   5.583   6.450   0.000
10438SOL    HW132213   5.552   6.392   0.075
10438SOL    HW232214   5.643   6.521   0.036
10439SOL     OW32215   3.599   1.470   5.891
10439SOL    HW132216   3.683   1.483   5.839
10439SOL    HW232217   3.534   1.415   5.837
10440SOL     OW32218   1.802   6.074   0.147
10440SOL    HW132219   1.891   6.112   0.173
10440SOL    HW232220   1.734   6.098   0.217
10441SOL     OW32221   4.574   1.316   0.045
10441SOL    HW132222   4.493   1.285   7.021
10441SOL    HW232223   4.598   1.250   0.116
10442SOL     OW32224   3.361   6.387   6.179
10442SOL    HW132225   3.263   6.399   6.193
10442SOL    HW232226   3.384   6.289   6.186
10443SOL     OW32227   5.310   3.717   4.764
10443SOL    HW132228   5.348   3.731   4.672
10443SOL    HW232229   5.310   3.620   4.786
10444SOL     OW32230   4.061   6.323   4.597
10444SOL    HW132231   4.023   6.267   4.523
10444SOL    HW232232   4.004   6.313   4.679
10445SOL     OW32233   0.792   5.509   3.895
10445SOL    HW132234   0.723   5.574   3.927
10445SOL    HW232235   0.778   5.420   3.940
10446SOL     OW32236   1.196   3.256   5.803
10446SOL    HW132237   1.273   3.297   5.852
10446SOL    HW232238   1.153   3.186   5.862
10447SOL     OW32239   6.606   1.405   2.060
10447SOL    HW132240   6.656   1.321   2.040
10447SOL    HW232241   6.670   1.478   2.082
10448SOL     OW32242   4.208   2.422   1.734
10448SOL    HW132243   4.116   2.396   1.763
10448SOL    HW232244   4.213   2.521   1.723
10449SOL     OW32245   2.113   5.547   4.850
10449SOL    HW132246   2.061   5.512   4.772
10449SOL    HW232247   2.153   5.636   4.827
10450SOL     OW32248   0.417   2.002   0.642
10450SOL    HW132249   0.489   2.061   0.679
10450SOL    HW232250   0.364   1.963   0.718
10451SOL     OW32251   1.982   5.074   2.815
10451SOL    HW132252   1.992   5.015   2.896
10451SOL    HW232253   2.072   5.091   2.776
10452SOL     OW32254   6.278   3.397   3.640
10452SOL    HW132255   6.226   3.467   3.688
10452SOL    HW232256   6.376   3.412   3.656
10453SOL     OW32257   5.324   6.184   1.831
10453SOL    HW132258   5.414   6.171   1.873
10453SOL    HW232259   5.336   6.224   1.740
10454SOL     OW32260   4.950   2.882   1.357
10454SOL    HW132261   4.879   2.846   1.418
10454SOL    HW232262   4.987   2.967   1.395
10455SOL     OW32263   0.285   4.844   2.553
10455SOL    HW132264   0.259   4.814   2.461
10455SOL    HW232265   0.382   4.826   2.568
10456SOL     OW32266   3.353   6.072   1.689
10456SOL    HW132267   3.285   6.134   1.728
10456SOL    HW232268   3.433   6.125   1.661
10457SOL     OW32269   3.797   2.906   2.605
10457SOL    HW132270   3.826   2.812   2.588
10457SOL    HW232271   3.877   2.962   2.626
10458SOL     OW32272   0.162   0.273   0.112
10458SOL    HW132273   0.106   0.343   0.068
10458SOL    HW232274   0.125   0.252   0.203
10459SOL     OW32275   5.447   5.205   2.917
10459SOL    HW132276   5.389   5.276   2.956
10459SOL    HW232277   5.400   5.117   2.920
10460SOL     OW32278   2.422   5.899   1.475
10460SOL    HW132279   2.353   5.859   1.415
10460SOL    HW232280   2.422   5.999   1.464
10461SOL     OW32281   1.040   6.149   5.639
10461SOL    HW132282   1.088   6.229   5.603
10461SOL    HW232283   1.025   6.160   5.737
10462SOL     OW32284   5.575   1.774   2.255
10462SOL    HW132285   5.494   1.725   2.225
10462SOL    HW232286   5.655   1.713   2.248
10463SOL     OW32287   3.838   3.245   5.815
10463SOL    HW132288   3.936   3.250   5.798
10463SOL    HW232289   3.816   3.299   5.897
10464SOL     OW32290   5.129   0.008   0.492
10464SOL    HW132291   5.129   0.031   0.395
10464SOL    HW232292   5.198   6.963   0.509
10465SOL     OW32293   6.525   6.866   0.539
10465SOL    HW132294   6.506   6.950   0.589
10465SOL    HW232295   6.489   6.874   0.445
10466SOL     OW32296   4.842   5.234   5.086
10466SOL    HW132297   4.838   5.254   4.988
10466SOL    HW232298   4.800   5.144   5.103
10467SOL     OW32299   1.319   1.838   5.389
10467SOL    HW132300   1.304   1.928   5.348
10467SOL    HW232301   1.413   1.809   5.371
10468SOL     OW32302   3.775   6.058   3.601
10468SOL    HW132303   3.753   5.979   3.543
10468SOL    HW232304   3.741   6.141   3.557
10469SOL     OW32305   3.517   3.900   0.686
10469SOL    HW132306   3.418   3.890   0.674
10469SOL    HW232307   3.561   3.810   0.685
10470SOL     OW32308   2.109   1.965   2.915
10470SOL    HW132309   2.079   2.057   2.891
10470SOL    HW232310   2.035   1.917   2.962
10471SOL     OW32311   2.461   3.372   0.938
10471SOL    HW132312   2.427   3.284   0.969
10471SOL    HW232313   2.464   3.374   0.838
10472SOL     OW32314   3.461   6.205   1.319
10472SOL    HW132315   3.383   6.198   1.258
10472SOL    HW232316   3.538   6.154   1.280
10473SOL     OW32317   5.439   0.154   0.830
10473SOL    HW132318   5.370   0.173   0.760
10473SOL    HW232319   5.404   0.087   0.895
10474SOL     OW32320   5.006   0.664   4.414
10474SOL    HW132321   5.074   0.731   4.445
10474SOL    HW232322   4.914   0.700   4.430
10475SOL     OW32323   4.752   6.593   1.107
10475SOL    HW132324   4.826   6.612   1.042
10475SOL    HW232325   4.747   6.666   1.174
10476SOL     OW32326   0.003   5.204   6.416
10476SOL    HW132327   7.008   5.299   6.438
10476SOL    HW232328   0.067   5.200   6.339
10477SOL     OW32329   6.340   3.041   4.811
10477SOL    HW132330   6.359   3.058   4.715
10477SOL    HW232331   6.356   2.944   4.831
10478SOL     OW32332   0.598   7.004   6.882
10478SOL    HW132333   0.511   7.008   6.931
10478SOL    HW232334   0.590   0.028   6.796
10479SOL     OW32335   1.174   2.239   1.378
10479SOL    HW132336   1.163   2.195   1.289
10479SOL    HW232337   1.085   2.250   1.422
10480SOL     OW32338   5.654   0.231   0.982
10480SOL    HW132339   5.742   0.197   0.949
10480SOL    HW232340   5.580   0.193   0.925
10481SOL     OW32341   3.011   1.250   4.625
10481SOL    HW132342   3.062   1.301   4.694
10481SOL    HW232343   2.995   1.310   4.546
10482SOL     OW32344   0.754   5.931   4.014
10482SOL    HW132345   0.771   5.928   4.113
10482SOL    HW232346   0.777   6.022   3.980
10483SOL     OW32347   6.637   5.250   0.093
10483SOL    HW132348   6.670   5.298   0.175
10483SOL    HW232349   6.660   5.304   0.012
10484SOL     OW32350   6.884   0.517   0.865
10484SOL    HW132351   6.953   0.538   0.935
10484SOL    HW232352   6.798   0.493   0.910
10485SOL     OW32353   4.052   3.801   3.197
10485SOL    HW132354   3.953   3.814   3.189
10485SOL    HW232355   4.090   3.780   3.107
10486SOL     OW32356   5.671   0.562   5.951
10486SOL    HW132357   5.626   0.486   5.998
10486SOL    HW232358   5.680   0.639   6.014
10487SOL     OW32359   4.763   1.855   1.485
10487SOL    HW132360   4.728   1.923   1.550
10487SOL    HW232361   4.812   1.783   1.535
10488SOL     OW32362   0.823   1.793   6.109
10488SOL    HW132363   0.787   1.813   6.018
10488SOL    HW232364   0.888   1.863   6.136
10489SOL     OW32365   5.679   5.782   3.529
10489SOL    HW132366   5.776   5.787   3.503
10489SOL    HW232367   5.664   5.832   3.614
10490SOL     OW32368   5.687   0.243   0.438
10490SOL    HW132369   5.762   0.268   0.377
10490SOL    HW232370   5.639   0.164   0.402
10491SOL     OW32371   1.807   2.691   6.509
10491SOL    HW132372   1.774   2.773   6.557
10491SOL    HW232373   1.741   2.617   6.521
10492SOL     OW32374   3.754   6.563   0.335
10492SOL    HW132375   3.832   6.517   0.376
10492SOL    HW232376   3.763   6.562   0.236
10493SOL     OW32377   3.902   5.695   1.042
10493SOL    HW132378   3.929   5.598   1.049
10493SOL    HW232379   3.817   5.702   0.991
10494SOL     OW32380   0.858   4.792   5.969
10494SOL    HW132381   0.785   4.724   5.963
10494SOL    HW232382   0.901   4.802   5.879
10495SOL     OW32383   6.827   6.070   6.851
10495SOL    HW132384   6.824   6.096   6.754
10495SOL    HW232385   6.807   5.973   6.861
10496SOL     OW32386   6.812   3.941   5.445
10496SOL    HW132387   6.833   4.004   5.520
10496SOL    HW232388   6.867   3.966   5.365
10497SOL     OW32389   1.943   6.911   1.760
10497SOL    HW132390   1.867   6.847   1.751
10497SOL    HW232391   1.977   6.936   1.670
10498SOL     OW32392   5.202   6.023   0.942
10498SOL    HW132393   5.218   5.997   0.847
10498SOL    HW232394   5.243   6.112   0.960
10499SOL     OW32395   5.862   5.741   1.393
10499SOL    HW132396   5.860   5.739   1.493
10499SOL    HW232397   5.774   5.775   1.359
10500SOL     OW32398   5.294   3.444   4.786
10500SOL    HW132399   5.311   3.424   4.882
10500SOL    HW232400   5.196   3.455   4.770
10501SOL     OW32401   2.265   5.852   2.300
10501SOL    HW132402   2.283   5.904   2.383
10501SOL    HW232403   2.256   5.755   2.323
10502SOL     OW32404   3.072   3.141   1.567
10502SOL    HW132405   3.026   3.228   1.546
10502SOL    HW232406   3.072   3.083   1.486
10503SOL     OW32407   6.312   3.741   6.816
10503SOL    HW132408   6.262   3.789   6.744
10503SOL    HW232409   6.289   3.643   6.813
10504SOL     OW32410   1.632   2.774   5.764
10504SOL    HW132411   1.593   2.853   5.715
10504SOL    HW232412   1.575   2.694   5.749
10505SOL     OW32413   5.992   5.903   2.204
10505SOL    HW132414   6.042   5.901   2.291
10505SOL    HW232415   5.903   5.859   2.216
10506SOL     OW32416   0.946   3.423   0.414
10506SOL    HW132417   0.925   3.509   0.459
10506SOL    HW232418   1.045   3.412   0.408
10507SOL     OW32419   2.644   4.703   0.159
10507SOL    HW132420   2.585   4.783   0.149
10507SOL    HW232421   2.728   4.729   0.206
10508SOL     OW32422   0.916   5.759   4.428
10508SOL    HW132423   0.965   5.809   4.356
10508SOL    HW232424   0.855   5.692   4.387
10509SOL     OW32425   5.240   3.179   4.549
10509SOL    HW132426   5.214   3.269   4.516
10509SOL    HW232427   5.203   3.164   4.641
10510SOL     OW32428   5.071   6.392   5.488
10510SOL    HW132429   4.983   6.379   5.443
10510SOL    HW232430   5.114   6.476   5.454
10511SOL     OW32431   3.070   1.154   1.672
10511SOL    HW132432   3.002   1.083   1.691
10511SOL    HW232433   3.026   1.244   1.679
10512SOL     OW32434   4.418   6.978   6.085
10512SOL    HW132435   4.339   0.008   6.061
10512SOL    HW232436   4.484   0.007   6.136
10513SOL     OW32437   6.218   2.882   2.474
10513SOL    HW132438   6.183   2.914   2.561
10513SOL    HW232439   6.172   2.930   2.399
10514SOL     OW32440   2.229   1.899   1.207
10514SOL    HW132441   2.280   1.944   1.280
10514SOL    HW232442   2.261   1.933   1.119
10515SOL     OW32443   2.217   2.294   4.211
10515SOL    HW132444   2.302   2.293   4.265
10515SOL    HW232445   2.162   2.374   4.237
10516SOL     OW32446   2.779   1.770   0.305
10516SOL    HW132447   2.854   1.707   0.287
10516SOL    HW232448   2.757   1.768   0.403
10517SOL     OW32449   1.883   4.041   2.591
10517SOL    HW132450   1.859   4.133   2.622
10517SOL    HW232451   1.981   4.038   2.571
10518SOL     OW32452   0.519   5.244   2.306
10518SOL    HW132453   0.459   5.177   2.351
10518SOL    HW232454   0.590   5.272   2.370
10519SOL     OW32455   3.059   5.109   1.648
10519SOL    HW132456   3.112   5.119   1.732
10519SOL    HW232457   3.062   5.014   1.617
10520SOL     OW32458   6.467   1.608   6.183
10520SOL    HW132459   6.522   1.563   6.253
10520SOL    HW232460   6.371   1.580   6.192
10521SOL     OW32461   6.507   4.169   1.458
10521SOL    HW132462   6.427   4.217   1.423
10521SOL    HW232463   6.588   4.198   1.408
10522SOL     OW32464   6.777   2.345   3.232
10522SOL    HW132465   6.773   2.410   3.156
10522SOL    HW232466   6.867   2.303   3.236
10523SOL     OW32467   0.357   4.146   3.904
10523SOL    HW132468   0.450   4.162   3.938
10523SOL    HW232469   0.297   4.128   3.982
10524SOL     OW32470   7.020   4.698   3.756
10524SOL    HW132471   6.924   4.690   3.731
10524SOL    HW232472   0.028   4.609   3.788
10525SOL     OW32473   4.618   0.938   4.797
10525SOL    HW132474   4.695   0.981   4.844
10525SOL    HW232475   4.603   0.984   4.709
10526SOL     OW32476   0.163   6.047   1.096
10526SOL    HW132477   0.213   6.134   1.101
10526SOL    HW232478   0.159   6.006   1.187
10527SOL     OW32479   0.108   0.807   6.134
10527SOL    HW132480   0.052   0.799   6.051
10527SOL    HW232481   0.199   0.841   6.109
10528SOL     OW32482   0.577   4.767   0.185
10528SOL    HW132483   0.511   4.835   0.214
10528SOL    HW232484   0.584   4.767   0.085
10529SOL     OW32485   1.517   5.901   5.447
10529SOL    HW132486   1.475   5.912   5.537
10529SOL    HW232487   1.480   5.819   5.403
10530SOL     OW32488   1.297   6.676   6.237
10530SOL    HW132489   1.314   6.724   6.323
10530SOL    HW232490   1.251   6.589   6.255
10531SOL     OW32491   2.901   2.415   5.269
10531SOL    HW132492   2.897   2.506   5.310
10531SOL    HW232493   2.994   2.395   5.238
10532SOL     OW32494   6.060   6.875   6.748
10532SOL    HW132495   6.159   6.889   6.740
10532SOL    HW232496   6.032   6.805   6.682
10533SOL     OW32497   2.948   5.961   3.900
10533SOL    HW132498   2.963   6.048   3.947
10533SOL    HW232499   2.960   5.974   3.802
10534SOL     OW32500   0.353   5.678   2.585
10534SOL    HW132501   0.435   5.670   2.528
10534SOL    HW232502   0.312   5.768   2.572
10535SOL     OW32503   2.457   1.392   2.124
10535SOL    HW132504   2.548   1.419   2.154
10535SOL    HW232505   2.405   1.357   2.202
10536SOL     OW32506   4.393   0.438   3.487
10536SOL    HW132507   4.414   0.363   3.550
10536SOL    HW232508   4.375   0.401   3.395
10537SOL     OW32509   4.627   6.665   3.485
10537SOL    HW132510   4.562   6.595   3.455
10537SOL    HW232511   4.583   6.754   3.487
10538SOL     OW32512   5.908   3.934   2.675
10538SOL    HW132513   5.950   3.898   2.592
10538SOL    HW232514   5.903   3.861   2.743
10539SOL     OW32515   6.095   5.841   2.439
10539SOL    HW132516   6.060   5.752   2.410
10539SOL    HW232517   6.181   5.828   2.490
10540SOL     OW32518   2.522   3.908   5.891
10540SOL    HW132519   2.620   3.923   5.908
10540SOL    HW232520   2.470   3.989   5.918
10541SOL     OW32521   3.078   3.073   4.828
10541SOL    HW132522   3.154   3.010   4.848
10541SOL    HW232523   3.000   3.050   4.887
10542SOL     OW32524   6.285   0.245   4.580
10542SOL    HW132525   6.197   0.217   4.541
10542SOL    HW232526   6.281   0.342   4.604
10543SOL     OW32527   6.436   2.298   5.819
10543SOL    HW132528   6.430   2.199   5.833
10543SOL    HW232529   6.527   2.330   5.846
10544SOL     OW32530   1.290   0.778   3.748
10544SOL    HW132531   1.225   0.846   3.713
10544SOL    HW232532   1.272   0.689   3.705
10545SOL     OW32533   1.164   3.107   2.620
10545SOL    HW132534   1.123   3.146   2.538
10545SOL    HW232535   1.241   3.049   2.594
10546SOL     OW32536   2.814   6.565   1.036
10546SOL    HW132537   2.816   6.660   1.003
10546SOL    HW232538   2.847   6.563   1.131
10547SOL     OW32539   5.001   0.455   4.245
10547SOL    HW132540   5.028   0.503   4.328
10547SOL    HW232541   4.959   0.519   4.181
10548SOL     OW32542   0.651   4.912   4.714
10548SOL    HW132543   0.606   4.997   4.741
10548SOL    HW232544   0.728   4.894   4.775
10549SOL     OW32545   0.370   1.798   0.383
10549SOL    HW132546   0.442   1.866   0.398
10549SOL    HW232547   0.318   1.785   0.467
10550SOL     OW32548   3.848   6.750   2.949
10550SOL    HW132549   3.894   6.662   2.937
10550SOL    HW232550   3.901   6.805   3.014
10551SOL     OW32551   2.539   1.826   5.930
10551SOL    HW132552   2.582   1.825   6.020
10551SOL    HW232553   2.600   1.782   5.864
10552SOL     OW32554   3.009   1.169   4.077
10552SOL    HW132555   2.981   1.078   4.109
10552SOL    HW232556   3.063   1.159   3.993
10553SOL     OW32557   6.753   5.349   0.998
10553SOL    HW132558   6.797   5.405   1.068
10553SOL    HW232559   6.768   5.389   0.908
10554SOL     OW32560   6.183   4.561   2.733
10554SOL    HW132561   6.172   4.485   2.670
10554SOL    HW232562   6.156   4.532   2.825
10555SOL     OW32563   2.535   2.442   0.705
10555SOL    HW132564   2.568   2.351   0.730
10555SOL    HW232565   2.436   2.439   0.693
10556SOL     OW32566   2.528   1.318   3.242
10556SOL    HW132567   2.585   1.289   3.318
10556SOL    HW232568   2.561   1.277   3.157
10557SOL     OW32569   1.745   3.534   4.907
10557SOL    HW132570   1.676   3.472   4.944
10557SOL    HW232571   1.707   3.582   4.829
10558SOL     OW32572   3.609   4.501   5.537
10558SOL    HW132573   3.581   4.419   5.586
10558SOL    HW232574   3.673   4.477   5.464
10559SOL     OW32575   3.060   0.822   0.631
10559SOL    HW132576   3.147   0.847   0.672
10559SOL    HW232577   3.077   0.777   0.543
10560SOL     OW32578   4.817   6.114   1.831
10560SOL    HW132579   4.728   6.095   1.789
10560SOL    HW232580   4.882   6.141   1.761
10561SOL     OW32581   4.838   4.667   1.964
10561SOL    HW132582   4.864   4.571   1.951
10561SOL    HW232583   4.877   4.722   1.891
10562SOL     OW32584   3.090   6.753   1.019
10562SOL    HW132585   3.186   6.737   1.040
10562SOL    HW232586   3.034   6.678   1.055
10563SOL     OW32587   0.861   0.024   0.871
10563SOL    HW132588   0.920   6.971   0.891
10563SOL    HW232589   0.919   0.103   0.849
10564SOL     OW32590   6.553   5.484   3.559
10564SOL    HW132591   6.456   5.466   3.578
10564SOL    HW232592   6.560   5.550   3.483
10565SOL     OW32593   6.686   6.998   5.559
10565SOL    HW132594   6.777   6.997   5.601
10565SOL    HW232595   6.661   0.067   5.537
10566SOL     OW32596   2.682   2.393   6.863
10566SOL    HW132597   2.688   2.454   6.784
10566SOL    HW232598   2.761   2.333   6.865
10567SOL     OW32599   1.768   2.119   6.067
10567SOL    HW132600   1.866   2.119   6.048
10567SOL    HW232601   1.723   2.187   6.010
10568SOL     OW32602   5.592   3.029   6.851
10568SOL    HW132603   5.564   2.998   6.760
10568SOL    HW232604   5.512   3.048   6.906
10569SOL     OW32605   5.564   0.218   2.160
10569SOL    HW132606   5.515   0.231   2.074
10569SOL    HW232607   5.546   0.295   2.221
10570SOL     OW32608   1.468   5.015   4.107
10570SOL    HW132609   1.558   4.994   4.070
10570SOL    HW232610   1.416   5.067   4.039
10571SOL     OW32611   0.267   4.219   6.556
10571SOL    HW132612   0.217   4.132   6.555
10571SOL    HW232613   0.364   4.201   6.542
10572SOL     OW32614   6.756   4.472   1.669
10572SOL    HW132615   6.672   4.527   1.665
10572SOL    HW232616   6.734   4.379   1.697
10573SOL     OW32617   5.418   0.672   4.501
10573SOL    HW132618   5.428   0.584   4.456
10573SOL    HW232619   5.436   0.746   4.435
10574SOL     OW32620   6.371   0.153   4.108
10574SOL    HW132621   6.441   0.224   4.096
10574SOL    HW232622   6.387   0.080   4.042
10575SOL     OW32623   5.192   0.286   3.574
10575SOL    HW132624   5.198   0.314   3.479
10575SOL    HW232625   5.260   0.215   3.592
10576SOL     OW32626   1.788   4.588   2.960
10576SOL    HW132627   1.757   4.674   3.000
10576SOL    HW232628   1.715   4.549   2.904
10577SOL     OW32629   3.125   6.154   0.928
10577SOL    HW132630   3.164   6.126   0.840
10577SOL    HW232631   3.120   6.254   0.932
10578SOL     OW32632   6.028   2.245   3.731
10578SOL    HW132633   6.103   2.309   3.749
10578SOL    HW232634   5.945   2.296   3.708
10579SOL     OW32635   2.727   3.683   1.371
10579SOL    HW132636   2.822   3.660   1.351
10579SOL    HW232637   2.724   3.748   1.447
10580SOL     OW32638   6.277   6.938   0.021
10580SOL    HW132639   6.183   6.971   0.010
10580SOL    HW232640   6.291   6.857   6.990
10581SOL     OW32641   5.186   6.160   2.999
10581SOL    HW132642   5.210   6.068   2.967
10581SOL    HW232643   5.268   6.215   3.010
10582SOL     OW32644   5.524   4.605   6.610
10582SOL    HW132645   5.608   4.603   6.555
10582SOL    HW232646   5.445   4.587   6.551
10583SOL     OW32647   3.120   0.424   3.961
10583SOL    HW132648   3.167   0.346   3.919
10583SOL    HW232649   3.168   0.450   4.045
10584SOL     OW32650   6.720   0.386   6.122
10584SOL    HW132651   6.711   0.462   6.056
10584SOL    HW232652   6.631   0.341   6.131
10585SOL     OW32653   0.856   1.964   6.530
10585SOL    HW132654   0.885   2.024   6.606
10585SOL    HW232655   0.757   1.966   6.523
10586SOL     OW32656   4.517   4.895   5.740
10586SOL    HW132657   4.472   4.908   5.828
10586SOL    HW232658   4.578   4.973   5.722
10587SOL     OW32659   0.330   5.593   5.902
10587SOL    HW132660   0.417   5.595   5.852
10587SOL    HW232661   0.279   5.677   5.882
10588SOL     OW32662   1.845   2.609   4.385
10588SOL    HW132663   1.770   2.548   4.411
10588SOL    HW232664   1.853   2.683   4.452
10589SOL     OW32665   5.287   6.140   4.736
10589SOL    HW132666   5.305   6.120   4.832
10589SOL    HW232667   5.232   6.065   4.697
10590SOL     OW32668   0.207   5.768   1.765
10590SOL    HW132669   0.144   5.775   1.843
10590SOL    HW232670   0.264   5.849   1.761
10591SOL     OW32671   1.584   0.893   1.025
10591SOL    HW132672   1.517   0.837   1.075
10591SOL    HW232673   1.538   0.971   0.984
10592SOL     OW32674   6.035   2.601   4.668
10592SOL    HW132675   5.980   2.555   4.598
10592SOL    HW232676   6.101   2.662   4.623
10593SOL     OW32677   2.475   6.031   0.683
10593SOL    HW132678   2.488   5.937   0.716
10593SOL    HW232679   2.488   6.095   0.758
10594SOL     OW32680   3.859   1.141   2.771
10594SOL    HW132681   3.846   1.093   2.684
10594SOL    HW232682   3.918   1.087   2.831
10595SOL     OW32683   6.106   0.607   0.420
10595SOL    HW132684   6.161   0.688   0.400
10595SOL    HW232685   6.100   0.549   0.339
10596SOL     OW32686   4.503   1.759   0.043
10596SOL    HW132687   4.594   1.718   0.046
10596SOL    HW232688   4.441   1.697   7.020
10597SOL     OW32689   2.713   0.711   6.064
10597SOL    HW132690   2.715   0.802   6.107
10597SOL    HW232691   2.675   0.645   6.129
10598SOL     OW32692   2.273   1.912   5.870
10598SOL    HW132693   2.197   1.850   5.848
10598SOL    HW232694   2.357   1.859   5.880
10599SOL     OW32695   6.476   4.195   6.262
10599SOL    HW132696   6.419   4.212   6.342
10599SOL    HW232697   6.418   4.188   6.181
10600SOL     OW32698   3.270   1.305   1.514
10600SOL    HW132699   3.357   1.274   1.550
10600SOL    HW232700   3.195   1.259   1.562
10601SOL     OW32701   0.092   6.361   5.650
10601SOL    HW132702   0.158   6.339   5.578
10601SOL    HW232703   0.042   6.444   5.626
10602SOL     OW32704   0.476   0.356   0.055
10602SOL    HW132705   0.392   0.302   0.066
10602SOL    HW232706   0.540   0.333   0.128
10603SOL     OW32707   4.787   6.663   1.527
10603SOL    HW132708   4.780   6.566   1.506
10603SOL    HW232709   4.879   6.696   1.508
10604SOL     OW32710   0.316   6.389   4.878
10604SOL    HW132711   0.365   6.325   4.937
10604SOL    HW232712   0.345   6.482   4.900
10605SOL     OW32713   2.152   0.324   0.197
10605SOL    HW132714   2.087   0.381   0.248
10605SOL    HW232715   2.174   0.368   0.111
10606SOL     OW32716   6.189   0.776   1.510
10606SOL    HW132717   6.118   0.749   1.576
10606SOL    HW232718   6.211   0.873   1.523
10607SOL     OW32719   3.941   4.225   6.931
10607SOL    HW132720   3.885   4.158   6.980
10607SOL    HW232721   3.901   4.316   6.941
10608SOL     OW32722   6.524   2.799   3.131
10608SOL    HW132723   6.569   2.761   3.212
10608SOL    HW232724   6.560   2.756   3.049
10609SOL     OW32725   3.060   6.485   0.615
10609SOL    HW132726   3.023   6.465   0.525
10609SOL    HW232727   3.002   6.552   0.661
10610SOL     OW32728   6.737   2.562   4.145
10610SOL    HW132729   6.830   2.526   4.154
10610SOL    HW232730   6.679   2.492   4.102
10611SOL     OW32731   2.721   5.648   4.997
10611SOL    HW132732   2.706   5.613   5.090
10611SOL    HW232733   2.800   5.602   4.956
10612SOL     OW32734   5.366   1.134   4.280
10612SOL    HW132735   5.430   1.207   4.302
10612SOL    HW232736   5.416   1.048   4.268
10613SOL     OW32737   5.213   6.201   4.321
10613SOL    HW132738   5.283   6.136   4.289
10613SOL    HW232739   5.141   6.151   4.370
10614SOL     OW32740   4.956   1.161   5.647
10614SOL    HW132741   5.006   1.244   5.626
10614SOL    HW232742   5.016   1.082   5.637
10615SOL     OW32743   3.397   1.475   5.633
10615SOL    HW132744   3.357   1.483   5.541
10615SOL    HW232745   3.393   1.564   5.679
10616SOL     OW32746   2.913   6.694   6.761
10616SOL    HW132747   2.822   6.726   6.787
10616SOL    HW232748   2.907   6.645   6.675
10617SOL     OW32749   2.403   3.992   1.788
10617SOL    HW132750   2.446   4.019   1.702
10617SOL    HW232751   2.360   3.903   1.777
10618SOL     OW32752   0.735   5.378   5.549
10618SOL    HW132753   0.811   5.317   5.571
10618SOL    HW232754   0.690   5.347   5.465
10619SOL     OW32755   0.536   2.271   2.825
10619SOL    HW132756   0.633   2.293   2.829
10619SOL    HW232757   0.524   2.179   2.787
10620SOL     OW32758   1.341   0.295   4.828
10620SOL    HW132759   1.270   0.267   4.893
10620SOL    HW232760   1.346   0.395   4.825
10621SOL     OW32761   1.038   4.132   2.501
10621SOL    HW132762   1.046   4.186   2.585
10621SOL    HW232763   1.070   4.185   2.423
10622SOL     OW32764   4.211   2.621   0.905
10622SOL    HW132765   4.169   2.540   0.864
10622SOL    HW232766   4.293   2.646   0.853
10623SOL     OW32767   6.343   5.991   5.089
10623SOL    HW132768   6.333   5.989   5.189
10623SOL    HW232769   6.382   5.905   5.057
10624SOL     OW32770   0.515   2.892   4.899
10624SOL    HW132771   0.587   2.906   4.831
10624SOL    HW232772   0.553   2.900   4.991
10625SOL     OW32773   0.779   3.207   0.385
10625SOL    HW132774   0.832   3.292   0.386
10625SOL    HW232775   0.815   3.146   0.315
10626SOL     OW32776   3.613   3.015   1.653
10626SOL    HW132777   3.529   2.999   1.602
10626SOL    HW232778   3.665   2.930   1.660
10627SOL     OW32779   5.713   0.657   6.532
10627SOL    HW132780   5.775   0.601   6.587
10627SOL    HW232781   5.695   0.743   6.579
10628SOL     OW32782   4.028   0.422   0.132
10628SOL    HW132783   4.115   0.404   0.179
10628SOL    HW232784   3.967   0.344   0.147
10629SOL     OW32785   3.256   5.203   5.001
10629SOL    HW132786   3.193   5.252   4.941
10629SOL    HW232787   3.246   5.236   5.094
10630SOL     OW32788   5.123   0.650   2.268
10630SOL    HW132789   5.159   0.568   2.222
10630SOL    HW232790   5.129   0.728   2.207
10631SOL     OW32791   4.318   4.619   6.272
10631SOL    HW132792   4.353   4.584   6.359
10631SOL    HW232793   4.222   4.592   6.262
10632SOL     OW32794   4.855   5.858   3.555
10632SOL    HW132795   4.817   5.832   3.466
10632SOL    HW232796   4.948   5.892   3.543
10633SOL     OW32797   1.991   2.797   1.740
10633SOL    HW132798   2.030   2.816   1.830
10633SOL    HW232799   2.056   2.743   1.686
10634SOL     OW32800   1.317   5.973   0.282
10634SOL    HW132801   1.323   5.973   0.182
10634SOL    HW232802   1.408   5.956   0.321
10635SOL     OW32803   2.177   3.969   0.710
10635SOL    HW132804   2.078   3.958   0.699
10635SOL    HW232805   2.215   4.010   0.627
10636SOL     OW32806   6.114   1.560   0.904
10636SOL    HW132807   6.054   1.508   0.966
10636SOL    HW232808   6.089   1.540   0.809
10637SOL     OW32809   2.246   5.875   6.499
10637SOL    HW132810   2.184   5.832   6.433
10637SOL    HW232811   2.280   5.962   6.461
10638SOL     OW32812   0.102   6.554   2.429
10638SOL    HW132813   0.004   6.554   2.411
10638SOL    HW232814   0.133   6.649   2.441
10639SOL     OW32815   2.075   3.462   1.801
10639SOL    HW132816   2.108   3.387   1.742
10639SOL    HW232817   2.137   3.473   1.879
10640SOL     OW32818   4.435   1.123   3.335
10640SOL    HW132819   4.474   1.161   3.420
10640SOL    HW232820   4.449   1.025   3.333
10641SOL     OW32821   2.037   1.411   3.943
10641SOL    HW132822   2.024   1.508   3.963
10641SOL    HW232823   1.974   1.357   3.999
10642SOL     OW32824   6.020   1.885   0.659
10642SOL    HW132825   5.949   1.956   0.651
10642SOL    HW232826   5.997   1.824   0.735
10643SOL     OW32827   2.022   5.897   5.057
10643SOL    HW132828   2.049   5.818   5.112
10643SOL    HW232829   2.033   5.981   5.111
10644SOL     OW32830   6.388   3.234   1.323
10644SOL    HW132831   6.340   3.321   1.319
10644SOL    HW232832   6.469   3.238   1.264
10645SOL     OW32833   2.148   3.085   3.783
10645SOL    HW132834   2.152   3.152   3.710
10645SOL    HW232835   2.195   3.001   3.754
10646SOL     OW32836   5.734   1.132   5.800
10646SOL    HW132837   5.730   1.104   5.896
10646SOL    HW232838   5.682   1.067   5.744
10647SOL     OW32839   3.725   5.384   5.115
10647SOL    HW132840   3.780   5.449   5.063
10647SOL    HW232841   3.656   5.343   5.055
10648SOL     OW32842   6.209   5.798   6.246
10648SOL    HW132843   6.172   5.842   6.164
10648SOL    HW232844   6.292   5.845   6.275
10649SOL     OW32845   1.063   3.391   3.762
10649SOL    HW132846   1.028   3.358   3.849
10649SOL    HW232847   0.986   3.407   3.699
10650SOL     OW32848   0.412   0.136   4.463
10650SOL    HW132849   0.420   0.037   4.468
10650SOL    HW232850   0.315   0.161   4.452
10651SOL     OW32851   5.810   6.172   5.711
10651SOL    HW132852   5.802   6.145   5.615
10651SOL    HW232853   5.725   6.215   5.741
10652SOL     OW32854   2.133   6.836   6.085
10652SOL    HW132855   2.221   6.790   6.090
10652SOL    HW232856   2.134   6.902   6.010
10653SOL     OW32857   3.725   6.010   4.695
10653SOL    HW132858   3.703   6.098   4.651
10653SOL    HW232859   3.761   5.947   4.626
10654SOL     OW32860   4.730   1.594   4.869
10654SOL    HW132861   4.824   1.581   4.837
10654SOL    HW232862   4.676   1.636   4.797
10655SOL     OW32863   1.984   4.577   1.189
10655SOL    HW132864   2.070   4.621   1.214
10655SOL    HW232865   1.907   4.627   1.230
10656SOL     OW32866   6.884   1.154   2.297
10656SOL    HW132867   6.921   1.234   2.344
10656SOL    HW232868   6.882   1.171   2.199
10657SOL     OW32869   6.136   1.068   4.532
10657SOL    HW132870   6.050   1.077   4.584
10657SOL    HW232871   6.126   1.115   4.445
10658SOL     OW32872   5.841   3.657   4.848
10658SOL    HW132873   5.867   3.670   4.943
10658SOL    HW232874   5.749   3.693   4.832
10659SOL     OW32875   0.976   4.490   0.684
10659SOL    HW132876   0.925   4.404   0.688
10659SOL    HW232877   1.074   4.471   0.679
10660SOL     OW32878   6.297   3.631   5.365
10660SOL    HW132879   6.302   3.535   5.391
10660SOL    HW232880   6.386   3.661   5.330
10661SOL     OW32881   1.547   5.438   0.624
10661SOL    HW132882   1.466   5.430   0.565
10661SOL    HW232883   1.600   5.353   0.618
10662SOL     OW32884   3.894   1.145   2.126
10662SOL    HW132885   3.814   1.085   2.114
10662SOL    HW232886   3.874   1.235   2.086
10663SOL     OW32887   0.481   2.087   3.563
10663SOL    HW132888   0.430   2.106   3.479
10663SOL    HW232889   0.440   2.009   3.610
10664SOL     OW32890   0.059   5.467   4.902
10664SOL    HW132891   0.117   5.428   4.974
10664SOL    HW232892   0.056   5.403   4.824
10665SOL     OW32893   2.270   2.334   0.021
10665SOL    HW132894   2.361   2.374   0.030
10665SOL    HW232895   2.266   2.248   0.072
10666SOL     OW32896   3.233   3.752   2.255
10666SOL    HW132897   3.136   3.774   2.249
10666SOL    HW232898   3.245   3.667   2.307
10667SOL     OW32899   4.995   1.582   4.024
10667SOL    HW132900   5.088   1.614   4.043
10667SOL    HW232901   4.945   1.574   4.111
10668SOL     OW32902   3.339   1.468   5.361
10668SOL    HW132903   3.250   1.443   5.323
10668SOL    HW232904   3.369   1.555   5.323
10669SOL     OW32905   5.743   0.584   0.884
10669SOL    HW132906   5.827   0.604   0.833
10669SOL    HW232907   5.676   0.543   0.823
10670SOL     OW32908   5.623   4.371   4.573
10670SOL    HW132909   5.528   4.387   4.548
10670SOL    HW232910   5.660   4.295   4.518
10671SOL     OW32911   1.517   1.691   4.474
10671SOL    HW132912   1.604   1.738   4.462
10671SOL    HW232913   1.442   1.755   4.457
10672SOL     OW32914   6.759   3.977   1.514
10672SOL    HW132915   6.722   3.888   1.489
10672SOL    HW232916   6.801   4.019   1.434
10673SOL     OW32917   1.585   6.727   0.108
10673SOL    HW132918   1.683   6.739   0.124
10673SOL    HW232919   1.570   6.701   0.012
10674SOL     OW32920   3.926   3.869   4.336
10674SOL    HW132921   3.990   3.940   4.305
10674SOL    HW232922   3.847   3.866   4.275
10675SOL     OW32923   2.978   0.732   6.521
10675SOL    HW132924   2.967   0.664   6.449
10675SOL    HW232925   3.050   0.703   6.584
10676SOL     OW32926   0.110   6.315   4.703
10676SOL    HW132927   0.069   6.240   4.756
10676SOL    HW232928   0.197   6.342   4.745
10677SOL     OW32929   1.558   1.129   1.392
10677SOL    HW132930   1.482   1.192   1.407
10677SOL    HW232931   1.522   1.038   1.371
10678SOL     OW32932   4.330   5.044   3.810
10678SOL    HW132933   4.254   5.077   3.755
10678SOL    HW232934   4.331   5.091   3.898
10679SOL     OW32935   3.919   5.539   6.840
10679SOL    HW132936   3.876   5.568   6.755
10679SOL    HW232937   3.969   5.616   6.880
10680SOL     OW32938   4.034   2.049   3.767
10680SOL    HW132939   4.075   2.013   3.683
10680SOL    HW232940   4.019   1.974   3.832
10681SOL     OW32941   6.569   3.762   0.221
10681SOL    HW132942   6.581   3.697   0.295
10681SOL    HW232943   6.473   3.767   0.196
10682SOL     OW32944   0.223   3.042   5.257
10682SOL    HW132945   0.249   3.010   5.166
10682SOL    HW232946   0.207   2.964   5.317
10683SOL     OW32947   4.361   1.106   3.835
10683SOL    HW132948   4.301   1.168   3.885
10683SOL    HW232949   4.448   1.096   3.884
10684SOL     OW32950   4.561   5.689   1.855
10684SOL    HW132951   4.642   5.632   1.869
10684SOL    HW232952   4.539   5.738   1.939
10685SOL     OW32953   0.481   5.631   0.972
10685SOL    HW132954   0.509   5.722   0.940
10685SOL    HW232955   0.540   5.603   1.048
10686SOL     OW32956   1.543   4.061   5.963
10686SOL    HW132957   1.636   4.043   5.931
10686SOL    HW232958   1.507   3.980   6.009
10687SOL     OW32959   6.728   4.441   4.445
10687SOL    HW132960   6.691   4.400   4.362
10687SOL    HW232961   6.827   4.429   4.448
10688SOL     OW32962   5.710   2.839   3.122
10688SOL    HW132963   5.762   2.914   3.162
10688SOL    HW232964   5.614   2.866   3.113
10689SOL     OW32965   7.007   0.517   1.971
10689SOL    HW132966   7.010   0.424   1.933
10689SOL    HW232967   0.018   0.515   2.064
10690SOL     OW32968   0.243   5.362   3.334
10690SOL    HW132969   0.325   5.418   3.319
10690SOL    HW232970   0.238   5.292   3.263
10691SOL     OW32971   1.845   2.004   1.558
10691SOL    HW132972   1.889   1.950   1.487
10691SOL    HW232973   1.909   2.073   1.593
10692SOL     OW32974   2.400   0.320   3.666
10692SOL    HW132975   2.379   0.417   3.672
10692SOL    HW232976   2.431   0.286   3.755
10693SOL     OW32977   1.363   6.029   1.000
10693SOL    HW132978   1.399   6.011   0.908
10693SOL    HW232979   1.338   5.942   1.043
10694SOL     OW32980   5.424   6.098   6.363
10694SOL    HW132981   5.451   6.185   6.321
10694SOL    HW232982   5.405   6.113   6.460
10695SOL     OW32983   1.677   2.466   2.314
10695SOL    HW132984   1.656   2.382   2.364
10695SOL    HW232985   1.655   2.546   2.370
10696SOL     OW32986   6.655   3.860   4.803
10696SOL    HW132987   6.649   3.765   4.773
10696SOL    HW232988   6.742   3.900   4.774
10697SOL     OW32989   0.068   0.429   5.645
10697SOL    HW132990   0.029   0.349   5.600
10697SOL    HW232991   7.022   0.480   5.691
10698SOL     OW32992   4.502   4.422   6.896
10698SOL    HW132993   4.472   4.426   6.991
10698SOL    HW232994   4.446   4.356   6.845
10699SOL     OW32995   3.928   4.816   1.690
10699SOL    HW132996   3.972   4.811   1.600
10699SOL    HW232997   3.985   4.769   1.757
10700SOL     OW32998   5.589   6.310   0.794
10700SOL    HW132999   5.689   6.309   0.789
10700SOL    HW233000   5.559   6.375   0.864
10701SOL     OW33001   2.742   0.198   5.848
10701SOL    HW133002   2.789   0.169   5.765
10701SOL    HW233003   2.794   0.269   5.893
10702SOL     OW33004   5.185   3.464   2.389
10702SOL    HW133005   5.089   3.447   2.368
10702SOL    HW233006   5.236   3.377   2.382
10703SOL     OW33007   2.325   2.586   5.525
10703SOL    HW133008   2.395   2.656   5.512
10703SOL    HW233009   2.368   2.497   5.540
10704SOL     OW33010   6.807   5.129   2.128
10704SOL    HW133011   6.865   5.210   2.142
10704SOL    HW233012   6.851   5.068   2.062
10705SOL     OW33013   6.153   5.357   1.629
10705SOL    HW133014   6.102   5.391   1.550
10705SOL    HW233015   6.168   5.259   1.620
10706SOL     OW33016   3.926   6.977   2.444
10706SOL    HW133017   3.886   0.027   2.495
10706SOL    HW233018   3.969   7.012   2.360
10707SOL     OW33019   0.721   6.501   3.909
10707SOL    HW133020   0.640   6.557   3.928
10707SOL    HW233021   0.794   6.525   3.974
10708SOL     OW33022   3.628   1.426   1.344
10708SOL    HW133023   3.604   1.360   1.415
10708SOL    HW233024   3.660   1.377   1.262
10709SOL     OW33025   5.308   5.330   4.788
10709SOL    HW133026   5.359   5.252   4.751
10709SOL    HW233027   5.355   5.363   4.870
10710SOL     OW33028   6.283   1.116   4.019
10710SOL    HW133029   6.366   1.092   3.969
10710SOL    HW233030   6.308   1.172   4.098
10711SOL     OW33031   2.010   6.942   4.163
10711SOL    HW133032   1.952   6.864   4.140
10711SOL    HW233033   1.964   6.998   4.233
10712SOL     OW33034   3.138   0.921   2.103
10712SOL    HW133035   3.129   0.959   2.195
10712SOL    HW233036   3.233   0.927   2.073
10713SOL     OW33037   0.673   3.538   0.789
10713SOL    HW133038   0.745   3.478   0.752
10713SOL    HW233039   0.608   3.560   0.716
10714SOL     OW33040   4.874   3.832   5.676
10714SOL    HW133041   4.871   3.861   5.771
10714SOL    HW233042   4.788   3.788   5.651
10715SOL     OW33043   4.759   0.601   2.291
10715SOL    HW133044   4.697   0.527   2.316
10715SOL    HW233045   4.746   0.678   2.354
10716SOL     OW33046   5.695   2.489   4.001
10716SOL    HW133047   5.639   2.407   4.009
10716SOL    HW233048   5.643   2.568   4.033
10717SOL     OW33049   1.442   2.486   1.174
10717SOL    HW133050   1.357   2.435   1.190
10717SOL    HW233051   1.427   2.583   1.192
10718SOL     OW33052   1.009   3.930   0.078
10718SOL    HW133053   1.030   3.945   7.007
10718SOL    HW233054   0.933   3.866   0.085
10719SOL     OW33055   0.241   5.927   2.848
10719SOL    HW133056   0.322   5.873   2.870
10719SOL    HW233057   0.199   5.962   2.932
10720SOL     OW33058   6.844   4.246   5.204
10720SOL    HW133059   6.891   4.158   5.202
10720SOL    HW233060   6.784   4.250   5.284
10721SOL     OW33061   5.146   3.568   5.236
10721SOL    HW133062   5.205   3.541   5.312
10721SOL    HW233063   5.081   3.638   5.267
10722SOL     OW33064   1.441   5.499   0.178
10722SOL    HW133065   1.415   5.481   0.083
10722SOL    HW233066   1.397   5.584   0.209
10723SOL     OW33067   0.249   2.847   6.447
10723SOL    HW133068   0.260   2.806   6.356
10723SOL    HW233069   0.326   2.819   6.505
10724SOL     OW33070   6.053   0.598   6.552
10724SOL    HW133071   6.110   0.664   6.601
10724SOL    HW233072   5.982   0.564   6.613
10725SOL     OW33073   1.225   5.586   4.970
10725SOL    HW133074   1.229   5.648   4.892
10725SOL    HW233075   1.143   5.606   5.025
10726SOL     OW33076   5.692   0.456   4.579
10726SOL    HW133077   5.655   0.363   4.582
10726SOL    HW233078   5.641   0.514   4.643
10727SOL     OW33079   0.321   5.308   5.709
10727SOL    HW133080   0.262   5.386   5.733
10727SOL    HW233081   0.286   5.264   5.626
10728SOL     OW33082   1.336   5.977   6.776
10728SOL    HW133083   1.396   5.957   6.698
10728SOL    HW233084   1.241   5.965   6.749
10729SOL     OW33085   4.684   1.673   2.548
10729SOL    HW133086   4.745   1.596   2.570
10729SOL    HW233087   4.726   1.730   2.478
10730SOL     OW33088   1.760   0.799   0.870
10730SOL    HW133089   1.850   0.824   0.906
10730SOL    HW233090   1.689   0.846   0.922
10731SOL     OW33091   3.381   0.613   1.034
10731SOL    HW133092   3.392   0.579   1.128
10731SOL    HW233093   3.335   0.543   0.979
10732SOL     OW33094   6.516   4.525   4.904
10732SOL    HW133095   6.463   4.525   4.820
10732SOL    HW233096   6.602   4.574   4.890
10733SOL     OW33097   6.685   1.903   0.435
10733SOL    HW133098   6.650   1.854   0.356
10733SOL    HW233099   6.663   2.001   0.426
10734SOL     OW33100   0.969   0.358   0.113
10734SOL    HW133101   0.873   0.355   0.085
10734SOL    HW233102   1.022   0.411   0.047
10735SOL     OW33103   0.335   2.951   3.031
10735SOL    HW133104   0.332   3.048   3.054
10735SOL    HW233105   0.391   2.937   2.949
10736SOL     OW33106   0.935   0.922   3.299
10736SOL    HW133107   1.017   0.867   3.319
10736SOL    HW233108   0.914   0.979   3.378
10737SOL     OW33109   1.071   1.542   0.927
10737SOL    HW133110   1.058   1.593   0.842
10737SOL    HW233111   1.019   1.586   1.000
10738SOL     OW33112   2.393   0.680   2.739
10738SOL    HW133113   2.424   0.664   2.645
10738SOL    HW233114   2.307   0.632   2.755
10739SOL     OW33115   1.308   1.269   1.121
10739SOL    HW133116   1.311   1.343   1.054
10739SOL    HW233117   1.300   1.308   1.213
10740SOL     OW33118   0.074   5.151   5.262
10740SOL    HW133119   7.020   5.111   5.307
10740SOL    HW233120   0.071   5.250   5.272
10741SOL     OW33121   5.157   0.363   1.013
10741SOL    HW133122   5.213   0.313   1.079
10741SOL    HW233123   5.108   0.298   0.956
10742SOL     OW33124   5.857   0.325   1.247
10742SOL    HW133125   5.876   0.280   1.334
10742SOL    HW233126   5.803   0.408   1.264
10743SOL     OW33127   2.350   1.273   5.256
10743SOL    HW133128   2.359   1.222   5.170
10743SOL    HW233129   2.255   1.303   5.267
10744SOL     OW33130   3.576   1.382   0.865
10744SOL    HW133131   3.513   1.305   0.864
10744SOL    HW233132   3.542   1.454   0.804
10745SOL     OW33133   0.354   5.715   6.603
10745SOL    HW133134   0.423   5.697   6.532
10745SOL    HW233135   0.390   5.685   6.692
10746SOL     OW33136   2.358   4.911   1.672
10746SOL    HW133137   2.452   4.881   1.688
10746SOL    HW233138   2.309   4.913   1.759
10747SOL     OW33139   3.859   1.179   4.283
10747SOL    HW133140   3.840   1.092   4.237
10747SOL    HW233141   3.929   1.229   4.231
10748SOL     OW33142   5.644   0.945   0.805
10748SOL    HW133143   5.601   0.855   0.808
10748SOL    HW233144   5.587   1.011   0.855
10749SOL     OW33145   0.301   5.748   3.124
10749SOL    HW133146   0.228   5.723   3.060
10749SOL    HW233147   0.372   5.677   3.123
10750SOL     OW33148   4.381   6.239   4.200
10750SOL    HW133149   4.410   6.263   4.107
10750SOL    HW233150   4.288   6.271   4.216
10751SOL     OW33151   1.763   4.871   4.713
10751SOL    HW133152   1.738   4.917   4.798
10751SOL    HW233153   1.860   4.847   4.715
10752SOL     OW33154   6.343   4.176   6.031
10752SOL    HW133155   6.320   4.102   5.967
10752SOL    HW233156   6.358   4.260   5.980
10753SOL     OW33157   4.744   5.048   4.693
10753SOL    HW133158   4.731   4.950   4.710
10753SOL    HW233159   4.776   5.062   4.600
10754SOL     OW33160   0.550   0.521   3.097
10754SOL    HW133161   0.622   0.581   3.063
10754SOL    HW233162   0.464   0.545   3.052
10755SOL     OW33163   0.224   1.034   0.511
10755SOL    HW133164   0.140   1.081   0.482
10755SOL    HW233165   0.206   0.936   0.516
10756SOL     OW33166   6.222   4.919   6.793
10756SOL    HW133167   6.189   4.854   6.860
10756SOL    HW233168   6.210   4.881   6.701
10757SOL     OW33169   1.920   2.959   6.828
10757SOL    HW133170   1.900   3.052   6.858
10757SOL    HW233171   2.017   2.939   6.843
10758SOL     OW33172   1.002   6.158   4.150
10758SOL    HW133173   1.007   6.062   4.176
10758SOL    HW233174   0.934   6.205   4.207
10759SOL     OW33175   1.771   2.740   1.212
10759SOL    HW133176   1.783   2.799   1.292
10759SOL    HW233177   1.751   2.647   1.241
10760SOL     OW33178   5.816   0.386   2.553
10760SOL    HW133179   5.716   0.392   2.544
10760SOL    HW233180   5.843   0.289   2.558
10761SOL     OW33181   0.889   6.353   6.112
10761SOL    HW133182   0.849   6.398   6.033
10761SOL    HW233183   0.896   6.418   6.188
10762SOL     OW33184   3.423   2.115   4.104
10762SOL    HW133185   3.446   2.144   4.197
10762SOL    HW233186   3.498   2.060   4.067
10763SOL     OW33187   5.156   0.027   2.884
10763SOL    HW133188   5.229   0.023   2.952
10763SOL    HW233189   5.084   6.988   2.908
10764SOL     OW33190   4.614   2.552   6.230
10764SOL    HW133191   4.573   2.527   6.142
10764SOL    HW233192   4.707   2.583   6.216
10765SOL     OW33193   4.780   2.382   0.765
10765SOL    HW133194   4.697   2.437   0.776
10765SOL    HW233195   4.860   2.439   0.783
10766SOL     OW33196   5.383   4.411   0.527
10766SOL    HW133197   5.381   4.312   0.539
10766SOL    HW233198   5.293   4.442   0.497
10767SOL     OW33199   2.154   0.071   0.289
10767SOL    HW133200   2.205   0.052   0.372
10767SOL    HW233201   2.165   0.167   0.264
10768SOL     OW33202   4.770   5.479   1.815
10768SOL    HW133203   4.793   5.403   1.754
10768SOL    HW233204   4.749   5.443   1.906
10769SOL     OW33205   2.326   4.175   5.299
10769SOL    HW133206   2.368   4.092   5.260
10769SOL    HW233207   2.370   4.256   5.260
10770SOL     OW33208   5.494   0.258   4.834
10770SOL    HW133209   5.543   0.203   4.767
10770SOL    HW233210   5.409   0.292   4.794
10771SOL     OW33211   5.492   6.760   3.614
10771SOL    HW133212   5.577   6.807   3.587
10771SOL    HW233213   5.488   6.754   3.713
10772SOL     OW33214   6.265   6.990   4.298
10772SOL    HW133215   6.334   7.009   4.368
10772SOL    HW233216   6.284   0.020   4.217
10773SOL     OW33217   6.135   5.569   5.974
10773SOL    HW133218   6.121   5.473   5.997
10773SOL    HW233219   6.222   5.600   6.013
10774SOL     OW33220   2.085   1.463   6.309
10774SOL    HW133221   2.066   1.537   6.243
10774SOL    HW233222   2.114   1.381   6.259
10775SOL     OW33223   0.650   4.398   1.985
10775SOL    HW133224   0.658   4.478   1.926
10775SOL    HW233225   0.720   4.331   1.959
10776SOL     OW33226   0.371   1.166   6.802
10776SOL    HW133227   0.418   1.249   6.834
10776SOL    HW233228   0.427   1.120   6.733
10777SOL     OW33229   4.244   5.377   2.372
10777SOL    HW133230   4.212   5.304   2.313
10777SOL    HW233231   4.331   5.413   2.337
10778SOL     OW33232   5.319   0.171   4.427
10778SOL    HW133233   5.268   0.181   4.342
10778SOL    HW233234   5.330   0.074   4.448
10779SOL     OW33235   6.380   3.274   3.249
10779SOL    HW133236   6.374   3.363   3.293
10779SOL    HW233237   6.462   3.270   3.191
10780SOL     OW33238   1.938   0.591   3.732
10780SOL    HW133239   1.858   0.578   3.672
10780SOL    HW233240   1.909   0.636   3.816
10781SOL     OW33241   4.452   1.006   4.188
10781SOL    HW133242   4.373   0.957   4.225
10781SOL    HW233243   4.499   0.949   4.121
10782SOL     OW33244   6.987   1.653   2.440
10782SOL    HW133245   0.044   1.708   2.448
10782SOL    HW233246   6.939   1.677   2.356
10783SOL     OW33247   0.538   2.531   2.469
10783SOL    HW133248   0.468   2.544   2.539
10783SOL    HW233249   0.495   2.535   2.379
10784SOL     OW33250   3.789   6.716   4.439
10784SOL    HW133251   3.726   6.768   4.381
10784SOL    HW233252   3.882   6.725   4.403
10785SOL     OW33253   6.713   4.848   0.394
10785SOL    HW133254   6.733   4.894   0.480
10785SOL    HW233255   6.732   4.910   0.318
10786SOL     OW33256   5.973   4.652   3.321
10786SOL    HW133257   5.937   4.570   3.276
10786SOL    HW233258   5.903   4.691   3.380
10787SOL     OW33259   2.024   1.462   5.655
10787SOL    HW133260   2.075   1.547   5.644
10787SOL    HW233261   1.995   1.428   5.566
10788SOL     OW33262   1.910   4.437   6.507
10788SOL    HW133263   1.820   4.482   6.511
10788SOL    HW233264   1.969   4.487   6.445
10789SOL     OW33265   6.502   2.892   6.557
10789SOL    HW133266   6.473   2.809   6.606
10789SOL    HW233267   6.547   2.866   6.472
10790SOL     OW33268   0.595   0.278   1.662
10790SOL    HW133269   0.632   0.357   1.712
10790SOL    HW233270   0.565   0.308   1.571
10791SOL     OW33271   6.547   6.460   1.509
10791SOL    HW133272   6.574   6.476   1.604
10791SOL    HW233273   6.470   6.519   1.486
10792SOL     OW33274   3.540   3.151   4.764
10792SOL    HW133275   3.501   3.084   4.700
10792SOL    HW233276   3.480   3.159   4.844
10793SOL     OW33277   5.775   3.056   5.535
10793SOL    HW133278   5.767   3.124   5.608
10793SOL    HW233279   5.835   2.982   5.565
10794SOL     OW33280   3.936   3.102   4.252
10794SOL    HW133281   3.965   3.154   4.333
10794SOL    HW233282   3.891   3.018   4.281
10795SOL     OW33283   0.249   5.095   2.465
10795SOL    HW133284   0.151   5.112   2.476
10795SOL    HW233285   0.277   5.022   2.528
10796SOL     OW33286   6.145   0.041   5.991
10796SOL    HW133287   6.227   0.006   6.037
10796SOL    HW233288   6.169   0.124   5.940
10797SOL     OW33289   3.153   2.430   1.524
10797SOL    HW133290   3.253   2.441   1.528
10797SOL    HW233291   3.116   2.493   1.456
10798SOL     OW33292   2.771   0.801   0.450
10798SOL    HW133293   2.781   0.713   0.404
10798SOL    HW233294   2.760   0.786   0.548
10799SOL     OW33295   4.119   1.424   2.111
10799SOL    HW133296   4.149   1.435   2.206
10799SOL    HW233297   4.187   1.371   2.060
10800SOL     OW33298   0.263   6.425   5.880
10800SOL    HW133299   0.205   6.399   5.803
10800SOL    HW233300   0.212   6.487   5.940
10801SOL     OW33301   1.201   6.932   7.020
10801SOL    HW133302   1.233   6.960   6.930
10801SOL    HW233303   1.147   7.006   0.035
10802SOL     OW33304   0.642   0.568   2.188
10802SOL    HW133305   0.665   0.605   2.278
10802SOL    HW233306   0.561   0.616   2.152
10803SOL     OW33307   2.044   5.280   5.878
10803SOL    HW133308   1.944   5.284   5.881
10803SOL    HW233309   2.080   5.371   5.856
10804SOL     OW33310   5.876   3.083   2.498
10804SOL    HW133311   5.889   2.994   2.454
10804SOL    HW233312   5.962   3.114   2.537
10805SOL     OW33313   4.949   6.744   5.591
10805SOL    HW133314   5.014   6.820   5.580
10805SOL    HW233315   4.985   6.680   5.659
10806SOL     OW33316   4.028   4.259   6.256
10806SOL    HW133317   4.095   4.326   6.225
10806SOL    HW233318   3.987   4.290   6.342
10807SOL     OW33319   1.733   0.136   3.349
10807SOL    HW133320   1.714   0.038   3.343
10807SOL    HW233321   1.685   0.175   3.428
10808SOL     OW33322   0.158   3.316   6.323
10808SOL    HW133323   0.079   3.372   6.298
10808SOL    HW233324   0.135   3.259   6.402
10809SOL     OW33325   2.277   4.183   3.641
10809SOL    HW133326   2.278   4.260   3.578
10809SOL    HW233327   2.314   4.102   3.596
10810SOL     OW33328   0.597   0.689   3.844
10810SOL    HW133329   0.691   0.686   3.879
10810SOL    HW233330   0.599   0.687   3.744
10811SOL     OW33331   4.175   4.755   5.788
10811SOL    HW133332   4.083   4.751   5.749
10811SOL    HW233333   4.193   4.847   5.822
10812SOL     OW33334   0.042   3.846   0.705
10812SOL    HW133335   0.015   3.896   0.787
10812SOL    HW233336   6.990   3.792   0.672
10813SOL     OW33337   0.888   3.642   5.897
10813SOL    HW133338   0.933   3.700   5.829
10813SOL    HW233339   0.893   3.547   5.867
10814SOL     OW33340   1.675   0.201   6.317
10814SOL    HW133341   1.719   0.194   6.406
10814SOL    HW233342   1.705   0.125   6.259
10815SOL     OW33343   4.932   3.310   3.144
10815SOL    HW133344   4.868   3.277   3.213
10815SOL    HW233345   5.025   3.283   3.169
10816SOL     OW33346   2.918   3.294   2.509
10816SOL    HW133347   2.917   3.226   2.435
10816SOL    HW233348   2.907   3.385   2.469
10817SOL     OW33349   3.877   0.641   3.504
10817SOL    HW133350   3.968   0.638   3.548
10817SOL    HW233351   3.874   0.574   3.430
10818SOL     OW33352   5.123   4.140   5.632
10818SOL    HW133353   5.080   4.171   5.717
10818SOL    HW233354   5.125   4.040   5.630
10819SOL     OW33355   5.875   5.136   6.189
10819SOL    HW133356   5.810   5.068   6.156
10819SOL    HW233357   5.898   5.200   6.115
10820SOL     OW33358   0.325   5.280   4.328
10820SOL    HW133359   0.328   5.197   4.385
10820SOL    HW233360   0.410   5.330   4.337
10821SOL     OW33361   4.505   6.907   3.438
10821SOL    HW133362   4.537   6.967   3.365
10821SOL    HW233363   4.441   6.956   3.497
10822SOL     OW33364   6.059   1.984   2.677
10822SOL    HW133365   6.150   1.955   2.647
10822SOL    HW233366   6.014   1.909   2.726
10823SOL     OW33367   1.235   0.695   2.183
10823SOL    HW133368   1.299   0.640   2.236
10823SOL    HW233369   1.239   0.666   2.087
10824SOL     OW33370   0.274   0.811   2.549
10824SOL    HW133371   0.320   0.897   2.529
10824SOL    HW233372   0.341   0.738   2.556
10825SOL     OW33373   2.528   2.075   6.896
10825SOL    HW133374   2.479   1.998   6.936
10825SOL    HW233375   2.626   2.055   6.894
10826SOL     OW33376   1.211   1.702   3.123
10826SOL    HW133377   1.257   1.632   3.069
10826SOL    HW233378   1.181   1.777   3.064
10827SOL     OW33379   0.080   3.439   4.876
10827SOL    HW133380   0.154   3.443   4.808
10827SOL    HW233381   0.097   3.507   4.947
10828SOL     OW33382   1.796   4.785   0.409
10828SOL    HW133383   1.864   4.717   0.435
10828SOL    HW233384   1.759   4.828   0.492
10829SOL     OW33385   4.845   2.095   0.462
10829SOL    HW133386   4.862   2.182   0.509
10829SOL    HW233387   4.747   2.074   0.466
10830SOL     OW33388   4.652   1.804   3.187
10830SOL    HW133389   4.601   1.820   3.103
10830SOL    HW233390   4.725   1.872   3.195
10831SOL     OW33391   2.875   6.416   2.489
10831SOL    HW133392   2.941   6.375   2.553
10831SOL    HW233393   2.903   6.396   2.395
10832SOL     OW33394   0.080   3.725   6.567
10832SOL    HW133395   0.154   3.666   6.538
10832SOL    HW233396   0.003   3.670   6.599
10833SOL     OW33397   0.386   1.370   1.498
10833SOL    HW133398   0.351   1.364   1.405
10833SOL    HW233399   0.310   1.373   1.563
10834SOL     OW33400   6.081   1.347   0.619
10834SOL    HW133401   6.052   1.423   0.561
10834SOL    HW233402   6.025   1.267   0.600
10835SOL     OW33403   6.034   2.659   0.215
10835SOL    HW133404   5.968   2.657   0.140
10835SOL    HW233405   6.127   2.652   0.178
10836SOL     OW33406   0.041   2.197   4.074
10836SOL    HW133407   6.994   2.218   4.140
10836SOL    HW233408   0.003   2.139   4.002
10837SOL     OW33409   6.704   5.042   1.332
10837SOL    HW133410   6.788   5.081   1.295
10837SOL    HW233411   6.632   5.111   1.332
10838SOL     OW33412   6.584   6.445   3.817
10838SOL    HW133413   6.647   6.368   3.827
10838SOL    HW233414   6.490   6.415   3.833
10839SOL     OW33415   4.232   3.539   0.802
10839SOL    HW133416   4.256   3.473   0.731
10839SOL    HW233417   4.133   3.546   0.811
10840SOL     OW33418   2.980   6.071   2.437
10840SOL    HW133419   2.882   6.075   2.420
10840SOL    HW233420   3.009   5.976   2.443
10841SOL     OW33421   6.435   4.404   5.449
10841SOL    HW133422   6.425   4.487   5.503
10841SOL    HW233423   6.426   4.426   5.352
10842SOL     OW33424   4.641   2.604   1.317
10842SOL    HW133425   4.702   2.654   1.255
10842SOL    HW233426   4.547   2.634   1.304
10843SOL     OW33427   1.271   1.223   1.442
10843SOL    HW133428   1.218   1.140   1.424
10843SOL    HW233429   1.226   1.275   1.515
10844SOL     OW33430   0.653   5.524   3.103
10844SOL    HW133431   0.658   5.613   3.149
10844SOL    HW233432   0.558   5.495   3.097
10845SOL     OW33433   3.974   6.266   5.451
10845SOL    HW133434   3.916   6.321   5.391
10845SOL    HW233435   3.922   6.241   5.533
10846SOL     OW33436   5.193   0.401   6.451
10846SOL    HW133437   5.168   0.331   6.518
10846SOL    HW233438   5.242   0.475   6.496
10847SOL     OW33439   3.292   2.129   0.129
10847SOL    HW133440   3.318   2.204   0.190
10847SOL    HW233441   3.275   2.165   0.037
10848SOL     OW33442   1.244   4.292   1.011
10848SOL    HW133443   1.238   4.386   0.978
10848SOL    HW233444   1.335   4.256   0.991
10849SOL     OW33445   2.843   4.712   4.102
10849SOL    HW133446   2.831   4.613   4.108
10849SOL    HW233447   2.868   4.738   4.009
10850SOL     OW33448   3.629   6.420   5.985
10850SOL    HW133449   3.722   6.440   6.017
10850SOL    HW233450   3.610   6.474   5.903
10851SOL     OW33451   3.157   3.447   0.487
10851SOL    HW133452   3.068   3.415   0.457
10851SOL    HW233453   3.146   3.511   0.563
10852SOL     OW33454   1.805   0.685   6.471
10852SOL    HW133455   1.802   0.779   6.437
10852SOL    HW233456   1.739   0.675   6.545
10853SOL     OW33457   1.901   3.034   5.621
10853SOL    HW133458   1.951   3.019   5.706
10853SOL    HW233459   1.951   3.099   5.564
10854SOL     OW33460   4.344   5.309   5.691
10854SOL    HW133461   4.435   5.351   5.688
10854SOL    HW233462   4.321   5.287   5.786
10855SOL     OW33463   4.269   0.374   0.295
10855SOL    HW133464   4.293   0.466   0.325
10855SOL    HW233465   4.352   0.319   0.285
10856SOL     OW33466   5.501   1.137   0.928
10856SOL    HW133467   5.449   1.110   1.009
10856SOL    HW233468   5.500   1.236   0.920
10857SOL     OW33469   0.889   2.509   2.721
10857SOL    HW133470   0.949   2.587   2.742
10857SOL    HW233471   0.939   2.444   2.664
10858SOL     OW33472   0.908   1.154   0.722
10858SOL    HW133473   0.873   1.129   0.632
10858SOL    HW233474   1.000   1.192   0.713
10859SOL     OW33475   1.168   4.904   4.446
10859SOL    HW133476   1.216   4.991   4.457
10859SOL    HW233477   1.230   4.837   4.405
10860SOL     OW33478   0.311   3.295   5.046
10860SOL    HW133479   0.366   3.271   4.966
10860SOL    HW233480   0.290   3.213   5.099
10861SOL     OW33481   3.280   3.437   3.312
10861SOL    HW133482   3.217   3.491   3.256
10861SOL    HW233483   3.339   3.383   3.252
10862SOL     OW33484   1.800   0.876   6.151
10862SOL    HW133485   1.713   0.836   6.120
10862SOL    HW233486   1.853   0.906   6.071
10863SOL     OW33487   2.509   0.475   4.088
10863SOL    HW133488   2.419   0.516   4.101
10863SOL    HW233489   2.574   0.545   4.059
10864SOL     OW33490   2.668   6.002   0.019
10864SOL    HW133491   2.600   6.027   0.088
10864SOL    HW233492   2.755   6.046   0.040
10865SOL     OW33493   6.564   1.303   0.793
10865SOL    HW133494   6.468   1.316   0.819
10865SOL    HW233495   6.614   1.388   0.808
10866SOL     OW33496   5.101   3.988   0.384
10866SOL    HW133497   5.141   3.917   0.442
10866SOL    HW233498   5.037   4.043   0.437
10867SOL     OW33499   2.912   4.133   0.970
10867SOL    HW133500   2.999   4.084   0.963
10867SOL    HW233501   2.845   4.074   1.016
10868SOL     OW33502   5.385   1.473   3.764
10868SOL    HW133503   5.300   1.486   3.713
10868SOL    HW233504   5.399   1.375   3.782
10869NA      NA33505   6.563   2.724   5.182
10870NA      NA33506   4.477   4.549   5.250
10871NA      NA33507   1.585   2.875   1.807
10872NA      NA33508   4.889   3.803   5.083
10873NA      NA33509   4.293   2.499   5.358
10874NA      NA33510   3.687   4.783   1.724
10875NA      NA33511   6.443   5.024   6.807
10876NA      NA33512   3.615   3.460   4.436
10877NA      NA33513   4.892   5.772   0.058
10878NA      NA33514   4.056   6.585   5.078
10879NA      NA33515   6.143   5.176   2.213
10880NA      NA33516   2.211   6.844   3.677
10881NA      NA33517   4.152   5.633   2.295
10882NA      NA33518   3.591   3.971   2.067
   7.02601   7.02601   7.02601
