Generated by trjconv : CNT in water t= 212.00000
33518
    1C        C    1   2.842   2.766   4.743
    1C        C    2   2.901   2.719   4.863
    1C        C    3   2.846   2.772   4.980
    1C        C    4   2.840   2.766   4.259
    1C        C    5   2.898   2.725   4.382
    1C        C    6   2.842   2.768   4.504
    1C        C    7   3.010   2.633   4.621
    1C        C    8   2.893   2.713   4.623
    1C        C    9   3.074   2.596   4.741
    1C        C   10   3.010   2.630   4.863
    1C        C   11   3.179   2.489   4.975
    1C        C   12   3.058   2.560   4.974
    1C        C   13   2.845   2.770   3.769
    1C        C   14   2.897   2.721   3.892
    1C        C   15   2.852   2.773   4.015
    1C        C   16   3.017   2.645   4.136
    1C        C   17   2.900   2.724   4.139
    1C        C   18   3.078   2.611   4.259
    1C        C   19   3.013   2.643   4.380
    1C        C   20   3.204   2.545   4.500
    1C        C   21   3.075   2.601   4.500
    1C        C   22   3.276   2.526   4.621
    1C        C   23   3.205   2.540   4.741
    1C        C   24   3.408   2.473   4.860
    1C        C   25   3.266   2.494   4.861
    1C        C   26   3.486   2.467   4.976
    1C        C   27   2.847   2.766   3.279
    1C        C   28   2.905   2.726   3.402
    1C        C   29   2.851   2.771   3.525
    1C        C   30   3.016   2.641   3.646
    1C        C   31   2.902   2.725   3.648
    1C        C   32   3.074   2.605   3.770
    1C        C   33   3.013   2.640   3.892
    1C        C   34   3.205   2.551   4.015
    1C        C   35   3.074   2.603   4.014
    1C        C   36   3.274   2.530   4.137
    1C        C   37   3.209   2.558   4.259
    1C        C   38   3.415   2.503   4.378
    1C        C   39   3.276   2.529   4.380
    1C        C   40   3.484   2.496   4.501
    1C        C   41   3.416   2.503   4.624
    1C        C   42   3.630   2.476   4.742
    1C        C   43   3.488   2.476   4.742
    1C        C   44   3.704   2.479   4.862
    1C        C   45   3.625   2.473   4.978
    1C        C   46   2.841   2.757   2.792
    1C        C   47   2.898   2.713   2.914
    1C        C   48   2.843   2.762   3.035
    1C        C   49   3.018   2.641   3.159
    1C        C   50   2.899   2.718   3.157
    1C        C   51   3.078   2.603   3.281
    1C        C   52   3.015   2.638   3.403
    1C        C   53   3.207   2.545   3.526
    1C        C   54   3.078   2.604   3.525
    1C        C   55   3.272   2.522   3.649
    1C        C   56   3.205   2.551   3.769
    1C        C   57   3.409   2.501   3.891
    1C        C   58   3.270   2.527   3.892
    1C        C   59   3.482   2.498   4.012
    1C        C   60   3.413   2.503   4.135
    1C        C   61   3.627   2.493   4.257
    1C        C   62   3.486   2.491   4.256
    1C        C   63   3.698   2.501   4.379
    1C        C   64   3.626   2.496   4.500
    1C        C   65   3.833   2.542   4.618
    1C        C   66   3.699   2.498   4.621
    1C        C   67   3.902   2.561   4.739
    1C        C   68   3.839   2.520   4.859
    1C        C   69   4.049   2.591   4.979
    1C        C   70   3.919   2.538   4.973
    1C        C   71   2.822   2.733   2.306
    1C        C   72   2.883   2.694   2.428
    1C        C   73   2.833   2.749   2.548
    1C        C   74   3.002   2.621   2.670
    1C        C   75   2.885   2.701   2.670
    1C        C   76   3.070   2.593   2.790
    1C        C   77   3.014   2.632   2.913
    1C        C   78   3.206   2.546   3.034
    1C        C   79   3.076   2.602   3.036
    1C        C   80   3.273   2.523   3.156
    1C        C   81   3.207   2.546   3.279
    1C        C   82   3.411   2.497   3.398
    1C        C   83   3.273   2.523   3.402
    1C        C   84   3.479   2.491   3.523
    1C        C   85   3.411   2.497   3.646
    1C        C   86   3.621   2.488   3.766
    1C        C   87   3.480   2.488   3.770
    1C        C   88   3.691   2.498   3.889
    1C        C   89   3.623   2.499   4.013
    1C        C   90   3.830   2.549   4.134
    1C        C   91   3.695   2.508   4.134
    1C        C   92   3.900   2.569   4.255
    1C        C   93   3.835   2.536   4.376
    1C        C   94   4.027   2.631   4.496
    1C        C   95   3.902   2.564   4.497
    1C        C   96   4.083   2.674   4.618
    1C        C   97   4.027   2.629   4.740
    1C        C   98   4.186   2.768   4.860
    1C        C   99   4.097   2.656   4.861
    1C        C  100   4.210   2.843   4.975
    1C        C  101   2.818   2.724   2.070
    1C        C  102   2.989   2.588   2.186
    1C        C  103   2.875   2.674   2.188
    1C        C  104   3.061   2.571   2.308
    1C        C  105   3.001   2.617   2.428
    1C        C  106   3.197   2.532   2.548
    1C        C  107   3.069   2.592   2.549
    1C        C  108   3.267   2.517   2.669
    1C        C  109   3.201   2.539   2.792
    1C        C  110   3.410   2.490   2.909
    1C        C  111   3.273   2.520   2.913
    1C        C  112   3.480   2.487   3.032
    1C        C  113   3.411   2.493   3.156
    1C        C  114   3.624   2.493   3.278
    1C        C  115   3.483   2.487   3.277
    1C        C  116   3.694   2.498   3.401
    1C        C  117   3.620   2.490   3.521
    1C        C  118   3.826   2.539   3.645
    1C        C  119   3.690   2.499   3.644
    1C        C  120   3.891   2.569   3.766
    1C        C  121   3.826   2.542   3.889
    1C        C  122   4.016   2.638   4.009
    1C        C  123   3.895   2.565   4.009
    1C        C  124   4.078   2.678   4.130
    1C        C  125   4.022   2.640   4.254
    1C        C  126   4.194   2.764   4.372
    1C        C  127   4.087   2.671   4.375
    1C        C  128   4.238   2.820   4.494
    1C        C  129   4.188   2.768   4.615
    1C        C  130   4.316   2.938   4.736
    1C        C  131   4.238   2.819   4.738
    1C        C  132   4.349   3.006   4.855
    1C        C  133   4.284   2.961   4.971
    1C        C  134   3.170   2.462   2.079
    1C        C  135   3.036   2.505   2.079
    1C        C  136   3.256   2.475   2.189
    1C        C  137   3.193   2.519   2.307
    1C        C  138   3.404   2.478   2.425
    1C        C  139   3.264   2.499   2.428
    1C        C  140   3.476   2.471   2.546
    1C        C  141   3.405   2.485   2.667
    1C        C  142   3.620   2.479   2.789
    1C        C  143   3.479   2.478   2.787
    1C        C  144   3.692   2.492   2.910
    1C        C  145   3.621   2.490   3.032
    1C        C  146   3.829   2.531   3.153
    1C        C  147   3.692   2.497   3.154
    1C        C  148   3.898   2.554   3.274
    1C        C  149   3.830   2.537   3.397
    1C        C  150   4.018   2.626   3.517
    1C        C  151   3.890   2.566   3.522
    1C        C  152   4.073   2.668   3.640
    1C        C  153   4.019   2.629   3.764
    1C        C  154   4.183   2.766   3.885
    1C        C  155   4.074   2.676   3.886
    1C        C  156   4.238   2.814   4.006
    1C        C  157   4.190   2.763   4.129
    1C        C  158   4.331   2.924   4.247
    1C        C  159   4.246   2.812   4.249
    1C        C  160   4.365   2.987   4.370
    1C        C  161   4.324   2.932   4.493
    1C        C  162   4.433   3.115   4.615
    1C        C  163   4.364   2.992   4.615
    1C        C  164   4.467   3.182   4.734
    1C        C  165   4.431   3.120   4.856
    1C        C  166   4.510   3.321   4.970
    1C        C  167   4.479   3.186   4.970
    1C        C  168   3.473   2.425   2.072
    1C        C  169   3.395   2.453   2.185
    1C        C  170   3.615   2.464   2.302
    1C        C  171   3.473   2.460   2.303
    1C        C  172   3.688   2.481   2.422
    1C        C  173   3.617   2.481   2.544
    1C        C  174   3.824   2.532   2.664
    1C        C  175   3.688   2.493   2.666
    1C        C  176   3.891   2.559   2.786
    1C        C  177   3.826   2.536   2.909
    1C        C  178   4.023   2.617   3.028
    1C        C  179   3.894   2.558   3.031
    1C        C  180   4.083   2.656   3.150
    1C        C  181   4.023   2.620   3.273
    1C        C  182   4.187   2.752   3.394
    1C        C  183   4.081   2.658   3.395
    1C        C  184   4.236   2.802   3.517
    1C        C  185   4.184   2.756   3.640
    1C        C  186   4.324   2.917   3.761
    1C        C  187   4.237   2.806   3.761
    1C        C  188   4.367   2.978   3.881
    1C        C  189   4.328   2.923   4.005
    1C        C  190   4.442   3.105   4.125
    1C        C  191   4.371   2.983   4.125
    1C        C  192   4.466   3.174   4.246
    1C        C  193   4.429   3.113   4.368
    1C        C  194   4.504   3.311   4.487
    1C        C  195   4.457   3.178   4.490
    1C        C  196   4.519   3.384   4.607
    1C        C  197   4.505   3.319   4.732
    1C        C  198   4.552   3.534   4.850
    1C        C  199   4.532   3.392   4.851
    1C        C  200   4.580   3.617   4.963
    1C        C  201   3.612   2.413   2.069
    1C        C  202   3.823   2.507   2.179
    1C        C  203   3.688   2.461   2.180
    1C        C  204   3.893   2.537   2.299
    1C        C  205   3.825   2.513   2.421
    1C        C  206   4.017   2.612   2.539
    1C        C  207   3.893   2.544   2.541
    1C        C  208   4.075   2.657   2.660
    1C        C  209   4.017   2.622   2.784
    1C        C  210   4.188   2.750   2.904
    1C        C  211   4.080   2.658   2.905
    1C        C  212   4.240   2.795   3.027
    1C        C  213   4.195   2.742   3.149
    1C        C  214   4.322   2.912   3.269
    1C        C  215   4.240   2.797   3.271
    1C        C  216   4.358   2.972   3.391
    1C        C  217   4.322   2.915   3.515
    1C        C  218   4.423   3.101   3.636
    1C        C  219   4.358   2.976   3.637
    1C        C  220   4.457   3.168   3.755
    1C        C  221   4.434   3.102   3.878
    1C        C  222   4.501   3.304   4.000
    1C        C  223   4.465   3.167   4.000
    1C        C  224   4.508   3.378   4.120
    1C        C  225   4.501   3.311   4.244
    1C        C  226   4.524   3.522   4.366
    1C        C  227   4.512   3.382   4.365
    1C        C  228   4.522   3.596   4.486
    1C        C  229   4.529   3.525   4.608
    1C        C  230   4.506   3.741   4.723
    1C        C  231   4.539   3.602   4.726
    1C        C  232   4.497   3.818   4.841
    1C        C  233   4.543   3.752   4.956
    1C        C  234   4.014   2.603   2.060
    1C        C  235   3.890   2.541   2.060
    1C        C  236   4.078   2.647   2.176
    1C        C  237   4.018   2.604   2.296
    1C        C  238   4.195   2.728   2.418
    1C        C  239   4.080   2.643   2.417
    1C        C  240   4.248   2.779   2.539
    1C        C  241   4.190   2.739   2.661
    1C        C  242   4.331   2.903   2.781
    1C        C  243   4.245   2.791   2.781
    1C        C  244   4.372   2.960   2.903
    1C        C  245   4.331   2.904   3.026
    1C        C  246   4.432   3.093   3.144
    1C        C  247   4.368   2.967   3.147
    1C        C  248   4.454   3.161   3.266
    1C        C  249   4.421   3.098   3.389
    1C        C  250   4.493   3.298   3.509
    1C        C  251   4.446   3.165   3.511
    1C        C  252   4.504   3.369   3.631
    1C        C  253   4.497   3.304   3.756
    1C        C  254   4.521   3.514   3.875
    1C        C  255   4.517   3.373   3.878
    1C        C  256   4.515   3.586   3.997
    1C        C  257   4.511   3.520   4.122
    1C        C  258   4.500   3.732   4.238
    1C        C  259   4.519   3.592   4.243
    1C        C  260   4.480   3.803   4.359
    1C        C  261   4.496   3.735   4.481
    1C        C  262   4.421   3.936   4.600
    1C        C  263   4.473   3.804   4.602
    1C        C  264   4.400   4.006   4.721
    1C        C  265   4.436   3.945   4.843
    1C        C  266   4.319   4.130   4.958
    1C        C  267   4.393   4.012   4.958
    1C        C  268   4.260   2.773   2.062
    1C        C  269   4.189   2.734   2.176
    1C        C  270   4.335   2.891   2.297
    1C        C  271   4.245   2.781   2.298
    1C        C  272   4.382   2.949   2.417
    1C        C  273   4.332   2.892   2.537
    1C        C  274   4.433   3.084   2.656
    1C        C  275   4.367   2.959   2.656
    1C        C  276   4.461   3.149   2.778
    1C        C  277   4.438   3.085   2.902
    1C        C  278   4.499   3.292   3.020
    1C        C  279   4.463   3.156   3.022
    1C        C  280   4.508   3.362   3.142
    1C        C  281   4.489   3.298   3.266
    1C        C  282   4.518   3.509   3.388
    1C        C  283   4.506   3.368   3.388
    1C        C  284   4.516   3.581   3.510
    1C        C  285   4.516   3.510   3.632
    1C        C  286   4.493   3.723   3.753
    1C        C  287   4.516   3.584   3.753
    1C        C  288   4.474   3.792   3.875
    1C        C  289   4.497   3.726   3.998
    1C        C  290   4.433   3.933   4.112
    1C        C  291   4.483   3.801   4.117
    1C        C  292   4.406   4.000   4.234
    1C        C  293   4.433   3.937   4.358
    1C        C  294   4.322   4.122   4.476
    1C        C  295   4.393   4.000   4.477
    1C        C  296   4.281   4.182   4.598
    1C        C  297   4.325   4.127   4.720
    1C        C  298   4.190   4.303   4.838
    1C        C  299   4.274   4.187   4.838
    1C        C  300   4.164   4.398   4.942
    1C        C  301   4.348   2.881   2.060
    1C        C  302   4.470   3.063   2.174
    1C        C  303   4.389   2.945   2.177
    1C        C  304   4.483   3.138   2.294
    1C        C  305   4.450   3.073   2.414
    1C        C  306   4.505   3.282   2.534
    1C        C  307   4.470   3.145   2.534
    1C        C  308   4.512   3.354   2.655
    1C        C  309   4.499   3.286   2.778
    1C        C  310   4.520   3.502   2.895
    1C        C  311   4.513   3.361   2.897
    1C        C  312   4.516   3.570   3.019
    1C        C  313   4.517   3.503   3.144
    1C        C  314   4.488   3.716   3.258
    1C        C  315   4.514   3.577   3.264
    1C        C  316   4.478   3.784   3.381
    1C        C  317   4.500   3.721   3.506
    1C        C  318   4.432   3.922   3.624
    1C        C  319   4.478   3.788   3.628
    1C        C  320   4.395   3.987   3.744
    1C        C  321   4.417   3.921   3.867
    1C        C  322   4.313   4.106   3.989
    1C        C  323   4.391   3.988   3.989
    1C        C  324   4.273   4.165   4.111
    1C        C  325   4.324   4.115   4.233
    1C        C  326   4.179   4.275   4.352
    1C        C  327   4.278   4.175   4.353
    1C        C  328   4.126   4.328   4.472
    1C        C  329   4.180   4.280   4.594
    1C        C  330   4.017   4.424   4.711
    1C        C  331   4.130   4.337   4.713
    1C        C  332   3.963   4.483   4.827
    1C        C  333   4.047   4.474   4.939
    1C        C  334   4.556   3.264   2.062
    1C        C  335   4.532   3.126   2.062
    1C        C  336   4.531   3.348   2.172
    1C        C  337   4.510   3.278   2.293
    1C        C  338   4.518   3.494   2.408
    1C        C  339   4.517   3.353   2.412
    1C        C  340   4.519   3.567   2.529
    1C        C  341   4.523   3.494   2.650
    1C        C  342   4.493   3.708   2.770
    1C        C  343   4.515   3.569   2.770
    1C        C  344   4.476   3.777   2.892
    1C        C  345   4.495   3.709   3.014
    1C        C  346   4.420   3.912   3.135
    1C        C  347   4.478   3.783   3.134
    1C        C  348   4.394   3.975   3.258
    1C        C  349   4.432   3.918   3.381
    1C        C  350   4.319   4.101   3.500
    1C        C  351   4.400   3.985   3.502
    1C        C  352   4.273   4.160   3.620
    1C        C  353   4.317   4.104   3.742
    1C        C  354   4.174   4.259   3.864
    1C        C  355   4.273   4.159   3.864
    1C        C  356   4.118   4.308   3.984
    1C        C  357   4.170   4.261   4.107
    1C        C  358   4.006   4.395   4.226
    1C        C  359   4.121   4.314   4.229
    1C        C  360   3.945   4.437   4.347
    1C        C  361   4.010   4.407   4.469
    1C        C  362   3.821   4.507   4.591
    1C        C  363   3.952   4.452   4.589
    1C        C  364   3.757   4.544   4.711
    1C        C  365   3.832   4.536   4.830
    1C        C  366   3.625   4.594   4.947
    1C        C  367   3.763   4.574   4.946
    1C        C  368   4.510   3.562   2.046
    1C        C  369   4.523   3.488   2.164
    1C        C  370   4.495   3.703   2.282
    1C        C  371   4.512   3.562   2.284
    1C        C  372   4.485   3.774   2.403
    1C        C  373   4.501   3.707   2.526
    1C        C  374   4.423   3.907   2.645
    1C        C  375   4.475   3.776   2.647
    1C        C  376   4.386   3.970   2.766
    1C        C  377   4.420   3.907   2.888
    1C        C  378   4.313   4.090   3.011
    1C        C  379   4.389   3.970   3.010
    1C        C  380   4.266   4.145   3.133
    1C        C  381   4.310   4.089   3.255
    1C        C  382   4.172   4.250   3.374
    1C        C  383   4.269   4.148   3.377
    1C        C  384   4.115   4.297   3.494
    1C        C  385   4.169   4.257   3.618
    1C        C  386   4.000   4.380   3.740
    1C        C  387   4.118   4.302   3.742
    1C        C  388   3.939   4.421   3.860
    1C        C  389   4.000   4.386   3.983
    1C        C  390   3.813   4.487   4.106
    1C        C  391   3.942   4.428   4.105
    1C        C  392   3.745   4.508   4.228
    1C        C  393   3.816   4.495   4.349
    1C        C  394   3.611   4.552   4.469
    1C        C  395   3.750   4.525   4.470
    1C        C  396   3.540   4.564   4.591
    1C        C  397   3.616   4.559   4.710
    1C        C  398   3.408   4.553   4.837
    1C        C  399   3.547   4.572   4.832
    1C        C  400   3.339   4.512   4.952
    1C        C  401   4.502   3.701   2.043
    1C        C  402   4.451   3.912   2.165
    1C        C  403   4.488   3.776   2.161
    1C        C  404   4.402   3.973   2.283
    1C        C  405   4.436   3.906   2.403
    1C        C  406   4.322   4.090   2.523
    1C        C  407   4.399   3.972   2.522
    1C        C  408   4.275   4.148   2.643
    1C        C  409   4.309   4.088   2.766
    1C        C  410   4.169   4.245   2.887
    1C        C  411   4.270   4.146   2.889
    1C        C  412   4.116   4.291   3.009
    1C        C  413   4.168   4.246   3.132
    1C        C  414   3.997   4.375   3.251
    1C        C  415   4.116   4.297   3.253
    1C        C  416   3.937   4.413   3.373
    1C        C  417   3.996   4.374   3.495
    1C        C  418   3.809   4.472   3.616
    1C        C  419   3.935   4.409   3.618
    1C        C  420   3.742   4.498   3.738
    1C        C  421   3.808   4.474   3.861
    1C        C  422   3.607   4.536   3.984
    1C        C  423   3.745   4.505   3.983
    1C        C  424   3.537   4.542   4.107
    1C        C  425   3.606   4.530   4.230
    1C        C  426   3.395   4.559   4.354
    1C        C  427   3.536   4.555   4.350
    1C        C  428   3.325   4.558   4.477
    1C        C  429   3.399   4.562   4.597
    1C        C  430   3.191   4.521   4.723
    1C        C  431   3.330   4.551   4.719
    1C        C  432   3.121   4.489   4.843
    1C        C  433   3.202   4.492   4.958
    1C        C  434   4.378   4.118   2.047
    1C        C  435   4.439   3.992   2.051
    1C        C  436   4.295   4.156   2.157
    1C        C  437   4.321   4.090   2.280
    1C        C  438   4.175   4.245   2.399
    1C        C  439   4.274   4.144   2.401
    1C        C  440   4.119   4.292   2.520
    1C        C  441   4.174   4.247   2.642
    1C        C  442   4.003   4.373   2.763
    1C        C  443   4.119   4.294   2.764
    1C        C  444   3.939   4.409   2.884
    1C        C  445   4.000   4.372   3.006
    1C        C  446   3.808   4.466   3.128
    1C        C  447   3.936   4.407   3.128
    1C        C  448   3.741   4.488   3.251
    1C        C  449   3.806   4.466   3.374
    1C        C  450   3.600   4.522   3.496
    1C        C  451   3.738   4.494   3.495
    1C        C  452   3.534   4.541   3.619
    1C        C  453   3.606   4.534   3.741
    1C        C  454   3.394   4.542   3.863
    1C        C  455   3.536   4.543   3.863
    1C        C  456   3.327   4.531   3.986
    1C        C  457   3.396   4.540   4.109
    1C        C  458   3.189   4.505   4.234
    1C        C  459   3.326   4.540   4.232
    1C        C  460   3.124   4.488   4.358
    1C        C  461   3.188   4.521   4.479
    1C        C  462   2.997   4.431   4.600
    1C        C  463   3.123   4.494   4.602
    1C        C  464   2.930   4.398   4.719
    1C        C  465   2.988   4.438   4.843
    1C        C  466   2.801   4.332   4.959
    1C        C  467   2.903   4.428   4.958
    1C        C  468   4.120   4.281   2.036
    1C        C  469   4.182   4.245   2.156
    1C        C  470   4.002   4.367   2.276
    1C        C  471   4.122   4.291   2.277
    1C        C  472   3.936   4.398   2.397
    1C        C  473   4.000   4.368   2.520
    1C        C  474   3.809   4.461   2.642
    1C        C  475   3.938   4.404   2.642
    1C        C  476   3.739   4.485   2.762
    1C        C  477   3.806   4.458   2.883
    1C        C  478   3.602   4.514   3.007
    1C        C  479   3.740   4.484   3.005
    1C        C  480   3.532   4.530   3.129
    1C        C  481   3.604   4.519   3.250
    1C        C  482   3.391   4.533   3.371
    1C        C  483   3.532   4.529   3.372
    1C        C  484   3.324   4.531   3.495
    1C        C  485   3.393   4.543   3.618
    1C        C  486   3.185   4.502   3.742
    1C        C  487   3.323   4.535   3.741
    1C        C  488   3.123   4.477   3.866
    1C        C  489   3.190   4.497   3.989
    1C        C  490   2.996   4.418   4.115
    1C        C  491   3.123   4.480   4.112
    1C        C  492   2.936   4.386   4.238
    1C        C  493   2.997   4.426   4.359
    1C        C  494   2.825   4.300   4.481
    1C        C  495   2.932   4.393   4.480
    1C        C  496   2.774   4.250   4.602
    1C        C  497   2.819   4.308   4.723
    1C        C  498   2.662   4.164   4.842
    1C        C  499   2.755   4.271   4.842
    1C        C  500   2.595   4.114   4.954
    1C        C  501   3.998   4.348   2.037
    1C        C  502   3.810   4.455   2.151
    1C        C  503   3.938   4.395   2.154
    1C        C  504   3.740   4.476   2.272
    1C        C  505   3.807   4.454   2.395
    1C        C  506   3.604   4.505   2.515
    1C        C  507   3.742   4.477   2.518
    1C        C  508   3.533   4.517   2.637
    1C        C  509   3.600   4.508   2.762
    1C        C  510   3.390   4.522   2.883
    1C        C  511   3.531   4.518   2.885
    1C        C  512   3.318   4.521   3.004
    1C        C  513   3.391   4.531   3.125
    1C        C  514   3.185   4.491   3.252
    1C        C  515   3.322   4.528   3.248
    1C        C  516   3.121   4.463   3.375
    1C        C  517   3.188   4.491   3.496
    1C        C  518   2.994   4.414   3.621
    1C        C  519   3.121   4.475   3.619
    1C        C  520   2.938   4.374   3.745
    1C        C  521   2.998   4.412   3.867
    1C        C  522   2.835   4.281   3.992
    1C        C  523   2.943   4.373   3.992
    1C        C  524   2.788   4.232   4.116
    1C        C  525   2.835   4.288   4.237
    1C        C  526   2.692   4.134   4.361
    1C        C  527   2.776   4.248   4.359
    1C        C  528   2.650   4.075   4.482
    1C        C  529   2.684   4.141   4.602
    1C        C  530   2.583   3.957   4.726
    1C        C  531   2.638   4.088   4.725
    1C        C  532   2.544   3.899   4.850
    1C        C  533   2.531   3.989   4.961
    1C        C  534   3.619   4.554   2.039
    1C        C  535   3.752   4.511   2.036
    1C        C  536   3.533   4.536   2.152
    1C        C  537   3.602   4.508   2.273
    1C        C  538   3.390   4.510   2.395
    1C        C  539   3.531   4.510   2.395
    1C        C  540   3.322   4.507   2.519
    1C        C  541   3.392   4.516   2.641
    1C        C  542   3.180   4.483   2.763
    1C        C  543   3.319   4.512   2.762
    1C        C  544   3.116   4.464   2.887
    1C        C  545   3.181   4.488   3.010
    1C        C  546   2.986   4.407   3.132
    1C        C  547   3.114   4.466   3.133
    1C        C  548   2.932   4.367   3.256
    1C        C  549   2.993   4.403   3.378
    1C        C  550   2.827   4.278   3.502
    1C        C  551   2.932   4.372   3.501
    1C        C  552   2.782   4.227   3.626
    1C        C  553   2.834   4.279   3.746
    1C        C  554   2.700   4.118   3.871
    1C        C  555   2.786   4.230   3.870
    1C        C  556   2.666   4.060   3.995
    1C        C  557   2.703   4.119   4.118
    1C        C  558   2.595   3.941   4.241
    1C        C  559   2.657   4.067   4.241
    1C        C  560   2.570   3.876   4.364
    1C        C  561   2.586   3.949   4.483
    1C        C  562   2.531   3.747   4.611
    1C        C  563   2.561   3.885   4.607
    1C        C  564   2.516   3.679   4.733
    1C        C  565   2.524   3.758   4.852
    1C        C  566   2.524   3.545   4.976
    1C        C  567   2.530   3.684   4.971
    1C        C  568   3.321   4.480   2.041
    1C        C  569   3.393   4.513   2.156
    1C        C  570   3.177   4.476   2.277
    1C        C  571   3.315   4.508   2.275
    1C        C  572   3.114   4.449   2.401
    1C        C  573   3.183   4.477   2.520
    1C        C  574   2.987   4.397   2.644
    1C        C  575   3.112   4.464   2.641
    1C        C  576   2.929   4.359   2.766
    1C        C  577   2.992   4.395   2.887
    1C        C  578   2.821   4.273   3.015
    1C        C  579   2.929   4.363   3.010
    1C        C  580   2.775   4.217   3.137
    1C        C  581   2.830   4.269   3.256
    1C        C  582   2.695   4.111   3.381
    1C        C  583   2.779   4.224   3.380
    1C        C  584   2.659   4.053   3.505
    1C        C  585   2.696   4.115   3.627
    1C        C  586   2.600   3.929   3.750
    1C        C  587   2.659   4.058   3.750
    1C        C  588   2.569   3.871   3.875
    1C        C  589   2.599   3.935   3.997
    1C        C  590   2.537   3.735   4.121
    1C        C  591   2.567   3.873   4.120
    1C        C  592   2.522   3.669   4.245
    1C        C  593   2.535   3.739   4.368
    1C        C  594   2.512   3.531   4.494
    1C        C  595   2.522   3.672   4.491
    1C        C  596   2.513   3.463   4.618
    1C        C  597   2.509   3.537   4.738
    1C        C  598   2.527   3.325   4.859
    1C        C  599   2.519   3.466   4.860
    1C        C  600   2.530   3.246   4.975
    1C        C  601   3.191   4.434   2.039
    1C        C  602   2.977   4.396   2.155
    1C        C  603   3.113   4.441   2.155
    1C        C  604   2.924   4.354   2.280
    1C        C  605   2.985   4.392   2.402
    1C        C  606   2.816   4.266   2.526
    1C        C  607   2.923   4.357   2.524
    1C        C  608   2.768   4.217   2.650
    1C        C  609   2.821   4.268   2.771
    1C        C  610   2.682   4.110   2.892
    1C        C  611   2.769   4.222   2.894
    1C        C  612   2.650   4.048   3.014
    1C        C  613   2.685   4.108   3.137
    1C        C  614   2.592   3.922   3.262
    1C        C  615   2.649   4.051   3.261
    1C        C  616   2.571   3.859   3.387
    1C        C  617   2.598   3.926   3.509
    1C        C  618   2.530   3.725   3.633
    1C        C  619   2.566   3.861   3.631
    1C        C  620   2.519   3.661   3.759
    1C        C  621   2.534   3.734   3.879
    1C        C  622   2.506   3.523   4.005
    1C        C  623   2.520   3.663   4.001
    1C        C  624   2.511   3.456   4.129
    1C        C  625   2.511   3.529   4.251
    1C        C  626   2.536   3.318   4.378
    1C        C  627   2.515   3.458   4.373
    1C        C  628   2.551   3.248   4.500
    1C        C  629   2.532   3.323   4.618
    1C        C  630   2.599   3.120   4.743
    1C        C  631   2.553   3.255   4.740
    1C        C  632   2.617   3.048   4.864
    1C        C  633   2.562   3.110   4.981
    1C        C  634   2.782   4.299   2.049
    1C        C  635   2.890   4.388   2.042
    1C        C  636   2.746   4.226   2.164
    1C        C  637   2.807   4.273   2.282
    1C        C  638   2.674   4.108   2.408
    1C        C  639   2.761   4.219   2.404
    1C        C  640   2.634   4.047   2.529
    1C        C  641   2.684   4.104   2.649
    1C        C  642   2.585   3.918   2.774
    1C        C  643   2.644   4.046   2.772
    1C        C  644   2.561   3.852   2.897
    1C        C  645   2.587   3.921   3.018
    1C        C  646   2.527   3.719   3.146
    1C        C  647   2.567   3.855   3.141
    1C        C  648   2.510   3.652   3.268
    1C        C  649   2.525   3.725   3.388
    1C        C  650   2.506   3.515   3.516
    1C        C  651   2.516   3.656   3.511
    1C        C  652   2.505   3.446   3.639
    1C        C  653   2.507   3.520   3.760
    1C        C  654   2.532   3.312   3.887
    1C        C  655   2.508   3.451   3.883
    1C        C  656   2.553   3.248   4.011
    1C        C  657   2.536   3.317   4.133
    1C        C  658   2.604   3.117   4.256
    1C        C  659   2.556   3.250   4.256
    1C        C  660   2.636   3.056   4.379
    1C        C  661   2.599   3.116   4.502
    1C        C  662   2.704   2.931   4.623
    1C        C  663   2.628   3.051   4.624
    1C        C  664   2.749   2.874   4.744
    1C        C  665   2.698   2.930   4.865
    1C        C  666   2.744   2.867   4.981
    1C        C  667   2.678   4.018   2.054
    1C        C  668   2.684   4.099   2.168
    1C        C  669   2.580   3.912   2.289
    1C        C  670   2.641   4.041   2.289
    1C        C  671   2.553   3.847   2.411
    1C        C  672   2.581   3.916   2.531
    1C        C  673   2.515   3.715   2.657
    1C        C  674   2.558   3.850   2.653
    1C        C  675   2.506   3.645   2.779
    1C        C  676   2.525   3.715   2.900
    1C        C  677   2.505   3.508   3.025
    1C        C  678   2.513   3.649   3.024
    1C        C  679   2.515   3.440   3.149
    1C        C  680   2.505   3.510   3.271
    1C        C  681   2.531   3.304   3.397
    1C        C  682   2.507   3.443   3.395
    1C        C  683   2.548   3.239   3.521
    1C        C  684   2.527   3.306   3.643
    1C        C  685   2.598   3.109   3.769
    1C        C  686   2.545   3.240   3.766
    1C        C  687   2.632   3.048   3.892
    1C        C  688   2.603   3.116   4.013
    1C        C  689   2.712   2.934   4.137
    1C        C  690   2.631   3.050   4.134
    1C        C  691   2.749   2.874   4.260
    1C        C  692   2.707   2.934   4.381
    1C        C  693   2.750   2.875   4.502
    1C        C  694   2.625   3.889   2.055
    1C        C  695   2.521   3.702   2.174
    1C        C  696   2.571   3.834   2.172
    1C        C  697   2.505   3.634   2.297
    1C        C  698   2.516   3.710   2.415
    1C        C  699   2.486   3.501   2.539
    1C        C  700   2.498   3.642   2.537
    1C        C  701   2.497   3.431   2.661
    1C        C  702   2.499   3.504   2.782
    1C        C  703   2.521   3.295   2.906
    1C        C  704   2.495   3.434   2.905
    1C        C  705   2.541   3.229   3.029
    1C        C  706   2.529   3.299   3.151
    1C        C  707   2.592   3.100   3.277
    1C        C  708   2.549   3.234   3.275
    1C        C  709   2.625   3.039   3.401
    1C        C  710   2.600   3.107   3.522
    1C        C  711   2.706   2.928   3.646
    1C        C  712   2.629   3.047   3.646
    1C        C  713   2.756   2.879   3.769
    1C        C  714   2.713   2.932   3.893
    1C        C  715   2.760   2.881   4.016
    1C        C  716   2.445   3.496   2.062
    1C        C  717   2.489   3.629   2.059
    1C        C  718   2.456   3.417   2.182
    1C        C  719   2.479   3.494   2.299
    1C        C  720   2.510   3.284   2.421
    1C        C  721   2.485   3.423   2.421
    1C        C  722   2.526   3.216   2.544
    1C        C  723   2.518   3.291   2.664
    1C        C  724   2.592   3.094   2.787
    1C        C  725   2.535   3.223   2.786
    1C        C  726   2.622   3.032   2.910
    1C        C  727   2.592   3.097   3.032
    1C        C  728   2.701   2.918   3.157
    1C        C  729   2.620   3.034   3.155
    1C        C  730   2.745   2.864   3.280
    1C        C  731   2.704   2.922   3.402
    1C        C  732   2.750   2.870   3.525
    1C        C  733   2.484   3.193   2.069
    1C        C  734   2.481   3.276   2.182
    1C        C  735   2.569   3.076   2.302
    1C        C  736   2.516   3.208   2.302
    1C        C  737   2.596   3.011   2.424
    1C        C  738   2.574   3.083   2.544
    1C        C  739   2.692   2.906   2.666
    1C        C  740   2.616   3.025   2.665
    1C        C  741   2.740   2.856   2.789
    1C        C  742   2.699   2.914   2.911
    1C        C  743   2.748   2.866   3.034
    1C        C  744   2.545   3.069   2.068
    1C        C  745   2.687   2.897   2.181
    1C        C  746   2.605   3.013   2.181
    1C        C  747   2.726   2.837   2.303
    1C        C  748   2.679   2.897   2.422
    1C        C  749   2.730   2.845   2.544
    1C        C  750   2.735   2.834   2.066
    1C        C  751   3.664   2.287   2.012
    1C        O  752   3.651   2.174   2.067
    1C        O  753   3.701   2.285   1.876
    1C        C  754   4.614   3.049   1.966
    1C        O  755   4.578   3.039   1.846
    1C        O  756   4.711   2.955   2.004
    1C        C  757   4.445   4.219   1.963
    1C        O  758   4.556   4.273   1.990
    1C        O  759   4.414   4.232   1.827
    1C        C  760   3.580   4.631   1.918
    1C        O  761   3.501   4.729   1.925
    1C        O  762   3.558   4.565   1.797
    1C        C  763   2.877   4.508   1.956
    1C        O  764   2.934   4.506   1.844
    1C        O  765   2.870   4.638   2.007
    1C        C  766   2.341   3.466   1.962
    1C        O  767   2.356   3.489   1.839
    1C        O  768   2.210   3.432   1.997
    1C        C  769   4.696   3.600   5.053
    1C        O  770   4.691   3.537   5.162
    1C        O  771   4.828   3.641   5.028
    1C        C  772   4.268   4.459   5.028
    1C        O  773   4.301   4.412   5.140
    1C        O  774   4.374   4.529   4.970
    1C        C  775   4.123   2.567   5.104
    1C        O  776   4.246   2.538   5.109
    1C        O  777   4.078   2.617   5.227
    1C        C  778   2.859   4.546   5.035
    1C        O  779   2.789   4.639   4.986
    1C        O  780   2.940   4.578   5.145
    1C        C  781   2.476   3.034   5.075
    1C        O  782   2.381   2.969   5.024
    1C        O  783   2.453   3.075   5.205
    1C        C  784   2.442   3.985   5.079
    1C        O  785   2.331   4.045   5.085
    1C        O  786   2.492   3.942   5.203
    1C        C  787   2.941   2.411   2.017
    1C        O  788   2.930   2.396   1.892
    1C        O  789   2.919   2.287   2.076
    1C        C  790   3.194   2.395   5.088
    1C        O  791   3.186   2.270   5.076
    1C        O  792   3.185   2.432   5.222
    1C        H  793   4.285   3.021   5.060
    1C        H  794   4.152   2.831   5.064
    1C        H  795   4.504   3.135   5.061
    1C        H  796   4.541   3.359   5.065
    1C        H  797   4.545   3.809   5.047
    1C        H  798   4.400   3.963   5.052
    1C        H  799   4.271   4.159   5.049
    1C        H  800   4.027   4.546   5.016
    1C        H  801   3.817   4.625   5.023
    1C        H  802   3.578   4.601   5.043
    1C        H  803   3.397   4.470   5.032
    1C        H  804   3.152   4.484   5.052
    1C        H  805   3.897   2.472   5.054
    1C        H  806   3.673   2.487   5.073
    1C        H  807   2.990   2.545   5.055
    1C        H  808   3.442   2.428   5.065
    1C        H  809   2.891   2.755   5.076
    1C        H  810   2.681   2.860   5.067
    1C        H  811   2.506   3.291   5.070
    1C        H  812   2.453   3.516   5.050
    1C        H  813   2.582   3.735   5.049
    1C        H  814   2.590   4.176   5.041
    1C        H  815   2.814   4.267   5.044
    1C        H  816   2.666   2.834   1.984
    1C        H  817   2.801   2.651   1.993
    1C        H  818   3.218   2.451   1.984
    1C        H  819   3.428   2.416   1.975
    1C        H  820   3.826   2.563   1.977
    1C        H  821   4.076   2.580   1.975
    1C        H  822   4.274   2.696   1.989
    1C        H  823   4.321   2.949   1.982
    1C        H  824   4.573   3.311   1.967
    1C        H  825   4.501   3.512   1.951
    1C        H  826   4.545   3.753   1.960
    1C        H  827   3.818   4.563   1.970
    1C        H  828   3.934   4.322   1.954
    1C        H  829   4.187   4.308   1.958
    1C        H  830   4.428   3.936   1.960
    1C        H  831   2.633   3.837   1.962
    1C        H  832   2.667   4.069   1.960
    1C        H  833   2.723   4.285   1.961
    1C        H  834   3.370   4.488   1.946
    1C        H  835   3.173   4.346   1.980
    1C        H  836   2.532   3.010   1.979
    1C        H  837   2.403   3.202   1.999
    1C        H  838   2.466   3.681   1.969
    2V3OU   H29  839   2.795   3.546   1.968
    2V3OU   C27  840   2.782   3.501   2.070
    2V3OU   H27  841   2.728   3.571   2.140
    2V3OU   H28  842   2.721   3.408   2.057
    2V3OU   O11  843   2.903   3.473   2.140
    2V3OU   C15  844   2.918   3.392   2.251
    2V3OU   C13  845   3.048   3.367   2.301
    2V3OU   C14  846   3.074   3.264   2.392
    2V3OU   C16  847   2.973   3.187   2.450
    2V3OU    H6  848   2.994   3.097   2.508
    2V3OU   C12  849   3.211   3.224   2.432
    2V3OU    O2  850   3.234   3.121   2.500
    2V3OU   C10  851   3.321   3.309   2.385
    2V3OU    C8  852   3.452   3.264   2.403
    2V3OU   O10  853   3.484   3.150   2.471
    2V3OU   H26  854   3.399   3.114   2.499
    2V3OU    C6  855   3.559   3.343   2.351
    2V3OU    C5  856   3.530   3.463   2.287
    2V3OU    C4  857   3.699   3.290   2.351
    2V3OU    H4  858   3.723   3.225   2.440
    2V3OU    H5  859   3.714   3.227   2.259
    2V3OU    C2  860   3.812   3.392   2.359
    2V3OU    O6  861   3.809   3.470   2.479
    2V3OU   H21  862   3.758   3.550   2.456
    2V3OU    C3  863   3.779   3.492   2.249
    2V3OU    H2  864   3.865   3.563   2.237
    2V3OU    H3  865   3.775   3.433   2.154
    2V3OU   C25  866   3.948   3.322   2.357
    2V3OU    O7  867   3.998   3.296   2.247
    2V3OU   C26  868   4.021   3.286   2.485
    2V3OU   H22  869   4.053   3.386   2.525
    2V3OU   H23  870   4.111   3.223   2.464
    2V3OU    O8  871   3.959   3.202   2.581
    2V3OU   H24  872   3.924   3.259   2.651
    2V3OU    C1  873   3.643   3.559   2.269
    2V3OU    H1  874   3.621   3.619   2.177
    2V3OU    O3  875   3.654   3.650   2.379
    2V3OU   C19  876   3.615   3.787   2.377
    2V3OU    H9  877   3.519   3.798   2.318
    2V3OU    O4  878   3.710   3.844   2.289
    2V3OU   C20  879   3.839   3.870   2.343
    2V3OU   H10  880   3.895   3.772   2.349
    2V3OU   C24  881   3.609   3.851   2.516
    2V3OU   H16  882   3.542   3.785   2.577
    2V3OU   H17  883   3.552   3.945   2.497
    2V3OU   C23  884   3.747   3.877   2.576
    2V3OU   H15  885   3.793   3.774   2.594
    2V3OU    N1  886   3.735   3.953   2.698
    2V3OU   H19  887   3.807   3.914   2.755
    2V3OU   H20  888   3.649   3.929   2.741
    2V3OU   C21  889   3.844   3.947   2.475
    2V3OU   H11  890   3.951   3.921   2.501
    2V3OU    O5  891   3.821   4.087   2.480
    2V3OU   H18  892   3.776   4.102   2.564
    2V3OU   C22  893   3.913   3.944   2.233
    2V3OU   H12  894   3.863   4.044   2.221
    2V3OU   H13  895   3.903   3.891   2.135
    2V3OU   H14  896   4.020   3.958   2.263
    2V3OU   C11  897   3.151   3.470   2.291
    2V3OU    O1  898   3.126   3.586   2.250
    2V3OU    C9  899   3.291   3.429   2.317
    2V3OU    C7  900   3.395   3.506   2.267
    2V3OU    O9  901   3.380   3.608   2.175
    2V3OU   H25  902   3.285   3.622   2.164
    2V3OU   C17  903   2.818   3.313   2.312
    2V3OU    H7  904   2.718   3.342   2.280
    2V3OU   C18  905   2.844   3.213   2.405
    2V3OU    H8  906   2.769   3.151   2.456
    3SOL     OW  907   3.044   4.886   0.707
    3SOL    HW1  908   3.012   4.791   0.708
    3SOL    HW2  909   2.967   4.947   0.729
    4SOL     OW  910   6.528   5.984   1.475
    4SOL    HW1  911   6.628   5.979   1.481
    4SOL    HW2  912   6.491   6.027   1.557
    5SOL     OW  913   4.771   1.690   2.635
    5SOL    HW1  914   4.710   1.620   2.598
    5SOL    HW2  915   4.861   1.651   2.651
    6SOL     OW  916   4.203   1.019   0.732
    6SOL    HW1  917   4.141   1.064   0.796
    6SOL    HW2  918   4.222   0.926   0.765
    7SOL     OW  919   6.847   4.083   2.365
    7SOL    HW1  920   6.938   4.083   2.406
    7SOL    HW2  921   6.792   4.011   2.407
    8SOL     OW  922   2.879   0.675   6.971
    8SOL    HW1  923   2.912   0.751   6.914
    8SOL    HW2  924   2.942   0.598   6.962
    9SOL     OW  925   6.683   6.867   6.576
    9SOL    HW1  926   6.750   6.938   6.596
    9SOL    HW2  927   6.730   6.779   6.565
   10SOL     OW  928   1.635   4.935   6.431
   10SOL    HW1  929   1.590   5.012   6.386
   10SOL    HW2  930   1.726   4.963   6.461
   11SOL     OW  931   2.439   0.298   6.469
   11SOL    HW1  932   2.377   0.249   6.530
   11SOL    HW2  933   2.390   0.323   6.385
   12SOL     OW  934   4.032   6.780   3.657
   12SOL    HW1  935   4.048   6.685   3.628
   12SOL    HW2  936   4.076   6.842   3.592
   13SOL     OW  937   4.052   5.861   3.561
   13SOL    HW1  938   3.998   5.924   3.505
   13SOL    HW2  939   3.994   5.786   3.593
   14SOL     OW  940   4.131   5.399   5.839
   14SOL    HW1  941   4.158   5.438   5.751
   14SOL    HW2  942   4.042   5.355   5.830
   15SOL     OW  943   1.215   6.225   1.250
   15SOL    HW1  944   1.201   6.293   1.322
   15SOL    HW2  945   1.313   6.203   1.243
   16SOL     OW  946   5.247   3.088   5.438
   16SOL    HW1  947   5.302   3.114   5.518
   16SOL    HW2  948   5.151   3.108   5.456
   17SOL     OW  949   4.964   6.316   5.444
   17SOL    HW1  950   4.877   6.345   5.483
   17SOL    HW2  951   4.965   6.217   5.434
   18SOL     OW  952   3.331   0.666   5.961
   18SOL    HW1  953   3.326   0.596   5.890
   18SOL    HW2  954   3.426   0.686   5.982
   19SOL     OW  955   0.323   0.205   3.334
   19SOL    HW1  956   0.238   0.152   3.328
   19SOL    HW2  957   0.400   0.142   3.350
   20SOL     OW  958   5.590   2.646   4.714
   20SOL    HW1  959   5.689   2.632   4.710
   20SOL    HW2  960   5.556   2.669   4.623
   21SOL     OW  961   3.234   2.138   2.721
   21SOL    HW1  962   3.291   2.147   2.639
   21SOL    HW2  963   3.155   2.199   2.713
   22SOL     OW  964   2.354   6.361   0.308
   22SOL    HW1  965   2.350   6.287   0.241
   22SOL    HW2  966   2.262   6.377   0.345
   23SOL     OW  967   5.062   6.216   3.153
   23SOL    HW1  968   5.018   6.232   3.064
   23SOL    HW2  969   5.143   6.274   3.160
   24SOL     OW  970   4.908   1.648   3.141
   24SOL    HW1  971   5.006   1.643   3.125
   24SOL    HW2  972   4.863   1.687   3.061
   25SOL     OW  973   3.077   7.010   5.242
   25SOL    HW1  974   3.066   6.965   5.154
   25SOL    HW2  975   3.092   6.941   5.313
   26SOL     OW  976   6.821   0.888   0.555
   26SOL    HW1  977   6.807   0.986   0.545
   26SOL    HW2  978   6.868   0.852   0.473
   27SOL     OW  979   1.355   1.956   2.261
   27SOL    HW1  980   1.397   1.870   2.232
   27SOL    HW2  981   1.262   1.963   2.225
   28SOL     OW  982   3.522   1.744   5.983
   28SOL    HW1  983   3.589   1.693   5.928
   28SOL    HW2  984   3.430   1.721   5.953
   29SOL     OW  985   4.466   2.384   2.316
   29SOL    HW1  986   4.423   2.298   2.345
   29SOL    HW2  987   4.439   2.404   2.221
   30SOL     OW  988   3.484   1.112   4.014
   30SOL    HW1  989   3.481   1.025   4.063
   30SOL    HW2  990   3.579   1.144   4.009
   31SOL     OW  991   1.198   2.649   6.497
   31SOL    HW1  992   1.291   2.646   6.459
   31SOL    HW2  993   1.204   2.657   6.596
   32SOL     OW  994   0.257   1.299   2.786
   32SOL    HW1  995   0.268   1.350   2.700
   32SOL    HW2  996   0.159   1.283   2.802
   33SOL     OW  997   2.143   4.168   6.666
   33SOL    HW1  998   2.160   4.266   6.680
   33SOL    HW2  999   2.215   4.129   6.610
   34SOL     OW 1000   2.279   1.258   4.397
   34SOL    HW1 1001   2.367   1.216   4.374
   34SOL    HW2 1002   2.289   1.357   4.400
   35SOL     OW 1003   3.152   3.655   6.721
   35SOL    HW1 1004   3.237   3.638   6.671
   35SOL    HW2 1005   3.158   3.744   6.767
   36SOL     OW 1006   6.368   0.776   5.346
   36SOL    HW1 1007   6.345   0.870   5.321
   36SOL    HW2 1008   6.392   0.773   5.443
   37SOL     OW 1009   1.225   1.172   0.527
   37SOL    HW1 1010   1.274   1.084   0.533
   37SOL    HW2 1011   1.182   1.180   0.437
   38SOL     OW 1012   6.980   4.986   2.878
   38SOL    HW1 1013   6.893   5.020   2.843
   38SOL    HW2 1014   0.019   5.063   2.908
   39SOL     OW 1015   6.827   5.032   6.615
   39SOL    HW1 1016   6.878   5.108   6.653
   39SOL    HW2 1017   6.874   4.946   6.635
   40SOL     OW 1018   5.401   1.931   1.126
   40SOL    HW1 1019   5.436   2.009   1.178
   40SOL    HW2 1020   5.358   1.964   1.042
   41SOL     OW 1021   6.761   5.978   4.106
   41SOL    HW1 1022   6.829   5.969   4.034
   41SOL    HW2 1023   6.790   5.923   4.185
   42SOL     OW 1024   2.614   5.325   5.310
   42SOL    HW1 1025   2.541   5.388   5.337
   42SOL    HW2 1026   2.618   5.320   5.210
   43SOL     OW 1027   5.838   6.198   5.529
   43SOL    HW1 1028   5.894   6.121   5.556
   43SOL    HW2 1029   5.885   6.284   5.549
   44SOL     OW 1030   5.342   1.409   6.941
   44SOL    HW1 1031   5.349   1.483   6.875
   44SOL    HW2 1032   5.255   1.361   6.928
   45SOL     OW 1033   4.360   6.614   3.046
   45SOL    HW1 1034   4.306   6.655   3.119
   45SOL    HW2 1035   4.386   6.521   3.072
   46SOL     OW 1036   0.585   3.070   3.191
   46SOL    HW1 1037   0.565   3.016   3.110
   46SOL    HW2 1038   0.577   3.167   3.169
   47SOL     OW 1039   4.695   4.370   1.074
   47SOL    HW1 1040   4.728   4.382   1.168
   47SOL    HW2 1041   4.771   4.341   1.016
   48SOL     OW 1042   7.006   2.439   5.669
   48SOL    HW1 1043   0.032   2.476   5.751
   48SOL    HW2 1044   0.014   2.496   5.590
   49SOL     OW 1045   5.250   3.698   1.752
   49SOL    HW1 1046   5.315   3.774   1.759
   49SOL    HW2 1047   5.284   3.620   1.803
   50SOL     OW 1048   6.230   1.109   4.931
   50SOL    HW1 1049   6.136   1.143   4.939
   50SOL    HW2 1050   6.291   1.185   4.909
   51SOL     OW 1051   3.050   6.516   3.360
   51SOL    HW1 1052   3.109   6.586   3.400
   51SOL    HW2 1053   2.982   6.560   3.301
   52SOL     OW 1054   5.485   2.502   3.236
   52SOL    HW1 1055   5.576   2.543   3.242
   52SOL    HW2 1056   5.494   2.405   3.211
   53SOL     OW 1057   3.525   6.897   4.647
   53SOL    HW1 1058   3.538   6.988   4.608
   53SOL    HW2 1059   3.529   6.828   4.575
   54SOL     OW 1060   3.562   5.130   0.744
   54SOL    HW1 1061   3.541   5.057   0.678
   54SOL    HW2 1062   3.585   5.089   0.832
   55SOL     OW 1063   2.930   1.801   6.851
   55SOL    HW1 1064   2.950   1.756   6.763
   55SOL    HW2 1065   2.906   1.897   6.834
   56SOL     OW 1066   6.813   0.403   1.613
   56SOL    HW1 1067   6.854   0.369   1.528
   56SOL    HW2 1068   6.763   0.488   1.594
   57SOL     OW 1069   5.521   1.284   1.116
   57SOL    HW1 1070   5.425   1.268   1.139
   57SOL    HW2 1071   5.548   1.375   1.146
   58SOL     OW 1072   6.357   6.777   5.572
   58SOL    HW1 1073   6.259   6.792   5.563
   58SOL    HW2 1074   6.379   6.681   5.551
   59SOL     OW 1075   0.859   1.712   5.460
   59SOL    HW1 1076   0.935   1.702   5.396
   59SOL    HW2 1077   0.882   1.671   5.548
   60SOL     OW 1078   5.428   1.708   5.349
   60SOL    HW1 1079   5.527   1.699   5.344
   60SOL    HW2 1080   5.387   1.623   5.380
   61SOL     OW 1081   5.033   2.535   5.031
   61SOL    HW1 1082   5.077   2.518   5.119
   61SOL    HW2 1083   4.939   2.564   5.046
   62SOL     OW 1084   0.557   1.037   2.020
   62SOL    HW1 1085   0.484   1.049   1.953
   62SOL    HW2 1086   0.612   1.121   2.024
   63SOL     OW 1087   5.170   1.210   3.760
   63SOL    HW1 1088   5.239   1.242   3.826
   63SOL    HW2 1089   5.083   1.199   3.806
   64SOL     OW 1090   6.891   3.485   5.793
   64SOL    HW1 1091   6.962   3.415   5.789
   64SOL    HW2 1092   6.910   3.548   5.868
   65SOL     OW 1093   0.052   5.244   6.437
   65SOL    HW1 1094   0.140   5.252   6.483
   65SOL    HW2 1095   0.038   5.149   6.408
   66SOL     OW 1096   3.821   0.629   5.657
   66SOL    HW1 1097   3.919   0.614   5.641
   66SOL    HW2 1098   3.785   0.556   5.716
   67SOL     OW 1099   5.050   4.516   5.925
   67SOL    HW1 1100   4.954   4.491   5.916
   67SOL    HW2 1101   5.108   4.440   5.895
   68SOL     OW 1102   5.922   0.962   6.822
   68SOL    HW1 1103   5.992   0.987   6.889
   68SOL    HW2 1104   5.845   1.025   6.829
   69SOL     OW 1105   0.647   3.242   5.653
   69SOL    HW1 1106   0.692   3.235   5.564
   69SOL    HW2 1107   0.595   3.158   5.670
   70SOL     OW 1108   5.407   3.727   4.666
   70SOL    HW1 1109   5.490   3.697   4.713
   70SOL    HW2 1110   5.426   3.811   4.614
   71SOL     OW 1111   3.992   1.910   3.062
   71SOL    HW1 1112   3.929   1.985   3.085
   71SOL    HW2 1113   4.085   1.946   3.061
   72SOL     OW 1114   2.061   6.138   4.708
   72SOL    HW1 1115   2.130   6.144   4.635
   72SOL    HW2 1116   2.087   6.065   4.772
   73SOL     OW 1117   3.299   0.942   0.960
   73SOL    HW1 1118   3.281   1.033   0.999
   73SOL    HW2 1119   3.398   0.929   0.950
   74SOL     OW 1120   4.792   6.850   6.923
   74SOL    HW1 1121   4.696   6.824   6.920
   74SOL    HW2 1122   4.824   6.868   6.830
   75SOL     OW 1123   3.941   0.540   1.159
   75SOL    HW1 1124   3.977   0.550   1.251
   75SOL    HW2 1125   3.860   0.480   1.161
   76SOL     OW 1126   3.035   3.420   0.761
   76SOL    HW1 1127   2.998   3.426   0.854
   76SOL    HW2 1128   3.129   3.454   0.761
   77SOL     OW 1129   6.805   6.396   3.778
   77SOL    HW1 1130   6.876   6.339   3.737
   77SOL    HW2 1131   6.841   6.441   3.859
   78SOL     OW 1132   5.546   1.239   0.209
   78SOL    HW1 1133   5.463   1.291   0.189
   78SOL    HW2 1134   5.616   1.260   0.141
   79SOL     OW 1135   3.216   6.097   0.591
   79SOL    HW1 1136   3.136   6.045   0.563
   79SOL    HW2 1137   3.278   6.107   0.514
   80SOL     OW 1138   5.731   1.120   4.165
   80SOL    HW1 1139   5.652   1.064   4.190
   80SOL    HW2 1140   5.730   1.204   4.219
   81SOL     OW 1141   1.880   6.573   2.759
   81SOL    HW1 1142   1.830   6.636   2.817
   81SOL    HW2 1143   1.826   6.551   2.678
   82SOL     OW 1144   6.293   4.780   1.062
   82SOL    HW1 1145   6.257   4.706   1.118
   82SOL    HW2 1146   6.218   4.830   1.020
   83SOL     OW 1147   0.268   0.749   6.909
   83SOL    HW1 1148   0.247   0.796   6.995
   83SOL    HW2 1149   0.361   0.773   6.880
   84SOL     OW 1150   5.802   2.549   3.288
   84SOL    HW1 1151   5.837   2.634   3.326
   84SOL    HW2 1152   5.813   2.476   3.356
   85SOL     OW 1153   1.732   1.784   4.213
   85SOL    HW1 1154   1.786   1.859   4.251
   85SOL    HW2 1155   1.674   1.818   4.139
   86SOL     OW 1156   6.586   0.465   5.022
   86SOL    HW1 1157   6.490   0.482   5.045
   86SOL    HW2 1158   6.625   0.401   5.088
   87SOL     OW 1159   4.655   3.429   0.725
   87SOL    HW1 1160   4.651   3.422   0.824
   87SOL    HW2 1161   4.582   3.375   0.684
   88SOL     OW 1162   3.521   1.784   5.343
   88SOL    HW1 1163   3.592   1.764   5.276
   88SOL    HW2 1164   3.537   1.875   5.382
   89SOL     OW 1165   1.478   2.804   5.842
   89SOL    HW1 1166   1.412   2.769   5.909
   89SOL    HW2 1167   1.562   2.750   5.848
   90SOL     OW 1168   3.588   5.491   2.152
   90SOL    HW1 1169   3.539   5.442   2.080
   90SOL    HW2 1170   3.654   5.431   2.195
   91SOL     OW 1171   5.135   4.231   4.846
   91SOL    HW1 1172   5.060   4.290   4.817
   91SOL    HW2 1173   5.144   4.237   4.946
   92SOL     OW 1174   4.404   4.850   0.370
   92SOL    HW1 1175   4.495   4.875   0.404
   92SOL    HW2 1176   4.351   4.933   0.352
   93SOL     OW 1177   3.062   4.110   6.458
   93SOL    HW1 1178   3.022   4.048   6.391
   93SOL    HW2 1179   2.991   4.143   6.520
   94SOL     OW 1180   1.819   5.859   6.560
   94SOL    HW1 1181   1.786   5.953   6.553
   94SOL    HW2 1182   1.770   5.813   6.635
   95SOL     OW 1183   1.483   0.578   3.498
   95SOL    HW1 1184   1.460   0.659   3.552
   95SOL    HW2 1185   1.563   0.598   3.441
   96SOL     OW 1186   3.437   0.186   5.090
   96SOL    HW1 1187   3.531   0.169   5.058
   96SOL    HW2 1188   3.403   0.270   5.047
   97SOL     OW 1189   2.309   2.844   5.559
   97SOL    HW1 1190   2.299   2.938   5.593
   97SOL    HW2 1191   2.290   2.843   5.461
   98SOL     OW 1192   0.120   3.811   1.042
   98SOL    HW1 1193   0.120   3.779   1.137
   98SOL    HW2 1194   0.144   3.735   0.981
   99SOL     OW 1195   3.500   3.294   0.972
   99SOL    HW1 1196   3.563   3.252   1.037
   99SOL    HW2 1197   3.414   3.244   0.971
  100SOL     OW 1198   0.302   6.769   5.082
  100SOL    HW1 1199   0.349   6.854   5.109
  100SOL    HW2 1200   0.320   6.750   4.986
  101SOL     OW 1201   1.417   5.011   2.316
  101SOL    HW1 1202   1.349   5.048   2.379
  101SOL    HW2 1203   1.492   5.076   2.306
  102SOL     OW 1204   4.046   5.544   2.592
  102SOL    HW1 1205   4.121   5.595   2.551
  102SOL    HW2 1206   3.970   5.538   2.528
  103SOL     OW 1207   2.243   1.135   1.823
  103SOL    HW1 1208   2.266   1.129   1.920
  103SOL    HW2 1209   2.231   1.231   1.797
  104SOL     OW 1210   1.125   5.708   2.645
  104SOL    HW1 1211   1.139   5.794   2.596
  104SOL    HW2 1212   1.095   5.728   2.739
  105SOL     OW 1213   6.307   2.267   6.568
  105SOL    HW1 1214   6.278   2.207   6.642
  105SOL    HW2 1215   6.383   2.324   6.598
  106SOL     OW 1216   3.487   6.374   4.676
  106SOL    HW1 1217   3.408   6.390   4.735
  106SOL    HW2 1218   3.565   6.347   4.733
  107SOL     OW 1219   1.913   1.384   1.514
  107SOL    HW1 1220   1.983   1.330   1.561
  107SOL    HW2 1221   1.957   1.459   1.463
  108SOL     OW 1222   2.851   5.520   5.537
  108SOL    HW1 1223   2.932   5.469   5.506
  108SOL    HW2 1224   2.876   5.576   5.616
  109SOL     OW 1225   7.009   0.257   1.470
  109SOL    HW1 1226   6.982   0.287   1.378
  109SOL    HW2 1227   0.091   0.242   1.472
  110SOL     OW 1228   3.446   6.015   4.750
  110SOL    HW1 1229   3.376   6.034   4.819
  110SOL    HW2 1230   3.481   5.922   4.762
  111SOL     OW 1231   2.176   1.278   4.636
  111SOL    HW1 1232   2.154   1.191   4.682
  111SOL    HW2 1233   2.208   1.259   4.543
  112SOL     OW 1234   3.945   6.727   6.478
  112SOL    HW1 1235   3.946   6.797   6.549
  112SOL    HW2 1236   3.893   6.759   6.399
  113SOL     OW 1237   6.875   5.765   3.024
  113SOL    HW1 1238   6.830   5.854   3.026
  113SOL    HW2 1239   6.971   5.776   2.999
  114SOL     OW 1240   0.466   0.039   1.541
  114SOL    HW1 1241   0.476   6.961   1.510
  114SOL    HW2 1242   0.371   0.056   1.567
  115SOL     OW 1243   4.503   1.670   3.331
  115SOL    HW1 1244   4.595   1.707   3.347
  115SOL    HW2 1245   4.498   1.632   3.239
  116SOL     OW 1246   6.060   5.194   1.377
  116SOL    HW1 1247   6.151   5.228   1.401
  116SOL    HW2 1248   6.008   5.267   1.332
  117SOL     OW 1249   1.544   2.159   0.307
  117SOL    HW1 1250   1.517   2.214   0.228
  117SOL    HW2 1251   1.547   2.217   0.388
  118SOL     OW 1252   1.340   0.986   3.263
  118SOL    HW1 1253   1.277   1.038   3.322
  118SOL    HW2 1254   1.289   0.915   3.214
  119SOL     OW 1255   0.420   0.479   6.596
  119SOL    HW1 1256   0.458   0.397   6.554
  119SOL    HW2 1257   0.452   0.487   6.690
  120SOL     OW 1258   6.020   6.921   6.702
  120SOL    HW1 1259   6.060   6.944   6.791
  120SOL    HW2 1260   6.047   6.828   6.677
  121SOL     OW 1261   1.094   3.979   6.147
  121SOL    HW1 1262   1.118   3.904   6.208
  121SOL    HW2 1263   1.156   3.979   6.068
  122SOL     OW 1264   1.969   3.335   5.843
  122SOL    HW1 1265   1.995   3.386   5.761
  122SOL    HW2 1266   2.047   3.282   5.877
  123SOL     OW 1267   0.780   1.436   2.930
  123SOL    HW1 1268   0.721   1.359   2.953
  123SOL    HW2 1269   0.797   1.491   3.012
  124SOL     OW 1270   4.371   2.625   0.702
  124SOL    HW1 1271   4.284   2.599   0.744
  124SOL    HW2 1272   4.373   2.590   0.608
  125SOL     OW 1273   2.488   1.733   1.310
  125SOL    HW1 1274   2.477   1.785   1.225
  125SOL    HW2 1275   2.537   1.789   1.377
  126SOL     OW 1276   2.148   4.448   1.119
  126SOL    HW1 1277   2.176   4.527   1.174
  126SOL    HW2 1278   2.049   4.438   1.125
  127SOL     OW 1279   0.794   5.427   0.131
  127SOL    HW1 1280   0.884   5.461   0.104
  127SOL    HW2 1281   0.803   5.336   0.172
  128SOL     OW 1282   5.366   2.707   1.305
  128SOL    HW1 1283   5.302   2.632   1.318
  128SOL    HW2 1284   5.316   2.793   1.296
  129SOL     OW 1285   1.756   3.484   6.509
  129SOL    HW1 1286   1.789   3.562   6.563
  129SOL    HW2 1287   1.777   3.399   6.558
  130SOL     OW 1288   0.796   1.987   4.299
  130SOL    HW1 1289   0.893   1.971   4.317
  130SOL    HW2 1290   0.759   2.049   4.369
  131SOL     OW 1291   5.431   1.609   3.709
  131SOL    HW1 1292   5.500   1.681   3.709
  131SOL    HW2 1293   5.468   1.527   3.665
  132SOL     OW 1294   2.635   2.890   1.130
  132SOL    HW1 1295   2.645   2.989   1.131
  132SOL    HW2 1296   2.549   2.865   1.086
  133SOL     OW 1297   4.701   6.958   4.051
  133SOL    HW1 1298   4.748   6.895   4.113
  133SOL    HW2 1299   4.741   6.951   3.960
  134SOL     OW 1300   6.177   0.747   2.772
  134SOL    HW1 1301   6.251   0.740   2.839
  134SOL    HW2 1302   6.098   0.790   2.814
  135SOL     OW 1303   5.304   3.963   3.104
  135SOL    HW1 1304   5.209   3.947   3.131
  135SOL    HW2 1305   5.344   4.034   3.164
  136SOL     OW 1306   2.865   4.512   5.604
  136SOL    HW1 1307   2.862   4.469   5.514
  136SOL    HW2 1308   2.846   4.444   5.675
  137SOL     OW 1309   5.737   2.241   3.783
  137SOL    HW1 1310   5.819   2.192   3.753
  137SOL    HW2 1311   5.764   2.324   3.832
  138SOL     OW 1312   1.074   4.508   2.556
  138SOL    HW1 1313   1.020   4.539   2.634
  138SOL    HW2 1314   1.025   4.531   2.471
  139SOL     OW 1315   1.726   0.055   5.083
  139SOL    HW1 1316   1.779   6.991   5.061
  139SOL    HW2 1317   1.644   0.058   5.026
  140SOL     OW 1318   1.010   5.985   2.909
  140SOL    HW1 1319   0.945   6.009   2.982
  140SOL    HW2 1320   1.064   6.066   2.885
  141SOL     OW 1321   6.902   2.277   5.305
  141SOL    HW1 1322   6.877   2.371   5.281
  141SOL    HW2 1323   6.833   2.214   5.269
  142SOL     OW 1324   0.845   3.801   1.438
  142SOL    HW1 1325   0.925   3.860   1.421
  142SOL    HW2 1326   0.808   3.770   1.350
  143SOL     OW 1327   5.871   4.509   1.201
  143SOL    HW1 1328   5.922   4.424   1.188
  143SOL    HW2 1329   5.871   4.561   1.116
  144SOL     OW 1330   1.366   5.370   5.552
  144SOL    HW1 1331   1.348   5.468   5.566
  144SOL    HW2 1332   1.465   5.353   5.561
  145SOL     OW 1333   6.989   5.488   0.409
  145SOL    HW1 1334   0.057   5.537   0.429
  145SOL    HW2 1335   6.912   5.535   0.454
  146SOL     OW 1336   4.906   0.254   6.269
  146SOL    HW1 1337   4.835   0.185   6.262
  146SOL    HW2 1338   4.977   0.223   6.333
  147SOL     OW 1339   5.820   3.674   6.643
  147SOL    HW1 1340   5.778   3.754   6.686
  147SOL    HW2 1341   5.748   3.614   6.608
  148SOL     OW 1342   6.382   5.382   6.739
  148SOL    HW1 1343   6.384   5.284   6.715
  148SOL    HW2 1344   6.458   5.403   6.800
  149SOL     OW 1345   3.351   2.001   3.645
  149SOL    HW1 1346   3.316   2.067   3.579
  149SOL    HW2 1347   3.276   1.944   3.679
  150SOL     OW 1348   5.803   6.460   0.281
  150SOL    HW1 1349   5.787   6.417   0.369
  150SOL    HW2 1350   5.899   6.486   0.273
  151SOL     OW 1351   2.900   2.878   1.301
  151SOL    HW1 1352   2.939   2.970   1.293
  151SOL    HW2 1353   2.804   2.880   1.274
  152SOL     OW 1354   0.692   0.796   1.796
  152SOL    HW1 1355   0.619   0.751   1.848
  152SOL    HW2 1356   0.765   0.824   1.859
  153SOL     OW 1357   2.933   0.507   2.059
  153SOL    HW1 1358   2.942   0.602   2.089
  153SOL    HW2 1359   2.943   0.503   1.959
  154SOL     OW 1360   0.284   2.082   1.632
  154SOL    HW1 1361   0.193   2.057   1.664
  154SOL    HW2 1362   0.352   2.052   1.699
  155SOL     OW 1363   0.140   1.470   3.412
  155SOL    HW1 1364   0.157   1.523   3.328
  155SOL    HW2 1365   0.226   1.430   3.443
  156SOL     OW 1366   0.035   2.257   0.657
  156SOL    HW1 1367   7.008   2.179   0.701
  156SOL    HW2 1368   6.985   2.329   0.642
  157SOL     OW 1369   5.164   3.335   1.820
  157SOL    HW1 1370   5.098   3.266   1.793
  157SOL    HW2 1371   5.255   3.294   1.827
  158SOL     OW 1372   2.332   4.904   2.161
  158SOL    HW1 1373   2.266   4.896   2.087
  158SOL    HW2 1374   2.323   4.826   2.223
  159SOL     OW 1375   4.877   4.616   2.181
  159SOL    HW1 1376   4.801   4.551   2.170
  159SOL    HW2 1377   4.934   4.615   2.099
  160SOL     OW 1378   5.172   5.316   0.831
  160SOL    HW1 1379   5.232   5.262   0.890
  160SOL    HW2 1380   5.154   5.405   0.873
  161SOL     OW 1381   2.078   5.845   4.450
  161SOL    HW1 1382   1.993   5.864   4.499
  161SOL    HW2 1383   2.115   5.757   4.479
  162SOL     OW 1384   3.754   5.841   0.174
  162SOL    HW1 1385   3.690   5.832   0.098
  162SOL    HW2 1386   3.828   5.903   0.147
  163SOL     OW 1387   5.814   5.613   0.722
  163SOL    HW1 1388   5.737   5.570   0.676
  163SOL    HW2 1389   5.880   5.543   0.750
  164SOL     OW 1390   6.958   4.929   1.076
  164SOL    HW1 1391   0.022   4.915   1.018
  164SOL    HW2 1392   6.968   5.015   1.127
  165SOL     OW 1393   5.094   3.344   1.209
  165SOL    HW1 1394   5.084   3.394   1.295
  165SOL    HW2 1395   5.069   3.404   1.133
  166SOL     OW 1396   0.183   3.669   2.842
  166SOL    HW1 1397   0.216   3.587   2.889
  166SOL    HW2 1398   0.171   3.743   2.909
  167SOL     OW 1399   5.020   2.404   6.936
  167SOL    HW1 1400   5.030   2.355   6.849
  167SOL    HW2 1401   4.925   2.432   6.947
  168SOL     OW 1402   2.559   3.374   1.204
  168SOL    HW1 1403   2.531   3.468   1.219
  168SOL    HW2 1404   2.567   3.326   1.291
  169SOL     OW 1405   5.241   1.773   2.282
  169SOL    HW1 1406   5.160   1.779   2.341
  169SOL    HW2 1407   5.284   1.862   2.276
  170SOL     OW 1408   0.901   1.008   3.106
  170SOL    HW1 1409   0.880   0.943   3.179
  170SOL    HW2 1410   0.838   0.994   3.030
  171SOL     OW 1411   3.212   4.924   5.875
  171SOL    HW1 1412   3.226   4.863   5.953
  171SOL    HW2 1413   3.115   4.944   5.865
  172SOL     OW 1414   6.418   1.655   3.024
  172SOL    HW1 1415   6.437   1.681   2.929
  172SOL    HW2 1416   6.404   1.556   3.028
  173SOL     OW 1417   5.903   1.734   4.128
  173SOL    HW1 1418   5.900   1.634   4.130
  173SOL    HW2 1419   5.841   1.770   4.199
  174SOL     OW 1420   4.338   5.164   3.286
  174SOL    HW1 1421   4.325   5.259   3.259
  174SOL    HW2 1422   4.368   5.111   3.207
  175SOL     OW 1423   2.672   6.985   1.662
  175SOL    HW1 1424   2.752   6.994   1.722
  175SOL    HW2 1425   2.645   6.889   1.658
  176SOL     OW 1426   1.101   4.829   6.963
  176SOL    HW1 1427   1.188   4.785   6.939
  176SOL    HW2 1428   1.026   4.763   6.951
  177SOL     OW 1429   5.712   2.997   2.775
  177SOL    HW1 1430   5.774   3.074   2.764
  177SOL    HW2 1431   5.642   3.000   2.703
  178SOL     OW 1432   2.613   3.310   6.519
  178SOL    HW1 1433   2.552   3.372   6.569
  178SOL    HW2 1434   2.559   3.256   6.454
  179SOL     OW 1435   3.594   1.078   5.269
  179SOL    HW1 1436   3.566   1.123   5.354
  179SOL    HW2 1437   3.537   0.998   5.253
  180SOL     OW 1438   2.405   6.577   0.083
  180SOL    HW1 1439   2.389   6.535   7.011
  180SOL    HW2 1440   2.395   6.508   0.155
  181SOL     OW 1441   3.394   3.195   6.359
  181SOL    HW1 1442   3.493   3.192   6.345
  181SOL    HW2 1443   3.371   3.142   6.440
  182SOL     OW 1444   3.879   1.750   5.317
  182SOL    HW1 1445   3.781   1.730   5.311
  182SOL    HW2 1446   3.915   1.764   5.225
  183SOL     OW 1447   4.174   2.287   3.136
  183SOL    HW1 1448   4.274   2.295   3.141
  183SOL    HW2 1449   4.137   2.275   3.228
  184SOL     OW 1450   1.122   6.517   4.267
  184SOL    HW1 1451   1.136   6.460   4.186
  184SOL    HW2 1452   1.083   6.462   4.341
  185SOL     OW 1453   0.829   1.217   6.082
  185SOL    HW1 1454   0.891   1.288   6.115
  185SOL    HW2 1455   0.778   1.179   6.159
  186SOL     OW 1456   5.826   0.331   4.678
  186SOL    HW1 1457   5.904   0.331   4.616
  186SOL    HW2 1458   5.830   0.412   4.736
  187SOL     OW 1459   4.222   0.064   2.376
  187SOL    HW1 1460   4.255   6.998   2.421
  187SOL    HW2 1461   4.197   0.131   2.446
  188SOL     OW 1462   0.498   1.799   3.528
  188SOL    HW1 1463   0.500   1.893   3.560
  188SOL    HW2 1464   0.455   1.795   3.437
  189SOL     OW 1465   2.238   5.568   1.336
  189SOL    HW1 1466   2.327   5.613   1.329
  189SOL    HW2 1467   2.250   5.478   1.376
  190SOL     OW 1468   5.192   2.518   4.793
  190SOL    HW1 1469   5.159   2.526   4.699
  190SOL    HW2 1470   5.115   2.528   4.856
  191SOL     OW 1471   5.784   0.046   6.850
  191SOL    HW1 1472   5.803   0.003   6.761
  191SOL    HW2 1473   5.760   0.142   6.836
  192SOL     OW 1474   1.277   5.782   2.093
  192SOL    HW1 1475   1.320   5.784   2.003
  192SOL    HW2 1476   1.178   5.772   2.083
  193SOL     OW 1477   4.092   3.095   5.777
  193SOL    HW1 1478   4.065   3.010   5.731
  193SOL    HW2 1479   4.177   3.129   5.736
  194SOL     OW 1480   4.030   0.716   2.978
  194SOL    HW1 1481   4.084   0.688   3.058
  194SOL    HW2 1482   3.981   0.801   3.000
  195SOL     OW 1483   2.241   0.293   5.023
  195SOL    HW1 1484   2.231   0.297   5.123
  195SOL    HW2 1485   2.177   0.357   4.981
  196SOL     OW 1486   3.043   0.297   0.946
  196SOL    HW1 1487   2.971   0.255   1.002
  196SOL    HW2 1488   3.021   0.393   0.929
  197SOL     OW 1489   2.626   0.216   1.542
  197SOL    HW1 1490   2.562   0.191   1.469
  197SOL    HW2 1491   2.628   0.144   1.611
  198SOL     OW 1492   4.914   0.648   1.954
  198SOL    HW1 1493   4.996   0.594   1.933
  198SOL    HW2 1494   4.836   0.586   1.961
  199SOL     OW 1495   6.920   1.638   3.792
  199SOL    HW1 1496   6.862   1.556   3.798
  199SOL    HW2 1497   7.002   1.624   3.847
  200SOL     OW 1498   1.241   4.552   1.264
  200SOL    HW1 1499   1.292   4.470   1.294
  200SOL    HW2 1500   1.143   4.536   1.276
  201SOL     OW 1501   6.900   0.278   5.344
  201SOL    HW1 1502   6.845   0.357   5.369
  201SOL    HW2 1503   6.990   0.284   5.389
  202SOL     OW 1504   4.526   1.398   6.832
  202SOL    HW1 1505   4.449   1.451   6.798
  202SOL    HW2 1506   4.598   1.459   6.862
  203SOL     OW 1507   5.474   2.334   5.229
  203SOL    HW1 1508   5.490   2.310   5.134
  203SOL    HW2 1509   5.485   2.254   5.287
  204SOL     OW 1510   1.171   0.249   5.434
  204SOL    HW1 1511   1.099   0.233   5.366
  204SOL    HW2 1512   1.147   0.329   5.490
  205SOL     OW 1513   0.458   1.539   2.832
  205SOL    HW1 1514   0.426   1.538   2.927
  205SOL    HW2 1515   0.425   1.458   2.784
  206SOL     OW 1516   0.656   4.493   0.619
  206SOL    HW1 1517   0.706   4.569   0.659
  206SOL    HW2 1518   0.658   4.500   0.520
  207SOL     OW 1519   6.325   1.313   3.920
  207SOL    HW1 1520   6.284   1.241   3.976
  207SOL    HW2 1521   6.253   1.374   3.887
  208SOL     OW 1522   6.201   3.439   4.833
  208SOL    HW1 1523   6.160   3.484   4.912
  208SOL    HW2 1524   6.272   3.376   4.864
  209SOL     OW 1525   0.581   5.142   4.190
  209SOL    HW1 1526   0.651   5.212   4.180
  209SOL    HW2 1527   0.624   5.053   4.200
  210SOL     OW 1528   4.200   2.221   0.511
  210SOL    HW1 1529   4.194   2.121   0.516
  210SOL    HW2 1530   4.269   2.247   0.443
  211SOL     OW 1531   2.327   6.227   2.595
  211SOL    HW1 1532   2.228   6.226   2.585
  211SOL    HW2 1533   2.353   6.195   2.686
  212SOL     OW 1534   0.908   4.179   2.081
  212SOL    HW1 1535   0.967   4.143   2.008
  212SOL    HW2 1536   0.814   4.186   2.048
  213SOL     OW 1537   3.230   0.765   0.741
  213SOL    HW1 1538   3.141   0.779   0.698
  213SOL    HW2 1539   3.236   0.819   0.825
  214SOL     OW 1540   4.593   4.844   1.862
  214SOL    HW1 1541   4.669   4.821   1.801
  214SOL    HW2 1542   4.525   4.898   1.812
  215SOL     OW 1543   2.085   4.230   0.659
  215SOL    HW1 1544   2.177   4.245   0.695
  215SOL    HW2 1545   2.036   4.318   0.656
  216SOL     OW 1546   2.182   6.164   4.246
  216SOL    HW1 1547   2.172   6.129   4.339
  216SOL    HW2 1548   2.196   6.087   4.183
  217SOL     OW 1549   1.524   2.113   3.908
  217SOL    HW1 1550   1.571   2.163   3.835
  217SOL    HW2 1551   1.425   2.119   3.893
  218SOL     OW 1552   0.091   3.550   4.215
  218SOL    HW1 1553   0.138   3.565   4.302
  218SOL    HW2 1554   0.120   3.463   4.176
  219SOL     OW 1555   4.607   0.489   6.742
  219SOL    HW1 1556   4.510   0.509   6.752
  219SOL    HW2 1557   4.651   0.561   6.688
  220SOL     OW 1558   2.900   6.697   1.534
  220SOL    HW1 1559   2.906   6.706   1.434
  220SOL    HW2 1560   2.908   6.788   1.575
  221SOL     OW 1561   6.732   3.652   0.981
  221SOL    HW1 1562   6.746   3.634   1.079
  221SOL    HW2 1563   6.773   3.579   0.927
  222SOL     OW 1564   1.839   4.668   6.027
  222SOL    HW1 1565   1.888   4.653   5.940
  222SOL    HW2 1566   1.807   4.763   6.031
  223SOL     OW 1567   5.950   3.418   6.461
  223SOL    HW1 1568   5.945   3.396   6.364
  223SOL    HW2 1569   6.046   3.425   6.489
  224SOL     OW 1570   2.339   1.803   4.412
  224SOL    HW1 1571   2.379   1.771   4.498
  224SOL    HW2 1572   2.412   1.833   4.350
  225SOL     OW 1573   4.264   3.749   6.598
  225SOL    HW1 1574   4.188   3.708   6.648
  225SOL    HW2 1575   4.254   3.729   6.500
  226SOL     OW 1576   1.728   1.379   5.446
  226SOL    HW1 1577   1.680   1.421   5.370
  226SOL    HW2 1578   1.738   1.445   5.520
  227SOL     OW 1579   1.547   3.695   2.149
  227SOL    HW1 1580   1.471   3.727   2.206
  227SOL    HW2 1581   1.554   3.595   2.156
  228SOL     OW 1582   3.139   6.455   3.763
  228SOL    HW1 1583   3.060   6.444   3.702
  228SOL    HW2 1584   3.107   6.464   3.857
  229SOL     OW 1585   6.064   6.059   0.083
  229SOL    HW1 1586   6.058   6.158   0.094
  229SOL    HW2 1587   6.157   6.034   0.057
  230SOL     OW 1588   3.239   4.924   3.751
  230SOL    HW1 1589   3.247   5.020   3.779
  230SOL    HW2 1590   3.171   4.879   3.808
  231SOL     OW 1591   6.425   1.954   6.817
  231SOL    HW1 1592   6.502   1.977   6.758
  231SOL    HW2 1593   6.348   2.016   6.798
  232SOL     OW 1594   0.752   3.207   6.626
  232SOL    HW1 1595   0.807   3.182   6.706
  232SOL    HW2 1596   0.694   3.285   6.648
  233SOL     OW 1597   3.034   1.354   2.549
  233SOL    HW1 1598   3.115   1.352   2.607
  233SOL    HW2 1599   2.976   1.275   2.570
  234SOL     OW 1600   5.395   0.613   5.925
  234SOL    HW1 1601   5.379   0.536   5.987
  234SOL    HW2 1602   5.490   0.610   5.892
  235SOL     OW 1603   3.730   2.417   1.427
  235SOL    HW1 1604   3.814   2.363   1.420
  235SOL    HW2 1605   3.711   2.437   1.523
  236SOL     OW 1606   5.349   2.951   6.242
  236SOL    HW1 1607   5.375   2.864   6.199
  236SOL    HW2 1608   5.332   2.935   6.340
  237SOL     OW 1609   6.385   4.753   1.714
  237SOL    HW1 1610   6.447   4.674   1.709
  237SOL    HW2 1611   6.321   4.750   1.637
  238SOL     OW 1612   5.206   2.131   0.350
  238SOL    HW1 1613   5.218   2.114   0.252
  238SOL    HW2 1614   5.292   2.166   0.388
  239SOL     OW 1615   0.559   5.174   6.920
  239SOL    HW1 1616   0.483   5.239   6.919
  239SOL    HW2 1617   0.527   5.086   6.954
  240SOL     OW 1618   6.781   2.712   3.551
  240SOL    HW1 1619   6.835   2.779   3.501
  240SOL    HW2 1620   6.729   2.757   3.624
  241SOL     OW 1621   2.531   2.007   5.201
  241SOL    HW1 1622   2.602   2.019   5.131
  241SOL    HW2 1623   2.455   2.069   5.182
  242SOL     OW 1624   3.136   3.607   4.204
  242SOL    HW1 1625   3.129   3.706   4.195
  242SOL    HW2 1626   3.144   3.583   4.301
  243SOL     OW 1627   4.174   0.439   5.882
  243SOL    HW1 1628   4.194   0.347   5.916
  243SOL    HW2 1629   4.231   0.505   5.931
  244SOL     OW 1630   6.060   2.626   4.992
  244SOL    HW1 1631   5.970   2.668   4.979
  244SOL    HW2 1632   6.130   2.682   4.949
  245SOL     OW 1633   5.280   3.697   4.010
  245SOL    HW1 1634   5.358   3.650   4.051
  245SOL    HW2 1635   5.308   3.740   3.924
  246SOL     OW 1636   4.611   2.610   3.672
  246SOL    HW1 1637   4.697   2.590   3.626
  246SOL    HW2 1638   4.535   2.588   3.611
  247SOL     OW 1639   2.946   1.965   1.475
  247SOL    HW1 1640   2.981   1.884   1.523
  247SOL    HW2 1641   2.936   2.040   1.540
  248SOL     OW 1642   3.532   1.185   2.217
  248SOL    HW1 1643   3.611   1.198   2.157
  248SOL    HW2 1644   3.547   1.235   2.302
  249SOL     OW 1645   3.903   0.085   4.647
  249SOL    HW1 1646   3.872   7.015   4.609
  249SOL    HW2 1647   3.848   0.160   4.611
  250SOL     OW 1648   4.950   2.766   0.503
  250SOL    HW1 1649   4.977   2.710   0.583
  250SOL    HW2 1650   4.851   2.764   0.494
  251SOL     OW 1651   4.798   4.109   5.748
  251SOL    HW1 1652   4.846   4.090   5.662
  251SOL    HW2 1653   4.702   4.130   5.729
  252SOL     OW 1654   6.473   6.007   0.236
  252SOL    HW1 1655   6.439   5.942   0.168
  252SOL    HW2 1656   6.431   6.096   0.221
  253SOL     OW 1657   2.133   5.849   6.131
  253SOL    HW1 1658   2.046   5.875   6.172
  253SOL    HW2 1659   2.199   5.827   6.204
  254SOL     OW 1660   5.568   2.741   3.499
  254SOL    HW1 1661   5.521   2.653   3.498
  254SOL    HW2 1662   5.517   2.807   3.443
  255SOL     OW 1663   1.548   4.411   5.185
  255SOL    HW1 1664   1.604   4.438   5.107
  255SOL    HW2 1665   1.606   4.398   5.266
  256SOL     OW 1666   6.239   3.551   6.157
  256SOL    HW1 1667   6.292   3.582   6.078
  256SOL    HW2 1668   6.262   3.456   6.178
  257SOL     OW 1669   4.792   0.287   3.573
  257SOL    HW1 1670   4.701   0.285   3.613
  257SOL    HW2 1671   4.785   0.302   3.474
  258SOL     OW 1672   2.103   5.089   4.973
  258SOL    HW1 1673   2.195   5.051   4.980
  258SOL    HW2 1674   2.037   5.021   5.006
  259SOL     OW 1675   0.652   2.084   2.433
  259SOL    HW1 1676   0.670   2.150   2.507
  259SOL    HW2 1677   0.607   2.131   2.357
  260SOL     OW 1678   4.768   0.643   1.334
  260SOL    HW1 1679   4.757   0.589   1.418
  260SOL    HW2 1680   4.757   0.584   1.255
  261SOL     OW 1681   6.803   3.402   0.884
  261SOL    HW1 1682   6.764   3.363   0.800
  261SOL    HW2 1683   6.896   3.368   0.897
  262SOL     OW 1684   0.534   4.029   0.326
  262SOL    HW1 1685   0.518   4.034   0.425
  262SOL    HW2 1686   0.532   3.933   0.296
  263SOL     OW 1687   1.936   0.774   3.627
  263SOL    HW1 1688   2.021   0.827   3.624
  263SOL    HW2 1689   1.889   0.793   3.713
  264SOL     OW 1690   6.185   3.144   6.455
  264SOL    HW1 1691   6.223   3.071   6.398
  264SOL    HW2 1692   6.109   3.108   6.510
  265SOL     OW 1693   5.110   6.386   2.328
  265SOL    HW1 1694   5.181   6.322   2.358
  265SOL    HW2 1695   5.064   6.425   2.408
  266SOL     OW 1696   3.345   2.619   5.897
  266SOL    HW1 1697   3.326   2.712   5.929
  266SOL    HW2 1698   3.278   2.592   5.828
  267SOL     OW 1699   0.475   1.058   6.820
  267SOL    HW1 1700   0.530   1.041   6.738
  267SOL    HW2 1701   0.535   1.058   6.900
  268SOL     OW 1702   3.496   0.552   5.729
  268SOL    HW1 1703   3.544   0.473   5.692
  268SOL    HW2 1704   3.538   0.580   5.815
  269SOL     OW 1705   0.796   3.387   1.927
  269SOL    HW1 1706   0.805   3.395   2.026
  269SOL    HW2 1707   0.741   3.463   1.892
  270SOL     OW 1708   1.246   0.208   0.603
  270SOL    HW1 1709   1.338   0.241   0.625
  270SOL    HW2 1710   1.249   0.110   0.584
  271SOL     OW 1711   0.095   1.638   6.528
  271SOL    HW1 1712   0.161   1.605   6.595
  271SOL    HW2 1713   0.024   1.692   6.575
  272SOL     OW 1714   3.401   5.286   4.353
  272SOL    HW1 1715   3.455   5.211   4.390
  272SOL    HW2 1716   3.462   5.357   4.318
  273SOL     OW 1717   1.910   4.345   4.930
  273SOL    HW1 1718   1.971   4.326   4.853
  273SOL    HW2 1719   1.962   4.389   5.003
  274SOL     OW 1720   4.261   2.007   3.073
  274SOL    HW1 1721   4.246   2.105   3.060
  274SOL    HW2 1722   4.359   1.988   3.076
  275SOL     OW 1723   5.699   4.278   5.200
  275SOL    HW1 1724   5.770   4.218   5.237
  275SOL    HW2 1725   5.682   4.353   5.264
  276SOL     OW 1726   0.309   6.585   2.593
  276SOL    HW1 1727   0.315   6.609   2.497
  276SOL    HW2 1728   0.363   6.649   2.647
  277SOL     OW 1729   1.315   4.090   0.609
  277SOL    HW1 1730   1.406   4.051   0.625
  277SOL    HW2 1731   1.246   4.018   0.613
  278SOL     OW 1732   6.172   5.140   2.087
  278SOL    HW1 1733   6.135   5.144   1.995
  278SOL    HW2 1734   6.258   5.089   2.086
  279SOL     OW 1735   6.647   2.880   4.196
  279SOL    HW1 1736   6.699   2.949   4.246
  279SOL    HW2 1737   6.710   2.822   4.143
  280SOL     OW 1738   3.139   6.644   2.851
  280SOL    HW1 1739   3.089   6.683   2.928
  280SOL    HW2 1740   3.114   6.692   2.767
  281SOL     OW 1741   2.603   4.601   2.145
  281SOL    HW1 1742   2.694   4.561   2.154
  281SOL    HW2 1743   2.610   4.693   2.107
  282SOL     OW 1744   3.073   1.620   5.435
  282SOL    HW1 1745   3.052   1.523   5.434
  282SOL    HW2 1746   3.148   1.639   5.372
  283SOL     OW 1747   6.254   1.489   6.786
  283SOL    HW1 1748   6.297   1.435   6.714
  283SOL    HW2 1749   6.241   1.583   6.753
  284SOL     OW 1750   1.690   4.040   3.569
  284SOL    HW1 1751   1.598   4.007   3.589
  284SOL    HW2 1752   1.730   4.082   3.651
  285SOL     OW 1753   6.259   4.710   5.256
  285SOL    HW1 1754   6.183   4.711   5.192
  285SOL    HW2 1755   6.242   4.642   5.327
  286SOL     OW 1756   3.830   5.526   5.406
  286SOL    HW1 1757   3.756   5.575   5.360
  286SOL    HW2 1758   3.808   5.516   5.503
  287SOL     OW 1759   0.180   4.332   0.191
  287SOL    HW1 1760   0.121   4.292   0.262
  287SOL    HW2 1761   0.271   4.292   0.198
  288SOL     OW 1762   3.931   1.171   5.521
  288SOL    HW1 1763   3.862   1.208   5.583
  288SOL    HW2 1764   4.022   1.201   5.549
  289SOL     OW 1765   0.049   4.244   4.905
  289SOL    HW1 1766   0.059   4.335   4.945
  289SOL    HW2 1767   6.969   4.226   4.886
  290SOL     OW 1768   5.990   1.831   4.812
  290SOL    HW1 1769   5.998   1.743   4.857
  290SOL    HW2 1770   6.070   1.846   4.753
  291SOL     OW 1771   1.322   2.478   4.663
  291SOL    HW1 1772   1.353   2.385   4.685
  291SOL    HW2 1773   1.300   2.483   4.565
  292SOL     OW 1774   1.488   1.963   3.310
  292SOL    HW1 1775   1.469   1.883   3.367
  292SOL    HW2 1776   1.464   1.942   3.215
  293SOL     OW 1777   4.339   4.989   1.788
  293SOL    HW1 1778   4.273   5.047   1.742
  293SOL    HW2 1779   4.305   4.963   1.878
  294SOL     OW 1780   0.068   5.371   6.170
  294SOL    HW1 1781   0.101   5.465   6.160
  294SOL    HW2 1782   0.061   5.349   6.267
  295SOL     OW 1783   3.580   2.084   4.226
  295SOL    HW1 1784   3.513   2.022   4.268
  295SOL    HW2 1785   3.658   2.095   4.287
  296SOL     OW 1786   4.344   1.712   2.778
  296SOL    HW1 1787   4.352   1.646   2.703
  296SOL    HW2 1788   4.264   1.769   2.764
  297SOL     OW 1789   2.221   4.744   2.823
  297SOL    HW1 1790   2.127   4.761   2.853
  297SOL    HW2 1791   2.267   4.830   2.806
  298SOL     OW 1792   4.303   6.503   0.829
  298SOL    HW1 1793   4.316   6.409   0.860
  298SOL    HW2 1794   4.375   6.526   0.763
  299SOL     OW 1795   4.814   3.589   6.100
  299SOL    HW1 1796   4.813   3.583   6.000
  299SOL    HW2 1797   4.724   3.563   6.136
  300SOL     OW 1798   6.089   1.053   1.527
  300SOL    HW1 1799   6.001   1.027   1.487
  300SOL    HW2 1800   6.145   1.100   1.459
  301SOL     OW 1801   4.818   3.366   1.429
  301SOL    HW1 1802   4.896   3.308   1.451
  301SOL    HW2 1803   4.746   3.312   1.385
  302SOL     OW 1804   1.143   0.543   3.655
  302SOL    HW1 1805   1.165   0.464   3.597
  302SOL    HW2 1806   1.054   0.580   3.627
  303SOL     OW 1807   5.939   0.729   1.469
  303SOL    HW1 1808   5.857   0.784   1.487
  303SOL    HW2 1809   5.956   0.726   1.371
  304SOL     OW 1810   2.635   0.238   3.966
  304SOL    HW1 1811   2.566   0.216   4.034
  304SOL    HW2 1812   2.613   0.325   3.923
  305SOL     OW 1813   6.922   3.640   0.169
  305SOL    HW1 1814   6.964   3.655   0.080
  305SOL    HW2 1815   6.953   3.710   0.233
  306SOL     OW 1816   2.554   1.317   3.321
  306SOL    HW1 1817   2.471   1.329   3.375
  306SOL    HW2 1818   2.631   1.360   3.368
  307SOL     OW 1819   4.868   0.374   0.589
  307SOL    HW1 1820   4.849   0.387   0.491
  307SOL    HW2 1821   4.890   0.278   0.606
  308SOL     OW 1822   6.020   2.870   4.775
  308SOL    HW1 1823   5.964   2.923   4.711
  308SOL    HW2 1824   6.079   2.932   4.826
  309SOL     OW 1825   3.059   5.201   6.709
  309SOL    HW1 1826   2.973   5.244   6.683
  309SOL    HW2 1827   3.055   5.174   6.805
  310SOL     OW 1828   6.048   6.884   5.031
  310SOL    HW1 1829   6.083   6.830   4.955
  310SOL    HW2 1830   6.002   6.824   5.096
  311SOL     OW 1831   5.715   4.640   1.800
  311SOL    HW1 1832   5.747   4.671   1.889
  311SOL    HW2 1833   5.757   4.696   1.728
  312SOL     OW 1834   4.268   1.500   5.682
  312SOL    HW1 1835   4.236   1.495   5.587
  312SOL    HW2 1836   4.266   1.595   5.713
  313SOL     OW 1837   3.408   4.140   1.811
  313SOL    HW1 1838   3.428   4.236   1.793
  313SOL    HW2 1839   3.490   4.085   1.796
  314SOL     OW 1840   3.388   4.817   6.689
  314SOL    HW1 1841   3.468   4.864   6.726
  314SOL    HW2 1842   3.328   4.884   6.645
  315SOL     OW 1843   1.388   2.838   3.673
  315SOL    HW1 1844   1.437   2.924   3.658
  315SOL    HW2 1845   1.436   2.785   3.743
  316SOL     OW 1846   2.927   1.618   3.996
  316SOL    HW1 1847   2.871   1.582   4.070
  316SOL    HW2 1848   2.978   1.543   3.953
  317SOL     OW 1849   0.701   0.536   0.835
  317SOL    HW1 1850   0.663   0.612   0.887
  317SOL    HW2 1851   0.760   0.571   0.762
  318SOL     OW 1852   1.168   6.538   0.143
  318SOL    HW1 1853   1.202   6.625   0.180
  318SOL    HW2 1854   1.243   6.487   0.102
  319SOL     OW 1855   6.978   0.370   4.098
  319SOL    HW1 1856   6.995   0.418   4.012
  319SOL    HW2 1857   6.943   0.435   4.166
  320SOL     OW 1858   6.169   1.936   0.420
  320SOL    HW1 1859   6.072   1.938   0.446
  320SOL    HW2 1860   6.177   1.915   0.322
  321SOL     OW 1861   3.921   1.628   0.924
  321SOL    HW1 1862   3.982   1.565   0.876
  321SOL    HW2 1863   3.963   1.655   1.011
  322SOL     OW 1864   3.717   4.174   4.711
  322SOL    HW1 1865   3.629   4.211   4.684
  322SOL    HW2 1866   3.762   4.133   4.631
  323SOL     OW 1867   0.784   3.560   6.028
  323SOL    HW1 1868   0.689   3.588   6.039
  323SOL    HW2 1869   0.839   3.639   6.000
  324SOL     OW 1870   2.523   2.163   3.805
  324SOL    HW1 1871   2.618   2.180   3.833
  324SOL    HW2 1872   2.521   2.143   3.707
  325SOL     OW 1873   1.202   2.783   1.695
  325SOL    HW1 1874   1.294   2.823   1.695
  325SOL    HW2 1875   1.149   2.822   1.620
  326SOL     OW 1876   1.084   4.655   6.722
  326SOL    HW1 1877   1.064   4.718   6.646
  326SOL    HW2 1878   1.177   4.620   6.712
  327SOL     OW 1879   1.667   4.866   3.650
  327SOL    HW1 1880   1.725   4.877   3.731
  327SOL    HW2 1881   1.695   4.931   3.580
  328SOL     OW 1882   1.211   6.297   1.814
  328SOL    HW1 1883   1.299   6.285   1.769
  328SOL    HW2 1884   1.207   6.240   1.896
  329SOL     OW 1885   3.840   3.999   4.537
  329SOL    HW1 1886   3.914   3.932   4.526
  329SOL    HW2 1887   3.807   4.026   4.446
  330SOL     OW 1888   2.743   6.966   0.931
  330SOL    HW1 1889   2.659   7.016   0.953
  330SOL    HW2 1890   2.821   7.009   0.976
  331SOL     OW 1891   3.759   5.554   0.199
  331SOL    HW1 1892   3.830   5.599   0.253
  331SOL    HW2 1893   3.671   5.599   0.216
  332SOL     OW 1894   2.933   1.445   4.886
  332SOL    HW1 1895   3.029   1.464   4.865
  332SOL    HW2 1896   2.924   1.353   4.925
  333SOL     OW 1897   3.593   6.640   6.468
  333SOL    HW1 1898   3.625   6.604   6.556
  333SOL    HW2 1899   3.493   6.645   6.470
  334SOL     OW 1900   2.603   0.536   1.468
  334SOL    HW1 1901   2.630   0.454   1.517
  334SOL    HW2 1902   2.637   0.531   1.374
  335SOL     OW 1903   3.446   0.101   4.172
  335SOL    HW1 1904   3.535   0.140   4.197
  335SOL    HW2 1905   3.449   0.002   4.180
  336SOL     OW 1906   2.445   1.256   4.007
  336SOL    HW1 1907   2.408   1.344   3.977
  336SOL    HW2 1908   2.516   1.226   3.944
  337SOL     OW 1909   0.093   3.399   0.399
  337SOL    HW1 1910   0.166   3.348   0.352
  337SOL    HW2 1911   0.017   3.414   0.335
  338SOL     OW 1912   3.264   2.840   1.423
  338SOL    HW1 1913   3.170   2.817   1.400
  338SOL    HW2 1914   3.305   2.765   1.474
  339SOL     OW 1915   3.478   6.368   4.420
  339SOL    HW1 1916   3.453   6.388   4.515
  339SOL    HW2 1917   3.534   6.285   4.417
  340SOL     OW 1918   4.910   4.517   5.615
  340SOL    HW1 1919   4.843   4.480   5.679
  340SOL    HW2 1920   4.897   4.616   5.606
  341SOL     OW 1921   6.839   0.572   4.505
  341SOL    HW1 1922   6.890   0.491   4.534
  341SOL    HW2 1923   6.815   0.626   4.586
  342SOL     OW 1924   5.729   3.934   6.794
  342SOL    HW1 1925   5.751   3.982   6.879
  342SOL    HW2 1926   5.791   3.965   6.722
  343SOL     OW 1927   1.865   5.619   0.497
  343SOL    HW1 1928   1.812   5.686   0.550
  343SOL    HW2 1929   1.835   5.527   0.522
  344SOL     OW 1930   1.275   4.750   2.319
  344SOL    HW1 1931   1.358   4.791   2.281
  344SOL    HW2 1932   1.237   4.811   2.389
  345SOL     OW 1933   6.447   1.296   4.906
  345SOL    HW1 1934   6.536   1.254   4.889
  345SOL    HW2 1935   6.458   1.371   4.971
  346SOL     OW 1936   1.867   0.264   2.689
  346SOL    HW1 1937   1.941   0.200   2.708
  346SOL    HW2 1938   1.806   0.269   2.768
  347SOL     OW 1939   3.192   5.821   6.283
  347SOL    HW1 1940   3.239   5.734   6.300
  347SOL    HW2 1941   3.251   5.897   6.312
  348SOL     OW 1942   5.512   5.212   1.190
  348SOL    HW1 1943   5.438   5.144   1.188
  348SOL    HW2 1944   5.600   5.166   1.191
  349SOL     OW 1945   6.447   4.390   1.013
  349SOL    HW1 1946   6.540   4.393   1.051
  349SOL    HW2 1947   6.445   4.443   0.928
  350SOL     OW 1948   3.658   3.024   0.904
  350SOL    HW1 1949   3.724   3.024   0.980
  350SOL    HW2 1950   3.566   3.028   0.941
  351SOL     OW 1951   2.327   2.653   0.561
  351SOL    HW1 1952   2.306   2.728   0.498
  351SOL    HW2 1953   2.395   2.593   0.520
  352SOL     OW 1954   3.664   0.390   4.795
  352SOL    HW1 1955   3.714   0.471   4.828
  352SOL    HW2 1956   3.567   0.401   4.816
  353SOL     OW 1957   2.736   6.799   0.702
  353SOL    HW1 1958   2.753   6.842   0.613
  353SOL    HW2 1959   2.691   6.864   0.763
  354SOL     OW 1960   3.063   2.595   6.970
  354SOL    HW1 1961   3.092   2.502   6.995
  354SOL    HW2 1962   3.085   2.612   6.874
  355SOL     OW 1963   0.021   2.927   2.620
  355SOL    HW1 1964   0.017   2.836   2.662
  355SOL    HW2 1965   6.955   2.943   2.567
  356SOL     OW 1966   3.965   5.785   5.318
  356SOL    HW1 1967   3.945   5.702   5.369
  356SOL    HW2 1968   4.026   5.844   5.372
  357SOL     OW 1969   6.313   6.676   5.231
  357SOL    HW1 1970   6.320   6.613   5.308
  357SOL    HW2 1971   6.288   6.767   5.264
  358SOL     OW 1972   5.614   0.212   1.967
  358SOL    HW1 1973   5.712   0.198   1.963
  358SOL    HW2 1974   5.567   0.125   1.979
  359SOL     OW 1975   1.592   2.054   2.321
  359SOL    HW1 1976   1.504   2.035   2.276
  359SOL    HW2 1977   1.666   2.013   2.268
  360SOL     OW 1978   1.262   5.697   6.688
  360SOL    HW1 1979   1.225   5.763   6.622
  360SOL    HW2 1980   1.198   5.621   6.698
  361SOL     OW 1981   5.450   5.923   3.194
  361SOL    HW1 1982   5.460   5.853   3.265
  361SOL    HW2 1983   5.489   5.889   3.108
  362SOL     OW 1984   3.840   3.941   1.385
  362SOL    HW1 1985   3.795   3.869   1.333
  362SOL    HW2 1986   3.887   4.003   1.322
  363SOL     OW 1987   4.828   4.327   3.587
  363SOL    HW1 1988   4.785   4.309   3.498
  363SOL    HW2 1989   4.829   4.243   3.641
  364SOL     OW 1990   6.635   5.607   6.129
  364SOL    HW1 1991   6.581   5.624   6.211
  364SOL    HW2 1992   6.577   5.614   6.048
  365SOL     OW 1993   5.058   5.117   2.111
  365SOL    HW1 1994   4.985   5.050   2.098
  365SOL    HW2 1995   5.143   5.068   2.135
  366SOL     OW 1996   6.353   0.682   6.995
  366SOL    HW1 1997   6.450   0.688   6.975
  366SOL    HW2 1998   6.340   0.641   0.068
  367SOL     OW 1999   5.019   3.069   1.135
  367SOL    HW1 2000   4.998   3.165   1.153
  367SOL    HW2 2001   4.988   3.045   1.043
  368SOL     OW 2002   0.409   3.238   4.914
  368SOL    HW1 2003   0.477   3.172   4.946
  368SOL    HW2 2004   0.455   3.323   4.889
  369SOL     OW 2005   0.032   4.983   1.491
  369SOL    HW1 2006   7.015   5.076   1.505
  369SOL    HW2 2007   0.124   4.975   1.530
  370SOL     OW 2008   3.117   1.377   5.143
  370SOL    HW1 2009   3.036   1.429   5.169
  370SOL    HW2 2010   3.175   1.364   5.223
  371SOL     OW 2011   2.457   3.505   6.659
  371SOL    HW1 2012   2.399   3.582   6.631
  371SOL    HW2 2013   2.401   3.423   6.670
  372SOL     OW 2014   0.147   0.212   5.440
  372SOL    HW1 2015   0.170   0.286   5.377
  372SOL    HW2 2016   0.169   0.124   5.398
  373SOL     OW 2017   6.162   6.119   5.325
  373SOL    HW1 2018   6.235   6.074   5.275
  373SOL    HW2 2019   6.074   6.100   5.281
  374SOL     OW 2020   3.237   0.591   2.030
  374SOL    HW1 2021   3.158   0.643   1.996
  374SOL    HW2 2022   3.244   0.603   2.129
  375SOL     OW 2023   0.753   4.699   3.577
  375SOL    HW1 2024   0.681   4.767   3.589
  375SOL    HW2 2025   0.839   4.746   3.556
  376SOL     OW 2026   1.943   2.878   4.504
  376SOL    HW1 2027   1.863   2.848   4.452
  376SOL    HW2 2028   1.917   2.955   4.563
  377SOL     OW 2029   6.777   2.812   2.194
  377SOL    HW1 2030   6.837   2.768   2.261
  377SOL    HW2 2031   6.695   2.847   2.241
  378SOL     OW 2032   3.596   2.913   5.531
  378SOL    HW1 2033   3.673   2.974   5.549
  378SOL    HW2 2034   3.591   2.843   5.603
  379SOL     OW 2035   6.461   4.223   2.153
  379SOL    HW1 2036   6.499   4.135   2.125
  379SOL    HW2 2037   6.394   4.254   2.085
  380SOL     OW 2038   2.573   1.168   1.999
  380SOL    HW1 2039   2.651   1.184   2.060
  380SOL    HW2 2040   2.595   1.203   1.907
  381SOL     OW 2041   1.852   4.539   1.948
  381SOL    HW1 2042   1.865   4.634   1.976
  381SOL    HW2 2043   1.854   4.480   2.029
  382SOL     OW 2044   5.354   6.318   6.120
  382SOL    HW1 2045   5.376   6.414   6.135
  382SOL    HW2 2046   5.256   6.309   6.099
  383SOL     OW 2047   5.692   3.011   6.040
  383SOL    HW1 2048   5.790   3.028   6.054
  383SOL    HW2 2049   5.641   3.096   6.051
  384SOL     OW 2050   6.668   4.232   4.373
  384SOL    HW1 2051   6.636   4.144   4.409
  384SOL    HW2 2052   6.691   4.293   4.449
  385SOL     OW 2053   4.153   6.214   6.525
  385SOL    HW1 2054   4.064   6.255   6.508
  385SOL    HW2 2055   4.159   6.183   6.620
  386SOL     OW 2056   3.366   6.827   5.059
  386SOL    HW1 2057   3.350   6.912   5.008
  386SOL    HW2 2058   3.279   6.778   5.071
  387SOL     OW 2059   6.789   6.409   3.351
  387SOL    HW1 2060   6.748   6.326   3.388
  387SOL    HW2 2061   6.883   6.391   3.322
  388SOL     OW 2062   0.750   2.684   3.583
  388SOL    HW1 2063   0.659   2.725   3.586
  388SOL    HW2 2064   0.770   2.640   3.671
  389SOL     OW 2065   4.166   4.175   1.710
  389SOL    HW1 2066   4.122   4.119   1.780
  389SOL    HW2 2067   4.253   4.211   1.745
  390SOL     OW 2068   3.594   1.356   0.249
  390SOL    HW1 2069   3.632   1.398   0.166
  390SOL    HW2 2070   3.529   1.284   0.223
  391SOL     OW 2071   2.387   3.980   5.434
  391SOL    HW1 2072   2.343   4.070   5.434
  391SOL    HW2 2073   2.433   3.966   5.346
  392SOL     OW 2074   1.808   3.640   1.975
  392SOL    HW1 2075   1.744   3.705   1.935
  392SOL    HW2 2076   1.858   3.683   2.050
  393SOL     OW 2077   1.253   5.409   0.258
  393SOL    HW1 2078   1.199   5.449   0.332
  393SOL    HW2 2079   1.225   5.448   0.171
  394SOL     OW 2080   1.237   2.770   0.018
  394SOL    HW1 2081   1.290   2.836   6.980
  394SOL    HW2 2082   1.141   2.797   0.018
  395SOL     OW 2083   5.280   4.204   2.683
  395SOL    HW1 2084   5.301   4.170   2.591
  395SOL    HW2 2085   5.248   4.128   2.740
  396SOL     OW 2086   2.501   2.457   2.038
  396SOL    HW1 2087   2.577   2.438   1.975
  396SOL    HW2 2088   2.512   2.402   2.120
  397SOL     OW 2089   5.652   1.813   6.727
  397SOL    HW1 2090   5.568   1.775   6.764
  397SOL    HW2 2091   5.725   1.744   6.732
  398SOL     OW 2092   1.866   6.065   3.628
  398SOL    HW1 2093   1.787   6.126   3.619
  398SOL    HW2 2094   1.943   6.115   3.666
  399SOL     OW 2095   5.679   6.171   4.387
  399SOL    HW1 2096   5.740   6.251   4.390
  399SOL    HW2 2097   5.603   6.185   4.449
  400SOL     OW 2098   6.097   6.372   5.426
  400SOL    HW1 2099   6.126   6.277   5.415
  400SOL    HW2 2100   6.039   6.399   5.349
  401SOL     OW 2101   5.658   0.352   6.072
  401SOL    HW1 2102   5.682   0.255   6.061
  401SOL    HW2 2103   5.559   0.361   6.083
  402SOL     OW 2104   6.162   0.032   3.041
  402SOL    HW1 2105   6.118   0.115   3.075
  402SOL    HW2 2106   6.253   0.053   3.006
  403SOL     OW 2107   3.736   0.190   5.954
  403SOL    HW1 2108   3.774   0.119   5.895
  403SOL    HW2 2109   3.676   0.148   6.022
  404SOL     OW 2110   1.954   5.334   5.691
  404SOL    HW1 2111   2.012   5.363   5.615
  404SOL    HW2 2112   2.012   5.307   5.768
  405SOL     OW 2113   1.897   3.910   3.406
  405SOL    HW1 2114   1.974   3.913   3.470
  405SOL    HW2 2115   1.838   3.990   3.421
  406SOL     OW 2116   0.549   4.548   4.825
  406SOL    HW1 2117   0.479   4.566   4.755
  406SOL    HW2 2118   0.560   4.450   4.837
  407SOL     OW 2119   2.042   2.669   4.254
  407SOL    HW1 2120   2.040   2.726   4.336
  407SOL    HW2 2121   2.110   2.597   4.265
  408SOL     OW 2122   3.304   1.914   3.150
  408SOL    HW1 2123   3.269   1.884   3.062
  408SOL    HW2 2124   3.345   2.005   3.141
  409SOL     OW 2125   0.055   3.757   1.961
  409SOL    HW1 2126   7.000   3.709   1.910
  409SOL    HW2 2127   0.014   3.805   2.039
  410SOL     OW 2128   1.354   1.849   0.977
  410SOL    HW1 2129   1.393   1.820   1.065
  410SOL    HW2 2130   1.272   1.903   0.995
  411SOL     OW 2131   6.344   1.135   1.953
  411SOL    HW1 2132   6.257   1.124   2.001
  411SOL    HW2 2133   6.341   1.217   1.896
  412SOL     OW 2134   3.409   4.856   2.750
  412SOL    HW1 2135   3.323   4.834   2.796
  412SOL    HW2 2136   3.402   4.832   2.653
  413SOL     OW 2137   4.469   4.437   1.522
  413SOL    HW1 2138   4.404   4.385   1.466
  413SOL    HW2 2139   4.424   4.467   1.606
  414SOL     OW 2140   3.628   0.388   3.996
  414SOL    HW1 2141   3.673   0.370   4.083
  414SOL    HW2 2142   3.626   0.304   3.942
  415SOL     OW 2143   0.339   1.345   6.901
  415SOL    HW1 2144   0.390   1.260   6.909
  415SOL    HW2 2145   0.262   1.331   6.838
  416SOL     OW 2146   4.898   5.061   4.583
  416SOL    HW1 2147   4.977   5.109   4.545
  416SOL    HW2 2148   4.815   5.091   4.536
  417SOL     OW 2149   2.288   1.343   6.407
  417SOL    HW1 2150   2.297   1.372   6.502
  417SOL    HW2 2151   2.197   1.304   6.393
  418SOL     OW 2152   2.513   6.733   5.722
  418SOL    HW1 2153   2.543   6.684   5.640
  418SOL    HW2 2154   2.532   6.831   5.712
  419SOL     OW 2155   0.306   6.787   3.483
  419SOL    HW1 2156   0.223   6.815   3.532
  419SOL    HW2 2157   0.342   6.865   3.433
  420SOL     OW 2158   5.723   1.305   6.324
  420SOL    HW1 2159   5.787   1.377   6.351
  420SOL    HW2 2160   5.766   1.248   6.253
  421SOL     OW 2161   5.872   3.496   4.982
  421SOL    HW1 2162   5.910   3.529   5.069
  421SOL    HW2 2163   5.843   3.575   4.927
  422SOL     OW 2164   5.551   2.727   0.468
  422SOL    HW1 2165   5.651   2.723   0.469
  422SOL    HW2 2166   5.515   2.674   0.545
  423SOL     OW 2167   2.626   1.323   6.913
  423SOL    HW1 2168   2.627   1.341   7.012
  423SOL    HW2 2169   2.646   1.408   6.864
  424SOL     OW 2170   2.183   5.018   2.773
  424SOL    HW1 2171   2.203   5.036   2.870
  424SOL    HW2 2172   2.256   5.057   2.717
  425SOL     OW 2173   5.029   0.956   4.569
  425SOL    HW1 2174   4.993   0.987   4.657
  425SOL    HW2 2175   5.026   0.856   4.564
  426SOL     OW 2176   2.137   2.832   5.056
  426SOL    HW1 2177   2.218   2.867   5.008
  426SOL    HW2 2178   2.078   2.785   4.991
  427SOL     OW 2179   5.579   0.724   4.069
  427SOL    HW1 2180   5.591   0.626   4.082
  427SOL    HW2 2181   5.507   0.740   4.002
  428SOL     OW 2182   2.933   0.428   3.429
  428SOL    HW1 2183   2.857   0.397   3.485
  428SOL    HW2 2184   3.008   0.458   3.489
  429SOL     OW 2185   0.634   5.051   4.522
  429SOL    HW1 2186   0.724   5.049   4.480
  429SOL    HW2 2187   0.570   4.998   4.466
  430SOL     OW 2188   1.365   6.895   3.754
  430SOL    HW1 2189   1.437   6.837   3.792
  430SOL    HW2 2190   1.371   6.986   3.794
  431SOL     OW 2191   2.235   2.280   0.838
  431SOL    HW1 2192   2.236   2.260   0.936
  431SOL    HW2 2193   2.287   2.363   0.820
  432SOL     OW 2194   6.143   1.926   0.825
  432SOL    HW1 2195   6.177   2.018   0.846
  432SOL    HW2 2196   6.063   1.933   0.766
  433SOL     OW 2197   2.995   6.133   5.721
  433SOL    HW1 2198   3.072   6.135   5.657
  433SOL    HW2 2199   3.030   6.140   5.815
  434SOL     OW 2200   4.146   5.147   4.446
  434SOL    HW1 2201   4.205   5.073   4.479
  434SOL    HW2 2202   4.098   5.188   4.524
  435SOL     OW 2203   4.205   1.505   5.398
  435SOL    HW1 2204   4.150   1.518   5.316
  435SOL    HW2 2205   4.302   1.507   5.373
  436SOL     OW 2206   3.447   5.843   2.492
  436SOL    HW1 2207   3.544   5.833   2.515
  436SOL    HW2 2208   3.425   5.939   2.480
  437SOL     OW 2209   0.221   1.123   5.214
  437SOL    HW1 2210   0.194   1.131   5.310
  437SOL    HW2 2211   0.319   1.103   5.208
  438SOL     OW 2212   1.705   4.149   3.306
  438SOL    HW1 2213   1.702   4.138   3.405
  438SOL    HW2 2214   1.626   4.204   3.277
  439SOL     OW 2215   5.976   0.311   2.295
  439SOL    HW1 2216   5.973   0.250   2.375
  439SOL    HW2 2217   6.071   0.330   2.272
  440SOL     OW 2218   3.413   1.110   6.549
  440SOL    HW1 2219   3.423   1.014   6.523
  440SOL    HW2 2220   3.316   1.132   6.556
  441SOL     OW 2221   5.801   4.344   3.181
  441SOL    HW1 2222   5.757   4.258   3.154
  441SOL    HW2 2223   5.851   4.382   3.103
  442SOL     OW 2224   4.658   4.420   5.734
  442SOL    HW1 2225   4.703   4.417   5.823
  442SOL    HW2 2226   4.602   4.338   5.721
  443SOL     OW 2227   5.155   4.887   3.857
  443SOL    HW1 2228   5.144   4.787   3.853
  443SOL    HW2 2229   5.210   4.911   3.937
  444SOL     OW 2230   4.108   1.375   5.979
  444SOL    HW1 2231   4.044   1.337   6.046
  444SOL    HW2 2232   4.131   1.469   6.006
  445SOL     OW 2233   2.569   6.029   3.104
  445SOL    HW1 2234   2.656   6.076   3.123
  445SOL    HW2 2235   2.563   6.010   3.006
  446SOL     OW 2236   4.040   5.545   3.153
  446SOL    HW1 2237   4.135   5.535   3.184
  446SOL    HW2 2238   4.022   5.479   3.080
  447SOL     OW 2239   6.409   3.051   5.334
  447SOL    HW1 2240   6.410   3.048   5.234
  447SOL    HW2 2241   6.327   3.006   5.368
  448SOL     OW 2242   2.241   1.301   2.716
  448SOL    HW1 2243   2.151   1.257   2.716
  448SOL    HW2 2244   2.240   1.376   2.649
  449SOL     OW 2245   2.586   2.416   3.421
  449SOL    HW1 2246   2.553   2.326   3.449
  449SOL    HW2 2247   2.652   2.405   3.347
  450SOL     OW 2248   1.269   4.675   3.351
  450SOL    HW1 2249   1.262   4.655   3.449
  450SOL    HW2 2250   1.352   4.728   3.334
  451SOL     OW 2251   0.792   3.117   3.834
  451SOL    HW1 2252   0.886   3.114   3.800
  451SOL    HW2 2253   0.763   3.213   3.844
  452SOL     OW 2254   3.544   0.443   1.492
  452SOL    HW1 2255   3.536   0.437   1.591
  452SOL    HW2 2256   3.455   0.464   1.452
  453SOL     OW 2257   3.886   0.438   6.675
  453SOL    HW1 2258   3.870   0.360   6.736
  453SOL    HW2 2259   3.971   0.483   6.701
  454SOL     OW 2260   6.814   4.048   6.374
  454SOL    HW1 2261   6.871   4.015   6.449
  454SOL    HW2 2262   6.740   3.982   6.357
  455SOL     OW 2263   6.085   3.257   5.294
  455SOL    HW1 2264   6.144   3.312   5.235
  455SOL    HW2 2265   5.993   3.253   5.255
  456SOL     OW 2266   1.528   0.736   4.217
  456SOL    HW1 2267   1.590   0.809   4.190
  456SOL    HW2 2268   1.535   0.660   4.152
  457SOL     OW 2269   0.792   5.230   5.085
  457SOL    HW1 2270   0.745   5.180   5.012
  457SOL    HW2 2271   0.774   5.185   5.172
  458SOL     OW 2272   3.066   1.012   2.916
  458SOL    HW1 2273   3.130   1.040   2.988
  458SOL    HW2 2274   3.055   0.913   2.918
  459SOL     OW 2275   1.967   0.703   5.601
  459SOL    HW1 2276   2.046   0.654   5.639
  459SOL    HW2 2277   1.958   0.791   5.647
  460SOL     OW 2278   1.334   1.687   5.359
  460SOL    HW1 2279   1.433   1.679   5.350
  460SOL    HW2 2280   1.311   1.779   5.389
  461SOL     OW 2281   6.457   4.822   5.646
  461SOL    HW1 2282   6.548   4.848   5.678
  461SOL    HW2 2283   6.456   4.725   5.624
  462SOL     OW 2284   4.011   3.765   4.511
  462SOL    HW1 2285   3.923   3.720   4.498
  462SOL    HW2 2286   4.052   3.734   4.597
  463SOL     OW 2287   6.462   6.791   3.223
  463SOL    HW1 2288   6.518   6.836   3.153
  463SOL    HW2 2289   6.506   6.705   3.250
  464SOL     OW 2290   3.195   0.153   6.286
  464SOL    HW1 2291   3.292   0.139   6.270
  464SOL    HW2 2292   3.162   0.228   6.229
  465SOL     OW 2293   0.937   2.579   0.087
  465SOL    HW1 2294   0.995   2.507   0.125
  465SOL    HW2 2295   0.849   2.580   0.135
  466SOL     OW 2296   2.814   6.525   4.294
  466SOL    HW1 2297   2.774   6.493   4.208
  466SOL    HW2 2298   2.914   6.516   4.289
  467SOL     OW 2299   0.587   1.809   2.445
  467SOL    HW1 2300   0.599   1.786   2.541
  467SOL    HW2 2301   0.615   1.904   2.429
  468SOL     OW 2302   4.673   6.671   6.083
  468SOL    HW1 2303   4.602   6.705   6.144
  468SOL    HW2 2304   4.733   6.747   6.056
  469SOL     OW 2305   3.014   4.143   5.936
  469SOL    HW1 2306   3.058   4.232   5.923
  469SOL    HW2 2307   2.952   4.147   6.014
  470SOL     OW 2308   3.481   6.013   2.797
  470SOL    HW1 2309   3.414   6.058   2.857
  470SOL    HW2 2310   3.493   5.918   2.827
  471SOL     OW 2311   2.596   2.559   3.895
  471SOL    HW1 2312   2.582   2.565   3.796
  471SOL    HW2 2313   2.648   2.639   3.926
  472SOL     OW 2314   6.289   4.685   6.914
  472SOL    HW1 2315   6.358   4.749   6.948
  472SOL    HW2 2316   6.323   4.640   6.832
  473SOL     OW 2317   0.179   2.666   2.497
  473SOL    HW1 2318   0.225   2.754   2.513
  473SOL    HW2 2319   0.135   2.636   2.581
  474SOL     OW 2320   6.064   5.032   5.381
  474SOL    HW1 2321   6.084   4.969   5.456
  474SOL    HW2 2322   6.111   5.002   5.298
  475SOL     OW 2323   5.898   3.246   6.991
  475SOL    HW1 2324   5.899   3.251   6.891
  475SOL    HW2 2325   5.910   3.152   0.004
  476SOL     OW 2326   0.271   4.172   1.970
  476SOL    HW1 2327   0.172   4.162   1.959
  476SOL    HW2 2328   0.299   4.263   1.942
  477SOL     OW 2329   2.108   5.774   3.537
  477SOL    HW1 2330   2.038   5.709   3.568
  477SOL    HW2 2331   2.197   5.748   3.576
  478SOL     OW 2332   4.192   5.675   2.890
  478SOL    HW1 2333   4.245   5.593   2.869
  478SOL    HW2 2334   4.094   5.651   2.889
  479SOL     OW 2335   3.610   3.117   4.573
  479SOL    HW1 2336   3.559   3.098   4.489
  479SOL    HW2 2337   3.701   3.077   4.567
  480SOL     OW 2338   1.809   0.098   2.251
  480SOL    HW1 2339   1.750   0.092   2.170
  480SOL    HW2 2340   1.753   0.098   2.333
  481SOL     OW 2341   0.850   6.471   1.252
  481SOL    HW1 2342   0.794   6.551   1.273
  481SOL    HW2 2343   0.914   6.455   1.328
  482SOL     OW 2344   4.819   4.967   2.737
  482SOL    HW1 2345   4.766   5.023   2.673
  482SOL    HW2 2346   4.763   4.944   2.816
  483SOL     OW 2347   6.406   2.690   2.789
  483SOL    HW1 2348   6.308   2.677   2.774
  483SOL    HW2 2349   6.454   2.603   2.779
  484SOL     OW 2350   1.655   4.275   4.899
  484SOL    HW1 2351   1.595   4.354   4.895
  484SOL    HW2 2352   1.749   4.305   4.912
  485SOL     OW 2353   5.357   3.595   2.447
  485SOL    HW1 2354   5.374   3.533   2.370
  485SOL    HW2 2355   5.259   3.613   2.454
  486SOL     OW 2356   5.554   0.355   6.450
  486SOL    HW1 2357   5.558   0.276   6.389
  486SOL    HW2 2358   5.631   0.352   6.514
  487SOL     OW 2359   0.030   0.423   3.411
  487SOL    HW1 2360   0.116   0.454   3.452
  487SOL    HW2 2361   0.043   0.411   3.313
  488SOL     OW 2362   1.850   6.659   3.179
  488SOL    HW1 2363   1.857   6.694   3.273
  488SOL    HW2 2364   1.775   6.705   3.133
  489SOL     OW 2365   6.142   5.523   4.862
  489SOL    HW1 2366   6.191   5.590   4.919
  489SOL    HW2 2367   6.150   5.433   4.904
  490SOL     OW 2368   1.198   5.635   5.053
  490SOL    HW1 2369   1.188   5.539   5.077
  490SOL    HW2 2370   1.159   5.692   5.125
  491SOL     OW 2371   0.532   3.729   0.552
  491SOL    HW1 2372   0.534   3.829   0.561
  491SOL    HW2 2373   0.606   3.689   0.606
  492SOL     OW 2374   1.484   1.330   5.617
  492SOL    HW1 2375   1.546   1.343   5.540
  492SOL    HW2 2376   1.525   1.369   5.700
  493SOL     OW 2377   2.359   6.945   5.926
  493SOL    HW1 2378   2.343   6.881   5.850
  493SOL    HW2 2379   2.371   6.894   6.011
  494SOL     OW 2380   2.329   1.170   5.812
  494SOL    HW1 2381   2.319   1.259   5.768
  494SOL    HW2 2382   2.307   1.098   5.747
  495SOL     OW 2383   4.453   6.336   5.626
  495SOL    HW1 2384   4.528   6.300   5.571
  495SOL    HW2 2385   4.446   6.435   5.611
  496SOL     OW 2386   6.282   1.122   2.911
  496SOL    HW1 2387   6.239   1.063   2.979
  496SOL    HW2 2388   6.227   1.122   2.827
  497SOL     OW 2389   3.978   1.502   5.203
  497SOL    HW1 2390   3.895   1.450   5.221
  497SOL    HW2 2391   3.957   1.577   5.141
  498SOL     OW 2392   0.277   4.956   1.608
  498SOL    HW1 2393   0.376   4.967   1.610
  498SOL    HW2 2394   0.243   4.943   1.701
  499SOL     OW 2395   2.612   5.422   5.693
  499SOL    HW1 2396   2.672   5.460   5.624
  499SOL    HW2 2397   2.618   5.322   5.691
  500SOL     OW 2398   5.092   2.953   6.090
  500SOL    HW1 2399   5.184   2.958   6.129
  500SOL    HW2 2400   5.065   3.044   6.058
  501SOL     OW 2401   2.157   6.811   2.626
  501SOL    HW1 2402   2.065   6.829   2.591
  501SOL    HW2 2403   2.163   6.840   2.721
  502SOL     OW 2404   1.372   4.685   6.447
  502SOL    HW1 2405   1.322   4.623   6.387
  502SOL    HW2 2406   1.470   4.679   6.427
  503SOL     OW 2407   2.392   5.358   6.261
  503SOL    HW1 2408   2.443   5.444   6.272
  503SOL    HW2 2409   2.295   5.374   6.280
  504SOL     OW 2410   0.125   5.494   2.667
  504SOL    HW1 2411   0.099   5.588   2.644
  504SOL    HW2 2412   0.147   5.488   2.764
  505SOL     OW 2413   4.081   6.927   5.034
  505SOL    HW1 2414   4.090   6.843   4.980
  505SOL    HW2 2415   4.089   7.006   4.973
  506SOL     OW 2416   2.898   5.066   2.468
  506SOL    HW1 2417   2.886   4.973   2.433
  506SOL    HW2 2418   2.875   5.069   2.565
  507SOL     OW 2419   4.161   1.312   2.114
  507SOL    HW1 2420   4.176   1.394   2.060
  507SOL    HW2 2421   4.109   1.334   2.197
  508SOL     OW 2422   6.984   2.538   3.536
  508SOL    HW1 2423   6.912   2.589   3.583
  508SOL    HW2 2424   6.955   2.443   3.522
  509SOL     OW 2425   4.451   0.848   0.046
  509SOL    HW1 2426   4.528   0.902   0.013
  509SOL    HW2 2427   4.463   0.752   0.019
  510SOL     OW 2428   0.032   4.834   5.632
  510SOL    HW1 2429   0.113   4.780   5.610
  510SOL    HW2 2430   0.014   4.829   5.730
  511SOL     OW 2431   1.530   2.016   6.228
  511SOL    HW1 2432   1.585   1.945   6.273
  511SOL    HW2 2433   1.450   2.037   6.285
  512SOL     OW 2434   5.906   2.185   6.985
  512SOL    HW1 2435   5.862   2.097   6.964
  512SOL    HW2 2436   5.894   2.246   6.907
  513SOL     OW 2437   6.040   6.600   2.676
  513SOL    HW1 2438   6.060   6.525   2.612
  513SOL    HW2 2439   5.996   6.675   2.627
  514SOL     OW 2440   0.414   6.587   3.941
  514SOL    HW1 2441   0.486   6.519   3.923
  514SOL    HW2 2442   0.358   6.597   3.859
  515SOL     OW 2443   2.515   0.522   6.114
  515SOL    HW1 2444   2.516   0.585   6.192
  515SOL    HW2 2445   2.554   0.434   6.143
  516SOL     OW 2446   2.506   4.081   1.758
  516SOL    HW1 2447   2.558   4.162   1.732
  516SOL    HW2 2448   2.444   4.105   1.833
  517SOL     OW 2449   3.717   4.844   2.326
  517SOL    HW1 2450   3.664   4.917   2.368
  517SOL    HW2 2451   3.669   4.812   2.244
  518SOL     OW 2452   2.298   2.831   3.825
  518SOL    HW1 2453   2.343   2.811   3.912
  518SOL    HW2 2454   2.296   2.748   3.769
  519SOL     OW 2455   6.940   6.809   3.958
  519SOL    HW1 2456   7.009   6.738   3.970
  519SOL    HW2 2457   6.898   6.830   4.046
  520SOL     OW 2458   0.676   3.874   6.842
  520SOL    HW1 2459   0.692   3.859   6.745
  520SOL    HW2 2460   0.577   3.883   6.859
  521SOL     OW 2461   4.660   5.946   4.244
  521SOL    HW1 2462   4.733   5.974   4.306
  521SOL    HW2 2463   4.591   6.017   4.238
  522SOL     OW 2464   4.051   3.709   1.533
  522SOL    HW1 2465   4.085   3.795   1.496
  522SOL    HW2 2466   3.993   3.727   1.613
  523SOL     OW 2467   0.300   6.351   1.661
  523SOL    HW1 2468   0.395   6.354   1.629
  523SOL    HW2 2469   0.277   6.437   1.707
  524SOL     OW 2470   0.832   3.296   2.269
  524SOL    HW1 2471   0.915   3.248   2.240
  524SOL    HW2 2472   0.857   3.382   2.313
  525SOL     OW 2473   1.667   3.555   6.871
  525SOL    HW1 2474   1.573   3.585   6.888
  525SOL    HW2 2475   1.668   3.459   6.846
  526SOL     OW 2476   2.800   6.918   4.156
  526SOL    HW1 2477   2.775   6.830   4.116
  526SOL    HW2 2478   2.817   6.985   4.084
  527SOL     OW 2479   0.683   2.617   0.181
  527SOL    HW1 2480   0.625   2.625   0.262
  527SOL    HW2 2481   0.640   2.553   0.116
  528SOL     OW 2482   0.834   3.409   3.880
  528SOL    HW1 2483   0.888   3.413   3.795
  528SOL    HW2 2484   0.895   3.421   3.958
  529SOL     OW 2485   2.105   0.316   5.552
  529SOL    HW1 2486   2.190   0.354   5.589
  529SOL    HW2 2487   2.118   0.294   5.456
  530SOL     OW 2488   3.835   2.910   2.159
  530SOL    HW1 2489   3.829   2.933   2.256
  530SOL    HW2 2490   3.901   2.837   2.146
  531SOL     OW 2491   1.857   0.793   2.647
  531SOL    HW1 2492   1.912   0.712   2.668
  531SOL    HW2 2493   1.846   0.849   2.729
  532SOL     OW 2494   1.160   3.678   0.545
  532SOL    HW1 2495   1.234   3.658   0.609
  532SOL    HW2 2496   1.153   3.777   0.531
  533SOL     OW 2497   5.270   6.976   3.761
  533SOL    HW1 2498   5.231   7.014   3.677
  533SOL    HW2 2499   5.200   6.977   3.833
  534SOL     OW 2500   6.964   5.981   1.720
  534SOL    HW1 2501   7.002   5.923   1.792
  534SOL    HW2 2502   0.019   6.007   1.655
  535SOL     OW 2503   6.599   4.387   3.161
  535SOL    HW1 2504   6.603   4.459   3.230
  535SOL    HW2 2505   6.663   4.314   3.185
  536SOL     OW 2506   5.961   5.586   3.053
  536SOL    HW1 2507   5.892   5.657   3.037
  536SOL    HW2 2508   6.043   5.628   3.091
  537SOL     OW 2509   3.493   6.854   4.238
  537SOL    HW1 2510   3.412   6.826   4.288
  537SOL    HW2 2511   3.541   6.774   4.203
  538SOL     OW 2512   1.001   5.057   4.963
  538SOL    HW1 2513   0.939   5.110   5.020
  538SOL    HW2 2514   0.951   4.983   4.918
  539SOL     OW 2515   1.724   5.909   2.221
  539SOL    HW1 2516   1.797   5.850   2.186
  539SOL    HW2 2517   1.648   5.853   2.255
  540SOL     OW 2518   2.031   1.296   4.218
  540SOL    HW1 2519   2.105   1.347   4.262
  540SOL    HW2 2520   2.012   1.336   4.128
  541SOL     OW 2521   4.626   5.961   3.629
  541SOL    HW1 2522   4.598   5.906   3.708
  541SOL    HW2 2523   4.546   5.984   3.574
  542SOL     OW 2524   3.340   6.585   6.530
  542SOL    HW1 2525   3.387   6.509   6.486
  542SOL    HW2 2526   3.241   6.570   6.524
  543SOL     OW 2527   5.341   3.320   3.578
  543SOL    HW1 2528   5.258   3.303   3.630
  543SOL    HW2 2529   5.418   3.273   3.621
  544SOL     OW 2530   0.340   5.012   0.386
  544SOL    HW1 2531   0.323   5.094   0.441
  544SOL    HW2 2532   0.309   5.027   0.292
  545SOL     OW 2533   4.352   1.379   1.154
  545SOL    HW1 2534   4.341   1.332   1.067
  545SOL    HW2 2535   4.361   1.477   1.139
  546SOL     OW 2536   0.988   4.081   1.852
  546SOL    HW1 2537   0.953   4.162   1.805
  546SOL    HW2 2538   0.951   3.999   1.808
  547SOL     OW 2539   3.061   2.664   0.939
  547SOL    HW1 2540   2.972   2.708   0.931
  547SOL    HW2 2541   3.081   2.613   0.855
  548SOL     OW 2542   3.409   3.416   1.198
  548SOL    HW1 2543   3.488   3.408   1.258
  548SOL    HW2 2544   3.430   3.376   1.109
  549SOL     OW 2545   5.481   2.700   1.757
  549SOL    HW1 2546   5.565   2.748   1.785
  549SOL    HW2 2547   5.460   2.628   1.823
  550SOL     OW 2548   0.456   5.309   3.342
  550SOL    HW1 2549   0.534   5.349   3.295
  550SOL    HW2 2550   0.372   5.329   3.291
  551SOL     OW 2551   0.001   0.375   1.247
  551SOL    HW1 2552   6.981   0.439   1.180
  551SOL    HW2 2553   0.098   0.393   1.260
  552SOL     OW 2554   5.255   4.730   4.729
  552SOL    HW1 2555   5.184   4.748   4.661
  552SOL    HW2 2556   5.307   4.813   4.746
  553SOL     OW 2557   3.417   6.832   3.860
  553SOL    HW1 2558   3.515   6.811   3.867
  553SOL    HW2 2559   3.375   6.771   3.792
  554SOL     OW 2560   5.752   5.951   0.177
  554SOL    HW1 2561   5.834   5.930   0.230
  554SOL    HW2 2562   5.779   5.986   0.087
  555SOL     OW 2563   2.814   5.118   5.269
  555SOL    HW1 2564   2.775   5.201   5.309
  555SOL    HW2 2565   2.765   5.095   5.185
  556SOL     OW 2566   5.446   1.252   4.365
  556SOL    HW1 2567   5.402   1.209   4.444
  556SOL    HW2 2568   5.544   1.257   4.380
  557SOL     OW 2569   0.291   4.986   6.207
  557SOL    HW1 2570   0.367   4.932   6.243
  557SOL    HW2 2571   0.212   4.977   6.268
  558SOL     OW 2572   3.987   3.062   4.362
  558SOL    HW1 2573   4.064   3.119   4.334
  558SOL    HW2 2574   3.941   3.026   4.280
  559SOL     OW 2575   6.680   5.733   5.826
  559SOL    HW1 2576   6.739   5.807   5.859
  559SOL    HW2 2577   6.587   5.768   5.812
  560SOL     OW 2578   6.469   3.736   2.868
  560SOL    HW1 2579   6.495   3.753   2.773
  560SOL    HW2 2580   6.477   3.639   2.888
  561SOL     OW 2581   0.221   2.414   0.029
  561SOL    HW1 2582   0.175   2.359   0.099
  561SOL    HW2 2583   0.276   2.355   6.988
  562SOL     OW 2584   4.329   0.874   5.945
  562SOL    HW1 2585   4.308   0.910   6.036
  562SOL    HW2 2586   4.344   0.776   5.950
  563SOL     OW 2587   2.501   1.576   3.218
  563SOL    HW1 2588   2.505   1.478   3.200
  563SOL    HW2 2589   2.425   1.595   3.281
  564SOL     OW 2590   0.718   2.315   6.969
  564SOL    HW1 2591   0.637   2.361   6.930
  564SOL    HW2 2592   0.792   2.381   6.979
  565SOL     OW 2593   2.898   3.677   3.247
  565SOL    HW1 2594   2.896   3.578   3.229
  565SOL    HW2 2595   2.887   3.693   3.345
  566SOL     OW 2596   1.855   3.633   3.603
  566SOL    HW1 2597   1.950   3.607   3.622
  566SOL    HW2 2598   1.851   3.731   3.583
  567SOL     OW 2599   3.184   2.927   0.869
  567SOL    HW1 2600   3.151   2.838   0.901
  567SOL    HW2 2601   3.153   2.943   0.775
  568SOL     OW 2602   5.461   6.832   0.230
  568SOL    HW1 2603   5.403   6.756   0.199
  568SOL    HW2 2604   5.514   6.866   0.152
  569SOL     OW 2605   0.944   2.920   0.918
  569SOL    HW1 2606   0.965   2.825   0.894
  569SOL    HW2 2607   1.027   2.963   0.954
  570SOL     OW 2608   3.411   0.513   6.626
  570SOL    HW1 2609   3.421   0.492   6.723
  570SOL    HW2 2610   3.355   0.595   6.615
  571SOL     OW 2611   2.617   4.729   3.923
  571SOL    HW1 2612   2.700   4.720   3.868
  571SOL    HW2 2613   2.643   4.740   4.020
  572SOL     OW 2614   1.868   4.965   5.337
  572SOL    HW1 2615   1.787   4.934   5.387
  572SOL    HW2 2616   1.849   4.966   5.239
  573SOL     OW 2617   6.597   1.010   5.898
  573SOL    HW1 2618   6.499   1.003   5.915
  573SOL    HW2 2619   6.615   1.089   5.839
  574SOL     OW 2620   3.776   0.167   5.223
  574SOL    HW1 2621   3.748   0.224   5.300
  574SOL    HW2 2622   3.781   0.071   5.252
  575SOL     OW 2623   4.018   2.597   1.455
  575SOL    HW1 2624   3.935   2.652   1.448
  575SOL    HW2 2625   4.054   2.603   1.548
  576SOL     OW 2626   1.259   3.155   2.788
  576SOL    HW1 2627   1.277   3.057   2.778
  576SOL    HW2 2628   1.342   3.206   2.765
  577SOL     OW 2629   1.688   0.792   2.038
  577SOL    HW1 2630   1.621   0.739   1.987
  577SOL    HW2 2631   1.718   0.870   1.983
  578SOL     OW 2632   0.892   5.102   5.417
  578SOL    HW1 2633   0.985   5.074   5.394
  578SOL    HW2 2634   0.852   5.035   5.479
  579SOL     OW 2635   1.446   4.663   3.091
  579SOL    HW1 2636   1.357   4.701   3.064
  579SOL    HW2 2637   1.467   4.584   3.033
  580SOL     OW 2638   3.800   4.872   5.421
  580SOL    HW1 2639   3.714   4.839   5.381
  580SOL    HW2 2640   3.833   4.949   5.366
  581SOL     OW 2641   1.691   2.983   3.487
  581SOL    HW1 2642   1.626   3.028   3.549
  581SOL    HW2 2643   1.642   2.919   3.428
  582SOL     OW 2644   4.325   5.794   3.143
  582SOL    HW1 2645   4.352   5.720   3.204
  582SOL    HW2 2646   4.270   5.757   3.068
  583SOL     OW 2647   2.879   5.891   5.819
  583SOL    HW1 2648   2.917   5.973   5.776
  583SOL    HW2 2649   2.946   5.817   5.816
  584SOL     OW 2650   3.190   0.143   6.841
  584SOL    HW1 2651   3.175   0.064   6.781
  584SOL    HW2 2652   3.153   0.225   6.798
  585SOL     OW 2653   4.602   1.569   0.776
  585SOL    HW1 2654   4.678   1.526   0.825
  585SOL    HW2 2655   4.572   1.510   0.702
  586SOL     OW 2656   3.756   0.416   0.851
  586SOL    HW1 2657   3.664   0.391   0.821
  586SOL    HW2 2658   3.755   0.434   0.949
  587SOL     OW 2659   4.939   2.582   2.633
  587SOL    HW1 2660   4.995   2.571   2.551
  587SOL    HW2 2661   4.943   2.499   2.688
  588SOL     OW 2662   1.916   5.271   0.857
  588SOL    HW1 2663   2.014   5.251   0.862
  588SOL    HW2 2664   1.869   5.224   0.932
  589SOL     OW 2665   3.772   5.760   1.301
  589SOL    HW1 2666   3.845   5.818   1.265
  589SOL    HW2 2667   3.746   5.790   1.392
  590SOL     OW 2668   5.583   1.534   1.242
  590SOL    HW1 2669   5.647   1.608   1.220
  590SOL    HW2 2670   5.625   1.471   1.307
  591SOL     OW 2671   3.773   6.549   3.950
  591SOL    HW1 2672   3.867   6.516   3.962
  591SOL    HW2 2673   3.775   6.644   3.919
  592SOL     OW 2674   4.520   0.577   2.534
  592SOL    HW1 2675   4.521   0.656   2.473
  592SOL    HW2 2676   4.611   0.535   2.536
  593SOL     OW 2677   4.689   1.681   4.298
  593SOL    HW1 2678   4.773   1.669   4.351
  593SOL    HW2 2679   4.696   1.627   4.214
  594SOL     OW 2680   6.506   0.574   1.017
  594SOL    HW1 2681   6.533   0.649   0.956
  594SOL    HW2 2682   6.446   0.511   0.969
  595SOL     OW 2683   5.811   6.734   3.685
  595SOL    HW1 2684   5.829   6.703   3.592
  595SOL    HW2 2685   5.813   6.834   3.687
  596SOL     OW 2686   0.616   5.022   3.060
  596SOL    HW1 2687   0.704   5.000   3.101
  596SOL    HW2 2688   0.548   5.034   3.132
  597SOL     OW 2689   2.669   6.199   6.610
  597SOL    HW1 2690   2.672   6.182   6.512
  597SOL    HW2 2691   2.679   6.297   6.627
  598SOL     OW 2692   3.806   4.053   4.237
  598SOL    HW1 2693   3.714   4.091   4.225
  598SOL    HW2 2694   3.858   4.065   4.152
  599SOL     OW 2695   2.354   5.547   3.167
  599SOL    HW1 2696   2.379   5.472   3.229
  599SOL    HW2 2697   2.282   5.603   3.209
  600SOL     OW 2698   6.419   2.899   6.044
  600SOL    HW1 2699   6.428   2.896   5.945
  600SOL    HW2 2700   6.500   2.858   6.086
  601SOL     OW 2701   1.318   1.534   4.290
  601SOL    HW1 2702   1.277   1.443   4.302
  601SOL    HW2 2703   1.251   1.595   4.245
  602SOL     OW 2704   2.365   0.811   6.084
  602SOL    HW1 2705   2.328   0.776   6.170
  602SOL    HW2 2706   2.412   0.897   6.100
  603SOL     OW 2707   2.559   2.362   5.312
  603SOL    HW1 2708   2.609   2.441   5.346
  603SOL    HW2 2709   2.490   2.335   5.379
  604SOL     OW 2710   1.375   1.796   1.521
  604SOL    HW1 2711   1.360   1.879   1.468
  604SOL    HW2 2712   1.329   1.719   1.476
  605SOL     OW 2713   6.687   5.095   1.640
  605SOL    HW1 2714   6.625   5.165   1.675
  605SOL    HW2 2715   6.633   5.018   1.605
  606SOL     OW 2716   4.611   6.498   4.930
  606SOL    HW1 2717   4.652   6.578   4.973
  606SOL    HW2 2718   4.528   6.473   4.980
  607SOL     OW 2719   6.670   4.953   5.245
  607SOL    HW1 2720   6.619   4.873   5.277
  607SOL    HW2 2721   6.767   4.941   5.265
  608SOL     OW 2722   3.677   6.372   6.798
  608SOL    HW1 2723   3.678   6.472   6.807
  608SOL    HW2 2724   3.591   6.336   6.833
  609SOL     OW 2725   3.948   3.140   1.983
  609SOL    HW1 2726   3.903   3.066   2.032
  609SOL    HW2 2727   3.981   3.208   2.048
  610SOL     OW 2728   5.626   2.859   6.895
  610SOL    HW1 2729   5.527   2.869   6.885
  610SOL    HW2 2730   5.645   2.786   6.961
  611SOL     OW 2731   4.188   0.195   1.546
  611SOL    HW1 2732   4.162   0.197   1.642
  611SOL    HW2 2733   4.185   0.287   1.508
  612SOL     OW 2734   3.026   5.917   4.614
  612SOL    HW1 2735   3.037   5.913   4.713
  612SOL    HW2 2736   2.929   5.912   4.590
  613SOL     OW 2737   5.205   4.080   5.121
  613SOL    HW1 2738   5.280   4.143   5.140
  613SOL    HW2 2739   5.233   4.014   5.052
  614SOL     OW 2740   5.128   5.108   5.139
  614SOL    HW1 2741   5.055   5.130   5.073
  614SOL    HW2 2742   5.087   5.076   5.224
  615SOL     OW 2743   6.729   2.429   1.240
  615SOL    HW1 2744   6.682   2.514   1.263
  615SOL    HW2 2745   6.826   2.436   1.265
  616SOL     OW 2746   6.255   2.129   2.801
  616SOL    HW1 2747   6.247   2.034   2.832
  616SOL    HW2 2748   6.249   2.191   2.879
  617SOL     OW 2749   0.738   4.664   5.733
  617SOL    HW1 2750   0.764   4.742   5.790
  617SOL    HW2 2751   0.643   4.640   5.752
  618SOL     OW 2752   1.449   2.565   0.583
  618SOL    HW1 2753   1.522   2.633   0.579
  618SOL    HW2 2754   1.448   2.522   0.674
  619SOL     OW 2755   2.760   1.766   1.057
  619SOL    HW1 2756   2.802   1.726   1.138
  619SOL    HW2 2757   2.662   1.780   1.074
  620SOL     OW 2758   4.755   2.341   6.971
  620SOL    HW1 2759   4.696   2.422   6.966
  620SOL    HW2 2760   4.716   2.267   6.916
  621SOL     OW 2761   3.443   5.097   6.747
  621SOL    HW1 2762   3.438   5.135   6.839
  621SOL    HW2 2763   3.537   5.105   6.713
  622SOL     OW 2764   1.040   0.837   6.487
  622SOL    HW1 2765   1.040   0.911   6.421
  622SOL    HW2 2766   0.955   0.785   6.479
  623SOL     OW 2767   0.854   6.356   5.929
  623SOL    HW1 2768   0.786   6.310   5.986
  623SOL    HW2 2769   0.808   6.425   5.873
  624SOL     OW 2770   0.760   2.689   1.344
  624SOL    HW1 2771   0.816   2.755   1.293
  624SOL    HW2 2772   0.776   2.597   1.308
  625SOL     OW 2773   2.430   2.565   1.161
  625SOL    HW1 2774   2.395   2.655   1.133
  625SOL    HW2 2775   2.519   2.549   1.118
  626SOL     OW 2776   2.719   5.723   3.855
  626SOL    HW1 2777   2.748   5.671   3.775
  626SOL    HW2 2778   2.655   5.795   3.828
  627SOL     OW 2779   5.430   0.739   0.902
  627SOL    HW1 2780   5.335   0.757   0.927
  627SOL    HW2 2781   5.490   0.774   0.974
  628SOL     OW 2782   5.339   4.955   5.529
  628SOL    HW1 2783   5.249   4.962   5.573
  628SOL    HW2 2784   5.347   5.027   5.459
  629SOL     OW 2785   6.996   6.446   1.098
  629SOL    HW1 2786   6.949   6.468   1.012
  629SOL    HW2 2787   6.989   6.523   1.160
  630SOL     OW 2788   5.628   2.012   2.915
  630SOL    HW1 2789   5.654   2.108   2.906
  630SOL    HW2 2790   5.706   1.959   2.949
  631SOL     OW 2791   3.567   6.689   5.211
  631SOL    HW1 2792   3.570   6.620   5.139
  631SOL    HW2 2793   3.493   6.754   5.190
  632SOL     OW 2794   2.756   1.828   0.637
  632SOL    HW1 2795   2.730   1.773   0.558
  632SOL    HW2 2796   2.855   1.823   0.651
  633SOL     OW 2797   3.725   5.282   0.134
  633SOL    HW1 2798   3.733   5.243   0.226
  633SOL    HW2 2799   3.728   5.382   0.140
  634SOL     OW 2800   4.713   4.489   1.853
  634SOL    HW1 2801   4.808   4.490   1.882
  634SOL    HW2 2802   4.684   4.394   1.840
  635SOL     OW 2803   4.362   6.089   2.857
  635SOL    HW1 2804   4.455   6.118   2.836
  635SOL    HW2 2805   4.348   6.091   2.956
  636SOL     OW 2806   5.053   6.369   6.403
  636SOL    HW1 2807   5.112   6.429   6.457
  636SOL    HW2 2808   4.980   6.423   6.361
  637SOL     OW 2809   5.815   4.173   1.713
  637SOL    HW1 2810   5.792   4.270   1.713
  637SOL    HW2 2811   5.913   4.161   1.698
  638SOL     OW 2812   4.986   1.288   2.019
  638SOL    HW1 2813   4.986   1.273   2.118
  638SOL    HW2 2814   4.957   1.381   1.999
  639SOL     OW 2815   4.995   4.063   2.444
  639SOL    HW1 2816   4.947   4.142   2.407
  639SOL    HW2 2817   5.093   4.071   2.424
  640SOL     OW 2818   1.651   4.790   5.283
  640SOL    HW1 2819   1.604   4.853   5.221
  640SOL    HW2 2820   1.597   4.777   5.365
  641SOL     OW 2821   0.155   5.369   4.754
  641SOL    HW1 2822   0.195   5.279   4.773
  641SOL    HW2 2823   0.214   5.419   4.691
  642SOL     OW 2824   6.732   3.922   4.050
  642SOL    HW1 2825   6.736   3.988   3.974
  642SOL    HW2 2826   6.658   3.857   4.034
  643SOL     OW 2827   6.026   4.475   5.200
  643SOL    HW1 2828   6.042   4.534   5.278
  643SOL    HW2 2829   6.003   4.383   5.232
  644SOL     OW 2830   1.318   5.794   3.131
  644SOL    HW1 2831   1.356   5.881   3.099
  644SOL    HW2 2832   1.391   5.727   3.142
  645SOL     OW 2833   4.968   2.283   4.434
  645SOL    HW1 2834   4.932   2.190   4.433
  645SOL    HW2 2835   5.046   2.289   4.371
  646SOL     OW 2836   2.665   1.770   3.210
  646SOL    HW1 2837   2.596   1.703   3.237
  646SOL    HW2 2838   2.752   1.724   3.195
  647SOL     OW 2839   5.771   2.512   5.881
  647SOL    HW1 2840   5.690   2.517   5.824
  647SOL    HW2 2841   5.763   2.577   5.957
  648SOL     OW 2842   0.080   3.888   3.007
  648SOL    HW1 2843   0.019   3.940   2.948
  648SOL    HW2 2844   0.070   3.919   3.102
  649SOL     OW 2845   4.246   4.073   0.337
  649SOL    HW1 2846   4.259   3.977   0.312
  649SOL    HW2 2847   4.318   4.101   0.401
  650SOL     OW 2848   5.265   4.215   0.941
  650SOL    HW1 2849   5.336   4.197   0.873
  650SOL    HW2 2850   5.280   4.157   1.021
  651SOL     OW 2851   0.282   6.882   7.001
  651SOL    HW1 2852   0.206   6.818   6.991
  651SOL    HW2 2853   0.338   6.854   0.062
  652SOL     OW 2854   5.194   6.049   3.761
  652SOL    HW1 2855   5.266   6.097   3.812
  652SOL    HW2 2856   5.187   5.955   3.794
  653SOL     OW 2857   3.443   5.517   5.377
  653SOL    HW1 2858   3.521   5.578   5.360
  653SOL    HW2 2859   3.466   5.454   5.451
  654SOL     OW 2860   0.492   4.561   5.807
  654SOL    HW1 2861   0.427   4.573   5.882
  654SOL    HW2 2862   0.515   4.464   5.798
  655SOL     OW 2863   0.539   6.744   2.301
  655SOL    HW1 2864   0.579   6.831   2.270
  655SOL    HW2 2865   0.517   6.688   2.221
  656SOL     OW 2866   1.806   5.829   1.298
  656SOL    HW1 2867   1.852   5.877   1.373
  656SOL    HW2 2868   1.836   5.733   1.298
  657SOL     OW 2869   2.308   2.196   1.466
  657SOL    HW1 2870   2.251   2.147   1.401
  657SOL    HW2 2871   2.364   2.130   1.516
  658SOL     OW 2872   3.209   3.657   6.290
  658SOL    HW1 2873   3.140   3.600   6.246
  658SOL    HW2 2874   3.282   3.599   6.326
  659SOL     OW 2875   3.005   6.528   6.571
  659SOL    HW1 2876   2.998   6.627   6.565
  659SOL    HW2 2877   2.979   6.487   6.483
  660SOL     OW 2878   5.006   4.488   1.883
  660SOL    HW1 2879   5.090   4.472   1.936
  660SOL    HW2 2880   5.010   4.436   1.798
  661SOL     OW 2881   4.670   6.251   3.735
  661SOL    HW1 2882   4.618   6.179   3.690
  661SOL    HW2 2883   4.612   6.332   3.745
  662SOL     OW 2884   3.937   0.614   5.258
  662SOL    HW1 2885   3.954   0.602   5.160
  662SOL    HW2 2886   3.840   0.602   5.277
  663SOL     OW 2887   2.496   3.420   6.068
  663SOL    HW1 2888   2.404   3.383   6.055
  663SOL    HW2 2889   2.542   3.426   5.979
  664SOL     OW 2890   0.440   6.303   6.525
  664SOL    HW1 2891   0.385   6.371   6.573
  664SOL    HW2 2892   0.379   6.243   6.472
  665SOL     OW 2893   4.358   5.622   1.919
  665SOL    HW1 2894   4.428   5.611   1.990
  665SOL    HW2 2895   4.313   5.534   1.903
  666SOL     OW 2896   5.179   0.991   1.972
  666SOL    HW1 2897   5.189   0.965   1.876
  666SOL    HW2 2898   5.247   1.060   1.996
  667SOL     OW 2899   1.155   5.243   2.709
  667SOL    HW1 2900   1.100   5.160   2.720
  667SOL    HW2 2901   1.247   5.226   2.746
  668SOL     OW 2902   4.754   6.469   6.261
  668SOL    HW1 2903   4.790   6.391   6.209
  668SOL    HW2 2904   4.771   6.553   6.210
  669SOL     OW 2905   5.129   0.518   3.165
  669SOL    HW1 2906   5.185   0.599   3.182
  669SOL    HW2 2907   5.039   0.530   3.207
  670SOL     OW 2908   3.022   2.131   1.902
  670SOL    HW1 2909   2.972   2.202   1.950
  670SOL    HW2 2910   3.047   2.058   1.966
  671SOL     OW 2911   3.328   6.261   1.042
  671SOL    HW1 2912   3.318   6.162   1.057
  671SOL    HW2 2913   3.287   6.284   0.954
  672SOL     OW 2914   6.373   5.463   2.092
  672SOL    HW1 2915   6.375   5.534   2.162
  672SOL    HW2 2916   6.466   5.428   2.077
  673SOL     OW 2917   6.432   6.762   0.927
  673SOL    HW1 2918   6.333   6.765   0.912
  673SOL    HW2 2919   6.464   6.852   0.956
  674SOL     OW 2920   0.447   1.577   4.663
  674SOL    HW1 2921   0.440   1.513   4.587
  674SOL    HW2 2922   0.371   1.562   4.726
  675SOL     OW 2923   5.850   2.102   2.713
  675SOL    HW1 2924   5.828   2.174   2.779
  675SOL    HW2 2925   5.836   2.138   2.620
  676SOL     OW 2926   2.872   5.510   3.707
  676SOL    HW1 2927   2.869   5.422   3.659
  676SOL    HW2 2928   2.886   5.495   3.804
  677SOL     OW 2929   5.082   1.277   0.587
  677SOL    HW1 2930   5.130   1.271   0.500
  677SOL    HW2 2931   4.990   1.239   0.578
  678SOL     OW 2932   2.815   6.089   5.074
  678SOL    HW1 2933   2.784   6.155   5.006
  678SOL    HW2 2934   2.741   6.025   5.096
  679SOL     OW 2935   4.906   1.847   3.975
  679SOL    HW1 2936   4.999   1.873   4.003
  679SOL    HW2 2937   4.847   1.927   3.980
  680SOL     OW 2938   4.957   5.825   4.755
  680SOL    HW1 2939   5.042   5.878   4.749
  680SOL    HW2 2940   4.895   5.870   4.819
  681SOL     OW 2941   4.715   5.787   1.694
  681SOL    HW1 2942   4.638   5.814   1.752
  681SOL    HW2 2943   4.682   5.731   1.618
  682SOL     OW 2944   5.923   1.162   1.784
  682SOL    HW1 2945   5.999   1.125   1.731
  682SOL    HW2 2946   5.838   1.152   1.731
  683SOL     OW 2947   4.312   2.576   0.425
  683SOL    HW1 2948   4.309   2.504   0.356
  683SOL    HW2 2949   4.222   2.620   0.431
  684SOL     OW 2950   6.476   0.986   0.693
  684SOL    HW1 2951   6.533   1.063   0.663
  684SOL    HW2 2952   6.446   0.934   0.613
  685SOL     OW 2953   3.390   2.116   4.011
  685SOL    HW1 2954   3.416   2.162   3.926
  685SOL    HW2 2955   3.460   2.133   4.080
  686SOL     OW 2956   4.540   2.266   4.658
  686SOL    HW1 2957   4.571   2.327   4.730
  686SOL    HW2 2958   4.551   2.310   4.569
  687SOL     OW 2959   0.779   2.271   3.832
  687SOL    HW1 2960   0.847   2.222   3.777
  687SOL    HW2 2961   0.805   2.267   3.928
  688SOL     OW 2962   0.456   1.435   6.303
  688SOL    HW1 2963   0.507   1.415   6.386
  688SOL    HW2 2964   0.368   1.475   6.327
  689SOL     OW 2965   1.168   4.432   6.027
  689SOL    HW1 2966   1.142   4.513   5.974
  689SOL    HW2 2967   1.120   4.352   5.992
  690SOL     OW 2968   6.731   3.282   3.107
  690SOL    HW1 2969   6.820   3.274   3.060
  690SOL    HW2 2970   6.692   3.372   3.089
  691SOL     OW 2971   3.455   1.717   7.007
  691SOL    HW1 2972   3.403   1.743   6.926
  691SOL    HW2 2973   3.446   1.619   0.006
  692SOL     OW 2974   4.367   2.160   4.247
  692SOL    HW1 2975   4.354   2.200   4.338
  692SOL    HW2 2976   4.278   2.135   4.208
  693SOL     OW 2977   4.784   6.539   3.994
  693SOL    HW1 2978   4.770   6.588   4.080
  693SOL    HW2 2979   4.715   6.467   3.985
  694SOL     OW 2980   4.103   6.820   4.752
  694SOL    HW1 2981   4.092   6.780   4.661
  694SOL    HW2 2982   4.154   6.906   4.745
  695SOL     OW 2983   3.798   6.794   3.812
  695SOL    HW1 2984   3.892   6.778   3.780
  695SOL    HW2 2985   3.753   6.858   3.750
  696SOL     OW 2986   5.095   4.753   3.395
  696SOL    HW1 2987   5.190   4.774   3.373
  696SOL    HW2 2988   5.074   4.784   3.488
  697SOL     OW 2989   1.786   3.715   2.552
  697SOL    HW1 2990   1.753   3.753   2.465
  697SOL    HW2 2991   1.834   3.787   2.603
  698SOL     OW 2992   5.403   6.338   1.274
  698SOL    HW1 2993   5.403   6.424   1.222
  698SOL    HW2 2994   5.313   6.324   1.315
  699SOL     OW 2995   1.723   3.893   0.154
  699SOL    HW1 2996   1.736   3.859   0.061
  699SOL    HW2 2997   1.799   3.954   0.178
  700SOL     OW 2998   3.559   0.145   2.365
  700SOL    HW1 2999   3.645   0.194   2.345
  700SOL    HW2 3000   3.532   0.162   2.459
  701SOL     OW 3001   6.753   3.964   0.073
  701SOL    HW1 3002   6.666   3.996   0.036
  701SOL    HW2 3003   6.737   3.894   0.142
  702SOL     OW 3004   1.668   6.036   4.841
  702SOL    HW1 3005   1.701   6.103   4.774
  702SOL    HW2 3006   1.689   6.068   4.933
  703SOL     OW 3007   3.679   3.518   5.686
  703SOL    HW1 3008   3.687   3.425   5.722
  703SOL    HW2 3009   3.625   3.517   5.603
  704SOL     OW 3010   1.614   2.685   6.187
  704SOL    HW1 3011   1.594   2.770   6.138
  704SOL    HW2 3012   1.711   2.664   6.179
  705SOL     OW 3013   5.550   5.834   2.951
  705SOL    HW1 3014   5.650   5.823   2.950
  705SOL    HW2 3015   5.521   5.880   2.867
  706SOL     OW 3016   4.100   1.772   5.463
  706SOL    HW1 3017   4.180   1.728   5.422
  706SOL    HW2 3018   4.017   1.741   5.416
  707SOL     OW 3019   4.201   4.710   3.158
  707SOL    HW1 3020   4.163   4.619   3.145
  707SOL    HW2 3021   4.296   4.712   3.127
  708SOL     OW 3022   2.764   0.870   2.770
  708SOL    HW1 3023   2.758   0.939   2.842
  708SOL    HW2 3024   2.860   0.846   2.754
  709SOL     OW 3025   1.433   5.810   0.704
  709SOL    HW1 3026   1.375   5.883   0.669
  709SOL    HW2 3027   1.485   5.843   0.782
  710SOL     OW 3028   4.062   1.891   0.990
  710SOL    HW1 3029   4.080   1.887   0.892
  710SOL    HW2 3030   3.971   1.929   1.006
  711SOL     OW 3031   0.106   2.719   5.818
  711SOL    HW1 3032   0.103   2.635   5.872
  711SOL    HW2 3033   0.188   2.719   5.761
  712SOL     OW 3034   4.695   2.531   0.525
  712SOL    HW1 3035   4.763   2.484   0.470
  712SOL    HW2 3036   4.610   2.478   0.526
  713SOL     OW 3037   4.120   3.535   5.908
  713SOL    HW1 3038   4.111   3.480   5.991
  713SOL    HW2 3039   4.121   3.632   5.933
  714SOL     OW 3040   0.027   5.085   3.995
  714SOL    HW1 3041   0.038   5.098   3.896
  714SOL    HW2 3042   0.112   5.112   4.041
  715SOL     OW 3043   5.508   6.130   6.623
  715SOL    HW1 3044   5.443   6.191   6.668
  715SOL    HW2 3045   5.458   6.066   6.564
  716SOL     OW 3046   0.888   0.992   2.570
  716SOL    HW1 3047   0.929   1.082   2.582
  716SOL    HW2 3048   0.930   0.928   2.634
  717SOL     OW 3049   6.712   4.776   4.273
  717SOL    HW1 3050   6.768   4.792   4.192
  717SOL    HW2 3051   6.691   4.863   4.317
  718SOL     OW 3052   4.586   3.363   5.851
  718SOL    HW1 3053   4.671   3.342   5.804
  718SOL    HW2 3054   4.534   3.430   5.798
  719SOL     OW 3055   5.859   6.954   2.600
  719SOL    HW1 3056   5.913   6.942   2.683
  719SOL    HW2 3057   5.867   6.872   2.543
  720SOL     OW 3058   2.082   0.425   6.414
  720SOL    HW1 3059   2.142   0.378   6.349
  720SOL    HW2 3060   2.025   0.491   6.366
  721SOL     OW 3061   2.331   1.099   2.117
  721SOL    HW1 3062   2.420   1.138   2.092
  721SOL    HW2 3063   2.337   1.055   2.206
  722SOL     OW 3064   3.178   0.820   5.800
  722SOL    HW1 3065   3.241   0.897   5.795
  722SOL    HW2 3066   3.214   0.751   5.863
  723SOL     OW 3067   2.207   5.133   3.682
  723SOL    HW1 3068   2.285   5.069   3.688
  723SOL    HW2 3069   2.229   5.216   3.733
  724SOL     OW 3070   0.570   1.336   3.341
  724SOL    HW1 3071   0.657   1.315   3.295
  724SOL    HW2 3072   0.558   1.276   3.420
  725SOL     OW 3073   1.383   4.923   2.732
  725SOL    HW1 3074   1.309   4.893   2.672
  725SOL    HW2 3075   1.465   4.940   2.676
  726SOL     OW 3076   2.863   4.943   1.399
  726SOL    HW1 3077   2.906   4.949   1.489
  726SOL    HW2 3078   2.820   5.030   1.376
  727SOL     OW 3079   5.185   4.689   6.157
  727SOL    HW1 3080   5.162   4.643   6.072
  727SOL    HW2 3081   5.185   4.622   6.232
  728SOL     OW 3082   6.424   3.527   4.159
  728SOL    HW1 3083   6.376   3.602   4.204
  728SOL    HW2 3084   6.466   3.468   4.228
  729SOL     OW 3085   0.279   2.680   1.236
  729SOL    HW1 3086   0.312   2.663   1.329
  729SOL    HW2 3087   0.289   2.777   1.215
  730SOL     OW 3088   0.014   0.149   4.358
  730SOL    HW1 3089   0.112   0.131   4.366
  730SOL    HW2 3090   7.002   0.133   4.264
  731SOL     OW 3091   4.765   5.271   6.505
  731SOL    HW1 3092   4.711   5.252   6.423
  731SOL    HW2 3093   4.859   5.292   6.480
  732SOL     OW 3094   5.955   2.584   2.640
  732SOL    HW1 3095   5.870   2.626   2.673
  732SOL    HW2 3096   5.939   2.542   2.551
  733SOL     OW 3097   5.380   0.295   5.481
  733SOL    HW1 3098   5.321   0.216   5.465
  733SOL    HW2 3099   5.331   0.378   5.456
  734SOL     OW 3100   5.925   5.296   2.491
  734SOL    HW1 3101   5.856   5.319   2.559
  734SOL    HW2 3102   6.016   5.304   2.532
  735SOL     OW 3103   4.084   1.662   0.404
  735SOL    HW1 3104   4.182   1.644   0.399
  735SOL    HW2 3105   4.068   1.760   0.390
  736SOL     OW 3106   0.989   1.475   3.878
  736SOL    HW1 3107   0.991   1.378   3.902
  736SOL    HW2 3108   1.080   1.504   3.847
  737SOL     OW 3109   5.399   1.628   6.064
  737SOL    HW1 3110   5.481   1.587   6.105
  737SOL    HW2 3111   5.361   1.565   5.996
  738SOL     OW 3112   2.813   3.860   1.500
  738SOL    HW1 3113   2.818   3.776   1.446
  738SOL    HW2 3114   2.730   3.858   1.557
  739SOL     OW 3115   4.144   0.370   4.381
  739SOL    HW1 3116   4.146   0.273   4.407
  739SOL    HW2 3117   4.189   0.424   4.452
  740SOL     OW 3118   5.423   1.644   3.066
  740SOL    HW1 3119   5.502   1.657   3.006
  740SOL    HW2 3120   5.446   1.678   3.158
  741SOL     OW 3121   1.852   0.344   3.952
  741SOL    HW1 3122   1.845   0.300   3.863
  741SOL    HW2 3123   1.788   0.422   3.956
  742SOL     OW 3124   1.839   6.239   1.511
  742SOL    HW1 3125   1.833   6.305   1.436
  742SOL    HW2 3126   1.902   6.166   1.486
  743SOL     OW 3127   6.945   5.273   3.371
  743SOL    HW1 3128   6.900   5.211   3.307
  743SOL    HW2 3129   6.905   5.364   3.364
  744SOL     OW 3130   5.949   0.751   0.711
  744SOL    HW1 3131   5.924   0.675   0.772
  744SOL    HW2 3132   5.952   0.719   0.617
  745SOL     OW 3133   1.870   5.782   5.297
  745SOL    HW1 3134   1.947   5.726   5.265
  745SOL    HW2 3135   1.785   5.745   5.262
  746SOL     OW 3136   6.005   3.684   6.143
  746SOL    HW1 3137   6.077   3.616   6.151
  746SOL    HW2 3138   6.002   3.720   6.050
  747SOL     OW 3139   4.266   5.805   4.818
  747SOL    HW1 3140   4.246   5.725   4.874
  747SOL    HW2 3141   4.224   5.886   4.860
  748SOL     OW 3142   4.515   5.352   2.300
  748SOL    HW1 3143   4.484   5.441   2.268
  748SOL    HW2 3144   4.591   5.364   2.364
  749SOL     OW 3145   5.805   3.828   4.576
  749SOL    HW1 3146   5.889   3.790   4.615
  749SOL    HW2 3147   5.794   3.794   4.483
  750SOL     OW 3148   2.324   1.345   1.476
  750SOL    HW1 3149   2.254   1.284   1.441
  750SOL    HW2 3150   2.409   1.294   1.491
  751SOL     OW 3151   4.439   1.323   0.195
  751SOL    HW1 3152   4.534   1.332   0.164
  751SOL    HW2 3153   4.387   1.403   0.165
  752SOL     OW 3154   2.884   3.196   0.240
  752SOL    HW1 3155   2.834   3.201   0.326
  752SOL    HW2 3156   2.876   3.105   0.201
  753SOL     OW 3157   1.555   3.569   5.874
  753SOL    HW1 3158   1.609   3.500   5.825
  753SOL    HW2 3159   1.572   3.659   5.835
  754SOL     OW 3160   4.841   1.763   6.454
  754SOL    HW1 3161   4.790   1.814   6.522
  754SOL    HW2 3162   4.904   1.700   6.499
  755SOL     OW 3163   2.545   4.579   5.468
  755SOL    HW1 3164   2.642   4.605   5.472
  755SOL    HW2 3165   2.528   4.526   5.385
  756SOL     OW 3166   2.468   5.360   6.978
  756SOL    HW1 3167   2.461   5.454   6.947
  756SOL    HW2 3168   2.393   5.340   0.025
  757SOL     OW 3169   1.802   5.808   3.623
  757SOL    HW1 3170   1.828   5.903   3.608
  757SOL    HW2 3171   1.707   5.803   3.652
  758SOL     OW 3172   4.190   0.785   3.408
  758SOL    HW1 3173   4.094   0.807   3.420
  758SOL    HW2 3174   4.223   0.735   3.489
  759SOL     OW 3175   0.280   2.908   2.526
  759SOL    HW1 3176   0.326   2.954   2.450
  759SOL    HW2 3177   0.188   2.946   2.537
  760SOL     OW 3178   6.301   6.935   4.079
  760SOL    HW1 3179   6.209   6.905   4.105
  760SOL    HW2 3180   6.326   6.892   3.992
  761SOL     OW 3181   5.688   4.203   6.607
  761SOL    HW1 3182   5.610   4.217   6.668
  761SOL    HW2 3183   5.702   4.105   6.593
  762SOL     OW 3184   3.168   0.242   5.323
  762SOL    HW1 3185   3.100   0.307   5.290
  762SOL    HW2 3186   3.147   0.151   5.288
  763SOL     OW 3187   4.268   6.451   6.527
  763SOL    HW1 3188   4.252   6.354   6.514
  763SOL    HW2 3189   4.294   6.468   6.622
  764SOL     OW 3190   5.112   0.774   5.986
  764SOL    HW1 3191   5.047   0.767   5.910
  764SOL    HW2 3192   5.113   0.869   6.020
  765SOL     OW 3193   1.611   6.240   0.544
  765SOL    HW1 3194   1.540   6.304   0.515
  765SOL    HW2 3195   1.626   6.248   0.642
  766SOL     OW 3196   2.887   2.014   5.210
  766SOL    HW1 3197   2.840   1.997   5.297
  766SOL    HW2 3198   2.872   2.110   5.183
  767SOL     OW 3199   6.418   6.591   3.861
  767SOL    HW1 3200   6.456   6.683   3.856
  767SOL    HW2 3201   6.322   6.593   3.833
  768SOL     OW 3202   1.902   5.562   3.646
  768SOL    HW1 3203   1.851   5.648   3.643
  768SOL    HW2 3204   1.958   5.559   3.729
  769SOL     OW 3205   3.007   1.086   5.469
  769SOL    HW1 3206   2.964   1.042   5.390
  769SOL    HW2 3207   2.980   1.039   5.553
  770SOL     OW 3208   1.698   5.328   3.972
  770SOL    HW1 3209   1.733   5.283   3.890
  770SOL    HW2 3210   1.749   5.412   3.989
  771SOL     OW 3211   1.264   4.793   2.930
  771SOL    HW1 3212   1.296   4.842   2.849
  771SOL    HW2 3213   1.174   4.827   2.957
  772SOL     OW 3214   6.238   4.826   6.564
  772SOL    HW1 3215   6.201   4.838   6.472
  772SOL    HW2 3216   6.239   4.729   6.587
  773SOL     OW 3217   0.649   3.821   3.228
  773SOL    HW1 3218   0.590   3.773   3.163
  773SOL    HW2 3219   0.713   3.880   3.179
  774SOL     OW 3220   1.760   1.789   2.744
  774SOL    HW1 3221   1.804   1.700   2.744
  774SOL    HW2 3222   1.829   1.861   2.740
  775SOL     OW 3223   2.170   1.876   4.093
  775SOL    HW1 3224   2.260   1.857   4.132
  775SOL    HW2 3225   2.181   1.931   4.010
  776SOL     OW 3226   6.827   0.922   6.285
  776SOL    HW1 3227   6.842   0.884   6.194
  776SOL    HW2 3228   6.911   0.914   6.339
  777SOL     OW 3229   2.064   4.398   1.408
  777SOL    HW1 3230   2.144   4.364   1.458
  777SOL    HW2 3231   2.017   4.321   1.365
  778SOL     OW 3232   2.094   0.105   1.323
  778SOL    HW1 3233   2.098   0.006   1.328
  778SOL    HW2 3234   2.152   0.145   1.395
  779SOL     OW 3235   6.650   1.948   2.324
  779SOL    HW1 3236   6.720   2.014   2.354
  779SOL    HW2 3237   6.694   1.872   2.277
  780SOL     OW 3238   0.852   2.275   4.103
  780SOL    HW1 3239   0.938   2.283   4.154
  780SOL    HW2 3240   0.775   2.297   4.163
  781SOL     OW 3241   5.658   5.443   0.555
  781SOL    HW1 3242   5.589   5.384   0.596
  781SOL    HW2 3243   5.615   5.506   0.491
  782SOL     OW 3244   1.762   3.920   5.558
  782SOL    HW1 3245   1.697   3.989   5.591
  782SOL    HW2 3246   1.796   3.947   5.468
  783SOL     OW 3247   5.489   4.676   1.223
  783SOL    HW1 3248   5.393   4.650   1.207
  783SOL    HW2 3249   5.522   4.630   1.305
  784SOL     OW 3250   4.178   5.440   1.824
  784SOL    HW1 3251   4.169   5.364   1.889
  784SOL    HW2 3252   4.088   5.477   1.805
  785SOL     OW 3253   0.451   1.139   3.512
  785SOL    HW1 3254   0.413   1.062   3.564
  785SOL    HW2 3255   0.406   1.224   3.540
  786SOL     OW 3256   6.837   0.708   2.647
  786SOL    HW1 3257   6.756   0.688   2.702
  786SOL    HW2 3258   6.908   0.746   2.706
  787SOL     OW 3259   1.457   6.904   6.758
  787SOL    HW1 3260   1.436   6.814   6.794
  787SOL    HW2 3261   1.547   6.902   6.715
  788SOL     OW 3262   4.392   2.341   0.939
  788SOL    HW1 3263   4.312   2.383   0.895
  788SOL    HW2 3264   4.467   2.406   0.939
  789SOL     OW 3265   4.525   5.219   2.044
  789SOL    HW1 3266   4.616   5.250   2.073
  789SOL    HW2 3267   4.491   5.150   2.108
  790SOL     OW 3268   2.349   0.975   2.365
  790SOL    HW1 3269   2.307   1.058   2.399
  790SOL    HW2 3270   2.431   0.954   2.419
  791SOL     OW 3271   2.475   5.975   5.462
  791SOL    HW1 3272   2.496   5.940   5.553
  791SOL    HW2 3273   2.525   6.059   5.446
  792SOL     OW 3274   0.658   0.504   2.044
  792SOL    HW1 3275   0.581   0.539   1.991
  792SOL    HW2 3276   0.626   0.473   2.134
  793SOL     OW 3277   5.217   5.627   5.074
  793SOL    HW1 3278   5.229   5.534   5.106
  793SOL    HW2 3279   5.119   5.648   5.068
  794SOL     OW 3280   3.116   3.595   5.556
  794SOL    HW1 3281   3.176   3.541   5.497
  794SOL    HW2 3282   3.135   3.692   5.542
  795SOL     OW 3283   4.015   0.229   5.589
  795SOL    HW1 3284   3.966   0.171   5.524
  795SOL    HW2 3285   4.065   0.301   5.540
  796SOL     OW 3286   1.349   2.805   0.327
  796SOL    HW1 3287   1.306   2.725   0.369
  796SOL    HW2 3288   1.402   2.776   0.247
  797SOL     OW 3289   4.481   0.733   0.697
  797SOL    HW1 3290   4.542   0.801   0.656
  797SOL    HW2 3291   4.527   0.645   0.701
  798SOL     OW 3292   3.976   6.279   1.607
  798SOL    HW1 3293   3.905   6.282   1.537
  798SOL    HW2 3294   4.051   6.220   1.576
  799SOL     OW 3295   0.964   0.223   6.410
  799SOL    HW1 3296   1.063   0.235   6.405
  799SOL    HW2 3297   0.920   0.265   6.331
  800SOL     OW 3298   6.785   0.983   2.283
  800SOL    HW1 3299   6.696   0.942   2.303
  800SOL    HW2 3300   6.841   0.915   2.235
  801SOL     OW 3301   2.309   4.212   5.294
  801SOL    HW1 3302   2.378   4.284   5.298
  801SOL    HW2 3303   2.333   4.147   5.221
  802SOL     OW 3304   3.162   2.364   0.046
  802SOL    HW1 3305   3.096   2.297   0.010
  802SOL    HW2 3306   3.152   2.369   0.145
  803SOL     OW 3307   1.552   7.003   5.707
  803SOL    HW1 3308   1.580   6.944   5.632
  803SOL    HW2 3309   1.462   0.024   5.689
  804SOL     OW 3310   6.682   0.183   1.667
  804SOL    HW1 3311   6.728   0.271   1.664
  804SOL    HW2 3312   6.692   0.143   1.759
  805SOL     OW 3313   1.825   0.797   3.880
  805SOL    HW1 3314   1.896   0.748   3.931
  805SOL    HW2 3315   1.735   0.759   3.904
  806SOL     OW 3316   6.041   0.451   6.486
  806SOL    HW1 3317   6.126   0.401   6.471
  806SOL    HW2 3318   5.965   0.400   6.446
  807SOL     OW 3319   0.683   6.841   3.739
  807SOL    HW1 3320   0.598   6.892   3.752
  807SOL    HW2 3321   0.731   6.832   3.826
  808SOL     OW 3322   5.059   3.229   6.649
  808SOL    HW1 3323   5.090   3.171   6.724
  808SOL    HW2 3324   5.129   3.233   6.578
  809SOL     OW 3325   1.060   4.946   0.575
  809SOL    HW1 3326   1.154   4.918   0.594
  809SOL    HW2 3327   1.025   4.999   0.652
  810SOL     OW 3328   3.137   4.165   0.248
  810SOL    HW1 3329   3.038   4.164   0.264
  810SOL    HW2 3330   3.176   4.078   0.279
  811SOL     OW 3331   5.040   5.423   4.043
  811SOL    HW1 3332   5.059   5.477   4.125
  811SOL    HW2 3333   4.948   5.383   4.050
  812SOL     OW 3334   0.206   1.800   2.089
  812SOL    HW1 3335   0.222   1.893   2.122
  812SOL    HW2 3336   0.275   1.777   2.020
  813SOL     OW 3337   2.604   0.390   4.504
  813SOL    HW1 3338   2.601   0.319   4.575
  813SOL    HW2 3339   2.679   0.371   4.441
  814SOL     OW 3340   6.479   5.975   2.880
  814SOL    HW1 3341   6.561   5.927   2.850
  814SOL    HW2 3342   6.501   6.030   2.961
  815SOL     OW 3343   5.597   3.186   3.330
  815SOL    HW1 3344   5.689   3.220   3.316
  815SOL    HW2 3345   5.593   3.129   3.412
  816SOL     OW 3346   5.285   5.199   0.050
  816SOL    HW1 3347   5.187   5.178   0.061
  816SOL    HW2 3348   5.304   5.289   0.090
  817SOL     OW 3349   0.754   5.378   1.707
  817SOL    HW1 3350   0.745   5.308   1.778
  817SOL    HW2 3351   0.760   5.468   1.751
  818SOL     OW 3352   5.549   3.042   3.582
  818SOL    HW1 3353   5.478   2.972   3.578
  818SOL    HW2 3354   5.537   3.098   3.665
  819SOL     OW 3355   6.290   2.422   1.769
  819SOL    HW1 3356   6.379   2.378   1.757
  819SOL    HW2 3357   6.228   2.360   1.816
  820SOL     OW 3358   2.958   2.144   4.771
  820SOL    HW1 3359   2.922   2.212   4.835
  820SOL    HW2 3360   3.053   2.124   4.793
  821SOL     OW 3361   6.195   4.811   6.021
  821SOL    HW1 3362   6.183   4.720   5.982
  821SOL    HW2 3363   6.276   4.812   6.079
  822SOL     OW 3364   0.053   3.543   3.129
  822SOL    HW1 3365   0.128   3.580   3.184
  822SOL    HW2 3366   0.043   3.445   3.146
  823SOL     OW 3367   6.407   4.147   6.712
  823SOL    HW1 3368   6.387   4.142   6.614
  823SOL    HW2 3369   6.506   4.149   6.725
  824SOL     OW 3370   4.719   0.880   5.960
  824SOL    HW1 3371   4.794   0.902   6.022
  824SOL    HW2 3372   4.736   0.921   5.871
  825SOL     OW 3373   6.372   5.920   0.838
  825SOL    HW1 3374   6.364   5.928   0.938
  825SOL    HW2 3375   6.283   5.939   0.796
  826SOL     OW 3376   3.494   2.351   5.819
  826SOL    HW1 3377   3.588   2.371   5.848
  826SOL    HW2 3378   3.431   2.417   5.860
  827SOL     OW 3379   2.919   4.148   5.233
  827SOL    HW1 3380   2.926   4.097   5.319
  827SOL    HW2 3381   2.998   4.127   5.175
  828SOL     OW 3382   5.924   6.025   6.386
  828SOL    HW1 3383   5.957   6.116   6.362
  828SOL    HW2 3384   6.001   5.961   6.384
  829SOL     OW 3385   3.529   3.207   1.876
  829SOL    HW1 3386   3.565   3.141   1.942
  829SOL    HW2 3387   3.498   3.159   1.794
  830SOL     OW 3388   5.786   5.186   6.899
  830SOL    HW1 3389   5.694   5.223   6.913
  830SOL    HW2 3390   5.853   5.260   6.900
  831SOL     OW 3391   6.090   0.077   1.182
  831SOL    HW1 3392   6.052   0.169   1.170
  831SOL    HW2 3393   6.019   0.015   1.215
  832SOL     OW 3394   4.541   1.786   4.045
  832SOL    HW1 3395   4.609   1.732   3.995
  832SOL    HW2 3396   4.586   1.833   4.121
  833SOL     OW 3397   2.204   3.650   5.856
  833SOL    HW1 3398   2.149   3.732   5.842
  833SOL    HW2 3399   2.298   3.666   5.824
  834SOL     OW 3400   5.296   3.564   0.947
  834SOL    HW1 3401   5.202   3.531   0.944
  834SOL    HW2 3402   5.333   3.550   1.039
  835SOL     OW 3403   2.240   0.688   4.917
  835SOL    HW1 3404   2.228   0.718   4.822
  835SOL    HW2 3405   2.174   0.616   4.938
  836SOL     OW 3406   3.450   1.008   4.876
  836SOL    HW1 3407   3.445   0.911   4.852
  836SOL    HW2 3408   3.545   1.032   4.898
  837SOL     OW 3409   0.451   0.281   0.664
  837SOL    HW1 3410   0.525   0.255   0.727
  837SOL    HW2 3411   0.491   0.318   0.580
  838SOL     OW 3412   2.507   6.161   4.774
  838SOL    HW1 3413   2.416   6.176   4.734
  838SOL    HW2 3414   2.509   6.072   4.820
  839SOL     OW 3415   2.216   1.415   1.787
  839SOL    HW1 3416   2.154   1.439   1.862
  839SOL    HW2 3417   2.198   1.473   1.708
  840SOL     OW 3418   6.250   5.203   0.336
  840SOL    HW1 3419   6.336   5.204   0.388
  840SOL    HW2 3420   6.174   5.227   0.397
  841SOL     OW 3421   3.168   5.539   6.055
  841SOL    HW1 3422   3.191   5.544   6.152
  841SOL    HW2 3423   3.101   5.465   6.041
  842SOL     OW 3424   3.802   7.002   6.346
  842SOL    HW1 3425   3.851   0.030   6.421
  842SOL    HW2 3426   3.706   6.991   6.371
  843SOL     OW 3427   1.695   2.014   1.892
  843SOL    HW1 3428   1.631   2.037   1.819
  843SOL    HW2 3429   1.693   1.915   1.908
  844SOL     OW 3430   7.001   6.920   1.212
  844SOL    HW1 3431   6.961   6.837   1.249
  844SOL    HW2 3432   6.938   6.996   1.225
  845SOL     OW 3433   5.033   3.878   3.187
  845SOL    HW1 3434   4.959   3.943   3.167
  845SOL    HW2 3435   4.996   3.785   3.187
  846SOL     OW 3436   2.777   0.713   5.955
  846SOL    HW1 3437   2.861   0.752   5.994
  846SOL    HW2 3438   2.799   0.662   5.872
  847SOL     OW 3439   2.088   2.926   1.947
  847SOL    HW1 3440   2.154   2.956   1.878
  847SOL    HW2 3441   2.060   3.005   2.003
  848SOL     OW 3442   6.626   6.972   5.912
  848SOL    HW1 3443   6.617   0.051   5.940
  848SOL    HW2 3444   6.710   6.934   5.951
  849SOL     OW 3445   6.124   4.380   6.156
  849SOL    HW1 3446   6.165   4.470   6.172
  849SOL    HW2 3447   6.093   4.374   6.062
  850SOL     OW 3448   6.518   0.132   5.127
  850SOL    HW1 3449   6.444   0.082   5.173
  850SOL    HW2 3450   6.586   0.160   5.195
  851SOL     OW 3451   0.146   2.875   6.798
  851SOL    HW1 3452   0.172   2.916   6.885
  851SOL    HW2 3453   0.161   2.941   6.724
  852SOL     OW 3454   0.974   4.627   0.637
  852SOL    HW1 3455   0.925   4.714   0.647
  852SOL    HW2 3456   1.024   4.627   0.550
  853SOL     OW 3457   0.993   4.576   6.960
  853SOL    HW1 3458   0.909   4.531   6.931
  853SOL    HW2 3459   1.049   4.598   6.881
  854SOL     OW 3460   4.755   5.868   7.010
  854SOL    HW1 3461   4.712   5.778   7.015
  854SOL    HW2 3462   4.854   5.857   0.003
  855SOL     OW 3463   6.527   0.281   0.651
  855SOL    HW1 3464   6.436   0.274   0.691
  855SOL    HW2 3465   6.535   0.368   0.601
  856SOL     OW 3466   1.358   1.316   7.005
  856SOL    HW1 3467   1.286   1.384   7.014
  856SOL    HW2 3468   1.428   1.331   0.058
  857SOL     OW 3469   6.335   5.335   2.389
  857SOL    HW1 3470   6.336   5.338   2.289
  857SOL    HW2 3471   6.414   5.385   2.424
  858SOL     OW 3472   3.321   4.834   0.815
  858SOL    HW1 3473   3.412   4.796   0.834
  858SOL    HW2 3474   3.326   4.893   0.734
  859SOL     OW 3475   5.921   6.039   5.239
  859SOL    HW1 3476   5.958   5.946   5.235
  859SOL    HW2 3477   5.852   6.050   5.168
  860SOL     OW 3478   5.967   2.772   6.471
  860SOL    HW1 3479   6.006   2.684   6.497
  860SOL    HW2 3480   5.979   2.837   6.546
  861SOL     OW 3481   2.649   5.161   2.996
  861SOL    HW1 3482   2.571   5.177   2.935
  861SOL    HW2 3483   2.695   5.247   3.015
  862SOL     OW 3484   2.220   4.064   3.199
  862SOL    HW1 3485   2.278   4.096   3.125
  862SOL    HW2 3486   2.125   4.090   3.182
  863SOL     OW 3487   6.039   1.184   6.048
  863SOL    HW1 3488   6.112   1.122   6.020
  863SOL    HW2 3489   6.079   1.260   6.100
  864SOL     OW 3490   4.168   6.017   4.937
  864SOL    HW1 3491   4.221   6.093   4.974
  864SOL    HW2 3492   4.080   6.010   4.984
  865SOL     OW 3493   1.967   7.003   5.645
  865SOL    HW1 3494   1.900   0.001   5.718
  865SOL    HW2 3495   1.961   0.059   5.578
  866SOL     OW 3496   3.444   0.142   0.518
  866SOL    HW1 3497   3.357   0.188   0.501
  866SOL    HW2 3498   3.503   0.151   0.438
  867SOL     OW 3499   4.810   3.618   1.250
  867SOL    HW1 3500   4.848   3.534   1.288
  867SOL    HW2 3501   4.720   3.598   1.211
  868SOL     OW 3502   6.981   1.559   1.643
  868SOL    HW1 3503   7.000   1.486   1.709
  868SOL    HW2 3504   0.023   1.547   1.562
  869SOL     OW 3505   6.908   4.593   3.319
  869SOL    HW1 3506   6.833   4.632   3.265
  869SOL    HW2 3507   6.995   4.622   3.281
  870SOL     OW 3508   4.268   4.455   0.884
  870SOL    HW1 3509   4.199   4.525   0.864
  870SOL    HW2 3510   4.292   4.407   0.799
  871SOL     OW 3511   5.481   2.403   4.156
  871SOL    HW1 3512   5.456   2.382   4.250
  871SOL    HW2 3513   5.511   2.499   4.151
  872SOL     OW 3514   6.378   2.265   3.954
  872SOL    HW1 3515   6.373   2.174   3.994
  872SOL    HW2 3516   6.302   2.279   3.891
  873SOL     OW 3517   4.873   5.801   5.288
  873SOL    HW1 3518   4.912   5.756   5.208
  873SOL    HW2 3519   4.816   5.736   5.339
  874SOL     OW 3520   6.360   3.734   0.292
  874SOL    HW1 3521   6.325   3.664   0.231
  874SOL    HW2 3522   6.304   3.739   0.374
  875SOL     OW 3523   4.518   4.794   0.823
  875SOL    HW1 3524   4.449   4.828   0.758
  875SOL    HW2 3525   4.486   4.812   0.916
  876SOL     OW 3526   0.436   5.640   2.224
  876SOL    HW1 3527   0.499   5.615   2.298
  876SOL    HW2 3528   0.392   5.558   2.189
  877SOL     OW 3529   3.169   4.659   6.041
  877SOL    HW1 3530   3.238   4.597   6.077
  877SOL    HW2 3531   3.129   4.621   5.958
  878SOL     OW 3532   4.486   6.562   4.149
  878SOL    HW1 3533   4.557   6.597   4.209
  878SOL    HW2 3534   4.514   6.474   4.111
  879SOL     OW 3535   4.012   0.229   1.771
  879SOL    HW1 3536   3.951   0.308   1.777
  879SOL    HW2 3537   3.973   0.152   1.822
  880SOL     OW 3538   3.531   3.415   4.021
  880SOL    HW1 3539   3.515   3.512   4.040
  880SOL    HW2 3540   3.585   3.406   3.937
  881SOL     OW 3541   5.136   3.618   5.264
  881SOL    HW1 3542   5.200   3.691   5.289
  881SOL    HW2 3543   5.101   3.574   5.347
  882SOL     OW 3544   0.948   2.525   4.011
  882SOL    HW1 3545   0.987   2.526   3.919
  882SOL    HW2 3546   0.928   2.430   4.037
  883SOL     OW 3547   3.219   0.752   1.181
  883SOL    HW1 3548   3.222   0.820   1.107
  883SOL    HW2 3549   3.304   0.756   1.232
  884SOL     OW 3550   6.051   4.166   5.909
  884SOL    HW1 3551   6.123   4.152   5.977
  884SOL    HW2 3552   5.973   4.106   5.930
  885SOL     OW 3553   3.810   1.046   4.578
  885SOL    HW1 3554   3.846   1.139   4.586
  885SOL    HW2 3555   3.742   1.043   4.505
  886SOL     OW 3556   3.319   0.491   0.196
  886SOL    HW1 3557   3.390   0.455   0.256
  886SOL    HW2 3558   3.259   0.552   0.248
  887SOL     OW 3559   3.608   6.618   3.604
  887SOL    HW1 3560   3.658   6.641   3.688
  887SOL    HW2 3561   3.516   6.589   3.627
  888SOL     OW 3562   0.263   6.047   3.184
  888SOL    HW1 3563   0.188   5.981   3.187
  888SOL    HW2 3564   0.341   6.007   3.134
  889SOL     OW 3565   0.008   1.894   0.497
  889SOL    HW1 3566   0.061   1.965   0.452
  889SOL    HW2 3567   6.991   1.928   0.585
  890SOL     OW 3568   1.980   4.814   2.911
  890SOL    HW1 3569   1.884   4.797   2.889
  890SOL    HW2 3570   1.989   4.833   3.009
  891SOL     OW 3571   6.137   3.852   1.459
  891SOL    HW1 3572   6.190   3.846   1.543
  891SOL    HW2 3573   6.057   3.910   1.474
  892SOL     OW 3574   2.938   3.678   4.734
  892SOL    HW1 3575   3.032   3.676   4.770
  892SOL    HW2 3576   2.879   3.622   4.792
  893SOL     OW 3577   2.279   6.414   3.241
  893SOL    HW1 3578   2.179   6.407   3.245
  893SOL    HW2 3579   2.309   6.492   3.295
  894SOL     OW 3580   0.855   3.121   1.933
  894SOL    HW1 3581   0.815   3.104   2.023
  894SOL    HW2 3582   0.864   3.219   1.918
  895SOL     OW 3583   1.255   4.602   3.611
  895SOL    HW1 3584   1.319   4.640   3.677
  895SOL    HW2 3585   1.240   4.505   3.632
  896SOL     OW 3586   5.220   4.626   1.168
  896SOL    HW1 3587   5.219   4.724   1.147
  896SOL    HW2 3588   5.143   4.582   1.123
  897SOL     OW 3589   3.934   1.604   6.627
  897SOL    HW1 3590   3.837   1.625   6.614
  897SOL    HW2 3591   3.948   1.505   6.622
  898SOL     OW 3592   3.615   6.293   2.794
  898SOL    HW1 3593   3.575   6.202   2.804
  898SOL    HW2 3594   3.631   6.312   2.697
  899SOL     OW 3595   0.263   6.571   0.170
  899SOL    HW1 3596   0.177   6.583   0.120
  899SOL    HW2 3597   0.287   6.655   0.218
  900SOL     OW 3598   5.514   0.316   0.287
  900SOL    HW1 3599   5.560   0.233   0.318
  900SOL    HW2 3600   5.531   0.331   0.190
  901SOL     OW 3601   1.748   0.739   3.434
  901SOL    HW1 3602   1.678   0.810   3.435
  901SOL    HW2 3603   1.808   0.750   3.513
  902SOL     OW 3604   1.268   1.985   1.322
  902SOL    HW1 3605   1.309   2.074   1.306
  902SOL    HW2 3606   1.236   1.947   1.235
  903SOL     OW 3607   1.102   3.109   6.651
  903SOL    HW1 3608   1.159   3.191   6.648
  903SOL    HW2 3609   1.060   3.094   6.561
  904SOL     OW 3610   1.759   1.417   2.306
  904SOL    HW1 3611   1.844   1.388   2.349
  904SOL    HW2 3612   1.732   1.507   2.341
  905SOL     OW 3613   5.423   3.097   6.003
  905SOL    HW1 3614   5.421   3.043   6.087
  905SOL    HW2 3615   5.400   3.039   5.925
  906SOL     OW 3616   0.285   2.109   6.443
  906SOL    HW1 3617   0.259   2.201   6.472
  906SOL    HW2 3618   0.220   2.076   6.375
  907SOL     OW 3619   5.635   3.344   0.709
  907SOL    HW1 3620   5.558   3.282   0.726
  907SOL    HW2 3621   5.627   3.423   0.770
  908SOL     OW 3622   2.790   4.726   3.093
  908SOL    HW1 3623   2.731   4.755   3.169
  908SOL    HW2 3624   2.884   4.715   3.125
  909SOL     OW 3625   3.997   6.643   1.413
  909SOL    HW1 3626   3.900   6.638   1.392
  909SOL    HW2 3627   4.046   6.570   1.364
  910SOL     OW 3628   3.472   1.798   1.257
  910SOL    HW1 3629   3.568   1.770   1.260
  910SOL    HW2 3630   3.414   1.722   1.286
  911SOL     OW 3631   1.145   6.657   6.564
  911SOL    HW1 3632   1.241   6.633   6.580
  911SOL    HW2 3633   1.090   6.573   6.557
  912SOL     OW 3634   6.027   1.614   2.968
  912SOL    HW1 3635   6.117   1.616   2.925
  912SOL    HW2 3636   5.979   1.701   2.950
  913SOL     OW 3637   3.574   0.682   3.299
  913SOL    HW1 3638   3.602   0.720   3.212
  913SOL    HW2 3639   3.503   0.739   3.340
  914SOL     OW 3640   2.150   0.060   6.154
  914SOL    HW1 3641   2.110   6.990   6.126
  914SOL    HW2 3642   2.247   0.061   6.130
  915SOL     OW 3643   6.016   3.595   6.774
  915SOL    HW1 3644   6.035   3.497   6.769
  915SOL    HW2 3645   5.947   3.619   6.706
  916SOL     OW 3646   1.601   3.245   2.412
  916SOL    HW1 3647   1.650   3.194   2.342
  916SOL    HW2 3648   1.607   3.196   2.499
  917SOL     OW 3649   0.678   6.669   1.394
  917SOL    HW1 3650   0.763   6.642   1.438
  917SOL    HW2 3651   0.600   6.638   1.449
  918SOL     OW 3652   3.999   0.822   1.267
  918SOL    HW1 3653   4.009   0.918   1.243
  918SOL    HW2 3654   4.024   0.765   1.189
  919SOL     OW 3655   6.777   0.128   2.665
  919SOL    HW1 3656   6.811   0.220   2.644
  919SOL    HW2 3657   6.727   0.093   2.586
  920SOL     OW 3658   2.158   4.052   2.289
  920SOL    HW1 3659   2.160   3.993   2.370
  920SOL    HW2 3660   2.114   4.139   2.312
  921SOL     OW 3661   3.819   5.372   4.340
  921SOL    HW1 3662   3.893   5.307   4.326
  921SOL    HW2 3663   3.856   5.464   4.353
  922SOL     OW 3664   3.134   3.085   4.268
  922SOL    HW1 3665   3.047   3.040   4.251
  922SOL    HW2 3666   3.140   3.169   4.213
  923SOL     OW 3667   2.186   3.645   6.305
  923SOL    HW1 3668   2.135   3.621   6.222
  923SOL    HW2 3669   2.181   3.744   6.319
  924SOL     OW 3670   6.729   3.774   1.952
  924SOL    HW1 3671   6.662   3.734   1.889
  924SOL    HW2 3672   6.807   3.712   1.960
  925SOL     OW 3673   0.193   1.878   6.802
  925SOL    HW1 3674   0.154   1.796   6.842
  925SOL    HW2 3675   0.147   1.959   6.839
  926SOL     OW 3676   6.757   1.204   1.362
  926SOL    HW1 3677   6.713   1.161   1.441
  926SOL    HW2 3678   6.692   1.266   1.317
  927SOL     OW 3679   5.660   3.726   3.139
  927SOL    HW1 3680   5.576   3.765   3.101
  927SOL    HW2 3681   5.719   3.695   3.064
  928SOL     OW 3682   2.370   5.973   0.214
  928SOL    HW1 3683   2.322   5.887   0.198
  928SOL    HW2 3684   2.354   6.002   0.309
  929SOL     OW 3685   0.113   0.500   6.946
  929SOL    HW1 3686   0.187   0.565   6.931
  929SOL    HW2 3687   0.102   0.442   6.865
  930SOL     OW 3688   5.570   6.712   6.197
  930SOL    HW1 3689   5.638   6.683   6.265
  930SOL    HW2 3690   5.548   6.635   6.137
  931SOL     OW 3691   0.043   0.624   5.080
  931SOL    HW1 3692   0.007   0.668   4.998
  931SOL    HW2 3693   0.138   0.650   5.093
  932SOL     OW 3694   3.161   1.032   3.211
  932SOL    HW1 3695   3.113   1.078   3.286
  932SOL    HW2 3696   3.181   0.938   3.238
  933SOL     OW 3697   1.603   5.373   3.553
  933SOL    HW1 3698   1.597   5.353   3.455
  933SOL    HW2 3699   1.669   5.312   3.596
  934SOL     OW 3700   2.631   5.928   0.081
  934SOL    HW1 3701   2.670   5.838   0.063
  934SOL    HW2 3702   2.543   5.918   0.128
  935SOL     OW 3703   5.253   4.167   4.409
  935SOL    HW1 3704   5.294   4.171   4.500
  935SOL    HW2 3705   5.177   4.102   4.411
  936SOL     OW 3706   0.050   0.231   5.683
  936SOL    HW1 3707   7.000   0.164   5.717
  936SOL    HW2 3708   0.070   0.213   5.587
  937SOL     OW 3709   5.867   1.521   6.429
  937SOL    HW1 3710   5.842   1.616   6.448
  937SOL    HW2 3711   5.878   1.471   6.514
  938SOL     OW 3712   5.908   4.667   6.100
  938SOL    HW1 3713   5.855   4.745   6.067
  938SOL    HW2 3714   5.867   4.633   6.184
  939SOL     OW 3715   0.581   6.680   3.531
  939SOL    HW1 3716   0.501   6.739   3.536
  939SOL    HW2 3717   0.643   6.702   3.606
  940SOL     OW 3718   0.454   4.178   0.921
  940SOL    HW1 3719   0.423   4.151   0.830
  940SOL    HW2 3720   0.447   4.278   0.931
  941SOL     OW 3721   5.663   1.769   0.173
  941SOL    HW1 3722   5.628   1.693   0.118
  941SOL    HW2 3723   5.641   1.856   0.128
  942SOL     OW 3724   5.753   6.981   2.193
  942SOL    HW1 3725   5.809   6.930   2.258
  942SOL    HW2 3726   5.810   0.028   2.142
  943SOL     OW 3727   1.311   4.542   2.836
  943SOL    HW1 3728   1.257   4.511   2.758
  943SOL    HW2 3729   1.271   4.626   2.873
  944SOL     OW 3730   0.340   5.565   5.428
  944SOL    HW1 3731   0.368   5.523   5.514
  944SOL    HW2 3732   0.265   5.513   5.388
  945SOL     OW 3733   0.860   4.624   6.082
  945SOL    HW1 3734   0.785   4.576   6.038
  945SOL    HW2 3735   0.925   4.656   6.012
  946SOL     OW 3736   4.957   4.156   5.522
  946SOL    HW1 3737   5.017   4.226   5.562
  946SOL    HW2 3738   4.939   4.178   5.426
  947SOL     OW 3739   3.432   3.022   3.120
  947SOL    HW1 3740   3.507   2.987   3.063
  947SOL    HW2 3741   3.433   3.122   3.119
  948SOL     OW 3742   5.123   1.250   3.093
  948SOL    HW1 3743   5.033   1.246   3.050
  948SOL    HW2 3744   5.113   1.264   3.191
  949SOL     OW 3745   2.741   5.668   0.078
  949SOL    HW1 3746   2.834   5.637   0.055
  949SOL    HW2 3747   2.684   5.589   0.101
  950SOL     OW 3748   5.929   6.196   2.023
  950SOL    HW1 3749   5.839   6.168   2.056
  950SOL    HW2 3750   5.998   6.175   2.092
  951SOL     OW 3751   1.885   7.002   4.111
  951SOL    HW1 3752   1.821   0.013   4.040
  951SOL    HW2 3753   1.973   0.030   4.096
  952SOL     OW 3754   4.681   2.567   3.230
  952SOL    HW1 3755   4.742   2.523   3.164
  952SOL    HW2 3756   4.668   2.663   3.203
  953SOL     OW 3757   5.725   5.788   4.604
  953SOL    HW1 3758   5.815   5.807   4.564
  953SOL    HW2 3759   5.657   5.782   4.531
  954SOL     OW 3760   3.727   5.760   2.529
  954SOL    HW1 3761   3.779   5.765   2.443
  954SOL    HW2 3762   3.727   5.666   2.563
  955SOL     OW 3763   1.385   4.264   0.947
  955SOL    HW1 3764   1.435   4.296   1.027
  955SOL    HW2 3765   1.353   4.342   0.894
  956SOL     OW 3766   6.237   0.602   1.402
  956SOL    HW1 3767   6.202   0.617   1.494
  956SOL    HW2 3768   6.218   0.683   1.346
  957SOL     OW 3769   5.567   2.550   2.288
  957SOL    HW1 3770   5.481   2.589   2.254
  957SOL    HW2 3771   5.547   2.465   2.337
  958SOL     OW 3772   4.226   0.475   1.527
  958SOL    HW1 3773   4.145   0.499   1.474
  958SOL    HW2 3774   4.303   0.533   1.498
  959SOL     OW 3775   3.634   6.629   4.616
  959SOL    HW1 3776   3.684   6.614   4.530
  959SOL    HW2 3777   3.605   6.541   4.653
  960SOL     OW 3778   0.953   0.342   1.516
  960SOL    HW1 3779   0.881   0.275   1.532
  960SOL    HW2 3780   1.030   0.323   1.578
  961SOL     OW 3781   4.182   6.379   3.180
  961SOL    HW1 3782   4.276   6.376   3.145
  961SOL    HW2 3783   4.166   6.468   3.223
  962SOL     OW 3784   7.004   0.341   5.052
  962SOL    HW1 3785   0.013   0.434   5.028
  962SOL    HW2 3786   7.004   0.331   5.152
  963SOL     OW 3787   4.966   0.863   0.011
  963SOL    HW1 3788   5.013   0.860   0.099
  963SOL    HW2 3789   4.978   0.775   6.981
  964SOL     OW 3790   4.892   4.798   6.109
  964SOL    HW1 3791   4.992   4.795   6.105
  964SOL    HW2 3792   4.858   4.708   6.136
  965SOL     OW 3793   6.202   1.351   2.337
  965SOL    HW1 3794   6.138   1.278   2.362
  965SOL    HW2 3795   6.275   1.314   2.280
  966SOL     OW 3796   5.587   2.419   2.631
  966SOL    HW1 3797   5.641   2.357   2.574
  966SOL    HW2 3798   5.609   2.404   2.727
  967SOL     OW 3799   3.177   4.559   0.685
  967SOL    HW1 3800   3.203   4.651   0.714
  967SOL    HW2 3801   3.257   4.499   0.690
  968SOL     OW 3802   4.348   0.365   1.760
  968SOL    HW1 3803   4.336   0.434   1.832
  968SOL    HW2 3804   4.317   0.401   1.673
  969SOL     OW 3805   2.741   4.336   5.759
  969SOL    HW1 3806   2.722   4.303   5.851
  969SOL    HW2 3807   2.664   4.391   5.726
  970SOL     OW 3808   5.170   0.790   6.673
  970SOL    HW1 3809   5.223   0.875   6.680
  970SOL    HW2 3810   5.219   0.723   6.618
  971SOL     OW 3811   6.925   3.271   2.875
  971SOL    HW1 3812   6.892   3.355   2.832
  971SOL    HW2 3813   7.004   3.236   2.824
  972SOL     OW 3814   6.102   1.751   1.491
  972SOL    HW1 3815   6.142   1.840   1.512
  972SOL    HW2 3816   6.087   1.743   1.393
  973SOL     OW 3817   0.749   5.483   6.568
  973SOL    HW1 3818   0.673   5.478   6.634
  973SOL    HW2 3819   0.800   5.398   6.569
  974SOL     OW 3820   6.539   5.944   1.834
  974SOL    HW1 3821   6.528   5.929   1.932
  974SOL    HW2 3822   6.621   6.000   1.817
  975SOL     OW 3823   2.443   0.392   0.368
  975SOL    HW1 3824   2.446   0.487   0.337
  975SOL    HW2 3825   2.481   0.386   0.460
  976SOL     OW 3826   0.009   3.318   1.490
  976SOL    HW1 3827   7.001   3.327   1.587
  976SOL    HW2 3828   0.047   3.404   1.457
  977SOL     OW 3829   0.564   0.408   2.270
  977SOL    HW1 3830   0.548   0.437   2.364
  977SOL    HW2 3831   0.581   0.309   2.268
  978SOL     OW 3832   5.455   1.855   0.408
  978SOL    HW1 3833   5.422   1.767   0.376
  978SOL    HW2 3834   5.522   1.891   0.343
  979SOL     OW 3835   0.866   3.760   7.004
  979SOL    HW1 3836   0.830   3.765   0.081
  979SOL    HW2 3837   0.810   3.818   6.945
  980SOL     OW 3838   5.155   2.161   4.001
  980SOL    HW1 3839   5.063   2.182   3.967
  980SOL    HW2 3840   5.223   2.193   3.936
  981SOL     OW 3841   0.299   0.806   5.004
  981SOL    HW1 3842   0.261   0.895   4.978
  981SOL    HW2 3843   0.315   0.751   4.923
  982SOL     OW 3844   0.825   1.337   4.910
  982SOL    HW1 3845   0.913   1.289   4.910
  982SOL    HW2 3846   0.840   1.435   4.896
  983SOL     OW 3847   6.609   3.027   3.165
  983SOL    HW1 3848   6.626   3.023   3.264
  983SOL    HW2 3849   6.636   3.117   3.131
  984SOL     OW 3850   2.251   2.597   3.696
  984SOL    HW1 3851   2.264   2.532   3.771
  984SOL    HW2 3852   2.153   2.606   3.677
  985SOL     OW 3853   6.466   3.787   4.650
  985SOL    HW1 3854   6.462   3.714   4.581
  985SOL    HW2 3855   6.510   3.752   4.733
  986SOL     OW 3856   4.753   4.413   1.339
  986SOL    HW1 3857   4.743   4.332   1.398
  986SOL    HW2 3858   4.776   4.492   1.395
  987SOL     OW 3859   4.517   6.645   2.573
  987SOL    HW1 3860   4.445   6.637   2.642
  987SOL    HW2 3861   4.500   6.726   2.517
  988SOL     OW 3862   3.147   4.234   1.132
  988SOL    HW1 3863   3.192   4.228   1.222
  988SOL    HW2 3864   3.052   4.207   1.141
  989SOL     OW 3865   6.564   1.669   6.825
  989SOL    HW1 3866   6.510   1.753   6.817
  989SOL    HW2 3867   6.587   1.653   6.921
  990SOL     OW 3868   3.130   0.685   2.267
  990SOL    HW1 3869   3.190   0.740   2.325
  990SOL    HW2 3870   3.038   0.684   2.305
  991SOL     OW 3871   0.384   3.610   3.612
  991SOL    HW1 3872   0.436   3.671   3.552
  991SOL    HW2 3873   0.324   3.663   3.671
  992SOL     OW 3874   0.224   3.359   1.707
  992SOL    HW1 3875   0.201   3.456   1.713
  992SOL    HW2 3876   0.155   3.306   1.755
  993SOL     OW 3877   0.056   4.244   0.564
  993SOL    HW1 3878   0.026   4.217   0.473
  993SOL    HW2 3879   6.994   4.272   0.618
  994SOL     OW 3880   4.262   5.307   2.060
  994SOL    HW1 3881   4.359   5.303   2.035
  994SOL    HW2 3882   4.244   5.241   2.133
  995SOL     OW 3883   3.971   2.826   6.176
  995SOL    HW1 3884   3.986   2.840   6.274
  995SOL    HW2 3885   4.046   2.868   6.124
  996SOL     OW 3886   3.506   5.127   4.629
  996SOL    HW1 3887   3.564   5.098   4.705
  996SOL    HW2 3888   3.526   5.222   4.606
  997SOL     OW 3889   1.123   6.523   3.211
  997SOL    HW1 3890   1.091   6.434   3.176
  997SOL    HW2 3891   1.169   6.509   3.299
  998SOL     OW 3892   6.334   0.212   6.037
  998SOL    HW1 3893   6.248   0.161   6.045
  998SOL    HW2 3894   6.376   0.221   6.128
  999SOL     OW 3895   4.873   3.598   2.155
  999SOL    HW1 3896   4.909   3.538   2.227
  999SOL    HW2 3897   4.843   3.685   2.194
 1000SOL     OW 3898   4.149   1.606   1.350
 1000SOL    HW1 3899   4.156   1.541   1.426
 1000SOL    HW2 3900   4.241   1.628   1.317
 1001SOL     OW 3901   4.091   6.248   1.988
 1001SOL    HW1 3902   4.178   6.292   2.009
 1001SOL    HW2 3903   4.023   6.317   1.962
 1002SOL     OW 3904   5.421   2.114   1.318
 1002SOL    HW1 3905   5.469   2.129   1.405
 1002SOL    HW2 3906   5.326   2.141   1.328
 1003SOL     OW 3907   2.223   5.356   3.490
 1003SOL    HW1 3908   2.145   5.380   3.432
 1003SOL    HW2 3909   2.200   5.275   3.545
 1004SOL     OW 3910   0.487   1.134   2.339
 1004SOL    HW1 3911   0.505   1.062   2.272
 1004SOL    HW2 3912   0.390   1.135   2.362
 1005SOL     OW 3913   1.510   2.997   4.011
 1005SOL    HW1 3914   1.437   3.053   4.050
 1005SOL    HW2 3915   1.562   3.051   3.945
 1006SOL     OW 3916   1.403   4.207   0.390
 1006SOL    HW1 3917   1.483   4.150   0.369
 1006SOL    HW2 3918   1.373   4.190   0.483
 1007SOL     OW 3919   4.726   0.715   5.571
 1007SOL    HW1 3920   4.697   0.639   5.628
 1007SOL    HW2 3921   4.706   0.694   5.475
 1008SOL     OW 3922   0.716   2.254   5.406
 1008SOL    HW1 3923   0.722   2.339   5.353
 1008SOL    HW2 3924   0.804   2.207   5.403
 1009SOL     OW 3925   6.503   5.110   5.923
 1009SOL    HW1 3926   6.536   5.017   5.913
 1009SOL    HW2 3927   6.415   5.109   5.971
 1010SOL     OW 3928   2.838   3.218   1.427
 1010SOL    HW1 3929   2.880   3.144   1.480
 1010SOL    HW2 3930   2.739   3.220   1.445
 1011SOL     OW 3931   1.150   5.228   3.687
 1011SOL    HW1 3932   1.084   5.153   3.693
 1011SOL    HW2 3933   1.151   5.265   3.594
 1012SOL     OW 3934   0.060   6.297   1.897
 1012SOL    HW1 3935   0.022   6.279   1.806
 1012SOL    HW2 3936   7.013   6.352   1.950
 1013SOL     OW 3937   0.387   0.607   5.919
 1013SOL    HW1 3938   0.354   0.659   5.841
 1013SOL    HW2 3939   0.310   0.565   5.967
 1014SOL     OW 3940   0.557   4.156   5.004
 1014SOL    HW1 3941   0.551   4.245   5.050
 1014SOL    HW2 3942   0.575   4.171   4.906
 1015SOL     OW 3943   2.270   0.382   6.221
 1015SOL    HW1 3944   2.312   0.470   6.197
 1015SOL    HW2 3945   2.277   0.319   6.144
 1016SOL     OW 3946   4.258   4.390   0.568
 1016SOL    HW1 3947   4.310   4.474   0.583
 1016SOL    HW2 3948   4.187   4.406   0.500
 1017SOL     OW 3949   3.757   2.245   0.904
 1017SOL    HW1 3950   3.671   2.293   0.919
 1017SOL    HW2 3951   3.780   2.246   0.807
 1018SOL     OW 3952   0.857   4.643   4.248
 1018SOL    HW1 3953   0.776   4.672   4.196
 1018SOL    HW2 3954   0.838   4.648   4.346
 1019SOL     OW 3955   0.061   5.841   1.186
 1019SOL    HW1 3956   6.998   5.810   1.238
 1019SOL    HW2 3957   0.089   5.931   1.219
 1020SOL     OW 3958   6.332   1.238   1.678
 1020SOL    HW1 3959   6.304   1.319   1.730
 1020SOL    HW2 3960   6.316   1.253   1.581
 1021SOL     OW 3961   5.577   6.824   2.035
 1021SOL    HW1 3962   5.627   6.888   2.093
 1021SOL    HW2 3963   5.535   6.874   1.959
 1022SOL     OW 3964   2.901   4.989   5.504
 1022SOL    HW1 3965   2.977   4.929   5.480
 1022SOL    HW2 3966   2.862   5.029   5.421
 1023SOL     OW 3967   0.301   0.652   2.851
 1023SOL    HW1 3968   0.401   0.646   2.847
 1023SOL    HW2 3969   0.270   0.631   2.943
 1024SOL     OW 3970   0.386   2.065   3.850
 1024SOL    HW1 3971   0.419   2.070   3.756
 1024SOL    HW2 3972   0.291   2.035   3.850
 1025SOL     OW 3973   3.432   3.600   0.521
 1025SOL    HW1 3974   3.532   3.600   0.528
 1025SOL    HW2 3975   3.395   3.679   0.571
 1026SOL     OW 3976   2.385   3.238   1.741
 1026SOL    HW1 3977   2.483   3.254   1.733
 1026SOL    HW2 3978   2.342   3.315   1.788
 1027SOL     OW 3979   2.338   6.932   2.459
 1027SOL    HW1 3980   2.253   6.889   2.489
 1027SOL    HW2 3981   2.376   6.985   2.535
 1028SOL     OW 3982   1.297   0.077   2.897
 1028SOL    HW1 3983   1.300   0.142   2.822
 1028SOL    HW2 3984   1.312   7.001   2.862
 1029SOL     OW 3985   1.185   2.010   5.889
 1029SOL    HW1 3986   1.179   1.911   5.904
 1029SOL    HW2 3987   1.178   2.058   5.977
 1030SOL     OW 3988   3.424   3.434   1.639
 1030SOL    HW1 3989   3.352   3.433   1.570
 1030SOL    HW2 3990   3.509   3.401   1.598
 1031SOL     OW 3991   4.909   3.248   1.756
 1031SOL    HW1 3992   4.921   3.182   1.682
 1031SOL    HW2 3993   4.832   3.308   1.735
 1032SOL     OW 3994   1.582   1.022   5.037
 1032SOL    HW1 3995   1.551   1.108   5.078
 1032SOL    HW2 3996   1.537   1.009   4.949
 1033SOL     OW 3997   1.633   5.417   2.124
 1033SOL    HW1 3998   1.636   5.318   2.114
 1033SOL    HW2 3999   1.722   5.456   2.100
 1034SOL     OW 4000   1.594   5.366   4.493
 1034SOL    HW1 4001   1.562   5.412   4.576
 1034SOL    HW2 4002   1.518   5.359   4.428
 1035SOL     OW 4003   0.308   2.238   6.871
 1035SOL    HW1 4004   0.365   2.201   6.798
 1035SOL    HW2 4005   0.249   2.166   6.907
 1036SOL     OW 4006   4.226   1.228   1.595
 1036SOL    HW1 4007   4.284   1.221   1.676
 1036SOL    HW2 4008   4.236   1.146   1.539
 1037SOL     OW 4009   1.822   1.503   2.793
 1037SOL    HW1 4010   1.815   1.491   2.892
 1037SOL    HW2 4011   1.750   1.450   2.748
 1038SOL     OW 4012   1.850   1.553   5.080
 1038SOL    HW1 4013   1.936   1.548   5.029
 1038SOL    HW2 4014   1.861   1.615   5.157
 1039SOL     OW 4015   3.388   3.983   4.414
 1039SOL    HW1 4016   3.413   4.053   4.481
 1039SOL    HW2 4017   3.437   4.000   4.329
 1040SOL     OW 4018   4.903   0.926   1.986
 1040SOL    HW1 4019   4.999   0.944   2.006
 1040SOL    HW2 4020   4.892   0.831   1.958
 1041SOL     OW 4021   6.708   5.803   3.418
 1041SOL    HW1 4022   6.691   5.863   3.339
 1041SOL    HW2 4023   6.648   5.830   3.493
 1042SOL     OW 4024   4.108   5.230   2.641
 1042SOL    HW1 4025   4.064   5.318   2.620
 1042SOL    HW2 4026   4.203   5.233   2.610
 1043SOL     OW 4027   3.905   2.190   3.417
 1043SOL    HW1 4028   3.942   2.221   3.504
 1043SOL    HW2 4029   3.844   2.112   3.432
 1044SOL     OW 4030   5.997   5.080   2.319
 1044SOL    HW1 4031   6.066   5.110   2.253
 1044SOL    HW2 4032   5.959   5.160   2.365
 1045SOL     OW 4033   4.160   0.575   2.779
 1045SOL    HW1 4034   4.152   0.647   2.848
 1045SOL    HW2 4035   4.070   0.557   2.739
 1046SOL     OW 4036   1.934   1.443   0.107
 1046SOL    HW1 4037   1.885   1.422   0.192
 1046SOL    HW2 4038   1.943   1.542   0.098
 1047SOL     OW 4039   2.620   0.713   4.131
 1047SOL    HW1 4040   2.582   0.628   4.168
 1047SOL    HW2 4041   2.569   0.739   4.048
 1048SOL     OW 4042   3.286   6.067   1.558
 1048SOL    HW1 4043   3.362   6.003   1.547
 1048SOL    HW2 4044   3.250   6.060   1.651
 1049SOL     OW 4045   6.289   7.009   3.677
 1049SOL    HW1 4046   6.196   0.002   3.642
 1049SOL    HW2 4047   6.343   6.956   3.611
 1050SOL     OW 4048   3.754   5.038   2.090
 1050SOL    HW1 4049   3.661   5.001   2.099
 1050SOL    HW2 4050   3.784   5.074   2.178
 1051SOL     OW 4051   0.585   5.344   0.518
 1051SOL    HW1 4052   0.531   5.386   0.591
 1051SOL    HW2 4053   0.671   5.393   0.508
 1052SOL     OW 4054   4.680   0.659   5.313
 1052SOL    HW1 4055   4.752   0.651   5.245
 1052SOL    HW2 4056   4.591   0.646   5.269
 1053SOL     OW 4057   5.473   3.932   2.524
 1053SOL    HW1 4058   5.426   3.854   2.565
 1053SOL    HW2 4059   5.564   3.940   2.564
 1054SOL     OW 4060   2.899   3.403   1.022
 1054SOL    HW1 4061   2.895   3.426   1.119
 1054SOL    HW2 4062   2.922   3.306   1.012
 1055SOL     OW 4063   4.164   6.176   5.584
 1055SOL    HW1 4064   4.260   6.177   5.614
 1055SOL    HW2 4065   4.104   6.174   5.664
 1056SOL     OW 4066   1.434   3.703   0.447
 1056SOL    HW1 4067   1.351   3.673   0.493
 1056SOL    HW2 4068   1.511   3.703   0.511
 1057SOL     OW 4069   3.466   3.036   1.350
 1057SOL    HW1 4070   3.536   3.027   1.421
 1057SOL    HW2 4071   3.387   2.978   1.374
 1058SOL     OW 4072   5.188   2.295   4.247
 1058SOL    HW1 4073   5.224   2.241   4.170
 1058SOL    HW2 4074   5.171   2.388   4.217
 1059SOL     OW 4075   2.088   6.782   1.984
 1059SOL    HW1 4076   2.045   6.844   2.049
 1059SOL    HW2 4077   2.187   6.800   1.981
 1060SOL     OW 4078   0.169   4.530   4.144
 1060SOL    HW1 4079   0.242   4.573   4.090
 1060SOL    HW2 4080   0.164   4.573   4.234
 1061SOL     OW 4081   6.619   3.433   5.928
 1061SOL    HW1 4082   6.621   3.341   5.969
 1061SOL    HW2 4083   6.710   3.454   5.892
 1062SOL     OW 4084   4.882   5.465   6.177
 1062SOL    HW1 4085   4.798   5.519   6.172
 1062SOL    HW2 4086   4.921   5.455   6.086
 1063SOL     OW 4087   0.260   6.142   0.391
 1063SOL    HW1 4088   0.342   6.113   0.342
 1063SOL    HW2 4089   0.205   6.062   0.415
 1064SOL     OW 4090   1.660   4.366   2.196
 1064SOL    HW1 4091   1.575   4.387   2.146
 1064SOL    HW2 4092   1.645   4.381   2.294
 1065SOL     OW 4093   4.428   1.012   2.800
 1065SOL    HW1 4094   4.415   0.943   2.729
 1065SOL    HW2 4095   4.469   1.094   2.759
 1066SOL     OW 4096   4.346   6.673   2.771
 1066SOL    HW1 4097   4.360   6.678   2.870
 1066SOL    HW2 4098   4.319   6.580   2.746
 1067SOL     OW 4099   1.928   2.391   0.172
 1067SOL    HW1 4100   1.836   2.395   0.132
 1067SOL    HW2 4101   1.925   2.339   0.257
 1068SOL     OW 4102   6.656   4.457   1.289
 1068SOL    HW1 4103   6.589   4.393   1.328
 1068SOL    HW2 4104   6.745   4.411   1.281
 1069SOL     OW 4105   5.178   6.103   0.709
 1069SOL    HW1 4106   5.172   6.117   0.807
 1069SOL    HW2 4107   5.184   6.191   0.662
 1070SOL     OW 4108   1.537   0.403   1.843
 1070SOL    HW1 4109   1.486   0.340   1.902
 1070SOL    HW2 4110   1.570   0.354   1.762
 1071SOL     OW 4111   2.339   1.941   3.841
 1071SOL    HW1 4112   2.411   1.872   3.847
 1071SOL    HW2 4113   2.379   2.032   3.854
 1072SOL     OW 4114   2.488   0.883   1.192
 1072SOL    HW1 4115   2.491   0.980   1.167
 1072SOL    HW2 4116   2.578   0.855   1.226
 1073SOL     OW 4117   4.745   1.015   3.257
 1073SOL    HW1 4118   4.702   0.925   3.244
 1073SOL    HW2 4119   4.799   1.013   3.341
 1074SOL     OW 4120   2.675   5.213   1.857
 1074SOL    HW1 4121   2.771   5.186   1.849
 1074SOL    HW2 4122   2.666   5.310   1.835
 1075SOL     OW 4123   5.976   0.545   3.434
 1075SOL    HW1 4124   5.924   0.494   3.365
 1075SOL    HW2 4125   6.073   0.519   3.427
 1076SOL     OW 4126   0.860   2.114   6.158
 1076SOL    HW1 4127   0.842   2.021   6.191
 1076SOL    HW2 4128   0.775   2.167   6.160
 1077SOL     OW 4129   6.653   6.593   1.075
 1077SOL    HW1 4130   6.573   6.641   1.038
 1077SOL    HW2 4131   6.713   6.565   1.000
 1078SOL     OW 4132   6.593   0.573   3.211
 1078SOL    HW1 4133   6.502   0.564   3.251
 1078SOL    HW2 4134   6.640   0.650   3.253
 1079SOL     OW 4135   1.415   5.494   2.314
 1079SOL    HW1 4136   1.328   5.503   2.265
 1079SOL    HW2 4137   1.482   5.449   2.254
 1080SOL     OW 4138   2.322   5.323   3.857
 1080SOL    HW1 4139   2.321   5.410   3.906
 1080SOL    HW2 4140   2.415   5.304   3.825
 1081SOL     OW 4141   6.521   5.364   5.837
 1081SOL    HW1 4142   6.532   5.271   5.871
 1081SOL    HW2 4143   6.606   5.395   5.796
 1082SOL     OW 4144   6.103   1.952   5.929
 1082SOL    HW1 4145   6.051   2.013   5.869
 1082SOL    HW2 4146   6.044   1.877   5.960
 1083SOL     OW 4147   4.889   3.522   0.621
 1083SOL    HW1 4148   4.932   3.441   0.582
 1083SOL    HW2 4149   4.797   3.499   0.652
 1084SOL     OW 4150   6.479   6.672   6.204
 1084SOL    HW1 4151   6.417   6.597   6.223
 1084SOL    HW2 4152   6.437   6.759   6.232
 1085SOL     OW 4153   1.818   4.110   4.680
 1085SOL    HW1 4154   1.767   4.055   4.747
 1085SOL    HW2 4155   1.900   4.148   4.723
 1086SOL     OW 4156   6.806   4.611   0.586
 1086SOL    HW1 4157   6.846   4.701   0.605
 1086SOL    HW2 4158   6.844   4.544   0.649
 1087SOL     OW 4159   7.004   1.829   4.699
 1087SOL    HW1 4160   0.041   1.912   4.682
 1087SOL    HW2 4161   6.927   1.851   4.758
 1088SOL     OW 4162   0.257   4.271   2.635
 1088SOL    HW1 4163   0.180   4.325   2.668
 1088SOL    HW2 4164   0.242   4.175   2.658
 1089SOL     OW 4165   6.465   5.313   4.847
 1089SOL    HW1 4166   6.528   5.236   4.857
 1089SOL    HW2 4167   6.419   5.329   4.935
 1090SOL     OW 4168   3.650   2.093   2.671
 1090SOL    HW1 4169   3.688   2.023   2.732
 1090SOL    HW2 4170   3.718   2.119   2.604
 1091SOL     OW 4171   2.208   3.072   4.107
 1091SOL    HW1 4172   2.285   3.008   4.101
 1091SOL    HW2 4173   2.174   3.092   4.015
 1092SOL     OW 4174   1.397   5.019   0.482
 1092SOL    HW1 4175   1.457   4.961   0.428
 1092SOL    HW2 4176   1.358   4.967   0.558
 1093SOL     OW 4177   2.997   6.608   1.816
 1093SOL    HW1 4178   2.969   6.639   1.725
 1093SOL    HW2 4179   2.928   6.635   1.883
 1094SOL     OW 4180   0.517   6.352   2.419
 1094SOL    HW1 4181   0.565   6.432   2.456
 1094SOL    HW2 4182   0.422   6.377   2.401
 1095SOL     OW 4183   0.291   2.934   6.144
 1095SOL    HW1 4184   0.248   2.930   6.054
 1095SOL    HW2 4185   0.374   2.878   6.145
 1096SOL     OW 4186   3.509   4.440   1.450
 1096SOL    HW1 4187   3.496   4.490   1.364
 1096SOL    HW2 4188   3.456   4.483   1.522
 1097SOL     OW 4189   2.141   4.243   3.861
 1097SOL    HW1 4190   2.059   4.277   3.906
 1097SOL    HW2 4191   2.189   4.180   3.922
 1098SOL     OW 4192   5.734   3.186   6.327
 1098SOL    HW1 4193   5.769   3.263   6.276
 1098SOL    HW2 4194   5.789   3.104   6.308
 1099SOL     OW 4195   4.313   0.961   6.193
 1099SOL    HW1 4196   4.280   1.055   6.200
 1099SOL    HW2 4197   4.349   0.932   6.282
 1100SOL     OW 4198   4.319   1.411   4.409
 1100SOL    HW1 4199   4.384   1.336   4.400
 1100SOL    HW2 4200   4.262   1.398   4.490
 1101SOL     OW 4201   5.496   3.838   5.737
 1101SOL    HW1 4202   5.414   3.893   5.757
 1101SOL    HW2 4203   5.494   3.807   5.642
 1102SOL     OW 4204   1.948   0.807   4.757
 1102SOL    HW1 4205   1.954   0.709   4.738
 1102SOL    HW2 4206   1.862   0.828   4.803
 1103SOL     OW 4207   3.156   1.816   0.418
 1103SOL    HW1 4208   3.173   1.726   0.378
 1103SOL    HW2 4209   3.143   1.807   0.516
 1104SOL     OW 4210   1.856   3.783   4.294
 1104SOL    HW1 4211   1.802   3.754   4.373
 1104SOL    HW2 4212   1.943   3.734   4.293
 1105SOL     OW 4213   5.758   2.970   4.631
 1105SOL    HW1 4214   5.662   2.943   4.627
 1105SOL    HW2 4215   5.768   3.060   4.588
 1106SOL     OW 4216   0.910   2.215   1.419
 1106SOL    HW1 4217   0.910   2.185   1.514
 1106SOL    HW2 4218   0.841   2.163   1.368
 1107SOL     OW 4219   1.235   0.211   0.082
 1107SOL    HW1 4220   1.243   0.113   0.096
 1107SOL    HW2 4221   1.140   0.236   0.067
 1108SOL     OW 4222   3.225   6.790   5.388
 1108SOL    HW1 4223   3.285   6.713   5.366
 1108SOL    HW2 4224   3.281   6.870   5.411
 1109SOL     OW 4225   5.735   0.948   4.726
 1109SOL    HW1 4226   5.654   0.892   4.712
 1109SOL    HW2 4227   5.815   0.901   4.689
 1110SOL     OW 4228   4.616   2.248   2.631
 1110SOL    HW1 4229   4.592   2.344   2.618
 1110SOL    HW2 4230   4.666   2.215   2.551
 1111SOL     OW 4231   5.801   5.862   6.631
 1111SOL    HW1 4232   5.841   5.915   6.556
 1111SOL    HW2 4233   5.826   5.903   6.718
 1112SOL     OW 4234   5.793   1.126   2.871
 1112SOL    HW1 4235   5.695   1.131   2.850
 1112SOL    HW2 4236   5.816   1.198   2.936
 1113SOL     OW 4237   5.733   4.149   1.234
 1113SOL    HW1 4238   5.738   4.119   1.139
 1113SOL    HW2 4239   5.699   4.074   1.291
 1114SOL     OW 4240   2.419   1.513   6.217
 1114SOL    HW1 4241   2.486   1.451   6.177
 1114SOL    HW2 4242   2.359   1.463   6.279
 1115SOL     OW 4243   3.539   3.495   5.470
 1115SOL    HW1 4244   3.610   3.459   5.410
 1115SOL    HW2 4245   3.449   3.481   5.427
 1116SOL     OW 4246   5.221   6.918   6.514
 1116SOL    HW1 4247   5.244   7.003   6.562
 1116SOL    HW2 4248   5.256   6.841   6.566
 1117SOL     OW 4249   1.120   2.003   2.087
 1117SOL    HW1 4250   1.047   1.943   2.054
 1117SOL    HW2 4251   1.204   1.983   2.037
 1118SOL     OW 4252   2.303   5.258   0.120
 1118SOL    HW1 4253   2.240   5.336   0.127
 1118SOL    HW2 4254   2.323   5.224   0.212
 1119SOL     OW 4255   4.209   4.459   1.609
 1119SOL    HW1 4256   4.162   4.522   1.548
 1119SOL    HW2 4257   4.196   4.365   1.578
 1120SOL     OW 4258   5.982   5.732   0.934
 1120SOL    HW1 4259   5.958   5.679   1.015
 1120SOL    HW2 4260   5.909   5.725   0.866
 1121SOL     OW 4261   0.337   4.247   4.566
 1121SOL    HW1 4262   0.269   4.187   4.609
 1121SOL    HW2 4263   0.311   4.264   4.471
 1122SOL     OW 4264   5.741   2.978   2.348
 1122SOL    HW1 4265   5.745   2.937   2.257
 1122SOL    HW2 4266   5.661   3.038   2.354
 1123SOL     OW 4267   5.031   2.274   3.600
 1123SOL    HW1 4268   5.106   2.263   3.536
 1123SOL    HW2 4269   4.971   2.348   3.568
 1124SOL     OW 4270   0.083   3.841   5.236
 1124SOL    HW1 4271   0.027   3.844   5.153
 1124SOL    HW2 4272   0.025   3.821   5.315
 1125SOL     OW 4273   1.441   2.447   3.543
 1125SOL    HW1 4274   1.422   2.350   3.528
 1125SOL    HW2 4275   1.518   2.475   3.486
 1126SOL     OW 4276   6.157   5.789   6.199
 1126SOL    HW1 4277   6.246   5.750   6.174
 1126SOL    HW2 4278   6.129   5.856   6.130
 1127SOL     OW 4279   5.796   6.257   4.708
 1127SOL    HW1 4280   5.888   6.234   4.677
 1127SOL    HW2 4281   5.797   6.346   4.754
 1128SOL     OW 4282   5.989   1.152   4.626
 1128SOL    HW1 4283   5.948   1.092   4.557
 1128SOL    HW2 4284   6.086   1.164   4.605
 1129SOL     OW 4285   2.102   6.474   0.749
 1129SOL    HW1 4286   2.079   6.405   0.818
 1129SOL    HW2 4287   2.019   6.524   0.724
 1130SOL     OW 4288   2.284   4.962   1.048
 1130SOL    HW1 4289   2.246   5.025   0.980
 1130SOL    HW2 4290   2.343   4.895   1.002
 1131SOL     OW 4291   1.884   6.812   5.016
 1131SOL    HW1 4292   1.982   6.796   5.024
 1131SOL    HW2 4293   1.853   6.780   4.926
 1132SOL     OW 4294   4.454   0.098   2.765
 1132SOL    HW1 4295   4.442   0.195   2.742
 1132SOL    HW2 4296   4.537   0.064   2.721
 1133SOL     OW 4297   1.565   1.059   0.418
 1133SOL    HW1 4298   1.608   1.130   0.473
 1133SOL    HW2 4299   1.635   1.010   0.366
 1134SOL     OW 4300   4.844   0.107   2.802
 1134SOL    HW1 4301   4.935   0.101   2.761
 1134SOL    HW2 4302   4.851   0.090   2.900
 1135SOL     OW 4303   1.963   6.716   3.766
 1135SOL    HW1 4304   1.973   6.624   3.803
 1135SOL    HW2 4305   2.015   6.781   3.823
 1136SOL     OW 4306   4.223   4.670   2.314
 1136SOL    HW1 4307   4.144   4.729   2.326
 1136SOL    HW2 4308   4.227   4.638   2.220
 1137SOL     OW 4309   1.244   6.779   0.248
 1137SOL    HW1 4310   1.237   6.782   0.347
 1137SOL    HW2 4311   1.208   6.865   0.210
 1138SOL     OW 4312   0.393   1.367   5.263
 1138SOL    HW1 4313   0.319   1.379   5.329
 1138SOL    HW2 4314   0.427   1.273   5.268
 1139SOL     OW 4315   2.565   5.130   3.356
 1139SOL    HW1 4316   2.534   5.074   3.279
 1139SOL    HW2 4317   2.528   5.223   3.346
 1140SOL     OW 4318   2.686   0.356   2.021
 1140SOL    HW1 4319   2.728   0.267   2.003
 1140SOL    HW2 4320   2.757   0.425   2.033
 1141SOL     OW 4321   0.123   6.333   0.236
 1141SOL    HW1 4322   0.179   6.409   0.205
 1141SOL    HW2 4323   0.173   6.280   0.305
 1142SOL     OW 4324   3.482   0.588   4.129
 1142SOL    HW1 4325   3.532   0.516   4.081
 1142SOL    HW2 4326   3.468   0.562   4.224
 1143SOL     OW 4327   1.820   3.183   2.917
 1143SOL    HW1 4328   1.910   3.143   2.934
 1143SOL    HW2 4329   1.801   3.254   2.985
 1144SOL     OW 4330   5.578   4.679   3.513
 1144SOL    HW1 4331   5.612   4.585   3.512
 1144SOL    HW2 4332   5.637   4.735   3.571
 1145SOL     OW 4333   0.505   3.233   0.511
 1145SOL    HW1 4334   0.478   3.139   0.493
 1145SOL    HW2 4335   0.531   3.277   0.425
 1146SOL     OW 4336   0.624   1.921   2.132
 1146SOL    HW1 4337   0.592   2.014   2.149
 1146SOL    HW2 4338   0.651   1.879   2.219
 1147SOL     OW 4339   3.369   5.841   1.301
 1147SOL    HW1 4340   3.420   5.796   1.227
 1147SOL    HW2 4341   3.426   5.845   1.383
 1148SOL     OW 4342   4.539   5.979   1.023
 1148SOL    HW1 4343   4.505   6.022   0.939
 1148SOL    HW2 4344   4.637   5.964   1.015
 1149SOL     OW 4345   5.386   2.214   2.291
 1149SOL    HW1 4346   5.435   2.176   2.370
 1149SOL    HW2 4347   5.338   2.298   2.318
 1150SOL     OW 4348   0.838   4.327   0.266
 1150SOL    HW1 4349   0.807   4.252   0.208
 1150SOL    HW2 4350   0.933   4.348   0.245
 1151SOL     OW 4351   5.596   4.502   4.741
 1151SOL    HW1 4352   5.606   4.488   4.839
 1151SOL    HW2 4353   5.650   4.434   4.692
 1152SOL     OW 4354   4.752   6.150   6.298
 1152SOL    HW1 4355   4.789   6.058   6.308
 1152SOL    HW2 4356   4.653   6.148   6.308
 1153SOL     OW 4357   6.871   0.137   1.984
 1153SOL    HW1 4358   6.888   0.205   2.055
 1153SOL    HW2 4359   6.924   0.160   1.902
 1154SOL     OW 4360   0.172   4.780   0.510
 1154SOL    HW1 4361   0.084   4.763   0.465
 1154SOL    HW2 4362   0.221   4.852   0.461
 1155SOL     OW 4363   3.149   5.041   5.309
 1155SOL    HW1 4364   3.200   5.126   5.321
 1155SOL    HW2 4365   3.051   5.058   5.321
 1156SOL     OW 4366   4.293   2.080   5.260
 1156SOL    HW1 4367   4.372   2.132   5.293
 1156SOL    HW2 4368   4.325   1.995   5.219
 1157SOL     OW 4369   5.337   1.318   6.176
 1157SOL    HW1 4370   5.322   1.239   6.236
 1157SOL    HW2 4371   5.407   1.296   6.108
 1158SOL     OW 4372   6.796   5.182   5.347
 1158SOL    HW1 4373   6.817   5.166   5.444
 1158SOL    HW2 4374   6.720   5.124   5.319
 1159SOL     OW 4375   6.470   6.881   3.513
 1159SOL    HW1 4376   6.565   6.910   3.524
 1159SOL    HW2 4377   6.453   6.858   3.417
 1160SOL     OW 4378   4.343   5.050   1.451
 1160SOL    HW1 4379   4.255   5.082   1.486
 1160SOL    HW2 4380   4.330   5.011   1.360
 1161SOL     OW 4381   0.056   5.922   6.176
 1161SOL    HW1 4382   0.040   6.020   6.185
 1161SOL    HW2 4383   6.988   5.872   6.194
 1162SOL     OW 4384   2.261   2.397   6.050
 1162SOL    HW1 4385   2.197   2.367   6.120
 1162SOL    HW2 4386   2.227   2.371   5.960
 1163SOL     OW 4387   6.286   4.215   1.897
 1163SOL    HW1 4388   6.220   4.254   1.962
 1163SOL    HW2 4389   6.278   4.263   1.809
 1164SOL     OW 4390   4.585   2.016   4.757
 1164SOL    HW1 4391   4.649   1.958   4.705
 1164SOL    HW2 4392   4.592   2.110   4.724
 1165SOL     OW 4393   4.330   5.866   3.597
 1165SOL    HW1 4394   4.361   5.921   3.520
 1165SOL    HW2 4395   4.230   5.874   3.606
 1166SOL     OW 4396   2.700   6.577   0.306
 1166SOL    HW1 4397   2.669   6.487   0.335
 1166SOL    HW2 4398   2.654   6.647   0.361
 1167SOL     OW 4399   4.481   5.874   0.319
 1167SOL    HW1 4400   4.520   5.784   0.302
 1167SOL    HW2 4401   4.550   5.944   0.302
 1168SOL     OW 4402   5.878   2.425   1.934
 1168SOL    HW1 4403   5.811   2.381   1.874
 1168SOL    HW2 4404   5.907   2.511   1.894
 1169SOL     OW 4405   4.517   1.832   5.895
 1169SOL    HW1 4406   4.608   1.825   5.854
 1169SOL    HW2 4407   4.447   1.832   5.823
 1170SOL     OW 4408   5.356   0.350   3.277
 1170SOL    HW1 4409   5.355   0.360   3.377
 1170SOL    HW2 4410   5.290   0.414   3.237
 1171SOL     OW 4411   3.103   6.536   6.841
 1171SOL    HW1 4412   3.085   6.493   6.753
 1171SOL    HW2 4413   3.026   6.520   6.903
 1172SOL     OW 4414   5.107   4.425   1.003
 1172SOL    HW1 4415   5.168   4.347   0.996
 1172SOL    HW2 4416   5.104   4.473   0.915
 1173SOL     OW 4417   3.171   1.470   0.954
 1173SOL    HW1 4418   3.259   1.423   0.956
 1173SOL    HW2 4419   3.100   1.407   0.920
 1174SOL     OW 4420   3.446   3.821   1.902
 1174SOL    HW1 4421   3.362   3.875   1.906
 1174SOL    HW2 4422   3.423   3.724   1.904
 1175SOL     OW 4423   4.487   3.712   6.217
 1175SOL    HW1 4424   4.544   3.636   6.248
 1175SOL    HW2 4425   4.392   3.695   6.243
 1176SOL     OW 4426   5.349   3.448   0.505
 1176SOL    HW1 4427   5.438   3.434   0.462
 1176SOL    HW2 4428   5.324   3.545   0.498
 1177SOL     OW 4429   6.151   3.726   4.991
 1177SOL    HW1 4430   6.066   3.775   4.975
 1177SOL    HW2 4431   6.217   3.748   4.919
 1178SOL     OW 4432   2.923   4.241   0.438
 1178SOL    HW1 4433   2.850   4.217   0.374
 1178SOL    HW2 4434   2.883   4.270   0.525
 1179SOL     OW 4435   2.201   5.757   0.825
 1179SOL    HW1 4436   2.189   5.734   0.922
 1179SOL    HW2 4437   2.113   5.750   0.778
 1180SOL     OW 4438   2.493   6.640   3.800
 1180SOL    HW1 4439   2.537   6.682   3.721
 1180SOL    HW2 4440   2.511   6.542   3.801
 1181SOL     OW 4441   0.319   5.469   5.026
 1181SOL    HW1 4442   0.317   5.481   4.927
 1181SOL    HW2 4443   0.281   5.379   5.049
 1182SOL     OW 4444   4.793   5.348   3.675
 1182SOL    HW1 4445   4.767   5.264   3.627
 1182SOL    HW2 4446   4.839   5.325   3.761
 1183SOL     OW 4447   2.426   4.404   0.034
 1183SOL    HW1 4448   2.450   4.319   0.081
 1183SOL    HW2 4449   2.432   4.481   0.098
 1184SOL     OW 4450   0.008   0.822   4.567
 1184SOL    HW1 4451   0.072   0.899   4.566
 1184SOL    HW2 4452   7.016   0.785   4.474
 1185SOL     OW 4453   0.523   0.680   1.047
 1185SOL    HW1 4454   0.606   0.716   1.089
 1185SOL    HW2 4455   0.446   0.691   1.110
 1186SOL     OW 4456   5.373   6.222   5.866
 1186SOL    HW1 4457   5.370   6.251   5.961
 1186SOL    HW2 4458   5.323   6.287   5.809
 1187SOL     OW 4459   5.038   6.935   6.089
 1187SOL    HW1 4460   5.042   6.919   6.188
 1187SOL    HW2 4461   5.117   6.892   6.045
 1188SOL     OW 4462   3.372   6.303   5.803
 1188SOL    HW1 4463   3.371   6.223   5.863
 1188SOL    HW2 4464   3.462   6.313   5.761
 1189SOL     OW 4465   6.484   2.266   1.322
 1189SOL    HW1 4466   6.568   2.306   1.286
 1189SOL    HW2 4467   6.481   2.169   1.297
 1190SOL     OW 4468   3.226   5.788   3.602
 1190SOL    HW1 4469   3.320   5.822   3.602
 1190SOL    HW2 4470   3.183   5.808   3.690
 1191SOL     OW 4471   4.524   5.793   3.975
 1191SOL    HW1 4472   4.494   5.718   4.035
 1191SOL    HW2 4473   4.623   5.801   3.979
 1192SOL     OW 4474   5.246   4.741   2.002
 1192SOL    HW1 4475   5.338   4.764   1.970
 1192SOL    HW2 4476   5.249   4.654   2.053
 1193SOL     OW 4477   6.407   2.288   4.758
 1193SOL    HW1 4478   6.353   2.209   4.789
 1193SOL    HW2 4479   6.491   2.256   4.714
 1194SOL     OW 4480   5.852   6.985   1.722
 1194SOL    HW1 4481   5.897   6.896   1.720
 1194SOL    HW2 4482   5.765   6.977   1.771
 1195SOL     OW 4483   0.466   4.283   0.661
 1195SOL    HW1 4484   0.383   4.326   0.625
 1195SOL    HW2 4485   0.539   4.352   0.666
 1196SOL     OW 4486   6.852   5.059   3.675
 1196SOL    HW1 4487   6.766   5.087   3.718
 1196SOL    HW2 4488   6.870   4.963   3.696
 1197SOL     OW 4489   4.775   0.183   4.828
 1197SOL    HW1 4490   4.730   0.263   4.867
 1197SOL    HW2 4491   4.829   0.138   4.899
 1198SOL     OW 4492   1.294   2.932   3.049
 1198SOL    HW1 4493   1.329   2.841   3.071
 1198SOL    HW2 4494   1.289   2.987   3.132
 1199SOL     OW 4495   3.294   4.016   0.897
 1199SOL    HW1 4496   3.220   4.074   0.932
 1199SOL    HW2 4497   3.381   4.046   0.936
 1200SOL     OW 4498   3.149   4.059   3.966
 1200SOL    HW1 4499   3.207   4.133   4.001
 1200SOL    HW2 4500   3.073   4.043   4.029
 1201SOL     OW 4501   0.833   1.089   4.191
 1201SOL    HW1 4502   0.746   1.042   4.206
 1201SOL    HW2 4503   0.846   1.160   4.260
 1202SOL     OW 4504   0.432   5.897   5.737
 1202SOL    HW1 4505   0.343   5.855   5.751
 1202SOL    HW2 4506   0.497   5.826   5.708
 1203SOL     OW 4507   6.588   6.256   6.703
 1203SOL    HW1 4508   6.500   6.208   6.699
 1203SOL    HW2 4509   6.642   6.220   6.779
 1204SOL     OW 4510   4.216   0.988   1.461
 1204SOL    HW1 4511   4.315   0.994   1.454
 1204SOL    HW2 4512   4.174   1.028   1.379
 1205SOL     OW 4513   4.112   3.248   0.766
 1205SOL    HW1 4514   4.147   3.194   0.843
 1205SOL    HW2 4515   4.075   3.186   0.696
 1206SOL     OW 4516   2.659   2.628   5.389
 1206SOL    HW1 4517   2.751   2.624   5.427
 1206SOL    HW2 4518   2.618   2.716   5.410
 1207SOL     OW 4519   2.119   6.123   0.933
 1207SOL    HW1 4520   2.144   6.108   0.837
 1207SOL    HW2 4521   2.064   6.047   0.966
 1208SOL     OW 4522   2.884   3.121   0.915
 1208SOL    HW1 4523   2.893   3.055   0.840
 1208SOL    HW2 4524   2.908   3.077   1.001
 1209SOL     OW 4525   4.075   1.086   4.075
 1209SOL    HW1 4526   4.138   1.084   4.152
 1209SOL    HW2 4527   4.050   1.181   4.054
 1210SOL     OW 4528   3.292   0.296   3.787
 1210SOL    HW1 4529   3.334   0.222   3.839
 1210SOL    HW2 4530   3.228   0.258   3.720
 1211SOL     OW 4531   0.590   3.568   2.467
 1211SOL    HW1 4532   0.496   3.588   2.495
 1211SOL    HW2 4533   0.589   3.502   2.392
 1212SOL     OW 4534   6.262   0.387   0.438
 1212SOL    HW1 4535   6.328   0.406   0.365
 1212SOL    HW2 4536   6.181   0.344   0.399
 1213SOL     OW 4537   6.558   2.923   1.261
 1213SOL    HW1 4538   6.511   2.850   1.211
 1213SOL    HW2 4539   6.493   2.968   1.322
 1214SOL     OW 4540   1.365   2.956   6.875
 1214SOL    HW1 4541   1.420   2.876   6.850
 1214SOL    HW2 4542   1.377   3.028   6.807
 1215SOL     OW 4543   1.086   5.118   3.053
 1215SOL    HW1 4544   1.089   5.051   2.979
 1215SOL    HW2 4545   1.149   5.090   3.125
 1216SOL     OW 4546   5.172   0.249   1.207
 1216SOL    HW1 4547   5.262   0.268   1.167
 1216SOL    HW2 4548   5.157   0.309   1.285
 1217SOL     OW 4549   2.121   4.688   0.818
 1217SOL    HW1 4550   2.218   4.672   0.840
 1217SOL    HW2 4551   2.069   4.604   0.837
 1218SOL     OW 4552   1.465   4.469   4.820
 1218SOL    HW1 4553   1.429   4.551   4.864
 1218SOL    HW2 4554   1.390   4.406   4.800
 1219SOL     OW 4555   5.057   6.264   1.745
 1219SOL    HW1 4556   4.962   6.288   1.725
 1219SOL    HW2 4557   5.098   6.336   1.801
 1220SOL     OW 4558   0.699   4.365   3.035
 1220SOL    HW1 4559   0.691   4.422   2.953
 1220SOL    HW2 4560   0.644   4.283   3.025
 1221SOL     OW 4561   5.216   4.150   6.591
 1221SOL    HW1 4562   5.243   4.103   6.507
 1221SOL    HW2 4563   5.276   4.228   6.607
 1222SOL     OW 4564   6.847   0.538   6.673
 1222SOL    HW1 4565   6.894   0.614   6.718
 1222SOL    HW2 4566   6.748   0.550   6.680
 1223SOL     OW 4567   4.292   1.560   0.166
 1223SOL    HW1 4568   4.216   1.513   0.210
 1223SOL    HW2 4569   4.288   1.658   0.185
 1224SOL     OW 4570   3.607   5.512   0.451
 1224SOL    HW1 4571   3.555   5.451   0.510
 1224SOL    HW2 4572   3.598   5.606   0.483
 1225SOL     OW 4573   3.150   3.171   6.260
 1225SOL    HW1 4574   3.134   3.131   6.170
 1225SOL    HW2 4575   3.248   3.185   6.274
 1226SOL     OW 4576   2.898   5.492   1.464
 1226SOL    HW1 4577   2.839   5.558   1.417
 1226SOL    HW2 4578   2.991   5.527   1.466
 1227SOL     OW 4579   6.724   3.733   6.046
 1227SOL    HW1 4580   6.639   3.775   6.015
 1227SOL    HW2 4581   6.709   3.690   6.135
 1228SOL     OW 4582   3.233   1.902   6.647
 1228SOL    HW1 4583   3.245   1.855   6.560
 1228SOL    HW2 4584   3.317   1.894   6.701
 1229SOL     OW 4585   3.292   5.270   5.290
 1229SOL    HW1 4586   3.349   5.252   5.210
 1229SOL    HW2 4587   3.314   5.361   5.326
 1230SOL     OW 4588   4.424   6.894   2.447
 1230SOL    HW1 4589   4.458   6.944   2.527
 1230SOL    HW2 4590   4.500   6.877   2.384
 1231SOL     OW 4591   1.727   3.333   4.595
 1231SOL    HW1 4592   1.700   3.368   4.506
 1231SOL    HW2 4593   1.766   3.406   4.650
 1232SOL     OW 4594   0.743   1.537   4.669
 1232SOL    HW1 4595   0.715   1.629   4.641
 1232SOL    HW2 4596   0.663   1.486   4.702
 1233SOL     OW 4597   0.810   4.170   4.696
 1233SOL    HW1 4598   0.723   4.218   4.704
 1233SOL    HW2 4599   0.849   4.185   4.604
 1234SOL     OW 4600   6.450   3.624   5.172
 1234SOL    HW1 4601   6.442   3.598   5.268
 1234SOL    HW2 4602   6.408   3.714   5.157
 1235SOL     OW 4603   0.096   5.840   2.886
 1235SOL    HW1 4604   0.070   5.789   2.804
 1235SOL    HW2 4605   0.189   5.876   2.875
 1236SOL     OW 4606   4.851   1.679   0.074
 1236SOL    HW1 4607   4.905   1.763   0.083
 1236SOL    HW2 4608   4.871   1.636   7.003
 1237SOL     OW 4609   1.654   5.338   5.556
 1237SOL    HW1 4610   1.724   5.299   5.615
 1237SOL    HW2 4611   1.661   5.438   5.557
 1238SOL     OW 4612   2.744   1.068   0.238
 1238SOL    HW1 4613   2.824   1.112   0.198
 1238SOL    HW2 4614   2.673   1.136   0.254
 1239SOL     OW 4615   6.983   6.841   5.696
 1239SOL    HW1 4616   6.936   6.929   5.692
 1239SOL    HW2 4617   6.920   6.771   5.732
 1240SOL     OW 4618   5.473   6.492   1.918
 1240SOL    HW1 4619   5.449   6.395   1.905
 1240SOL    HW2 4620   5.501   6.506   2.012
 1241SOL     OW 4621   6.218   4.029   3.841
 1241SOL    HW1 4622   6.193   4.098   3.772
 1241SOL    HW2 4623   6.309   3.993   3.821
 1242SOL     OW 4624   0.073   3.598   1.676
 1242SOL    HW1 4625   0.006   3.584   1.749
 1242SOL    HW2 4626   0.126   3.680   1.696
 1243SOL     OW 4627   6.976   6.754   4.974
 1243SOL    HW1 4628   6.974   6.706   5.062
 1243SOL    HW2 4629   0.032   6.823   4.975
 1244SOL     OW 4630   6.511   0.054   4.497
 1244SOL    HW1 4631   6.483   0.047   4.593
 1244SOL    HW2 4632   6.588   0.117   4.490
 1245SOL     OW 4633   4.846   4.982   0.143
 1245SOL    HW1 4634   4.758   4.983   0.095
 1245SOL    HW2 4635   4.838   4.926   0.226
 1246SOL     OW 4636   2.269   6.196   1.546
 1246SOL    HW1 4637   2.290   6.197   1.644
 1246SOL    HW2 4638   2.277   6.102   1.512
 1247SOL     OW 4639   2.219   0.577   6.904
 1247SOL    HW1 4640   2.120   0.576   6.921
 1247SOL    HW2 4641   2.258   0.660   6.944
 1248SOL     OW 4642   2.189   6.933   4.616
 1248SOL    HW1 4643   2.097   6.954   4.651
 1248SOL    HW2 4644   2.247   6.905   4.693
 1249SOL     OW 4645   5.729   2.231   2.482
 1249SOL    HW1 4646   5.669   2.154   2.463
 1249SOL    HW2 4647   5.782   2.253   2.400
 1250SOL     OW 4648   6.203   4.967   4.160
 1250SOL    HW1 4649   6.219   4.938   4.254
 1250SOL    HW2 4650   6.280   4.939   4.102
 1251SOL     OW 4651   3.473   0.140   4.567
 1251SOL    HW1 4652   3.378   0.130   4.536
 1251SOL    HW2 4653   3.508   0.230   4.539
 1252SOL     OW 4654   3.837   3.406   5.223
 1252SOL    HW1 4655   3.864   3.331   5.283
 1252SOL    HW2 4656   3.887   3.400   5.137
 1253SOL     OW 4657   3.477   5.417   1.649
 1253SOL    HW1 4658   3.504   5.331   1.605
 1253SOL    HW2 4659   3.377   5.425   1.648
 1254SOL     OW 4660   0.899   2.771   2.756
 1254SOL    HW1 4661   0.806   2.734   2.758
 1254SOL    HW2 4662   0.925   2.800   2.848
 1255SOL     OW 4663   6.372   1.721   4.498
 1255SOL    HW1 4664   6.416   1.631   4.489
 1255SOL    HW2 4665   6.441   1.792   4.484
 1256SOL     OW 4666   6.632   6.252   3.497
 1256SOL    HW1 4667   6.670   6.191   3.567
 1256SOL    HW2 4668   6.601   6.337   3.540
 1257SOL     OW 4669   0.230   6.901   4.246
 1257SOL    HW1 4670   0.248   6.852   4.331
 1257SOL    HW2 4671   0.305   6.886   4.182
 1258SOL     OW 4672   1.899   5.843   3.891
 1258SOL    HW1 4673   1.998   5.829   3.896
 1258SOL    HW2 4674   1.874   5.864   3.796
 1259SOL     OW 4675   3.747   1.201   4.044
 1259SOL    HW1 4676   3.838   1.160   4.052
 1259SOL    HW2 4677   3.730   1.260   4.122
 1260SOL     OW 4678   1.460   1.444   6.652
 1260SOL    HW1 4679   1.368   1.415   6.678
 1260SOL    HW2 4680   1.508   1.478   6.733
 1261SOL     OW 4681   0.343   5.751   6.667
 1261SOL    HW1 4682   0.386   5.752   6.757
 1261SOL    HW2 4683   0.288   5.668   6.657
 1262SOL     OW 4684   4.693   4.001   1.054
 1262SOL    HW1 4685   4.681   4.099   1.071
 1262SOL    HW2 4686   4.720   3.956   1.139
 1263SOL     OW 4687   0.738   1.420   2.535
 1263SOL    HW1 4688   0.691   1.336   2.564
 1263SOL    HW2 4689   0.767   1.471   2.616
 1264SOL     OW 4690   6.963   4.187   6.789
 1264SOL    HW1 4691   6.893   4.248   6.829
 1264SOL    HW2 4692   6.919   4.124   6.725
 1265SOL     OW 4693   5.750   5.259   4.910
 1265SOL    HW1 4694   5.818   5.329   4.888
 1265SOL    HW2 4695   5.784   5.203   4.986
 1266SOL     OW 4696   0.443   0.915   4.526
 1266SOL    HW1 4697   0.513   0.965   4.474
 1266SOL    HW2 4698   0.486   0.866   4.602
 1267SOL     OW 4699   5.808   1.675   1.135
 1267SOL    HW1 4700   5.809   1.711   1.042
 1267SOL    HW2 4701   5.901   1.653   1.164
 1268SOL     OW 4702   2.785   3.115   6.839
 1268SOL    HW1 4703   2.860   3.061   6.877
 1268SOL    HW2 4704   2.766   3.086   6.746
 1269SOL     OW 4705   5.774   3.196   3.885
 1269SOL    HW1 4706   5.784   3.166   3.790
 1269SOL    HW2 4707   5.864   3.222   3.921
 1270SOL     OW 4708   2.444   4.540   2.609
 1270SOL    HW1 4709   2.382   4.535   2.688
 1270SOL    HW2 4710   2.430   4.460   2.551
 1271SOL     OW 4711   3.359   1.820   2.555
 1271SOL    HW1 4712   3.414   1.794   2.476
 1271SOL    HW2 4713   3.365   1.919   2.569
 1272SOL     OW 4714   5.800   4.903   6.986
 1272SOL    HW1 4715   5.891   4.863   6.989
 1272SOL    HW2 4716   5.806   5.002   6.994
 1273SOL     OW 4717   0.899   4.035   5.558
 1273SOL    HW1 4718   0.980   3.985   5.588
 1273SOL    HW2 4719   0.900   4.127   5.600
 1274SOL     OW 4720   0.200   4.605   0.929
 1274SOL    HW1 4721   0.180   4.691   0.975
 1274SOL    HW2 4722   0.216   4.622   0.832
 1275SOL     OW 4723   3.744   1.707   3.499
 1275SOL    HW1 4724   3.802   1.626   3.501
 1275SOL    HW2 4725   3.740   1.743   3.406
 1276SOL     OW 4726   5.418   4.955   4.679
 1276SOL    HW1 4727   5.385   5.050   4.684
 1276SOL    HW2 4728   5.483   4.939   4.753
 1277SOL     OW 4729   1.695   5.277   6.562
 1277SOL    HW1 4730   1.712   5.193   6.511
 1277SOL    HW2 4731   1.689   5.354   6.499
 1278SOL     OW 4732   1.736   0.324   5.061
 1278SOL    HW1 4733   1.643   0.323   5.097
 1278SOL    HW2 4734   1.766   0.231   5.044
 1279SOL     OW 4735   1.977   4.647   6.621
 1279SOL    HW1 4736   2.077   4.656   6.614
 1279SOL    HW2 4737   1.936   4.672   6.533
 1280SOL     OW 4738   4.218   6.323   3.608
 1280SOL    HW1 4739   4.160   6.256   3.655
 1280SOL    HW2 4740   4.218   6.303   3.510
 1281SOL     OW 4741   2.640   6.370   3.030
 1281SOL    HW1 4742   2.671   6.288   3.078
 1281SOL    HW2 4743   2.637   6.352   2.932
 1282SOL     OW 4744   6.786   1.895   6.909
 1282SOL    HW1 4745   6.715   1.944   6.960
 1282SOL    HW2 4746   6.783   1.798   6.932
 1283SOL     OW 4747   6.546   2.651   5.295
 1283SOL    HW1 4748   6.591   2.721   5.240
 1283SOL    HW2 4749   6.448   2.653   5.278
 1284SOL     OW 4750   4.414   1.371   1.430
 1284SOL    HW1 4751   4.341   1.335   1.487
 1284SOL    HW2 4752   4.388   1.365   1.334
 1285SOL     OW 4753   4.818   1.257   5.181
 1285SOL    HW1 4754   4.878   1.322   5.135
 1285SOL    HW2 4755   4.779   1.299   5.262
 1286SOL     OW 4756   4.795   2.654   0.745
 1286SOL    HW1 4757   4.738   2.737   0.739
 1286SOL    HW2 4758   4.755   2.582   0.689
 1287SOL     OW 4759   5.260   4.079   5.431
 1287SOL    HW1 4760   5.165   4.100   5.405
 1287SOL    HW2 4761   5.263   4.054   5.527
 1288SOL     OW 4762   4.224   4.551   6.482
 1288SOL    HW1 4763   4.286   4.585   6.553
 1288SOL    HW2 4764   4.271   4.483   6.426
 1289SOL     OW 4765   0.535   0.639   1.401
 1289SOL    HW1 4766   0.446   0.678   1.376
 1289SOL    HW2 4767   0.581   0.700   1.465
 1290SOL     OW 4768   1.378   0.021   0.438
 1290SOL    HW1 4769   1.309   6.968   0.458
 1290SOL    HW2 4770   1.443   7.002   0.371
 1291SOL     OW 4771   0.464   3.971   3.908
 1291SOL    HW1 4772   0.519   4.014   3.980
 1291SOL    HW2 4773   0.372   3.954   3.943
 1292SOL     OW 4774   6.968   5.853   2.183
 1292SOL    HW1 4775   0.007   5.922   2.229
 1292SOL    HW2 4776   7.009   5.830   2.094
 1293SOL     OW 4777   2.050   2.143   6.556
 1293SOL    HW1 4778   2.138   2.189   6.566
 1293SOL    HW2 4779   2.064   2.053   6.515
 1294SOL     OW 4780   0.272   3.574   5.717
 1294SOL    HW1 4781   0.229   3.662   5.736
 1294SOL    HW2 4782   0.360   3.569   5.765
 1295SOL     OW 4783   0.086   3.090   1.112
 1295SOL    HW1 4784   0.056   3.129   1.025
 1295SOL    HW2 4785   0.176   3.047   1.100
 1296SOL     OW 4786   4.459   6.948   5.045
 1296SOL    HW1 4787   4.524   6.919   5.116
 1296SOL    HW2 4788   4.480   6.902   4.959
 1297SOL     OW 4789   0.924   6.592   1.505
 1297SOL    HW1 4790   0.952   6.573   1.599
 1297SOL    HW2 4791   1.004   6.612   1.450
 1298SOL     OW 4792   5.396   6.536   3.751
 1298SOL    HW1 4793   5.403   6.440   3.723
 1298SOL    HW2 4794   5.468   6.589   3.707
 1299SOL     OW 4795   2.524   2.585   3.619
 1299SOL    HW1 4796   2.561   2.523   3.550
 1299SOL    HW2 4797   2.425   2.575   3.623
 1300SOL     OW 4798   1.850   3.264   1.114
 1300SOL    HW1 4799   1.764   3.292   1.157
 1300SOL    HW2 4800   1.880   3.334   1.049
 1301SOL     OW 4801   0.380   6.829   1.822
 1301SOL    HW1 4802   0.403   6.802   1.729
 1301SOL    HW2 4803   0.450   6.793   1.885
 1302SOL     OW 4804   4.919   0.113   5.040
 1302SOL    HW1 4805   4.975   0.195   5.035
 1302SOL    HW2 4806   4.973   0.033   5.013
 1303SOL     OW 4807   4.131   1.125   1.233
 1303SOL    HW1 4808   4.196   1.091   1.165
 1303SOL    HW2 4809   4.083   1.205   1.196
 1304SOL     OW 4810   1.632   6.855   1.119
 1304SOL    HW1 4811   1.654   6.946   1.154
 1304SOL    HW2 4812   1.533   6.848   1.105
 1305SOL     OW 4813   5.657   4.321   0.277
 1305SOL    HW1 4814   5.702   4.331   0.366
 1305SOL    HW2 4815   5.713   4.262   0.218
 1306SOL     OW 4816   1.279   5.822   4.249
 1306SOL    HW1 4817   1.289   5.913   4.290
 1306SOL    HW2 4818   1.221   5.828   4.168
 1307SOL     OW 4819   1.709   4.130   4.288
 1307SOL    HW1 4820   1.728   4.062   4.217
 1307SOL    HW2 4821   1.735   4.221   4.256
 1308SOL     OW 4822   0.218   0.065   5.799
 1308SOL    HW1 4823   0.183   6.990   5.783
 1308SOL    HW2 4824   0.160   0.132   5.752
 1309SOL     OW 4825   5.735   4.578   5.601
 1309SOL    HW1 4826   5.695   4.542   5.686
 1309SOL    HW2 4827   5.751   4.677   5.611
 1310SOL     OW 4828   0.333   3.455   2.999
 1310SOL    HW1 4829   0.283   3.376   3.035
 1310SOL    HW2 4830   0.372   3.432   2.909
 1311SOL     OW 4831   0.018   6.195   6.229
 1311SOL    HW1 4832   7.011   6.239   6.143
 1311SOL    HW2 4833   6.960   6.205   6.294
 1312SOL     OW 4834   1.497   6.731   0.077
 1312SOL    HW1 4835   1.468   6.804   0.139
 1312SOL    HW2 4836   1.526   6.652   0.129
 1313SOL     OW 4837   6.745   5.237   2.429
 1313SOL    HW1 4838   6.839   5.242   2.464
 1313SOL    HW2 4839   6.690   5.179   2.489
 1314SOL     OW 4840   3.580   1.592   4.742
 1314SOL    HW1 4841   3.546   1.615   4.833
 1314SOL    HW2 4842   3.523   1.638   4.673
 1315SOL     OW 4843   6.762   1.280   3.142
 1315SOL    HW1 4844   6.784   1.195   3.190
 1315SOL    HW2 4845   6.692   1.330   3.192
 1316SOL     OW 4846   3.291   0.166   5.659
 1316SOL    HW1 4847   3.234   0.167   5.577
 1316SOL    HW2 4848   3.235   0.192   5.739
 1317SOL     OW 4849   1.570   4.070   5.699
 1317SOL    HW1 4850   1.499   4.092   5.631
 1317SOL    HW2 4851   1.576   4.144   5.766
 1318SOL     OW 4852   1.295   3.022   0.608
 1318SOL    HW1 4853   1.248   3.081   0.542
 1318SOL    HW2 4854   1.394   3.027   0.592
 1319SOL     OW 4855   0.457   5.826   0.656
 1319SOL    HW1 4856   0.444   5.753   0.589
 1319SOL    HW2 4857   0.370   5.844   0.703
 1320SOL     OW 4858   3.417   3.981   6.972
 1320SOL    HW1 4859   3.468   3.911   6.923
 1320SOL    HW2 4860   3.393   3.947   0.046
 1321SOL     OW 4861   5.308   2.696   6.068
 1321SOL    HW1 4862   5.395   2.649   6.084
 1321SOL    HW2 4863   5.233   2.639   6.103
 1322SOL     OW 4864   3.828   1.716   4.829
 1322SOL    HW1 4865   3.736   1.677   4.818
 1322SOL    HW2 4866   3.827   1.812   4.803
 1323SOL     OW 4867   3.449   0.007   6.669
 1323SOL    HW1 4868   3.354   0.033   6.653
 1323SOL    HW2 4869   3.453   6.953   6.739
 1324SOL     OW 4870   0.286   3.267   6.820
 1324SOL    HW1 4871   0.241   3.323   6.889
 1324SOL    HW2 4872   0.357   3.211   6.863
 1325SOL     OW 4873   3.867   6.169   5.065
 1325SOL    HW1 4874   3.852   6.072   5.044
 1325SOL    HW2 4875   3.959   6.181   5.103
 1326SOL     OW 4876   4.852   3.629   5.352
 1326SOL    HW1 4877   4.892   3.717   5.328
 1326SOL    HW2 4878   4.770   3.614   5.296
 1327SOL     OW 4879   1.340   6.148   0.818
 1327SOL    HW1 4880   1.264   6.169   0.879
 1327SOL    HW2 4881   1.408   6.222   0.825
 1328SOL     OW 4882   2.269   3.175   0.284
 1328SOL    HW1 4883   2.289   3.198   0.189
 1328SOL    HW2 4884   2.332   3.104   0.316
 1329SOL     OW 4885   0.669   2.843   2.502
 1329SOL    HW1 4886   0.683   2.911   2.574
 1329SOL    HW2 4887   0.731   2.862   2.426
 1330SOL     OW 4888   1.492   1.797   1.221
 1330SOL    HW1 4889   1.507   1.704   1.256
 1330SOL    HW2 4890   1.452   1.853   1.293
 1331SOL     OW 4891   4.799   2.852   3.223
 1331SOL    HW1 4892   4.787   2.872   3.126
 1331SOL    HW2 4893   4.884   2.801   3.236
 1332SOL     OW 4894   2.974   6.945   0.585
 1332SOL    HW1 4895   2.975   6.920   0.488
 1332SOL    HW2 4896   2.976   0.027   0.594
 1333SOL     OW 4897   2.927   3.636   2.907
 1333SOL    HW1 4898   2.856   3.623   2.975
 1333SOL    HW2 4899   2.975   3.722   2.924
 1334SOL     OW 4900   6.784   1.404   3.861
 1334SOL    HW1 4901   6.827   1.314   3.849
 1334SOL    HW2 4902   6.714   1.398   3.932
 1335SOL     OW 4903   2.190   1.670   2.192
 1335SOL    HW1 4904   2.287   1.689   2.211
 1335SOL    HW2 4905   2.134   1.702   2.268
 1336SOL     OW 4906   3.340   1.993   4.664
 1336SOL    HW1 4907   3.302   1.908   4.701
 1336SOL    HW2 4908   3.302   2.071   4.713
 1337SOL     OW 4909   1.232   1.668   2.454
 1337SOL    HW1 4910   1.298   1.743   2.464
 1337SOL    HW2 4911   1.254   1.615   2.372
 1338SOL     OW 4912   6.701   2.989   4.676
 1338SOL    HW1 4913   6.656   2.900   4.681
 1338SOL    HW2 4914   6.641   3.054   4.630
 1339SOL     OW 4915   6.147   1.880   0.100
 1339SOL    HW1 4916   6.066   1.832   0.132
 1339SOL    HW2 4917   6.224   1.816   0.093
 1340SOL     OW 4918   5.292   1.485   2.623
 1340SOL    HW1 4919   5.306   1.577   2.661
 1340SOL    HW2 4920   5.342   1.418   2.679
 1341SOL     OW 4921   4.418   6.765   6.486
 1341SOL    HW1 4922   4.331   6.742   6.529
 1341SOL    HW2 4923   4.491   6.709   6.525
 1342SOL     OW 4924   2.607   5.403   6.524
 1342SOL    HW1 4925   2.510   5.391   6.545
 1342SOL    HW2 4926   2.618   5.472   6.452
 1343SOL     OW 4927   5.442   5.639   2.499
 1343SOL    HW1 4928   5.354   5.624   2.543
 1343SOL    HW2 4929   5.439   5.604   2.405
 1344SOL     OW 4930   0.555   6.185   4.311
 1344SOL    HW1 4931   0.579   6.238   4.393
 1344SOL    HW2 4932   0.627   6.119   4.291
 1345SOL     OW 4933   0.467   5.352   2.736
 1345SOL    HW1 4934   0.496   5.405   2.816
 1345SOL    HW2 4935   0.547   5.324   2.683
 1346SOL     OW 4936   2.108   5.629   5.317
 1346SOL    HW1 4937   2.172   5.700   5.347
 1346SOL    HW2 4938   2.095   5.563   5.391
 1347SOL     OW 4939   6.837   6.714   5.894
 1347SOL    HW1 4940   6.848   6.728   5.992
 1347SOL    HW2 4941   6.744   6.682   5.875
 1348SOL     OW 4942   6.780   6.121   4.646
 1348SOL    HW1 4943   6.682   6.105   4.644
 1348SOL    HW2 4944   6.827   6.035   4.666
 1349SOL     OW 4945   5.687   2.890   4.932
 1349SOL    HW1 4946   5.595   2.855   4.915
 1349SOL    HW2 4947   5.731   2.911   4.844
 1350SOL     OW 4948   5.372   5.002   5.045
 1350SOL    HW1 4949   5.411   4.921   5.090
 1350SOL    HW2 4950   5.280   5.018   5.081
 1351SOL     OW 4951   5.369   2.209   3.815
 1351SOL    HW1 4952   5.467   2.196   3.803
 1351SOL    HW2 4953   5.341   2.296   3.776
 1352SOL     OW 4954   6.150   5.733   4.343
 1352SOL    HW1 4955   6.204   5.731   4.427
 1352SOL    HW2 4956   6.068   5.789   4.358
 1353SOL     OW 4957   0.540   2.647   0.401
 1353SOL    HW1 4958   0.441   2.639   0.413
 1353SOL    HW2 4959   0.578   2.700   0.476
 1354SOL     OW 4960   6.892   4.746   1.886
 1354SOL    HW1 4961   6.934   4.703   1.806
 1354SOL    HW2 4962   6.793   4.727   1.886
 1355SOL     OW 4963   6.283   3.694   4.307
 1355SOL    HW1 4964   6.339   3.773   4.332
 1355SOL    HW2 4965   6.287   3.627   4.381
 1356SOL     OW 4966   3.634   3.051   2.060
 1356SOL    HW1 4967   3.567   3.053   2.134
 1356SOL    HW2 4968   3.702   2.980   2.078
 1357SOL     OW 4969   0.254   4.283   6.168
 1357SOL    HW1 4970   0.333   4.331   6.131
 1357SOL    HW2 4971   0.188   4.349   6.205
 1358SOL     OW 4972   5.915   6.564   6.717
 1358SOL    HW1 4973   5.816   6.553   6.722
 1358SOL    HW2 4974   5.951   6.509   6.642
 1359SOL     OW 4975   5.922   4.696   2.564
 1359SOL    HW1 4976   5.919   4.606   2.519
 1359SOL    HW2 4977   6.006   4.743   2.538
 1360SOL     OW 4978   2.259   3.806   0.721
 1360SOL    HW1 4979   2.300   3.718   0.701
 1360SOL    HW2 4980   2.165   3.809   0.686
 1361SOL     OW 4981   6.255   4.972   5.201
 1361SOL    HW1 4982   6.261   4.872   5.205
 1361SOL    HW2 4983   6.302   5.005   5.120
 1362SOL     OW 4984   3.944   3.806   3.236
 1362SOL    HW1 4985   3.854   3.770   3.262
 1362SOL    HW2 4986   4.016   3.757   3.286
 1363SOL     OW 4987   0.205   4.916   4.579
 1363SOL    HW1 4988   0.293   4.874   4.557
 1363SOL    HW2 4989   0.220   5.000   4.632
 1364SOL     OW 4990   5.379   4.171   0.656
 1364SOL    HW1 4991   5.290   4.202   0.622
 1364SOL    HW2 4992   5.434   4.139   0.579
 1365SOL     OW 4993   0.509   4.423   6.120
 1365SOL    HW1 4994   0.598   4.401   6.079
 1365SOL    HW2 4995   0.504   4.522   6.135
 1366SOL     OW 4996   1.327   6.322   6.302
 1366SOL    HW1 4997   1.241   6.276   6.325
 1366SOL    HW2 4998   1.320   6.362   6.211
 1367SOL     OW 4999   2.328   6.588   2.583
 1367SOL    HW1 5000   2.291   6.524   2.515
 1367SOL    HW2 5001   2.269   6.669   2.587
 1368SOL     OW 5002   5.120   6.942   4.005
 1368SOL    HW1 5003   5.154   6.855   3.967
 1368SOL    HW2 5004   5.137   6.944   4.103
 1369SOL     OW 5005   1.698   6.483   3.023
 1369SOL    HW1 5006   1.788   6.522   3.042
 1369SOL    HW2 5007   1.658   6.449   3.108
 1370SOL     OW 5008   3.647   0.763   1.888
 1370SOL    HW1 5009   3.566   0.795   1.937
 1370SOL    HW2 5010   3.627   0.754   1.791
 1371SOL     OW 5011   5.017   1.552   4.375
 1371SOL    HW1 5012   4.939   1.515   4.324
 1371SOL    HW2 5013   5.098   1.495   4.357
 1372SOL     OW 5014   1.566   2.995   0.497
 1372SOL    HW1 5015   1.653   3.026   0.459
 1372SOL    HW2 5016   1.530   2.920   0.443
 1373SOL     OW 5017   6.293   4.290   0.378
 1373SOL    HW1 5018   6.367   4.342   0.422
 1373SOL    HW2 5019   6.214   4.350   0.365
 1374SOL     OW 5020   3.789   2.265   0.606
 1374SOL    HW1 5021   3.721   2.337   0.594
 1374SOL    HW2 5022   3.824   2.238   0.516
 1375SOL     OW 5023   6.814   4.756   6.147
 1375SOL    HW1 5024   6.786   4.686   6.082
 1375SOL    HW2 5025   6.753   4.836   6.138
 1376SOL     OW 5026   5.132   3.236   3.753
 1376SOL    HW1 5027   5.132   3.211   3.849
 1376SOL    HW2 5028   5.039   3.228   3.716
 1377SOL     OW 5029   6.822   3.498   5.293
 1377SOL    HW1 5030   6.843   3.551   5.375
 1377SOL    HW2 5031   6.824   3.557   5.213
 1378SOL     OW 5032   6.204   2.102   4.811
 1378SOL    HW1 5033   6.190   2.018   4.758
 1378SOL    HW2 5034   6.119   2.154   4.814
 1379SOL     OW 5035   3.489   6.521   2.188
 1379SOL    HW1 5036   3.432   6.439   2.201
 1379SOL    HW2 5037   3.430   6.599   2.169
 1380SOL     OW 5038   0.041   6.852   2.507
 1380SOL    HW1 5039   0.132   6.849   2.465
 1380SOL    HW2 5040   0.050   6.838   2.606
 1381SOL     OW 5041   5.350   2.819   0.305
 1381SOL    HW1 5042   5.429   2.785   0.356
 1381SOL    HW2 5043   5.287   2.865   0.368
 1382SOL     OW 5044   5.881   5.022   6.716
 1382SOL    HW1 5045   5.819   4.944   6.723
 1382SOL    HW2 5046   5.851   5.094   6.779
 1383SOL     OW 5047   1.656   1.284   0.557
 1383SOL    HW1 5048   1.607   1.371   0.569
 1383SOL    HW2 5049   1.668   1.241   0.647
 1384SOL     OW 5050   4.018   1.688   3.208
 1384SOL    HW1 5051   3.930   1.640   3.212
 1384SOL    HW2 5052   4.005   1.778   3.167
 1385SOL     OW 5053   0.532   2.982   2.728
 1385SOL    HW1 5054   0.480   3.059   2.691
 1385SOL    HW2 5055   0.497   2.896   2.689
 1386SOL     OW 5056   2.063   2.299   4.573
 1386SOL    HW1 5057   2.005   2.325   4.650
 1386SOL    HW2 5058   2.040   2.206   4.544
 1387SOL     OW 5059   3.330   0.867   3.672
 1387SOL    HW1 5060   3.276   0.909   3.745
 1387SOL    HW2 5061   3.321   0.767   3.677
 1388SOL     OW 5062   6.605   6.344   4.308
 1388SOL    HW1 5063   6.533   6.277   4.324
 1388SOL    HW2 5064   6.630   6.343   4.211
 1389SOL     OW 5065   0.315   0.935   3.623
 1389SOL    HW1 5066   0.338   0.843   3.656
 1389SOL    HW2 5067   0.228   0.931   3.574
 1390SOL     OW 5068   4.686   1.563   6.597
 1390SOL    HW1 5069   4.602   1.537   6.550
 1390SOL    HW2 5070   4.690   1.662   6.607
 1391SOL     OW 5071   6.390   1.885   5.812
 1391SOL    HW1 5072   6.342   1.827   5.746
 1391SOL    HW2 5073   6.327   1.953   5.849
 1392SOL     OW 5074   4.911   5.786   6.049
 1392SOL    HW1 5075   4.878   5.714   5.988
 1392SOL    HW2 5076   4.955   5.745   6.129
 1393SOL     OW 5077   6.288   2.588   6.602
 1393SOL    HW1 5078   6.332   2.572   6.513
 1393SOL    HW2 5079   6.204   2.533   6.608
 1394SOL     OW 5080   4.068   6.725   3.928
 1394SOL    HW1 5081   4.148   6.748   3.983
 1394SOL    HW2 5082   4.083   6.754   3.833
 1395SOL     OW 5083   0.179   4.021   2.692
 1395SOL    HW1 5084   0.147   4.020   2.598
 1395SOL    HW2 5085   0.248   3.950   2.705
 1396SOL     OW 5086   2.011   0.471   4.235
 1396SOL    HW1 5087   2.017   0.374   4.260
 1396SOL    HW2 5088   2.078   0.524   4.286
 1397SOL     OW 5089   0.452   5.888   5.231
 1397SOL    HW1 5090   0.375   5.923   5.285
 1397SOL    HW2 5091   0.538   5.907   5.278
 1398SOL     OW 5092   1.716   1.125   0.777
 1398SOL    HW1 5093   1.648   1.126   0.851
 1398SOL    HW2 5094   1.776   1.046   0.787
 1399SOL     OW 5095   4.219   0.737   0.762
 1399SOL    HW1 5096   4.312   0.718   0.730
 1399SOL    HW2 5097   4.155   0.674   0.718
 1400SOL     OW 5098   6.598   0.784   4.412
 1400SOL    HW1 5099   6.621   0.727   4.490
 1400SOL    HW2 5100   6.526   0.740   4.358
 1401SOL     OW 5101   5.911   0.084   4.050
 1401SOL    HW1 5102   5.926   7.004   4.030
 1401SOL    HW2 5103   5.825   0.094   4.099
 1402SOL     OW 5104   6.004   3.926   0.330
 1402SOL    HW1 5105   5.992   3.953   0.235
 1402SOL    HW2 5106   6.095   3.955   0.361
 1403SOL     OW 5107   3.070   3.441   0.443
 1403SOL    HW1 5108   3.039   3.373   0.509
 1403SOL    HW2 5109   3.002   3.514   0.434
 1404SOL     OW 5110   4.977   0.375   1.023
 1404SOL    HW1 5111   4.999   0.343   0.931
 1404SOL    HW2 5112   5.033   0.326   1.090
 1405SOL     OW 5113   1.472   3.715   1.240
 1405SOL    HW1 5114   1.502   3.670   1.325
 1405SOL    HW2 5115   1.376   3.739   1.247
 1406SOL     OW 5116   2.011   3.918   1.568
 1406SOL    HW1 5117   2.097   3.970   1.574
 1406SOL    HW2 5118   1.984   3.889   1.660
 1407SOL     OW 5119   0.717   3.552   1.736
 1407SOL    HW1 5120   0.626   3.516   1.719
 1407SOL    HW2 5121   0.786   3.490   1.699
 1408SOL     OW 5122   6.325   6.111   6.988
 1408SOL    HW1 5123   6.339   6.014   7.007
 1408SOL    HW2 5124   6.317   6.162   0.057
 1409SOL     OW 5125   7.008   1.551   5.394
 1409SOL    HW1 5126   6.958   1.525   5.312
 1409SOL    HW2 5127   7.016   1.650   5.400
 1410SOL     OW 5128   2.210   2.917   6.385
 1410SOL    HW1 5129   2.124   2.961   6.412
 1410SOL    HW2 5130   2.208   2.897   6.287
 1411SOL     OW 5131   3.462   6.571   6.995
 1411SOL    HW1 5132   3.384   6.543   0.034
 1411SOL    HW2 5133   3.435   6.645   6.934
 1412SOL     OW 5134   0.420   3.470   0.906
 1412SOL    HW1 5135   0.489   3.540   0.926
 1412SOL    HW2 5136   0.421   3.450   0.808
 1413SOL     OW 5137   1.697   2.407   4.882
 1413SOL    HW1 5138   1.659   2.342   4.816
 1413SOL    HW2 5139   1.622   2.458   4.925
 1414SOL     OW 5140   1.095   3.216   1.787
 1414SOL    HW1 5141   1.086   3.146   1.857
 1414SOL    HW2 5142   1.181   3.204   1.737
 1415SOL     OW 5143   2.421   2.058   4.618
 1415SOL    HW1 5144   2.390   2.105   4.536
 1415SOL    HW2 5145   2.516   2.028   4.606
 1416SOL     OW 5146   4.073   0.421   4.868
 1416SOL    HW1 5147   4.043   0.429   4.773
 1416SOL    HW2 5148   4.060   0.509   4.914
 1417SOL     OW 5149   3.038   3.431   6.168
 1417SOL    HW1 5150   2.986   3.479   6.238
 1417SOL    HW2 5151   3.066   3.341   6.202
 1418SOL     OW 5152   3.385   4.293   0.424
 1418SOL    HW1 5153   3.303   4.281   0.367
 1418SOL    HW2 5154   3.358   4.301   0.520
 1419SOL     OW 5155   1.569   4.413   4.286
 1419SOL    HW1 5156   1.508   4.490   4.304
 1419SOL    HW2 5157   1.537   4.332   4.336
 1420SOL     OW 5158   3.845   5.176   2.532
 1420SOL    HW1 5159   3.778   5.115   2.574
 1420SOL    HW2 5160   3.934   5.166   2.577
 1421SOL     OW 5161   0.949   4.746   4.719
 1421SOL    HW1 5162   1.039   4.736   4.762
 1421SOL    HW2 5163   0.942   4.835   4.675
 1422SOL     OW 5164   2.624   4.167   5.574
 1422SOL    HW1 5165   2.702   4.201   5.628
 1422SOL    HW2 5166   2.655   4.149   5.480
 1423SOL     OW 5167   4.381   1.555   4.840
 1423SOL    HW1 5168   4.372   1.482   4.908
 1423SOL    HW2 5169   4.291   1.586   4.812
 1424SOL     OW 5170   6.303   3.285   6.246
 1424SOL    HW1 5171   6.247   3.256   6.168
 1424SOL    HW2 5172   6.269   3.242   6.330
 1425SOL     OW 5173   3.185   6.519   5.127
 1425SOL    HW1 5174   3.111   6.487   5.067
 1425SOL    HW2 5175   3.146   6.576   5.200
 1426SOL     OW 5176   2.321   1.407   6.952
 1426SOL    HW1 5177   2.317   1.456   6.865
 1426SOL    HW2 5178   2.297   1.311   6.936
 1427SOL     OW 5179   1.260   0.310   3.271
 1427SOL    HW1 5180   1.304   0.399   3.260
 1427SOL    HW2 5181   1.263   0.283   3.368
 1428SOL     OW 5182   0.178   2.602   1.965
 1428SOL    HW1 5183   0.124   2.528   2.004
 1428SOL    HW2 5184   0.167   2.604   1.866
 1429SOL     OW 5185   6.368   1.337   6.605
 1429SOL    HW1 5186   6.457   1.379   6.621
 1429SOL    HW2 5187   6.366   1.247   6.650
 1430SOL     OW 5188   2.873   4.969   4.139
 1430SOL    HW1 5189   2.825   4.884   4.116
 1430SOL    HW2 5190   2.919   4.958   4.228
 1431SOL     OW 5191   2.917   1.469   5.820
 1431SOL    HW1 5192   2.838   1.471   5.759
 1431SOL    HW2 5193   3.000   1.490   5.768
 1432SOL     OW 5194   2.482   1.296   0.688
 1432SOL    HW1 5195   2.561   1.330   0.638
 1432SOL    HW2 5196   2.500   1.203   0.721
 1433SOL     OW 5197   3.295   0.543   3.180
 1433SOL    HW1 5198   3.300   0.580   3.273
 1433SOL    HW2 5199   3.228   0.469   3.178
 1434SOL     OW 5200   0.495   2.501   6.986
 1434SOL    HW1 5201   0.472   2.432   0.037
 1434SOL    HW2 5202   0.425   2.502   6.914
 1435SOL     OW 5203   0.991   0.097   3.550
 1435SOL    HW1 5204   0.937   0.167   3.504
 1435SOL    HW2 5205   0.955   0.007   3.528
 1436SOL     OW 5206   5.882   3.594   0.780
 1436SOL    HW1 5207   5.833   3.606   0.866
 1436SOL    HW2 5208   5.866   3.502   0.745
 1437SOL     OW 5209   4.515   1.485   6.175
 1437SOL    HW1 5210   4.510   1.459   6.079
 1437SOL    HW2 5211   4.595   1.544   6.190
 1438SOL     OW 5212   2.800   1.033   1.221
 1438SOL    HW1 5213   2.798   1.009   1.318
 1438SOL    HW2 5214   2.767   1.127   1.209
 1439SOL     OW 5215   0.251   5.605   0.369
 1439SOL    HW1 5216   0.255   5.657   0.284
 1439SOL    HW2 5217   0.336   5.615   0.420
 1440SOL     OW 5218   3.201   3.604   3.743
 1440SOL    HW1 5219   3.218   3.654   3.659
 1440SOL    HW2 5220   3.204   3.668   3.821
 1441SOL     OW 5221   6.632   3.850   3.619
 1441SOL    HW1 5222   6.690   3.799   3.555
 1441SOL    HW2 5223   6.687   3.921   3.663
 1442SOL     OW 5224   5.470   4.820   0.732
 1442SOL    HW1 5225   5.526   4.836   0.814
 1442SOL    HW2 5226   5.457   4.721   0.720
 1443SOL     OW 5227   0.880   0.516   3.647
 1443SOL    HW1 5228   0.934   0.482   3.723
 1443SOL    HW2 5229   0.858   0.441   3.585
 1444SOL     OW 5230   4.718   6.401   3.204
 1444SOL    HW1 5231   4.765   6.478   3.247
 1444SOL    HW2 5232   4.740   6.317   3.255
 1445SOL     OW 5233   0.483   2.638   1.822
 1445SOL    HW1 5234   0.432   2.563   1.866
 1445SOL    HW2 5235   0.540   2.601   1.749
 1446SOL     OW 5236   4.640   2.471   0.235
 1446SOL    HW1 5237   4.571   2.489   0.305
 1446SOL    HW2 5238   4.655   2.373   0.227
 1447SOL     OW 5239   6.644   1.049   5.076
 1447SOL    HW1 5240   6.660   1.100   4.991
 1447SOL    HW2 5241   6.732   1.024   5.117
 1448SOL     OW 5242   6.426   1.856   0.807
 1448SOL    HW1 5243   6.447   1.840   0.903
 1448SOL    HW2 5244   6.341   1.909   0.800
 1449SOL     OW 5245   5.954   6.347   0.618
 1449SOL    HW1 5246   6.025   6.302   0.673
 1449SOL    HW2 5247   5.892   6.397   0.679
 1450SOL     OW 5248   6.147   2.549   2.836
 1450SOL    HW1 5249   6.176   2.456   2.859
 1450SOL    HW2 5250   6.080   2.545   2.762
 1451SOL     OW 5251   2.727   6.692   2.805
 1451SOL    HW1 5252   2.686   6.703   2.715
 1451SOL    HW2 5253   2.767   6.601   2.812
 1452SOL     OW 5254   5.240   0.689   4.721
 1452SOL    HW1 5255   5.278   0.598   4.738
 1452SOL    HW2 5256   5.153   0.680   4.674
 1453SOL     OW 5257   5.619   3.604   4.764
 1453SOL    HW1 5258   5.692   3.619   4.699
 1453SOL    HW2 5259   5.633   3.516   4.811
 1454SOL     OW 5260   5.385   2.473   1.935
 1454SOL    HW1 5261   5.428   2.404   1.993
 1454SOL    HW2 5262   5.360   2.552   1.992
 1455SOL     OW 5263   0.909   0.576   2.010
 1455SOL    HW1 5264   0.819   0.532   2.019
 1455SOL    HW2 5265   0.899   0.661   1.958
 1456SOL     OW 5266   0.238   6.566   5.262
 1456SOL    HW1 5267   0.239   6.649   5.206
 1456SOL    HW2 5268   0.231   6.486   5.202
 1457SOL     OW 5269   1.534   6.932   3.285
 1457SOL    HW1 5270   1.603   6.955   3.216
 1457SOL    HW2 5271   1.444   6.964   3.254
 1458SOL     OW 5272   5.201   6.732   5.206
 1458SOL    HW1 5273   5.168   6.639   5.221
 1458SOL    HW2 5274   5.291   6.743   5.249
 1459SOL     OW 5275   2.806   5.692   6.823
 1459SOL    HW1 5276   2.883   5.743   6.860
 1459SOL    HW2 5277   2.731   5.693   6.890
 1460SOL     OW 5278   0.215   6.369   6.795
 1460SOL    HW1 5279   0.274   6.449   6.804
 1460SOL    HW2 5280   0.268   6.292   6.761
 1461SOL     OW 5281   6.504   4.303   3.482
 1461SOL    HW1 5282   6.527   4.392   3.443
 1461SOL    HW2 5283   6.491   4.312   3.581
 1462SOL     OW 5284   6.561   1.475   0.415
 1462SOL    HW1 5285   6.551   1.573   0.394
 1462SOL    HW2 5286   6.584   1.464   0.512
 1463SOL     OW 5287   0.485   0.248   5.680
 1463SOL    HW1 5288   0.437   0.329   5.647
 1463SOL    HW2 5289   0.581   0.271   5.698
 1464SOL     OW 5290   0.331   6.803   0.352
 1464SOL    HW1 5291   0.375   6.892   0.363
 1464SOL    HW2 5292   0.334   6.754   0.440
 1465SOL     OW 5293   0.836   1.284   3.187
 1465SOL    HW1 5294   0.814   1.199   3.138
 1465SOL    HW2 5295   0.933   1.285   3.210
 1466SOL     OW 5296   6.880   6.271   2.539
 1466SOL    HW1 5297   6.946   6.344   2.524
 1466SOL    HW2 5298   6.907   6.217   2.619
 1467SOL     OW 5299   1.347   0.567   2.800
 1467SOL    HW1 5300   1.368   0.625   2.879
 1467SOL    HW2 5301   1.420   0.575   2.732
 1468SOL     OW 5302   5.676   5.702   3.268
 1468SOL    HW1 5303   5.615   5.655   3.204
 1468SOL    HW2 5304   5.650   5.680   3.362
 1469SOL     OW 5305   0.654   0.621   2.928
 1469SOL    HW1 5306   0.670   0.718   2.907
 1469SOL    HW2 5307   0.685   0.601   3.021
 1470SOL     OW 5308   1.233   0.718   2.534
 1470SOL    HW1 5309   1.248   0.736   2.437
 1470SOL    HW2 5310   1.303   0.655   2.568
 1471SOL     OW 5311   6.664   0.696   6.317
 1471SOL    HW1 5312   6.692   0.789   6.294
 1471SOL    HW2 5313   6.744   0.636   6.319
 1472SOL     OW 5314   4.780   6.160   4.650
 1472SOL    HW1 5315   4.791   6.122   4.559
 1472SOL    HW2 5316   4.869   6.194   4.683
 1473SOL     OW 5317   5.773   5.371   3.210
 1473SOL    HW1 5318   5.807   5.436   3.142
 1473SOL    HW2 5319   5.850   5.317   3.245
 1474SOL     OW 5320   6.046   5.684   3.736
 1474SOL    HW1 5321   5.976   5.628   3.692
 1474SOL    HW2 5322   6.057   5.769   3.685
 1475SOL     OW 5323   0.201   0.288   2.050
 1475SOL    HW1 5324   0.204   0.214   2.118
 1475SOL    HW2 5325   0.125   0.349   2.070
 1476SOL     OW 5326   1.190   1.095   1.833
 1476SOL    HW1 5327   1.126   1.161   1.873
 1476SOL    HW2 5328   1.190   1.011   1.887
 1477SOL     OW 5329   2.771   0.430   6.157
 1477SOL    HW1 5330   2.713   0.359   6.196
 1477SOL    HW2 5331   2.715   0.496   6.108
 1478SOL     OW 5332   5.862   4.621   0.948
 1478SOL    HW1 5333   5.767   4.652   0.955
 1478SOL    HW2 5334   5.869   4.551   0.877
 1479SOL     OW 5335   1.622   4.849   0.374
 1479SOL    HW1 5336   1.684   4.855   0.296
 1479SOL    HW2 5337   1.590   4.755   0.383
 1480SOL     OW 5338   2.455   1.072   0.065
 1480SOL    HW1 5339   2.515   1.143   0.101
 1480SOL    HW2 5340   2.510   0.991   0.040
 1481SOL     OW 5341   5.366   1.873   5.137
 1481SOL    HW1 5342   5.381   1.823   5.222
 1481SOL    HW2 5343   5.452   1.915   5.108
 1482SOL     OW 5344   6.076   1.620   1.241
 1482SOL    HW1 5345   6.161   1.623   1.189
 1482SOL    HW2 5346   6.050   1.524   1.257
 1483SOL     OW 5347   6.983   3.249   0.052
 1483SOL    HW1 5348   6.986   3.215   6.975
 1483SOL    HW2 5349   6.894   3.230   0.092
 1484SOL     OW 5350   6.374   4.251   3.121
 1484SOL    HW1 5351   6.293   4.307   3.137
 1484SOL    HW2 5352   6.456   4.308   3.130
 1485SOL     OW 5353   5.114   2.691   2.401
 1485SOL    HW1 5354   5.078   2.654   2.315
 1485SOL    HW2 5355   5.050   2.760   2.437
 1486SOL     OW 5356   4.519   2.234   3.353
 1486SOL    HW1 5357   4.574   2.172   3.297
 1486SOL    HW2 5358   4.550   2.230   3.448
 1487SOL     OW 5359   6.869   1.632   6.699
 1487SOL    HW1 5360   6.880   1.549   6.645
 1487SOL    HW2 5361   6.774   1.640   6.728
 1488SOL     OW 5362   4.872   1.945   2.603
 1488SOL    HW1 5363   4.896   1.984   2.692
 1488SOL    HW2 5364   4.823   1.859   2.617
 1489SOL     OW 5365   3.657   4.938   4.361
 1489SOL    HW1 5366   3.564   4.917   4.392
 1489SOL    HW2 5367   3.721   4.926   4.437
 1490SOL     OW 5368   1.362   1.946   0.625
 1490SOL    HW1 5369   1.332   1.889   0.702
 1490SOL    HW2 5370   1.357   2.042   0.651
 1491SOL     OW 5371   6.346   3.673   3.459
 1491SOL    HW1 5372   6.434   3.715   3.480
 1491SOL    HW2 5373   6.274   3.721   3.509
 1492SOL     OW 5374   5.124   2.053   1.931
 1492SOL    HW1 5375   5.029   2.085   1.937
 1492SOL    HW2 5376   5.127   1.955   1.949
 1493SOL     OW 5377   4.568   0.068   4.710
 1493SOL    HW1 5378   4.649   0.113   4.747
 1493SOL    HW2 5379   4.504   0.137   4.676
 1494SOL     OW 5380   3.551   2.749   5.764
 1494SOL    HW1 5381   3.489   2.676   5.793
 1494SOL    HW2 5382   3.638   2.741   5.812
 1495SOL     OW 5383   0.287   3.402   3.342
 1495SOL    HW1 5384   0.235   3.370   3.263
 1495SOL    HW2 5385   0.282   3.502   3.348
 1496SOL     OW 5386   0.159   0.516   1.665
 1496SOL    HW1 5387   0.076   0.515   1.720
 1496SOL    HW2 5388   0.169   0.605   1.621
 1497SOL     OW 5389   0.396   4.964   4.070
 1497SOL    HW1 5390   0.495   4.971   4.080
 1497SOL    HW2 5391   0.360   5.046   4.025
 1498SOL     OW 5392   2.232   5.017   6.364
 1498SOL    HW1 5393   2.240   4.918   6.350
 1498SOL    HW2 5394   2.320   5.060   6.346
 1499SOL     OW 5395   1.391   4.160   5.086
 1499SOL    HW1 5396   1.489   4.144   5.083
 1499SOL    HW2 5397   1.372   4.257   5.099
 1500SOL     OW 5398   5.854   0.067   0.750
 1500SOL    HW1 5399   5.768   0.080   0.701
 1500SOL    HW2 5400   5.836   0.063   0.848
 1501SOL     OW 5401   4.065   0.622   6.808
 1501SOL    HW1 5402   4.036   0.665   6.894
 1501SOL    HW2 5403   4.105   0.691   6.749
 1502SOL     OW 5404   6.689   7.011   0.000
 1502SOL    HW1 5405   6.647   6.951   6.948
 1502SOL    HW2 5406   6.773   0.033   6.981
 1503SOL     OW 5407   2.011   2.854   1.066
 1503SOL    HW1 5408   2.069   2.860   1.147
 1503SOL    HW2 5409   2.007   2.759   1.035
 1504SOL     OW 5410   2.625   0.061   4.845
 1504SOL    HW1 5411   2.667   0.134   4.900
 1504SOL    HW2 5412   2.525   0.069   4.849
 1505SOL     OW 5413   5.212   0.194   6.010
 1505SOL    HW1 5414   5.199   0.108   6.060
 1505SOL    HW2 5415   5.125   0.243   6.006
 1506SOL     OW 5416   1.081   4.956   3.360
 1506SOL    HW1 5417   1.178   4.929   3.356
 1506SOL    HW2 5418   1.034   4.902   3.430
 1507SOL     OW 5419   1.640   1.391   4.549
 1507SOL    HW1 5420   1.680   1.400   4.640
 1507SOL    HW2 5421   1.682   1.458   4.488
 1508SOL     OW 5422   4.719   0.157   0.895
 1508SOL    HW1 5423   4.640   0.212   0.868
 1508SOL    HW2 5424   4.737   0.170   0.993
 1509SOL     OW 5425   4.336   2.740   6.603
 1509SOL    HW1 5426   4.254   2.686   6.620
 1509SOL    HW2 5427   4.401   2.684   6.550
 1510SOL     OW 5428   5.834   2.458   3.952
 1510SOL    HW1 5429   5.834   2.431   4.048
 1510SOL    HW2 5430   5.911   2.519   3.934
 1511SOL     OW 5431   2.494   1.656   0.019
 1511SOL    HW1 5432   2.416   1.596   0.001
 1511SOL    HW2 5433   2.520   1.703   6.951
 1512SOL     OW 5434   6.614   6.644   1.845
 1512SOL    HW1 5435   6.545   6.705   1.884
 1512SOL    HW2 5436   6.626   6.666   1.748
 1513SOL     OW 5437   4.138   0.701   3.778
 1513SOL    HW1 5438   4.041   0.695   3.753
 1513SOL    HW2 5439   4.160   0.628   3.843
 1514SOL     OW 5440   5.156   1.863   4.964
 1514SOL    HW1 5441   5.232   1.862   5.029
 1514SOL    HW2 5442   5.187   1.900   4.876
 1515SOL     OW 5443   0.349   3.228   5.512
 1515SOL    HW1 5444   0.392   3.314   5.487
 1515SOL    HW2 5445   0.304   3.189   5.432
 1516SOL     OW 5446   0.663   1.001   1.124
 1516SOL    HW1 5447   0.708   1.033   1.040
 1516SOL    HW2 5448   0.718   0.927   1.164
 1517SOL     OW 5449   4.187   5.425   4.117
 1517SOL    HW1 5450   4.248   5.400   4.042
 1517SOL    HW2 5451   4.127   5.347   4.139
 1518SOL     OW 5452   6.702   3.931   6.785
 1518SOL    HW1 5453   6.741   3.873   6.857
 1518SOL    HW2 5454   6.641   3.876   6.727
 1519SOL     OW 5455   0.239   4.268   1.104
 1519SOL    HW1 5456   0.288   4.250   1.018
 1519SOL    HW2 5457   0.296   4.325   1.164
 1520SOL     OW 5458   1.917   3.334   2.332
 1520SOL    HW1 5459   1.892   3.367   2.423
 1520SOL    HW2 5460   1.861   3.255   2.308
 1521SOL     OW 5461   1.907   3.121   7.008
 1521SOL    HW1 5462   1.908   3.212   0.032
 1521SOL    HW2 5463   1.813   3.087   7.003
 1522SOL     OW 5464   6.849   1.849   6.248
 1522SOL    HW1 5465   6.908   1.906   6.306
 1522SOL    HW2 5466   6.904   1.808   6.175
 1523SOL     OW 5467   5.282   3.745   6.242
 1523SOL    HW1 5468   5.338   3.662   6.238
 1523SOL    HW2 5469   5.201   3.728   6.299
 1524SOL     OW 5470   1.242   1.380   1.624
 1524SOL    HW1 5471   1.279   1.418   1.709
 1524SOL    HW2 5472   1.184   1.302   1.645
 1525SOL     OW 5473   4.886   1.794   5.509
 1525SOL    HW1 5474   4.927   1.823   5.595
 1525SOL    HW2 5475   4.924   1.848   5.434
 1526SOL     OW 5476   0.365   0.979   1.155
 1526SOL    HW1 5477   0.458   0.978   1.116
 1526SOL    HW2 5478   0.333   0.885   1.168
 1527SOL     OW 5479   3.142   1.754   4.729
 1527SOL    HW1 5480   3.149   1.678   4.794
 1527SOL    HW2 5481   3.050   1.793   4.734
 1528SOL     OW 5482   5.111   6.068   2.682
 1528SOL    HW1 5483   5.190   6.050   2.624
 1528SOL    HW2 5484   5.036   6.007   2.656
 1529SOL     OW 5485   4.899   1.468   6.058
 1529SOL    HW1 5486   4.852   1.542   6.106
 1529SOL    HW2 5487   4.851   1.382   6.075
 1530SOL     OW 5488   2.975   6.927   1.076
 1530SOL    HW1 5489   3.071   6.920   1.047
 1530SOL    HW2 5490   2.955   6.856   1.143
 1531SOL     OW 5491   5.533   0.883   5.252
 1531SOL    HW1 5492   5.631   0.881   5.231
 1531SOL    HW2 5493   5.502   0.790   5.273
 1532SOL     OW 5494   2.856   2.189   4.542
 1532SOL    HW1 5495   2.893   2.173   4.633
 1532SOL    HW2 5496   2.931   2.214   4.480
 1533SOL     OW 5497   7.008   3.406   6.610
 1533SOL    HW1 5498   0.059   3.357   6.555
 1533SOL    HW2 5499   0.035   3.482   6.658
 1534SOL     OW 5500   1.959   5.294   0.315
 1534SOL    HW1 5501   1.911   5.250   0.239
 1534SOL    HW2 5502   2.018   5.227   0.361
 1535SOL     OW 5503   5.321   5.475   4.528
 1535SOL    HW1 5504   5.274   5.388   4.543
 1535SOL    HW2 5505   5.413   5.470   4.569
 1536SOL     OW 5506   3.408   5.162   4.085
 1536SOL    HW1 5507   3.388   5.065   4.090
 1536SOL    HW2 5508   3.379   5.207   4.169
 1537SOL     OW 5509   3.416   5.289   3.670
 1537SOL    HW1 5510   3.448   5.379   3.701
 1537SOL    HW2 5511   3.333   5.264   3.720
 1538SOL     OW 5512   3.311   4.832   6.217
 1538SOL    HW1 5513   3.294   4.930   6.228
 1538SOL    HW2 5514   3.251   4.796   6.147
 1539SOL     OW 5515   3.739   4.242   1.263
 1539SOL    HW1 5516   3.666   4.272   1.201
 1539SOL    HW2 5517   3.814   4.203   1.209
 1540SOL     OW 5518   1.450   0.292   4.501
 1540SOL    HW1 5519   1.354   0.291   4.473
 1540SOL    HW2 5520   1.501   0.226   4.447
 1541SOL     OW 5521   3.960   2.502   1.150
 1541SOL    HW1 5522   3.927   2.458   1.234
 1541SOL    HW2 5523   4.021   2.439   1.101
 1542SOL     OW 5524   6.741   6.133   1.819
 1542SOL    HW1 5525   6.681   6.164   1.745
 1542SOL    HW2 5526   6.820   6.085   1.780
 1543SOL     OW 5527   3.400   3.196   3.496
 1543SOL    HW1 5528   3.381   3.229   3.404
 1543SOL    HW2 5529   3.373   3.099   3.503
 1544SOL     OW 5530   3.068   3.848   2.193
 1544SOL    HW1 5531   3.080   3.755   2.227
 1544SOL    HW2 5532   3.074   3.913   2.269
 1545SOL     OW 5533   5.169   0.551   5.416
 1545SOL    HW1 5534   5.176   0.598   5.504
 1545SOL    HW2 5535   5.217   0.605   5.346
 1546SOL     OW 5536   5.367   0.389   6.089
 1546SOL    HW1 5537   5.337   0.432   6.174
 1546SOL    HW2 5538   5.301   0.319   6.061
 1547SOL     OW 5539   2.283   4.140   2.653
 1547SOL    HW1 5540   2.269   4.053   2.605
 1547SOL    HW2 5541   2.295   4.213   2.586
 1548SOL     OW 5542   4.336   4.289   5.869
 1548SOL    HW1 5543   4.239   4.292   5.894
 1548SOL    HW2 5544   4.376   4.380   5.878
 1549SOL     OW 5545   6.715   1.313   2.019
 1549SOL    HW1 5546   6.797   1.277   2.064
 1549SOL    HW2 5547   6.712   1.412   2.029
 1550SOL     OW 5548   2.914   6.824   5.725
 1550SOL    HW1 5549   2.902   6.819   5.625
 1550SOL    HW2 5550   2.996   6.774   5.751
 1551SOL     OW 5551   1.836   2.830   1.538
 1551SOL    HW1 5552   1.909   2.896   1.555
 1551SOL    HW2 5553   1.763   2.873   1.485
 1552SOL     OW 5554   1.160   7.015   1.065
 1552SOL    HW1 5555   1.134   0.089   1.098
 1552SOL    HW2 5556   1.130   7.005   0.970
 1553SOL     OW 5557   6.210   1.755   6.651
 1553SOL    HW1 5558   6.143   1.799   6.711
 1553SOL    HW2 5559   6.247   1.823   6.588
 1554SOL     OW 5560   4.005   2.217   2.930
 1554SOL    HW1 5561   4.025   2.244   2.835
 1554SOL    HW2 5562   4.077   2.251   2.990
 1555SOL     OW 5563   4.646   2.724   5.482
 1555SOL    HW1 5564   4.744   2.707   5.469
 1555SOL    HW2 5565   4.616   2.681   5.567
 1556SOL     OW 5566   3.359   0.056   0.777
 1556SOL    HW1 5567   3.369   0.031   0.681
 1556SOL    HW2 5568   3.336   0.153   0.785
 1557SOL     OW 5569   2.404   2.778   0.983
 1557SOL    HW1 5570   2.307   2.797   0.999
 1557SOL    HW2 5571   2.426   2.797   0.887
 1558SOL     OW 5572   5.867   2.177   5.165
 1558SOL    HW1 5573   5.919   2.239   5.106
 1558SOL    HW2 5574   5.871   2.084   5.128
 1559SOL     OW 5575   0.538   3.548   2.077
 1559SOL    HW1 5576   0.624   3.592   2.052
 1559SOL    HW2 5577   0.469   3.567   2.007
 1560SOL     OW 5578   3.702   1.366   0.006
 1560SOL    HW1 5579   3.751   1.282   7.002
 1560SOL    HW2 5580   3.764   1.444   7.010
 1561SOL     OW 5581   5.285   6.267   2.489
 1561SOL    HW1 5582   5.228   6.298   2.566
 1561SOL    HW2 5583   5.377   6.246   2.521
 1562SOL     OW 5584   2.789   6.154   1.851
 1562SOL    HW1 5585   2.882   6.152   1.890
 1562SOL    HW2 5586   2.793   6.191   1.758
 1563SOL     OW 5587   2.857   2.252   5.007
 1563SOL    HW1 5588   2.917   2.296   5.073
 1563SOL    HW2 5589   2.775   2.307   4.994
 1564SOL     OW 5590   1.006   1.269   2.564
 1564SOL    HW1 5591   1.059   1.330   2.622
 1564SOL    HW2 5592   0.968   1.320   2.486
 1565SOL     OW 5593   4.047   5.250   4.685
 1565SOL    HW1 5594   4.081   5.335   4.643
 1565SOL    HW2 5595   3.953   5.263   4.715
 1566SOL     OW 5596   5.789   4.797   3.670
 1566SOL    HW1 5597   5.760   4.826   3.761
 1566SOL    HW2 5598   5.870   4.849   3.642
 1567SOL     OW 5599   5.894   5.506   6.459
 1567SOL    HW1 5600   5.866   5.422   6.506
 1567SOL    HW2 5601   5.813   5.563   6.444
 1568SOL     OW 5602   2.373   6.176   3.600
 1568SOL    HW1 5603   2.381   6.166   3.501
 1568SOL    HW2 5604   2.294   6.234   3.622
 1569SOL     OW 5605   3.866   0.510   2.957
 1569SOL    HW1 5606   3.917   0.444   3.012
 1569SOL    HW2 5607   3.919   0.594   2.948
 1570SOL     OW 5608   3.000   6.802   6.537
 1570SOL    HW1 5609   2.978   6.865   6.463
 1570SOL    HW2 5610   2.964   6.839   6.623
 1571SOL     OW 5611   0.863   2.731   3.036
 1571SOL    HW1 5612   0.923   2.660   3.071
 1571SOL    HW2 5613   0.804   2.764   3.110
 1572SOL     OW 5614   1.829   5.663   1.821
 1572SOL    HW1 5615   1.887   5.583   1.834
 1572SOL    HW2 5616   1.740   5.647   1.862
 1573SOL     OW 5617   5.184   5.578   1.697
 1573SOL    HW1 5618   5.125   5.542   1.769
 1573SOL    HW2 5619   5.128   5.622   1.626
 1574SOL     OW 5620   6.188   3.284   2.247
 1574SOL    HW1 5621   6.283   3.252   2.244
 1574SOL    HW2 5622   6.149   3.266   2.337
 1575SOL     OW 5623   1.963   0.546   1.478
 1575SOL    HW1 5624   1.864   0.540   1.465
 1575SOL    HW2 5625   2.001   0.612   1.413
 1576SOL     OW 5626   0.851   6.176   2.423
 1576SOL    HW1 5627   0.868   6.264   2.467
 1576SOL    HW2 5628   0.754   6.153   2.429
 1577SOL     OW 5629   3.001   0.727   6.526
 1577SOL    HW1 5630   2.937   0.742   6.451
 1577SOL    HW2 5631   2.997   0.632   6.556
 1578SOL     OW 5632   4.749   0.931   6.681
 1578SOL    HW1 5633   4.822   0.979   6.731
 1578SOL    HW2 5634   4.722   0.984   6.601
 1579SOL     OW 5635   0.591   2.933   1.311
 1579SOL    HW1 5636   0.557   2.939   1.405
 1579SOL    HW2 5637   0.658   2.860   1.304
 1580SOL     OW 5638   3.446   3.834   3.269
 1580SOL    HW1 5639   3.355   3.795   3.283
 1580SOL    HW2 5640   3.441   3.906   3.200
 1581SOL     OW 5641   6.936   4.864   5.379
 1581SOL    HW1 5642   6.869   4.810   5.429
 1581SOL    HW2 5643   7.008   4.895   5.441
 1582SOL     OW 5644   4.017   5.648   4.944
 1582SOL    HW1 5645   3.933   5.680   4.899
 1582SOL    HW2 5646   4.037   5.555   4.913
 1583SOL     OW 5647   0.710   6.053   5.103
 1583SOL    HW1 5648   0.806   6.053   5.075
 1583SOL    HW2 5649   0.698   5.988   5.179
 1584SOL     OW 5650   1.650   4.567   6.875
 1584SOL    HW1 5651   1.688   4.517   6.798
 1584SOL    HW2 5652   1.694   4.657   6.882
 1585SOL     OW 5653   4.527   1.897   2.907
 1585SOL    HW1 5654   4.456   1.833   2.879
 1585SOL    HW2 5655   4.494   1.991   2.895
 1586SOL     OW 5656   3.341   4.882   3.186
 1586SOL    HW1 5657   3.343   4.890   3.286
 1586SOL    HW2 5658   3.322   4.972   3.146
 1587SOL     OW 5659   1.649   5.623   5.251
 1587SOL    HW1 5660   1.713   5.578   5.189
 1587SOL    HW2 5661   1.568   5.566   5.264
 1588SOL     OW 5662   4.525   0.363   2.127
 1588SOL    HW1 5663   4.554   0.447   2.083
 1588SOL    HW2 5664   4.605   0.308   2.152
 1589SOL     OW 5665   6.692   3.165   2.745
 1589SOL    HW1 5666   6.769   3.170   2.809
 1589SOL    HW2 5667   6.616   3.221   2.779
 1590SOL     OW 5668   5.588   1.818   3.621
 1590SOL    HW1 5669   5.562   1.911   3.645
 1590SOL    HW2 5670   5.666   1.820   3.558
 1591SOL     OW 5671   6.560   5.531   1.575
 1591SOL    HW1 5672   6.461   5.524   1.584
 1591SOL    HW2 5673   6.597   5.446   1.539
 1592SOL     OW 5674   1.655   4.431   0.122
 1592SOL    HW1 5675   1.566   4.385   0.127
 1592SOL    HW2 5676   1.660   4.485   0.038
 1593SOL     OW 5677   0.760   6.923   6.155
 1593SOL    HW1 5678   0.677   6.929   6.099
 1593SOL    HW2 5679   0.776   6.828   6.181
 1594SOL     OW 5680   6.589   7.017   1.495
 1594SOL    HW1 5681   6.655   0.060   1.540
 1594SOL    HW2 5682   6.572   6.937   1.552
 1595SOL     OW 5683   1.380   4.609   0.640
 1595SOL    HW1 5684   1.478   4.596   0.654
 1595SOL    HW2 5685   1.349   4.555   0.562
 1596SOL     OW 5686   6.140   3.386   2.838
 1596SOL    HW1 5687   6.112   3.420   2.927
 1596SOL    HW2 5688   6.219   3.325   2.849
 1597SOL     OW 5689   3.192   6.033   1.133
 1597SOL    HW1 5690   3.272   6.012   1.189
 1597SOL    HW2 5691   3.154   5.948   1.096
 1598SOL     OW 5692   1.049   5.503   6.541
 1598SOL    HW1 5693   1.051   5.408   6.511
 1598SOL    HW2 5694   0.968   5.518   6.598
 1599SOL     OW 5695   4.349   4.824   4.959
 1599SOL    HW1 5696   4.267   4.855   4.913
 1599SOL    HW2 5697   4.348   4.725   4.966
 1600SOL     OW 5698   3.005   0.239   2.139
 1600SOL    HW1 5699   2.956   0.326   2.131
 1600SOL    HW2 5700   3.094   0.246   2.094
 1601SOL     OW 5701   0.447   6.830   4.074
 1601SOL    HW1 5702   0.434   6.754   4.010
 1601SOL    HW2 5703   0.527   6.812   4.132
 1602SOL     OW 5704   5.100   5.547   3.806
 1602SOL    HW1 5705   5.038   5.624   3.793
 1602SOL    HW2 5706   5.077   5.500   3.892
 1603SOL     OW 5707   2.977   5.369   4.290
 1603SOL    HW1 5708   2.879   5.355   4.303
 1603SOL    HW2 5709   2.995   5.467   4.274
 1604SOL     OW 5710   4.101   5.088   1.707
 1604SOL    HW1 5711   4.076   5.174   1.662
 1604SOL    HW2 5712   4.018   5.046   1.745
 1605SOL     OW 5713   6.069   5.738   1.321
 1605SOL    HW1 5714   6.151   5.687   1.296
 1605SOL    HW2 5715   6.085   5.786   1.407
 1606SOL     OW 5716   4.161   5.285   5.500
 1606SOL    HW1 5717   4.153   5.353   5.427
 1606SOL    HW2 5718   4.177   5.195   5.460
 1607SOL     OW 5719   4.446   0.130   1.427
 1607SOL    HW1 5720   4.465   0.139   1.330
 1607SOL    HW2 5721   4.354   0.163   1.447
 1608SOL     OW 5722   6.785   0.476   3.410
 1608SOL    HW1 5723   6.883   0.464   3.425
 1608SOL    HW2 5724   6.770   0.529   3.327
 1609SOL     OW 5725   3.112   6.674   0.568
 1609SOL    HW1 5726   3.034   6.726   0.604
 1609SOL    HW2 5727   3.165   6.637   0.643
 1610SOL     OW 5728   4.840   6.643   0.685
 1610SOL    HW1 5729   4.848   6.573   0.756
 1610SOL    HW2 5730   4.771   6.614   0.619
 1611SOL     OW 5731   1.577   3.582   0.989
 1611SOL    HW1 5732   1.516   3.640   1.044
 1611SOL    HW2 5733   1.634   3.528   1.051
 1612SOL     OW 5734   3.101   6.501   1.205
 1612SOL    HW1 5735   3.057   6.413   1.185
 1612SOL    HW2 5736   3.194   6.501   1.168
 1613SOL     OW 5737   0.483   5.918   2.147
 1613SOL    HW1 5738   0.576   5.922   2.110
 1613SOL    HW2 5739   0.467   5.828   2.186
 1614SOL     OW 5740   5.680   1.822   5.927
 1614SOL    HW1 5741   5.667   1.914   5.891
 1614SOL    HW2 5742   5.653   1.820   6.023
 1615SOL     OW 5743   0.014   5.244   5.829
 1615SOL    HW1 5744   0.058   5.190   5.901
 1615SOL    HW2 5745   6.997   5.330   5.868
 1616SOL     OW 5746   3.853   0.952   4.229
 1616SOL    HW1 5747   3.904   1.019   4.283
 1616SOL    HW2 5748   3.916   0.886   4.189
 1617SOL     OW 5749   4.860   0.114   3.104
 1617SOL    HW1 5750   4.941   0.086   3.156
 1617SOL    HW2 5751   4.794   0.040   3.102
 1618SOL     OW 5752   1.165   5.947   2.480
 1618SOL    HW1 5753   1.165   6.015   2.553
 1618SOL    HW2 5754   1.244   5.963   2.420
 1619SOL     OW 5755   0.204   5.063   0.122
 1619SOL    HW1 5756   0.221   5.159   0.100
 1619SOL    HW2 5757   0.109   5.052   0.152
 1620SOL     OW 5758   3.195   5.095   1.311
 1620SOL    HW1 5759   3.276   5.129   1.263
 1620SOL    HW2 5760   3.191   5.135   1.402
 1621SOL     OW 5761   6.274   0.372   1.276
 1621SOL    HW1 5762   6.253   0.458   1.323
 1621SOL    HW2 5763   6.189   0.330   1.244
 1622SOL     OW 5764   0.121   3.814   5.711
 1622SOL    HW1 5765   0.164   3.901   5.687
 1622SOL    HW2 5766   0.056   3.828   5.786
 1623SOL     OW 5767   6.943   1.976   4.446
 1623SOL    HW1 5768   7.002   2.020   4.378
 1623SOL    HW2 5769   7.000   1.934   4.517
 1624SOL     OW 5770   4.309   1.578   6.802
 1624SOL    HW1 5771   4.219   1.553   6.839
 1624SOL    HW2 5772   4.334   1.669   6.836
 1625SOL     OW 5773   0.977   4.912   6.600
 1625SOL    HW1 5774   1.017   4.972   6.669
 1625SOL    HW2 5775   0.878   4.925   6.598
 1626SOL     OW 5776   3.045   1.230   2.079
 1626SOL    HW1 5777   3.080   1.321   2.103
 1626SOL    HW2 5778   3.042   1.222   1.979
 1627SOL     OW 5779   5.748   2.763   3.723
 1627SOL    HW1 5780   5.704   2.756   3.633
 1627SOL    HW2 5781   5.696   2.709   3.789
 1628SOL     OW 5782   4.497   5.787   6.298
 1628SOL    HW1 5783   4.443   5.835   6.367
 1628SOL    HW2 5784   4.436   5.753   6.226
 1629SOL     OW 5785   2.841   1.470   3.282
 1629SOL    HW1 5786   2.848   1.379   3.240
 1629SOL    HW2 5787   2.791   1.463   3.368
 1630SOL     OW 5788   6.547   4.320   5.657
 1630SOL    HW1 5789   6.558   4.224   5.628
 1630SOL    HW2 5790   6.637   4.363   5.667
 1631SOL     OW 5791   0.001   3.228   0.879
 1631SOL    HW1 5792   0.053   3.264   0.802
 1631SOL    HW2 5793   6.957   3.155   0.846
 1632SOL     OW 5794   4.769   4.293   2.529
 1632SOL    HW1 5795   4.774   4.243   2.443
 1632SOL    HW2 5796   4.772   4.392   2.512
 1633SOL     OW 5797   5.083   4.529   4.528
 1633SOL    HW1 5798   5.057   4.625   4.531
 1633SOL    HW2 5799   5.029   4.478   4.594
 1634SOL     OW 5800   4.464   1.156   4.459
 1634SOL    HW1 5801   4.479   1.220   4.534
 1634SOL    HW2 5802   4.547   1.103   4.443
 1635SOL     OW 5803   2.105   5.811   6.611
 1635SOL    HW1 5804   2.006   5.817   6.615
 1635SOL    HW2 5805   2.136   5.730   6.662
 1636SOL     OW 5806   3.654   5.347   1.160
 1636SOL    HW1 5807   3.590   5.379   1.091
 1636SOL    HW2 5808   3.724   5.417   1.175
 1637SOL     OW 5809   6.522   6.832   3.931
 1637SOL    HW1 5810   6.608   6.864   3.890
 1637SOL    HW2 5811   6.531   6.833   4.031
 1638SOL     OW 5812   0.214   2.919   1.564
 1638SOL    HW1 5813   0.171   2.965   1.486
 1638SOL    HW2 5814   0.144   2.872   1.618
 1639SOL     OW 5815   6.806   4.814   2.261
 1639SOL    HW1 5816   6.724   4.864   2.287
 1639SOL    HW2 5817   6.871   4.815   2.337
 1640SOL     OW 5818   6.872   0.359   0.367
 1640SOL    HW1 5819   6.864   0.436   0.304
 1640SOL    HW2 5820   6.839   0.276   0.323
 1641SOL     OW 5821   6.672   2.473   4.128
 1641SOL    HW1 5822   6.579   2.468   4.092
 1641SOL    HW2 5823   6.705   2.568   4.123
 1642SOL     OW 5824   6.969   3.109   6.550
 1642SOL    HW1 5825   0.049   3.119   6.572
 1642SOL    HW2 5826   6.959   3.048   6.471
 1643SOL     OW 5827   3.148   4.843   2.873
 1643SOL    HW1 5828   3.097   4.794   2.802
 1643SOL    HW2 5829   3.094   4.844   2.958
 1644SOL     OW 5830   6.048   3.020   6.678
 1644SOL    HW1 5831   6.117   3.001   6.749
 1644SOL    HW2 5832   5.962   2.976   6.703
 1645SOL     OW 5833   3.037   6.629   6.161
 1645SOL    HW1 5834   3.135   6.645   6.162
 1645SOL    HW2 5835   2.989   6.717   6.154
 1646SOL     OW 5836   2.101   6.075   0.629
 1646SOL    HW1 5837   2.093   5.979   0.655
 1646SOL    HW2 5838   2.010   6.117   0.626
 1647SOL     OW 5839   5.499   2.662   4.453
 1647SOL    HW1 5840   5.454   2.574   4.440
 1647SOL    HW2 5841   5.444   2.735   4.412
 1648SOL     OW 5842   5.463   6.226   0.065
 1648SOL    HW1 5843   5.561   6.239   0.048
 1648SOL    HW2 5844   5.447   6.134   0.098
 1649SOL     OW 5845   3.732   1.246   3.580
 1649SOL    HW1 5846   3.708   1.310   3.653
 1649SOL    HW2 5847   3.821   1.204   3.600
 1650SOL     OW 5848   1.116   5.356   5.765
 1650SOL    HW1 5849   1.205   5.384   5.800
 1650SOL    HW2 5850   1.050   5.352   5.840
 1651SOL     OW 5851   0.328   2.214   2.548
 1651SOL    HW1 5852   0.330   2.271   2.631
 1651SOL    HW2 5853   0.330   2.118   2.575
 1652SOL     OW 5854   0.933   3.537   2.345
 1652SOL    HW1 5855   0.942   3.543   2.444
 1652SOL    HW2 5856   0.887   3.619   2.310
 1653SOL     OW 5857   6.798   5.642   1.532
 1653SOL    HW1 5858   6.871   5.624   1.598
 1653SOL    HW2 5859   6.709   5.630   1.576
 1654SOL     OW 5860   0.069   3.071   1.366
 1654SOL    HW1 5861   0.043   3.159   1.405
 1654SOL    HW2 5862   0.079   3.079   1.267
 1655SOL     OW 5863   6.408   1.196   4.646
 1655SOL    HW1 5864   6.472   1.128   4.683
 1655SOL    HW2 5865   6.389   1.265   4.716
 1656SOL     OW 5866   2.338   5.628   3.574
 1656SOL    HW1 5867   2.336   5.536   3.535
 1656SOL    HW2 5868   2.432   5.659   3.583
 1657SOL     OW 5869   6.458   0.519   5.329
 1657SOL    HW1 5870   6.558   0.525   5.329
 1657SOL    HW2 5871   6.419   0.610   5.317
 1658SOL     OW 5872   0.020   0.546   0.669
 1658SOL    HW1 5873   0.068   0.577   0.751
 1658SOL    HW2 5874   0.072   0.572   0.588
 1659SOL     OW 5875   3.773   0.519   0.033
 1659SOL    HW1 5876   3.698   0.468   7.008
 1659SOL    HW2 5877   3.751   0.537   0.129
 1660SOL     OW 5878   1.681   0.174   2.494
 1660SOL    HW1 5879   1.610   0.117   2.536
 1660SOL    HW2 5880   1.733   0.221   2.565
 1661SOL     OW 5881   3.131   5.798   2.055
 1661SOL    HW1 5882   3.032   5.814   2.050
 1661SOL    HW2 5883   3.161   5.806   2.150
 1662SOL     OW 5884   6.069   0.489   5.326
 1662SOL    HW1 5885   6.105   0.422   5.391
 1662SOL    HW2 5886   6.070   0.450   5.234
 1663SOL     OW 5887   5.141   5.525   2.369
 1663SOL    HW1 5888   5.107   5.431   2.376
 1663SOL    HW2 5889   5.199   5.534   2.288
 1664SOL     OW 5890   2.123   6.769   5.750
 1664SOL    HW1 5891   2.064   6.835   5.704
 1664SOL    HW2 5892   2.163   6.707   5.683
 1665SOL     OW 5893   0.128   3.978   1.795
 1665SOL    HW1 5894   0.228   3.975   1.792
 1665SOL    HW2 5895   0.094   3.918   1.867
 1666SOL     OW 5896   6.027   0.248   0.424
 1666SOL    HW1 5897   6.059   0.167   0.473
 1666SOL    HW2 5898   5.945   0.284   0.468
 1667SOL     OW 5899   6.745   6.287   1.365
 1667SOL    HW1 5900   6.760   6.233   1.448
 1667SOL    HW2 5901   6.785   6.239   1.287
 1668SOL     OW 5902   4.746   4.597   3.096
 1668SOL    HW1 5903   4.828   4.607   3.153
 1668SOL    HW2 5904   4.762   4.637   3.006
 1669SOL     OW 5905   0.177   4.493   5.314
 1669SOL    HW1 5906   0.225   4.580   5.323
 1669SOL    HW2 5907   0.191   4.438   5.397
 1670SOL     OW 5908   0.628   4.283   5.303
 1670SOL    HW1 5909   0.617   4.186   5.325
 1670SOL    HW2 5910   0.708   4.296   5.244
 1671SOL     OW 5911   5.684   1.679   2.958
 1671SOL    HW1 5912   5.759   1.729   3.001
 1671SOL    HW2 5913   5.710   1.655   2.864
 1672SOL     OW 5914   1.693   4.471   6.180
 1672SOL    HW1 5915   1.616   4.445   6.123
 1672SOL    HW2 5916   1.758   4.525   6.127
 1673SOL     OW 5917   1.774   1.350   4.800
 1673SOL    HW1 5918   1.857   1.404   4.786
 1673SOL    HW2 5919   1.790   1.282   4.871
 1674SOL     OW 5920   6.455   2.601   2.317
 1674SOL    HW1 5921   6.480   2.688   2.360
 1674SOL    HW2 5922   6.356   2.591   2.317
 1675SOL     OW 5923   5.149   0.521   0.475
 1675SOL    HW1 5924   5.220   0.563   0.531
 1675SOL    HW2 5925   5.189   0.447   0.420
 1676SOL     OW 5926   2.481   2.276   2.244
 1676SOL    HW1 5927   2.526   2.232   2.166
 1676SOL    HW2 5928   2.536   2.262   2.326
 1677SOL     OW 5929   3.918   3.713   3.597
 1677SOL    HW1 5930   3.876   3.804   3.605
 1677SOL    HW2 5931   3.863   3.656   3.536
 1678SOL     OW 5932   0.215   5.964   1.606
 1678SOL    HW1 5933   0.248   6.013   1.525
 1678SOL    HW2 5934   0.230   6.021   1.687
 1679SOL     OW 5935   1.534   1.177   4.376
 1679SOL    HW1 5936   1.581   1.253   4.422
 1679SOL    HW2 5937   1.602   1.115   4.336
 1680SOL     OW 5938   5.789   3.843   5.416
 1680SOL    HW1 5939   5.873   3.797   5.387
 1680SOL    HW2 5940   5.795   3.864   5.513
 1681SOL     OW 5941   2.019   6.136   5.237
 1681SOL    HW1 5942   1.940   6.197   5.241
 1681SOL    HW2 5943   2.029   6.089   5.326
 1682SOL     OW 5944   2.079   0.899   6.036
 1682SOL    HW1 5945   2.029   0.812   6.036
 1682SOL    HW2 5946   2.177   0.881   6.027
 1683SOL     OW 5947   6.057   6.267   2.861
 1683SOL    HW1 5948   6.111   6.217   2.928
 1683SOL    HW2 5949   6.101   6.355   2.841
 1684SOL     OW 5950   0.520   5.344   2.374
 1684SOL    HW1 5951   0.561   5.339   2.283
 1684SOL    HW2 5952   0.581   5.301   2.440
 1685SOL     OW 5953   1.864   1.938   5.604
 1685SOL    HW1 5954   1.826   1.990   5.680
 1685SOL    HW2 5955   1.951   1.897   5.631
 1686SOL     OW 5956   3.565   5.929   4.181
 1686SOL    HW1 5957   3.469   5.929   4.211
 1686SOL    HW2 5958   3.593   6.023   4.161
 1687SOL     OW 5959   0.546   3.971   1.969
 1687SOL    HW1 5960   0.458   3.955   1.925
 1687SOL    HW2 5961   0.535   3.961   2.068
 1688SOL     OW 5962   1.661   2.321   3.682
 1688SOL    HW1 5963   1.595   2.380   3.636
 1688SOL    HW2 5964   1.727   2.376   3.733
 1689SOL     OW 5965   6.084   0.917   2.516
 1689SOL    HW1 5966   6.030   0.902   2.599
 1689SOL    HW2 5967   6.083   0.835   2.460
 1690SOL     OW 5968   0.465   3.067   4.358
 1690SOL    HW1 5969   0.434   3.146   4.411
 1690SOL    HW2 5970   0.515   3.004   4.418
 1691SOL     OW 5971   5.152   3.131   4.082
 1691SOL    HW1 5972   5.205   3.210   4.113
 1691SOL    HW2 5973   5.055   3.147   4.100
 1692SOL     OW 5974   5.147   5.329   1.460
 1692SOL    HW1 5975   5.103   5.418   1.470
 1692SOL    HW2 5976   5.180   5.298   1.550
 1693SOL     OW 5977   6.735   1.500   4.462
 1693SOL    HW1 5978   6.827   1.536   4.474
 1693SOL    HW2 5979   6.690   1.547   4.385
 1694SOL     OW 5980   6.457   0.697   4.167
 1694SOL    HW1 5981   6.419   0.609   4.193
 1694SOL    HW2 5982   6.524   0.684   4.094
 1695SOL     OW 5983   3.496   0.804   6.876
 1695SOL    HW1 5984   3.571   0.771   6.819
 1695SOL    HW2 5985   3.439   0.866   6.823
 1696SOL     OW 5986   3.684   5.878   0.795
 1696SOL    HW1 5987   3.761   5.828   0.836
 1696SOL    HW2 5988   3.674   5.967   0.839
 1697SOL     OW 5989   6.367   2.521   1.280
 1697SOL    HW1 5990   6.280   2.485   1.245
 1697SOL    HW2 5991   6.428   2.445   1.300
 1698SOL     OW 5992   3.793   1.345   1.417
 1698SOL    HW1 5993   3.890   1.366   1.431
 1698SOL    HW2 5994   3.762   1.279   1.486
 1699SOL     OW 5995   2.286   1.813   5.880
 1699SOL    HW1 5996   2.211   1.801   5.816
 1699SOL    HW2 5997   2.290   1.909   5.910
 1700SOL     OW 5998   6.120   3.478   3.456
 1700SOL    HW1 5999   6.102   3.410   3.528
 1700SOL    HW2 6000   6.133   3.568   3.499
 1701SOL     OW 6001   5.820   5.148   5.332
 1701SOL    HW1 6002   5.903   5.092   5.335
 1701SOL    HW2 6003   5.768   5.135   5.416
 1702SOL     OW 6004   1.148   1.169   0.252
 1702SOL    HW1 6005   1.197   1.085   0.230
 1702SOL    HW2 6006   1.169   1.239   0.184
 1703SOL     OW 6007   4.470   1.588   6.440
 1703SOL    HW1 6008   4.480   1.552   6.347
 1703SOL    HW2 6009   4.380   1.564   6.476
 1704SOL     OW 6010   1.453   1.974   6.754
 1704SOL    HW1 6011   1.509   2.044   6.799
 1704SOL    HW2 6012   1.415   1.912   6.822
 1705SOL     OW 6013   3.737   1.992   1.612
 1705SOL    HW1 6014   3.637   1.997   1.608
 1705SOL    HW2 6015   3.765   1.896   1.623
 1706SOL     OW 6016   4.408   1.872   1.413
 1706SOL    HW1 6017   4.395   1.917   1.501
 1706SOL    HW2 6018   4.493   1.820   1.414
 1707SOL     OW 6019   4.719   2.703   2.561
 1707SOL    HW1 6020   4.711   2.691   2.462
 1707SOL    HW2 6021   4.795   2.648   2.595
 1708SOL     OW 6022   4.360   5.395   1.612
 1708SOL    HW1 6023   4.435   5.344   1.652
 1708SOL    HW2 6024   4.282   5.395   1.675
 1709SOL     OW 6025   3.880   6.736   0.868
 1709SOL    HW1 6026   3.855   6.832   0.861
 1709SOL    HW2 6027   3.973   6.728   0.906
 1710SOL     OW 6028   3.893   4.881   3.508
 1710SOL    HW1 6029   3.988   4.875   3.478
 1710SOL    HW2 6030   3.876   4.812   3.579
 1711SOL     OW 6031   2.423   5.032   5.523
 1711SOL    HW1 6032   2.510   4.982   5.515
 1711SOL    HW2 6033   2.374   5.027   5.436
 1712SOL     OW 6034   6.823   2.228   4.473
 1712SOL    HW1 6035   6.867   2.139   4.476
 1712SOL    HW2 6036   6.831   2.266   4.381
 1713SOL     OW 6037   3.773   1.505   3.218
 1713SOL    HW1 6038   3.676   1.523   3.203
 1713SOL    HW2 6039   3.790   1.494   3.316
 1714SOL     OW 6040   4.046   1.672   6.855
 1714SOL    HW1 6041   3.960   1.643   6.897
 1714SOL    HW2 6042   4.040   1.662   6.755
 1715SOL     OW 6043   2.792   5.863   2.900
 1715SOL    HW1 6044   2.841   5.777   2.882
 1715SOL    HW2 6045   2.751   5.859   2.991
 1716SOL     OW 6046   4.488   0.422   3.531
 1716SOL    HW1 6047   4.402   0.382   3.500
 1716SOL    HW2 6048   4.532   0.360   3.596
 1717SOL     OW 6049   3.811   5.050   5.190
 1717SOL    HW1 6050   3.715   5.024   5.185
 1717SOL    HW2 6051   3.819   5.148   5.206
 1718SOL     OW 6052   2.720   1.790   2.683
 1718SOL    HW1 6053   2.804   1.793   2.628
 1718SOL    HW2 6054   2.744   1.776   2.779
 1719SOL     OW 6055   2.188   4.136   1.140
 1719SOL    HW1 6056   2.179   4.235   1.135
 1719SOL    HW2 6057   2.255   4.111   1.209
 1720SOL     OW 6058   0.139   2.380   5.351
 1720SOL    HW1 6059   0.169   2.347   5.440
 1720SOL    HW2 6060   0.044   2.352   5.336
 1721SOL     OW 6061   1.406   0.257   2.020
 1721SOL    HW1 6062   1.434   0.164   2.043
 1721SOL    HW2 6063   1.308   0.258   1.997
 1722SOL     OW 6064   4.222   1.526   2.952
 1722SOL    HW1 6065   4.162   1.576   3.014
 1722SOL    HW2 6066   4.279   1.590   2.901
 1723SOL     OW 6067   4.414   2.064   6.595
 1723SOL    HW1 6068   4.436   2.140   6.533
 1723SOL    HW2 6069   4.376   2.100   6.680
 1724SOL     OW 6070   6.571   2.036   1.922
 1724SOL    HW1 6071   6.610   1.982   1.996
 1724SOL    HW2 6072   6.528   2.118   1.960
 1725SOL     OW 6073   2.114   5.197   6.907
 1725SOL    HW1 6074   2.176   5.221   6.981
 1725SOL    HW2 6075   2.025   5.241   6.922
 1726SOL     OW 6076   5.439   4.102   4.109
 1726SOL    HW1 6077   5.466   4.164   4.035
 1726SOL    HW2 6078   5.340   4.098   4.115
 1727SOL     OW 6079   3.867   3.640   2.908
 1727SOL    HW1 6080   3.893   3.720   2.854
 1727SOL    HW2 6081   3.947   3.606   2.957
 1728SOL     OW 6082   4.960   4.406   5.152
 1728SOL    HW1 6083   5.041   4.402   5.211
 1728SOL    HW2 6084   4.969   4.483   5.088
 1729SOL     OW 6085   1.040   3.992   2.934
 1729SOL    HW1 6086   0.944   3.987   2.959
 1729SOL    HW2 6087   1.053   3.957   2.842
 1730SOL     OW 6088   2.837   6.658   5.222
 1730SOL    HW1 6089   2.840   6.559   5.210
 1730SOL    HW2 6090   2.747   6.693   5.197
 1731SOL     OW 6091   6.076   4.942   3.596
 1731SOL    HW1 6092   6.036   4.977   3.681
 1731SOL    HW2 6093   6.065   5.010   3.524
 1732SOL     OW 6094   1.691   4.263   6.395
 1732SOL    HW1 6095   1.791   4.267   6.385
 1732SOL    HW2 6096   1.648   4.316   6.322
 1733SOL     OW 6097   2.567   3.828   1.655
 1733SOL    HW1 6098   2.543   3.913   1.702
 1733SOL    HW2 6099   2.492   3.800   1.596
 1734SOL     OW 6100   5.950   2.868   1.260
 1734SOL    HW1 6101   5.982   2.777   1.284
 1734SOL    HW2 6102   6.022   2.917   1.211
 1735SOL     OW 6103   4.401   5.295   5.777
 1735SOL    HW1 6104   4.304   5.313   5.793
 1735SOL    HW2 6105   4.456   5.364   5.826
 1736SOL     OW 6106   3.702   4.071   0.568
 1736SOL    HW1 6107   3.676   4.143   0.504
 1736SOL    HW2 6108   3.695   4.105   0.661
 1737SOL     OW 6109   5.330   0.123   4.571
 1737SOL    HW1 6110   5.324   0.036   4.523
 1737SOL    HW2 6111   5.383   0.112   4.654
 1738SOL     OW 6112   1.521   3.721   4.147
 1738SOL    HW1 6113   1.500   3.753   4.240
 1738SOL    HW2 6114   1.527   3.621   4.147
 1739SOL     OW 6115   6.319   0.180   4.371
 1739SOL    HW1 6116   6.385   0.115   4.409
 1739SOL    HW2 6117   6.229   0.138   4.366
 1740SOL     OW 6118   6.852   1.532   5.147
 1740SOL    HW1 6119   6.930   1.470   5.133
 1740SOL    HW2 6120   6.794   1.532   5.065
 1741SOL     OW 6121   2.608   1.534   3.944
 1741SOL    HW1 6122   2.561   1.527   4.032
 1741SOL    HW2 6123   2.677   1.461   3.938
 1742SOL     OW 6124   5.777   1.092   6.109
 1742SOL    HW1 6125   5.859   1.126   6.062
 1742SOL    HW2 6126   5.762   0.996   6.084
 1743SOL     OW 6127   1.256   1.110   2.504
 1743SOL    HW1 6128   1.201   1.162   2.570
 1743SOL    HW2 6129   1.351   1.142   2.508
 1744SOL     OW 6130   5.260   2.423   2.909
 1744SOL    HW1 6131   5.175   2.447   2.957
 1744SOL    HW2 6132   5.311   2.507   2.889
 1745SOL     OW 6133   6.225   6.411   1.675
 1745SOL    HW1 6134   6.219   6.337   1.607
 1745SOL    HW2 6135   6.142   6.411   1.731
 1746SOL     OW 6136   2.222   3.903   4.235
 1746SOL    HW1 6137   2.205   3.811   4.201
 1746SOL    HW2 6138   2.211   3.905   4.334
 1747SOL     OW 6139   3.719   1.251   2.024
 1747SOL    HW1 6140   3.817   1.234   2.015
 1747SOL    HW2 6141   3.700   1.348   2.008
 1748SOL     OW 6142   6.069   1.547   4.482
 1748SOL    HW1 6143   6.070   1.552   4.581
 1748SOL    HW2 6144   6.159   1.573   4.446
 1749SOL     OW 6145   3.114   6.741   0.128
 1749SOL    HW1 6146   3.189   6.676   0.124
 1749SOL    HW2 6147   3.070   6.748   0.039
 1750SOL     OW 6148   4.447   0.242   4.504
 1750SOL    HW1 6149   4.355   0.281   4.510
 1750SOL    HW2 6150   4.515   0.314   4.509
 1751SOL     OW 6151   5.984   2.254   4.804
 1751SOL    HW1 6152   5.974   2.326   4.736
 1751SOL    HW2 6153   5.997   2.296   4.894
 1752SOL     OW 6154   6.439   0.825   1.159
 1752SOL    HW1 6155   6.432   0.738   1.207
 1752SOL    HW2 6156   6.503   0.816   1.082
 1753SOL     OW 6157   6.773   1.694   1.826
 1753SOL    HW1 6158   6.679   1.680   1.793
 1753SOL    HW2 6159   6.836   1.641   1.769
 1754SOL     OW 6160   1.849   6.044   5.988
 1754SOL    HW1 6161   1.884   5.954   5.963
 1754SOL    HW2 6162   1.798   6.038   6.074
 1755SOL     OW 6163   6.535   6.138   5.952
 1755SOL    HW1 6164   6.567   6.157   5.860
 1755SOL    HW2 6165   6.596   6.182   6.018
 1756SOL     OW 6166   3.737   6.543   5.969
 1756SOL    HW1 6167   3.706   6.632   5.937
 1756SOL    HW2 6168   3.837   6.541   5.973
 1757SOL     OW 6169   3.265   5.190   4.829
 1757SOL    HW1 6170   3.301   5.198   4.736
 1757SOL    HW2 6171   3.226   5.099   4.842
 1758SOL     OW 6172   1.570   0.106   4.846
 1758SOL    HW1 6173   1.589   0.062   4.759
 1758SOL    HW2 6174   1.553   0.204   4.831
 1759SOL     OW 6175   1.317   6.646   5.428
 1759SOL    HW1 6176   1.377   6.669   5.352
 1759SOL    HW2 6177   1.228   6.689   5.416
 1760SOL     OW 6178   6.193   0.740   5.135
 1760SOL    HW1 6179   6.209   0.728   5.233
 1760SOL    HW2 6180   6.251   0.813   5.100
 1761SOL     OW 6181   0.393   0.748   0.842
 1761SOL    HW1 6182   0.458   0.729   0.916
 1761SOL    HW2 6183   0.378   0.664   0.788
 1762SOL     OW 6184   0.383   1.145   4.814
 1762SOL    HW1 6185   0.309   1.200   4.853
 1762SOL    HW2 6186   0.356   1.111   4.724
 1763SOL     OW 6187   0.877   4.323   5.112
 1763SOL    HW1 6188   0.923   4.302   5.198
 1763SOL    HW2 6189   0.897   4.251   5.045
 1764SOL     OW 6190   0.894   3.774   2.122
 1764SOL    HW1 6191   0.968   3.781   2.056
 1764SOL    HW2 6192   0.810   3.745   2.075
 1765SOL     OW 6193   3.998   2.402   1.728
 1765SOL    HW1 6194   3.910   2.449   1.734
 1765SOL    HW2 6195   3.983   2.303   1.731
 1766SOL     OW 6196   5.066   4.942   4.217
 1766SOL    HW1 6197   5.105   5.034   4.207
 1766SOL    HW2 6198   5.138   4.877   4.238
 1767SOL     OW 6199   0.910   4.760   2.641
 1767SOL    HW1 6200   0.895   4.694   2.715
 1767SOL    HW2 6201   0.822   4.782   2.597
 1768SOL     OW 6202   4.470   0.619   0.350
 1768SOL    HW1 6203   4.543   0.680   0.318
 1768SOL    HW2 6204   4.487   0.527   0.316
 1769SOL     OW 6205   6.185   0.983   6.988
 1769SOL    HW1 6206   6.219   0.935   6.907
 1769SOL    HW2 6207   6.263   1.015   0.025
 1770SOL     OW 6208   0.293   4.019   5.382
 1770SOL    HW1 6209   0.269   4.040   5.477
 1770SOL    HW2 6210   0.216   3.973   5.338
 1771SOL     OW 6211   1.366   4.743   6.907
 1771SOL    HW1 6212   1.408   4.796   6.833
 1771SOL    HW2 6213   1.424   4.665   6.929
 1772SOL     OW 6214   3.973   5.171   4.185
 1772SOL    HW1 6215   4.049   5.133   4.237
 1772SOL    HW2 6216   3.902   5.102   4.172
 1773SOL     OW 6217   1.052   1.614   5.296
 1773SOL    HW1 6218   1.149   1.635   5.289
 1773SOL    HW2 6219   1.010   1.619   5.205
 1774SOL     OW 6220   5.594   6.726   2.421
 1774SOL    HW1 6221   5.575   6.653   2.487
 1774SOL    HW2 6222   5.535   6.804   2.441
 1775SOL     OW 6223   1.659   5.497   6.426
 1775SOL    HW1 6224   1.719   5.547   6.365
 1775SOL    HW2 6225   1.599   5.561   6.474
 1776SOL     OW 6226   4.935   0.707   5.787
 1776SOL    HW1 6227   4.883   0.622   5.798
 1776SOL    HW2 6228   4.878   0.774   5.740
 1777SOL     OW 6229   4.132   6.790   6.285
 1777SOL    HW1 6230   4.119   6.877   6.239
 1777SOL    HW2 6231   4.078   6.789   6.369
 1778SOL     OW 6232   5.158   1.176   4.455
 1778SOL    HW1 6233   5.120   1.087   4.481
 1778SOL    HW2 6234   5.175   1.177   4.357
 1779SOL     OW 6235   5.192   0.110   5.433
 1779SOL    HW1 6236   5.191   0.118   5.532
 1779SOL    HW2 6237   5.136   0.183   5.393
 1780SOL     OW 6238   1.615   4.697   4.720
 1780SOL    HW1 6239   1.666   4.621   4.680
 1780SOL    HW2 6240   1.530   4.711   4.668
 1781SOL     OW 6241   5.342   6.857   4.505
 1781SOL    HW1 6242   5.281   6.792   4.549
 1781SOL    HW2 6243   5.429   6.860   4.554
 1782SOL     OW 6244   2.078   1.562   2.672
 1782SOL    HW1 6245   1.998   1.525   2.718
 1782SOL    HW2 6246   2.137   1.608   2.740
 1783SOL     OW 6247   2.267   3.338   6.283
 1783SOL    HW1 6248   2.189   3.292   6.241
 1783SOL    HW2 6249   2.243   3.434   6.301
 1784SOL     OW 6250   2.378   0.998   1.639
 1784SOL    HW1 6251   2.418   1.066   1.577
 1784SOL    HW2 6252   2.342   1.044   1.720
 1785SOL     OW 6253   0.025   6.174   4.123
 1785SOL    HW1 6254   7.016   6.118   4.045
 1785SOL    HW2 6255   0.085   6.247   4.094
 1786SOL     OW 6256   1.549   5.385   0.787
 1786SOL    HW1 6257   1.502   5.298   0.796
 1786SOL    HW2 6258   1.571   5.402   0.691
 1787SOL     OW 6259   1.539   2.630   4.986
 1787SOL    HW1 6260   1.533   2.594   5.079
 1787SOL    HW2 6261   1.629   2.672   4.972
 1788SOL     OW 6262   4.926   3.783   0.189
 1788SOL    HW1 6263   4.990   3.834   0.132
 1788SOL    HW2 6264   4.951   3.686   0.188
 1789SOL     OW 6265   6.483   3.384   2.124
 1789SOL    HW1 6266   6.448   3.451   2.058
 1789SOL    HW2 6267   6.492   3.426   2.214
 1790SOL     OW 6268   3.221   1.466   4.498
 1790SOL    HW1 6269   3.167   1.411   4.561
 1790SOL    HW2 6270   3.279   1.529   4.549
 1791SOL     OW 6271   6.013   0.901   3.777
 1791SOL    HW1 6272   6.020   0.970   3.849
 1791SOL    HW2 6273   5.917   0.885   3.756
 1792SOL     OW 6274   6.534   1.497   5.118
 1792SOL    HW1 6275   6.517   1.540   5.206
 1792SOL    HW2 6276   6.497   1.554   5.045
 1793SOL     OW 6277   6.608   1.007   4.635
 1793SOL    HW1 6278   6.645   0.924   4.594
 1793SOL    HW2 6279   6.665   1.085   4.609
 1794SOL     OW 6280   6.321   0.286   6.497
 1794SOL    HW1 6281   6.364   0.327   6.578
 1794SOL    HW2 6282   6.293   0.193   6.517
 1795SOL     OW 6283   5.776   4.632   0.478
 1795SOL    HW1 6284   5.728   4.546   0.493
 1795SOL    HW2 6285   5.709   4.707   0.472
 1796SOL     OW 6286   1.981   0.979   5.781
 1796SOL    HW1 6287   1.888   1.007   5.804
 1796SOL    HW2 6288   2.032   0.959   5.865
 1797SOL     OW 6289   1.507   6.871   4.973
 1797SOL    HW1 6290   1.515   6.957   4.922
 1797SOL    HW2 6291   1.534   6.795   4.913
 1798SOL     OW 6292   3.822   2.993   4.142
 1798SOL    HW1 6293   3.844   2.939   4.061
 1798SOL    HW2 6294   3.793   3.085   4.113
 1799SOL     OW 6295   4.224   1.485   6.476
 1799SOL    HW1 6296   4.170   1.417   6.526
 1799SOL    HW2 6297   4.169   1.523   6.401
 1800SOL     OW 6298   5.089   4.388   3.682
 1800SOL    HW1 6299   5.083   4.477   3.727
 1800SOL    HW2 6300   5.019   4.381   3.611
 1801SOL     OW 6301   0.873   1.891   2.010
 1801SOL    HW1 6302   0.883   1.800   1.969
 1801SOL    HW2 6303   0.785   1.895   2.058
 1802SOL     OW 6304   6.219   5.552   3.887
 1802SOL    HW1 6305   6.230   5.466   3.837
 1802SOL    HW2 6306   6.142   5.603   3.849
 1803SOL     OW 6307   0.213   6.059   2.297
 1803SOL    HW1 6308   0.289   6.005   2.262
 1803SOL    HW2 6309   0.241   6.108   2.379
 1804SOL     OW 6310   3.494   3.597   6.045
 1804SOL    HW1 6311   3.416   3.541   6.014
 1804SOL    HW2 6312   3.468   3.647   6.127
 1805SOL     OW 6313   1.105   6.206   5.915
 1805SOL    HW1 6314   1.030   6.270   5.935
 1805SOL    HW2 6315   1.096   6.173   5.822
 1806SOL     OW 6316   6.373   2.081   2.243
 1806SOL    HW1 6317   6.434   2.002   2.247
 1806SOL    HW2 6318   6.412   2.156   2.296
 1807SOL     OW 6319   6.172   3.702   0.514
 1807SOL    HW1 6320   6.185   3.623   0.574
 1807SOL    HW2 6321   6.099   3.683   0.449
 1808SOL     OW 6322   5.397   2.889   4.997
 1808SOL    HW1 6323   5.385   2.793   5.023
 1808SOL    HW2 6324   5.394   2.946   5.079
 1809SOL     OW 6325   3.157   2.038   5.192
 1809SOL    HW1 6326   3.058   2.037   5.200
 1809SOL    HW2 6327   3.185   2.112   5.131
 1810SOL     OW 6328   0.401   0.385   4.502
 1810SOL    HW1 6329   0.433   0.362   4.594
 1810SOL    HW2 6330   0.370   0.302   4.456
 1811SOL     OW 6331   4.679   4.589   1.610
 1811SOL    HW1 6332   4.608   4.535   1.565
 1811SOL    HW2 6333   4.696   4.551   1.701
 1812SOL     OW 6334   4.572   0.146   5.925
 1812SOL    HW1 6335   4.510   0.169   5.850
 1812SOL    HW2 6336   4.519   0.110   6.002
 1813SOL     OW 6337   4.585   4.437   2.199
 1813SOL    HW1 6338   4.566   4.521   2.148
 1813SOL    HW2 6339   4.569   4.358   2.140
 1814SOL     OW 6340   6.759   6.917   0.876
 1814SOL    HW1 6341   6.722   6.966   0.955
 1814SOL    HW2 6342   6.859   6.927   0.874
 1815SOL     OW 6343   5.676   5.625   2.660
 1815SOL    HW1 6344   5.737   5.703   2.653
 1815SOL    HW2 6345   5.591   5.644   2.611
 1816SOL     OW 6346   4.060   5.724   5.634
 1816SOL    HW1 6347   4.105   5.804   5.595
 1816SOL    HW2 6348   4.122   5.646   5.630
 1817SOL     OW 6349   2.989   1.532   2.780
 1817SOL    HW1 6350   2.978   1.630   2.769
 1817SOL    HW2 6351   2.989   1.488   2.690
 1818SOL     OW 6352   2.070   6.539   0.163
 1818SOL    HW1 6353   2.084   6.481   0.243
 1818SOL    HW2 6354   2.080   6.635   0.190
 1819SOL     OW 6355   1.174   4.871   2.556
 1819SOL    HW1 6356   1.092   4.820   2.581
 1819SOL    HW2 6357   1.154   4.969   2.555
 1820SOL     OW 6358   3.911   0.211   2.600
 1820SOL    HW1 6359   3.858   0.249   2.524
 1820SOL    HW2 6360   4.008   0.233   2.588
 1821SOL     OW 6361   3.399   0.794   2.005
 1821SOL    HW1 6362   3.312   0.843   2.011
 1821SOL    HW2 6363   3.381   0.695   1.999
 1822SOL     OW 6364   1.189   3.578   1.645
 1822SOL    HW1 6365   1.270   3.521   1.632
 1822SOL    HW2 6366   1.159   3.574   1.740
 1823SOL     OW 6367   3.433   6.130   2.427
 1823SOL    HW1 6368   3.462   6.226   2.419
 1823SOL    HW2 6369   3.451   6.083   2.341
 1824SOL     OW 6370   4.225   4.070   0.861
 1824SOL    HW1 6371   4.179   4.090   0.775
 1824SOL    HW2 6372   4.162   4.018   0.920
 1825SOL     OW 6373   0.771   2.510   5.020
 1825SOL    HW1 6374   0.799   2.602   5.049
 1825SOL    HW2 6375   0.763   2.451   5.101
 1826SOL     OW 6376   3.763   1.764   1.307
 1826SOL    HW1 6377   3.790   1.860   1.309
 1826SOL    HW2 6378   3.760   1.729   1.401
 1827SOL     OW 6379   4.888   5.207   0.909
 1827SOL    HW1 6380   4.982   5.237   0.887
 1827SOL    HW2 6381   4.885   5.107   0.913
 1828SOL     OW 6382   1.211   3.755   6.271
 1828SOL    HW1 6383   1.247   3.727   6.360
 1828SOL    HW2 6384   1.276   3.730   6.199
 1829SOL     OW 6385   3.786   0.621   3.468
 1829SOL    HW1 6386   3.812   0.526   3.452
 1829SOL    HW2 6387   3.707   0.645   3.411
 1830SOL     OW 6388   5.905   6.671   5.233
 1830SOL    HW1 6389   5.950   6.606   5.171
 1830SOL    HW2 6390   5.910   6.638   5.327
 1831SOL     OW 6391   5.193   5.779   2.835
 1831SOL    HW1 6392   5.096   5.803   2.838
 1831SOL    HW2 6393   5.204   5.696   2.780
 1832SOL     OW 6394   2.746   4.013   0.341
 1832SOL    HW1 6395   2.701   3.926   0.324
 1832SOL    HW2 6396   2.737   4.037   0.438
 1833SOL     OW 6397   4.768   6.764   1.391
 1833SOL    HW1 6398   4.791   6.861   1.403
 1833SOL    HW2 6399   4.800   6.733   1.302
 1834SOL     OW 6400   2.762   2.805   0.914
 1834SOL    HW1 6401   2.738   2.709   0.898
 1834SOL    HW2 6402   2.716   2.837   0.997
 1835SOL     OW 6403   1.228   5.274   1.506
 1835SOL    HW1 6404   1.228   5.304   1.411
 1835SOL    HW2 6405   1.212   5.175   1.510
 1836SOL     OW 6406   4.830   1.518   2.366
 1836SOL    HW1 6407   4.840   1.556   2.273
 1836SOL    HW2 6408   4.910   1.543   2.421
 1837SOL     OW 6409   1.870   1.283   5.111
 1837SOL    HW1 6410   1.814   1.365   5.120
 1837SOL    HW2 6411   1.913   1.261   5.198
 1838SOL     OW 6412   6.620   0.657   6.932
 1838SOL    HW1 6413   6.648   0.709   7.013
 1838SOL    HW2 6414   6.675   0.685   6.853
 1839SOL     OW 6415   6.616   1.506   6.608
 1839SOL    HW1 6416   6.593   1.559   6.689
 1839SOL    HW2 6417   6.669   1.562   6.545
 1840SOL     OW 6418   3.612   0.165   3.110
 1840SOL    HW1 6419   3.644   0.250   3.151
 1840SOL    HW2 6420   3.595   0.098   3.183
 1841SOL     OW 6421   2.275   0.111   2.268
 1841SOL    HW1 6422   2.331   0.052   2.326
 1841SOL    HW2 6423   2.320   0.200   2.257
 1842SOL     OW 6424   1.758   5.055   0.727
 1842SOL    HW1 6425   1.833   5.118   0.744
 1842SOL    HW2 6426   1.746   5.044   0.628
 1843SOL     OW 6427   3.924   1.302   4.665
 1843SOL    HW1 6428   4.017   1.337   4.674
 1843SOL    HW2 6429   3.885   1.288   4.756
 1844SOL     OW 6430   5.063   1.737   5.965
 1844SOL    HW1 6431   5.130   1.740   6.039
 1844SOL    HW2 6432   5.012   1.651   5.970
 1845SOL     OW 6433   3.110   0.757   3.266
 1845SOL    HW1 6434   3.148   0.708   3.187
 1845SOL    HW2 6435   3.177   0.757   3.340
 1846SOL     OW 6436   4.313   1.085   3.030
 1846SOL    HW1 6437   4.329   1.033   3.114
 1846SOL    HW2 6438   4.386   1.066   2.964
 1847SOL     OW 6439   2.061   0.310   4.618
 1847SOL    HW1 6440   2.017   0.267   4.539
 1847SOL    HW2 6441   2.102   0.240   4.676
 1848SOL     OW 6442   2.486   5.961   4.024
 1848SOL    HW1 6443   2.388   5.971   4.039
 1848SOL    HW2 6444   2.535   6.026   4.082
 1849SOL     OW 6445   5.225   3.121   2.530
 1849SOL    HW1 6446   5.321   3.094   2.521
 1849SOL    HW2 6447   5.171   3.077   2.459
 1850SOL     OW 6448   4.842   2.052   2.207
 1850SOL    HW1 6449   4.927   2.093   2.240
 1850SOL    HW2 6450   4.820   1.973   2.264
 1851SOL     OW 6451   0.205   3.089   6.637
 1851SOL    HW1 6452   0.213   3.166   6.700
 1851SOL    HW2 6453   0.294   3.066   6.600
 1852SOL     OW 6454   0.652   4.220   1.959
 1852SOL    HW1 6455   0.618   4.126   1.952
 1852SOL    HW2 6456   0.697   4.245   1.874
 1853SOL     OW 6457   0.168   2.639   4.494
 1853SOL    HW1 6458   0.080   2.592   4.490
 1853SOL    HW2 6459   0.223   2.601   4.568
 1854SOL     OW 6460   1.236   5.603   3.394
 1854SOL    HW1 6461   1.327   5.636   3.372
 1854SOL    HW2 6462   1.170   5.640   3.328
 1855SOL     OW 6463   5.715   3.127   4.415
 1855SOL    HW1 6464   5.728   3.221   4.447
 1855SOL    HW2 6465   5.756   3.117   4.325
 1856SOL     OW 6466   3.752   3.063   6.731
 1856SOL    HW1 6467   3.832   3.013   6.697
 1856SOL    HW2 6468   3.714   3.015   6.809
 1857SOL     OW 6469   5.721   0.853   0.495
 1857SOL    HW1 6470   5.710   0.890   0.587
 1857SOL    HW2 6471   5.742   0.755   0.501
 1858SOL     OW 6472   4.860   2.020   4.421
 1858SOL    HW1 6473   4.928   1.959   4.382
 1858SOL    HW2 6474   4.780   2.023   4.360
 1859SOL     OW 6475   5.284   1.975   4.757
 1859SOL    HW1 6476   5.241   1.962   4.668
 1859SOL    HW2 6477   5.378   1.944   4.754
 1860SOL     OW 6478   0.728   1.811   4.593
 1860SOL    HW1 6479   0.821   1.795   4.562
 1860SOL    HW2 6480   0.680   1.868   4.525
 1861SOL     OW 6481   5.640   0.488   2.921
 1861SOL    HW1 6482   5.549   0.466   2.885
 1861SOL    HW2 6483   5.692   0.403   2.934
 1862SOL     OW 6484   1.783   6.654   6.736
 1862SOL    HW1 6485   1.731   6.698   6.662
 1862SOL    HW2 6486   1.776   6.709   6.819
 1863SOL     OW 6487   0.430   2.943   1.105
 1863SOL    HW1 6488   0.478   2.932   1.192
 1863SOL    HW2 6489   0.417   3.040   1.086
 1864SOL     OW 6490   2.882   6.157   4.417
 1864SOL    HW1 6491   2.965   6.171   4.471
 1864SOL    HW2 6492   2.848   6.064   4.433
 1865SOL     OW 6493   4.389   1.657   1.194
 1865SOL    HW1 6494   4.464   1.656   1.260
 1865SOL    HW2 6495   4.342   1.746   1.198
 1866SOL     OW 6496   6.552   3.995   4.501
 1866SOL    HW1 6497   6.533   3.922   4.567
 1866SOL    HW2 6498   6.541   3.959   4.408
 1867SOL     OW 6499   2.609   2.790   1.389
 1867SOL    HW1 6500   2.626   2.813   1.293
 1867SOL    HW2 6501   2.539   2.719   1.394
 1868SOL     OW 6502   4.827   4.042   4.992
 1868SOL    HW1 6503   4.878   3.966   5.034
 1868SOL    HW2 6504   4.842   4.041   4.893
 1869SOL     OW 6505   4.961   2.556   4.227
 1869SOL    HW1 6506   4.987   2.622   4.298
 1869SOL    HW2 6507   5.017   2.570   4.146
 1870SOL     OW 6508   0.983   3.217   4.253
 1870SOL    HW1 6509   1.003   3.141   4.191
 1870SOL    HW2 6510   0.955   3.181   4.342
 1871SOL     OW 6511   0.035   6.607   0.035
 1871SOL    HW1 6512   0.006   6.573   6.963
 1871SOL    HW2 6513   6.972   6.630   0.090
 1872SOL     OW 6514   3.117   2.525   0.691
 1872SOL    HW1 6515   3.098   2.564   0.601
 1872SOL    HW2 6516   3.144   2.429   0.681
 1873SOL     OW 6517   6.457   1.146   6.792
 1873SOL    HW1 6518   6.486   1.226   6.845
 1873SOL    HW2 6519   6.486   1.063   6.839
 1874SOL     OW 6520   1.119   0.483   6.250
 1874SOL    HW1 6521   1.021   0.499   6.239
 1874SOL    HW2 6522   1.170   0.558   6.208
 1875SOL     OW 6523   6.090   6.415   0.397
 1875SOL    HW1 6524   6.185   6.429   0.425
 1875SOL    HW2 6525   6.036   6.388   0.477
 1876SOL     OW 6526   5.590   6.542   5.942
 1876SOL    HW1 6527   5.498   6.563   5.908
 1876SOL    HW2 6528   5.643   6.498   5.870
 1877SOL     OW 6529   0.376   0.646   2.224
 1877SOL    HW1 6530   0.425   0.559   2.211
 1877SOL    HW2 6531   0.341   0.650   2.317
 1878SOL     OW 6532   0.298   4.227   3.705
 1878SOL    HW1 6533   0.313   4.129   3.693
 1878SOL    HW2 6534   0.334   4.256   3.794
 1879SOL     OW 6535   2.446   5.225   4.806
 1879SOL    HW1 6536   2.485   5.275   4.884
 1879SOL    HW2 6537   2.499   5.142   4.789
 1880SOL     OW 6538   6.885   2.375   3.056
 1880SOL    HW1 6539   6.835   2.299   3.099
 1880SOL    HW2 6540   6.950   2.413   3.122
 1881SOL     OW 6541   1.047   2.222   2.985
 1881SOL    HW1 6542   1.116   2.266   3.042
 1881SOL    HW2 6543   1.016   2.138   3.029
 1882SOL     OW 6544   0.916   5.841   0.317
 1882SOL    HW1 6545   0.938   5.901   0.394
 1882SOL    HW2 6546   1.000   5.817   0.269
 1883SOL     OW 6547   1.672   3.549   2.779
 1883SOL    HW1 6548   1.584   3.583   2.747
 1883SOL    HW2 6549   1.713   3.615   2.842
 1884SOL     OW 6550   4.349   1.262   0.900
 1884SOL    HW1 6551   4.302   1.309   0.825
 1884SOL    HW2 6552   4.423   1.205   0.863
 1885SOL     OW 6553   6.823   2.438   0.926
 1885SOL    HW1 6554   6.756   2.506   0.957
 1885SOL    HW2 6555   6.806   2.351   0.972
 1886SOL     OW 6556   1.740   1.695   6.842
 1886SOL    HW1 6557   1.692   1.738   6.766
 1886SOL    HW2 6558   1.747   1.760   6.918
 1887SOL     OW 6559   0.389   4.836   5.757
 1887SOL    HW1 6560   0.391   4.881   5.668
 1887SOL    HW2 6561   0.413   4.739   5.746
 1888SOL     OW 6562   1.780   1.829   5.158
 1888SOL    HW1 6563   1.858   1.892   5.164
 1888SOL    HW2 6564   1.724   1.855   5.079
 1889SOL     OW 6565   4.276   3.523   0.254
 1889SOL    HW1 6566   4.197   3.465   0.275
 1889SOL    HW2 6567   4.317   3.492   0.168
 1890SOL     OW 6568   1.098   5.741   6.015
 1890SOL    HW1 6569   1.017   5.775   5.967
 1890SOL    HW2 6570   1.076   5.653   6.058
 1891SOL     OW 6571   5.955   3.460   5.830
 1891SOL    HW1 6572   6.004   3.548   5.828
 1891SOL    HW2 6573   6.003   3.397   5.891
 1892SOL     OW 6574   3.876   6.169   1.173
 1892SOL    HW1 6575   3.893   6.243   1.238
 1892SOL    HW2 6576   3.782   6.175   1.139
 1893SOL     OW 6577   3.212   2.106   4.876
 1893SOL    HW1 6578   3.273   2.033   4.908
 1893SOL    HW2 6579   3.216   2.183   4.940
 1894SOL     OW 6580   4.237   4.006   1.527
 1894SOL    HW1 6581   4.325   3.969   1.557
 1894SOL    HW2 6582   4.211   4.082   1.586
 1895SOL     OW 6583   5.866   0.961   2.131
 1895SOL    HW1 6584   5.773   0.958   2.168
 1895SOL    HW2 6585   5.863   0.983   2.033
 1896SOL     OW 6586   6.375   1.416   4.207
 1896SOL    HW1 6587   6.313   1.348   4.166
 1896SOL    HW2 6588   6.388   1.396   4.303
 1897SOL     OW 6589   6.150   5.404   3.444
 1897SOL    HW1 6590   6.124   5.319   3.398
 1897SOL    HW2 6591   6.104   5.481   3.399
 1898SOL     OW 6592   5.181   5.973   1.529
 1898SOL    HW1 6593   5.254   5.961   1.463
 1898SOL    HW2 6594   5.099   5.926   1.497
 1899SOL     OW 6595   0.381   3.829   2.707
 1899SOL    HW1 6596   0.304   3.775   2.741
 1899SOL    HW2 6597   0.457   3.767   2.685
 1900SOL     OW 6598   1.040   0.080   6.851
 1900SOL    HW1 6599   0.975   0.155   6.862
 1900SOL    HW2 6600   1.029   0.038   6.761
 1901SOL     OW 6601   2.583   1.332   0.210
 1901SOL    HW1 6602   2.493   1.376   0.205
 1901SOL    HW2 6603   2.638   1.378   0.280
 1902SOL     OW 6604   1.207   2.186   4.731
 1902SOL    HW1 6605   1.205   2.104   4.789
 1902SOL    HW2 6606   1.119   2.196   4.685
 1903SOL     OW 6607   6.545   4.572   3.410
 1903SOL    HW1 6608   6.552   4.644   3.342
 1903SOL    HW2 6609   6.519   4.612   3.498
 1904SOL     OW 6610   0.350   6.777   4.458
 1904SOL    HW1 6611   0.402   6.781   4.544
 1904SOL    HW2 6612   0.398   6.717   4.394
 1905SOL     OW 6613   6.972   2.416   3.935
 1905SOL    HW1 6614   6.973   2.499   3.879
 1905SOL    HW2 6615   6.928   2.342   3.884
 1906SOL     OW 6616   2.659   6.996   5.781
 1906SOL    HW1 6617   2.740   6.939   5.774
 1906SOL    HW2 6618   2.637   7.012   5.878
 1907SOL     OW 6619   2.897   0.092   3.334
 1907SOL    HW1 6620   2.935   0.138   3.414
 1907SOL    HW2 6621   2.970   0.048   3.282
 1908SOL     OW 6622   4.742   1.511   5.816
 1908SOL    HW1 6623   4.642   1.507   5.818
 1908SOL    HW2 6624   4.778   1.491   5.908
 1909SOL     OW 6625   2.343   4.356   4.511
 1909SOL    HW1 6626   2.291   4.439   4.490
 1909SOL    HW2 6627   2.290   4.276   4.482
 1910SOL     OW 6628   5.551   2.489   6.517
 1910SOL    HW1 6629   5.609   2.509   6.438
 1910SOL    HW2 6630   5.609   2.472   6.597
 1911SOL     OW 6631   6.724   2.044   5.242
 1911SOL    HW1 6632   6.709   2.081   5.333
 1911SOL    HW2 6633   6.687   1.952   5.237
 1912SOL     OW 6634   3.336   6.486   2.664
 1912SOL    HW1 6635   3.349   6.432   2.746
 1912SOL    HW2 6636   3.336   6.584   2.687
 1913SOL     OW 6637   2.008   6.547   5.087
 1913SOL    HW1 6638   2.069   6.473   5.116
 1913SOL    HW2 6639   1.960   6.520   5.004
 1914SOL     OW 6640   2.268   2.736   6.572
 1914SOL    HW1 6641   2.249   2.823   6.526
 1914SOL    HW2 6642   2.240   2.661   6.513
 1915SOL     OW 6643   3.728   0.906   5.636
 1915SOL    HW1 6644   3.784   0.961   5.573
 1915SOL    HW2 6645   3.763   0.813   5.637
 1916SOL     OW 6646   4.316   5.781   0.754
 1916SOL    HW1 6647   4.309   5.682   0.765
 1916SOL    HW2 6648   4.300   5.826   0.841
 1917SOL     OW 6649   3.743   3.683   4.493
 1917SOL    HW1 6650   3.714   3.726   4.578
 1917SOL    HW2 6651   3.663   3.661   4.438
 1918SOL     OW 6652   6.527   6.764   5.773
 1918SOL    HW1 6653   6.466   6.759   5.693
 1918SOL    HW2 6654   6.554   6.859   5.789
 1919SOL     OW 6655   1.215   6.168   2.080
 1919SOL    HW1 6656   1.302   6.128   2.110
 1919SOL    HW2 6657   1.195   6.249   2.136
 1920SOL     OW 6658   0.708   4.289   3.847
 1920SOL    HW1 6659   0.711   4.240   3.934
 1920SOL    HW2 6660   0.715   4.224   3.771
 1921SOL     OW 6661   0.291   5.419   6.822
 1921SOL    HW1 6662   0.220   5.488   6.810
 1921SOL    HW2 6663   0.285   5.382   6.915
 1922SOL     OW 6664   4.224   3.405   1.330
 1922SOL    HW1 6665   4.324   3.398   1.332
 1922SOL    HW2 6666   4.188   3.375   1.419
 1923SOL     OW 6667   3.144   1.179   0.649
 1923SOL    HW1 6668   3.047   1.185   0.627
 1923SOL    HW2 6669   3.197   1.160   0.566
 1924SOL     OW 6670   6.503   4.442   1.785
 1924SOL    HW1 6671   6.491   4.343   1.793
 1924SOL    HW2 6672   6.596   4.463   1.756
 1925SOL     OW 6673   3.104   3.629   1.968
 1925SOL    HW1 6674   3.119   3.722   1.936
 1925SOL    HW2 6675   3.079   3.630   2.065
 1926SOL     OW 6676   1.898   0.514   4.720
 1926SOL    HW1 6677   1.822   0.537   4.659
 1926SOL    HW2 6678   1.938   0.427   4.692
 1927SOL     OW 6679   3.770   4.301   6.589
 1927SOL    HW1 6680   3.695   4.281   6.526
 1927SOL    HW2 6681   3.819   4.382   6.557
 1928SOL     OW 6682   6.550   2.916   5.777
 1928SOL    HW1 6683   6.568   2.841   5.713
 1928SOL    HW2 6684   6.543   3.002   5.726
 1929SOL     OW 6685   1.564   5.581   1.931
 1929SOL    HW1 6686   1.487   5.547   1.877
 1929SOL    HW2 6687   1.583   5.518   2.006
 1930SOL     OW 6688   6.055   4.440   0.335
 1930SOL    HW1 6689   6.056   4.523   0.279
 1930SOL    HW2 6690   6.039   4.465   0.431
 1931SOL     OW 6691   6.847   3.661   3.019
 1931SOL    HW1 6692   6.934   3.633   3.059
 1931SOL    HW2 6693   6.864   3.709   2.933
 1932SOL     OW 6694   5.167   3.549   2.849
 1932SOL    HW1 6695   5.154   3.464   2.798
 1932SOL    HW2 6696   5.102   3.553   2.924
 1933SOL     OW 6697   2.661   5.390   0.909
 1933SOL    HW1 6698   2.755   5.364   0.931
 1933SOL    HW2 6699   2.656   5.490   0.900
 1934SOL     OW 6700   1.470   7.007   5.381
 1934SOL    HW1 6701   1.558   0.013   5.423
 1934SOL    HW2 6702   1.478   6.921   5.331
 1935SOL     OW 6703   2.873   7.002   4.964
 1935SOL    HW1 6704   2.962   0.014   4.929
 1935SOL    HW2 6705   2.802   0.009   4.897
 1936SOL     OW 6706   5.499   5.312   4.815
 1936SOL    HW1 6707   5.583   5.263   4.837
 1936SOL    HW2 6708   5.521   5.401   4.776
 1937SOL     OW 6709   4.024   6.750   1.866
 1937SOL    HW1 6710   4.030   6.656   1.832
 1937SOL    HW2 6711   3.946   6.796   1.824
 1938SOL     OW 6712   4.213   1.732   3.394
 1938SOL    HW1 6713   4.144   1.738   3.322
 1938SOL    HW2 6714   4.303   1.714   3.353
 1939SOL     OW 6715   1.328   0.472   3.822
 1939SOL    HW1 6716   1.399   0.439   3.760
 1939SOL    HW2 6717   1.259   0.523   3.769
 1940SOL     OW 6718   5.346   5.526   6.580
 1940SOL    HW1 6719   5.410   5.533   6.657
 1940SOL    HW2 6720   5.390   5.476   6.505
 1941SOL     OW 6721   6.625   4.169   2.942
 1941SOL    HW1 6722   6.606   4.127   3.031
 1941SOL    HW2 6723   6.705   4.229   2.949
 1942SOL     OW 6724   6.107   6.395   2.526
 1942SOL    HW1 6725   6.130   6.388   2.429
 1942SOL    HW2 6726   6.100   6.303   2.565
 1943SOL     OW 6727   3.223   6.000   1.872
 1943SOL    HW1 6728   3.314   6.040   1.875
 1943SOL    HW2 6729   3.217   5.926   1.939
 1944SOL     OW 6730   5.153   1.847   6.527
 1944SOL    HW1 6731   5.090   1.789   6.578
 1944SOL    HW2 6732   5.245   1.808   6.529
 1945SOL     OW 6733   4.513   5.412   3.006
 1945SOL    HW1 6734   4.569   5.488   2.972
 1945SOL    HW2 6735   4.562   5.366   3.080
 1946SOL     OW 6736   0.334   1.229   0.686
 1946SOL    HW1 6737   0.380   1.141   0.670
 1946SOL    HW2 6738   0.345   1.287   0.606
 1947SOL     OW 6739   5.527   6.512   4.590
 1947SOL    HW1 6740   5.455   6.524   4.658
 1947SOL    HW2 6741   5.542   6.414   4.574
 1948SOL     OW 6742   6.385   5.285   4.381
 1948SOL    HW1 6743   6.323   5.363   4.391
 1948SOL    HW2 6744   6.369   5.242   4.292
 1949SOL     OW 6745   4.053   4.051   5.782
 1949SOL    HW1 6746   4.144   4.021   5.754
 1949SOL    HW2 6747   4.060   4.138   5.831
 1950SOL     OW 6748   3.716   3.609   0.553
 1950SOL    HW1 6749   3.752   3.635   0.643
 1950SOL    HW2 6750   3.740   3.679   0.486
 1951SOL     OW 6751   6.819   2.981   0.292
 1951SOL    HW1 6752   6.891   2.922   0.255
 1951SOL    HW2 6753   6.817   3.067   0.241
 1952SOL     OW 6754   3.329   2.622   0.387
 1952SOL    HW1 6755   3.315   2.528   0.356
 1952SOL    HW2 6756   3.262   2.644   0.458
 1953SOL     OW 6757   6.566   2.009   0.010
 1953SOL    HW1 6758   6.522   2.091   0.046
 1953SOL    HW2 6759   6.519   1.980   6.944
 1954SOL     OW 6760   5.602   1.443   4.197
 1954SOL    HW1 6761   5.558   1.512   4.140
 1954SOL    HW2 6762   5.538   1.369   4.215
 1955SOL     OW 6763   1.585   6.924   1.801
 1955SOL    HW1 6764   1.628   6.947   1.714
 1955SOL    HW2 6765   1.655   6.914   1.872
 1956SOL     OW 6766   5.920   6.501   2.900
 1956SOL    HW1 6767   5.978   6.548   2.833
 1956SOL    HW2 6768   5.939   6.403   2.896
 1957SOL     OW 6769   6.350   5.397   5.081
 1957SOL    HW1 6770   6.436   5.397   5.132
 1957SOL    HW2 6771   6.274   5.409   5.145
 1958SOL     OW 6772   6.040   3.394   3.972
 1958SOL    HW1 6773   6.033   3.388   4.071
 1958SOL    HW2 6774   6.104   3.324   3.939
 1959SOL     OW 6775   0.552   2.514   6.182
 1959SOL    HW1 6776   0.513   2.545   6.269
 1959SOL    HW2 6777   0.650   2.500   6.192
 1960SOL     OW 6778   6.736   4.599   1.039
 1960SOL    HW1 6779   6.803   4.540   0.993
 1960SOL    HW2 6780   6.715   4.560   1.128
 1961SOL     OW 6781   5.610   4.377   4.360
 1961SOL    HW1 6782   5.541   4.415   4.421
 1961SOL    HW2 6783   5.597   4.413   4.268
 1962SOL     OW 6784   1.578   5.979   3.340
 1962SOL    HW1 6785   1.481   5.964   3.357
 1962SOL    HW2 6786   1.591   6.068   3.297
 1963SOL     OW 6787   0.444   0.604   1.890
 1963SOL    HW1 6788   0.412   0.513   1.864
 1963SOL    HW2 6789   0.366   0.664   1.903
 1964SOL     OW 6790   4.303   2.637   1.375
 1964SOL    HW1 6791   4.330   2.631   1.279
 1964SOL    HW2 6792   4.205   2.618   1.384
 1965SOL     OW 6793   0.703   3.418   2.954
 1965SOL    HW1 6794   0.761   3.496   2.977
 1965SOL    HW2 6795   0.655   3.386   3.036
 1966SOL     OW 6796   7.008   5.240   5.156
 1966SOL    HW1 6797   6.969   5.262   5.066
 1966SOL    HW2 6798   6.935   5.244   5.225
 1967SOL     OW 6799   4.629   1.866   6.146
 1967SOL    HW1 6800   4.579   1.846   6.230
 1967SOL    HW2 6801   4.574   1.839   6.067
 1968SOL     OW 6802   3.262   6.522   0.148
 1968SOL    HW1 6803   3.171   6.481   0.144
 1968SOL    HW2 6804   3.323   6.465   0.202
 1969SOL     OW 6805   0.117   1.260   1.777
 1969SOL    HW1 6806   0.181   1.335   1.789
 1969SOL    HW2 6807   0.025   1.289   1.804
 1970SOL     OW 6808   2.504   1.062   6.163
 1970SOL    HW1 6809   2.503   1.147   6.109
 1970SOL    HW2 6810   2.471   1.082   6.255
 1971SOL     OW 6811   6.474   7.016   6.222
 1971SOL    HW1 6812   6.427   0.086   6.240
 1971SOL    HW2 6813   6.485   6.965   6.307
 1972SOL     OW 6814   0.172   2.786   2.975
 1972SOL    HW1 6815   0.208   2.876   2.948
 1972SOL    HW2 6816   0.210   2.761   3.064
 1973SOL     OW 6817   3.082   3.674   1.684
 1973SOL    HW1 6818   3.071   3.613   1.605
 1973SOL    HW2 6819   3.073   3.622   1.769
 1974SOL     OW 6820   6.135   5.945   4.047
 1974SOL    HW1 6821   6.140   5.999   4.131
 1974SOL    HW2 6822   6.203   5.872   4.050
 1975SOL     OW 6823   2.528   0.993   2.844
 1975SOL    HW1 6824   2.513   1.092   2.837
 1975SOL    HW2 6825   2.593   0.964   2.775
 1976SOL     OW 6826   0.307   5.899   6.922
 1976SOL    HW1 6827   0.269   5.948   7.000
 1976SOL    HW2 6828   0.402   5.929   6.907
 1977SOL     OW 6829   1.095   2.512   3.511
 1977SOL    HW1 6830   1.135   2.427   3.475
 1977SOL    HW2 6831   1.106   2.585   3.443
 1978SOL     OW 6832   1.740   0.453   4.218
 1978SOL    HW1 6833   1.714   0.474   4.124
 1978SOL    HW2 6834   1.834   0.481   4.234
 1979SOL     OW 6835   6.691   3.938   4.971
 1979SOL    HW1 6836   6.604   3.897   5.000
 1979SOL    HW2 6837   6.678   3.987   4.885
 1980SOL     OW 6838   3.018   0.778   0.563
 1980SOL    HW1 6839   2.941   0.714   0.559
 1980SOL    HW2 6840   3.015   0.839   0.484
 1981SOL     OW 6841   5.494   2.048   2.494
 1981SOL    HW1 6842   5.519   1.956   2.523
 1981SOL    HW2 6843   5.395   2.057   2.495
 1982SOL     OW 6844   6.041   4.221   5.660
 1982SOL    HW1 6845   6.047   4.196   5.756
 1982SOL    HW2 6846   6.133   4.237   5.623
 1983SOL     OW 6847   1.060   2.636   2.573
 1983SOL    HW1 6848   1.029   2.644   2.478
 1983SOL    HW2 6849   1.004   2.695   2.631
 1984SOL     OW 6850   5.356   1.186   5.562
 1984SOL    HW1 6851   5.302   1.176   5.645
 1984SOL    HW2 6852   5.300   1.164   5.482
 1985SOL     OW 6853   1.277   0.695   2.243
 1985SOL    HW1 6854   1.316   0.782   2.211
 1985SOL    HW2 6855   1.345   0.622   2.231
 1986SOL     OW 6856   1.129   1.466   0.032
 1986SOL    HW1 6857   1.098   1.560   0.043
 1986SOL    HW2 6858   1.053   1.408   0.005
 1987SOL     OW 6859   2.005   3.066   1.569
 1987SOL    HW1 6860   2.023   3.146   1.511
 1987SOL    HW2 6861   1.936   3.089   1.637
 1988SOL     OW 6862   4.846   4.212   0.790
 1988SOL    HW1 6863   4.825   4.191   0.695
 1988SOL    HW2 6864   4.808   4.140   0.849
 1989SOL     OW 6865   2.593   0.373   5.301
 1989SOL    HW1 6866   2.560   0.429   5.225
 1989SOL    HW2 6867   2.677   0.327   5.273
 1990SOL     OW 6868   3.428   0.192   1.185
 1990SOL    HW1 6869   3.366   0.265   1.156
 1990SOL    HW2 6870   3.374   0.118   1.226
 1991SOL     OW 6871   3.890   4.914   6.238
 1991SOL    HW1 6872   3.974   4.877   6.278
 1991SOL    HW2 6873   3.902   4.925   6.139
 1992SOL     OW 6874   2.283   6.601   6.692
 1992SOL    HW1 6875   2.209   6.631   6.753
 1992SOL    HW2 6876   2.322   6.516   6.727
 1993SOL     OW 6877   4.152   3.214   5.475
 1993SOL    HW1 6878   4.234   3.174   5.516
 1993SOL    HW2 6879   4.127   3.298   5.524
 1994SOL     OW 6880   1.340   2.256   1.327
 1994SOL    HW1 6881   1.322   2.330   1.392
 1994SOL    HW2 6882   1.256   2.234   1.277
 1995SOL     OW 6883   6.460   2.256   2.008
 1995SOL    HW1 6884   6.498   2.346   2.028
 1995SOL    HW2 6885   6.412   2.222   2.089
 1996SOL     OW 6886   2.722   3.542   0.852
 1996SOL    HW1 6887   2.789   3.487   0.903
 1996SOL    HW2 6888   2.662   3.481   0.801
 1997SOL     OW 6889   4.815   0.238   5.833
 1997SOL    HW1 6890   4.740   0.199   5.887
 1997SOL    HW2 6891   4.840   0.174   5.760
 1998SOL     OW 6892   3.161   3.853   5.487
 1998SOL    HW1 6893   3.158   3.849   5.387
 1998SOL    HW2 6894   3.072   3.881   5.522
 1999SOL     OW 6895   3.198   6.995   2.029
 1999SOL    HW1 6896   3.202   0.078   2.029
 1999SOL    HW2 6897   3.106   6.965   2.056
 2000SOL     OW 6898   4.180   1.808   5.709
 2000SOL    HW1 6899   4.146   1.792   5.616
 2000SOL    HW2 6900   4.226   1.897   5.712
 2001SOL     OW 6901   3.486   2.163   1.795
 2001SOL    HW1 6902   3.562   2.218   1.830
 2001SOL    HW2 6903   3.447   2.208   1.715
 2002SOL     OW 6904   0.741   5.748   6.098
 2002SOL    HW1 6905   0.692   5.835   6.100
 2002SOL    HW2 6906   0.776   5.727   6.190
 2003SOL     OW 6907   4.628   7.011   3.293
 2003SOL    HW1 6908   4.720   7.017   3.331
 2003SOL    HW2 6909   4.596   0.085   3.268
 2004SOL     OW 6910   4.936   1.032   4.815
 2004SOL    HW1 6911   4.849   1.069   4.847
 2004SOL    HW2 6912   4.955   0.945   4.861
 2005SOL     OW 6913   1.174   5.543   6.948
 2005SOL    HW1 6914   1.267   5.575   6.966
 2005SOL    HW2 6915   1.109   5.592   7.006
 2006SOL     OW 6916   5.091   3.812   3.613
 2006SOL    HW1 6917   5.040   3.787   3.695
 2006SOL    HW2 6918   5.028   3.823   3.536
 2007SOL     OW 6919   4.849   5.976   0.574
 2007SOL    HW1 6920   4.779   6.036   0.536
 2007SOL    HW2 6921   4.887   6.017   0.657
 2008SOL     OW 6922   0.944   5.409   3.420
 2008SOL    HW1 6923   0.883   5.485   3.440
 2008SOL    HW2 6924   1.028   5.442   3.376
 2009SOL     OW 6925   6.374   0.112   1.354
 2009SOL    HW1 6926   6.342   0.206   1.340
 2009SOL    HW2 6927   6.463   0.114   1.399
 2010SOL     OW 6928   1.453   1.429   0.850
 2010SOL    HW1 6929   1.392   1.393   0.779
 2010SOL    HW2 6930   1.402   1.443   0.934
 2011SOL     OW 6931   6.475   1.892   4.800
 2011SOL    HW1 6932   6.388   1.925   4.835
 2011SOL    HW2 6933   6.506   1.953   4.726
 2012SOL     OW 6934   0.810   3.724   1.179
 2012SOL    HW1 6935   0.848   3.658   1.114
 2012SOL    HW2 6936   0.735   3.774   1.137
 2013SOL     OW 6937   5.238   0.853   2.892
 2013SOL    HW1 6938   5.243   0.868   2.793
 2013SOL    HW2 6939   5.156   0.800   2.913
 2014SOL     OW 6940   1.632   5.262   3.268
 2014SOL    HW1 6941   1.617   5.342   3.210
 2014SOL    HW2 6942   1.615   5.178   3.215
 2015SOL     OW 6943   2.757   1.509   6.746
 2015SOL    HW1 6944   2.775   1.584   6.810
 2015SOL    HW2 6945   2.743   1.547   6.655
 2016SOL     OW 6946   0.715   5.943   5.344
 2016SOL    HW1 6947   0.811   5.939   5.373
 2016SOL    HW2 6948   0.664   6.003   5.406
 2017SOL     OW 6949   3.640   6.201   4.217
 2017SOL    HW1 6950   3.609   6.141   4.291
 2017SOL    HW2 6951   3.695   6.275   4.254
 2018SOL     OW 6952   6.469   5.950   6.258
 2018SOL    HW1 6953   6.551   5.956   6.202
 2018SOL    HW2 6954   6.490   5.972   6.353
 2019SOL     OW 6955   4.829   2.808   2.191
 2019SOL    HW1 6956   4.792   2.853   2.109
 2019SOL    HW2 6957   4.809   2.864   2.271
 2020SOL     OW 6958   1.202   4.737   4.811
 2020SOL    HW1 6959   1.261   4.798   4.759
 2020SOL    HW2 6960   1.254   4.694   4.884
 2021SOL     OW 6961   2.100   6.807   3.158
 2021SOL    HW1 6962   2.009   6.772   3.180
 2021SOL    HW2 6963   2.156   6.733   3.120
 2022SOL     OW 6964   2.102   3.637   2.450
 2022SOL    HW1 6965   2.019   3.623   2.396
 2022SOL    HW2 6966   2.181   3.602   2.399
 2023SOL     OW 6967   0.209   1.710   0.419
 2023SOL    HW1 6968   0.124   1.749   0.455
 2023SOL    HW2 6969   0.231   1.626   0.469
 2024SOL     OW 6970   0.039   0.446   3.100
 2024SOL    HW1 6971   0.121   0.502   3.108
 2024SOL    HW2 6972   7.014   0.460   3.011
 2025SOL     OW 6973   1.732   2.467   2.102
 2025SOL    HW1 6974   1.803   2.401   2.124
 2025SOL    HW2 6975   1.761   2.558   2.131
 2026SOL     OW 6976   1.599   2.189   6.027
 2026SOL    HW1 6977   1.571   2.140   6.110
 2026SOL    HW2 6978   1.518   2.228   5.983
 2027SOL     OW 6979   1.661   1.280   1.432
 2027SOL    HW1 6980   1.748   1.321   1.460
 2027SOL    HW2 6981   1.668   1.180   1.436
 2028SOL     OW 6982   3.443   1.327   6.235
 2028SOL    HW1 6983   3.490   1.405   6.275
 2028SOL    HW2 6984   3.350   1.321   6.271
 2029SOL     OW 6985   0.292   0.796   0.290
 2029SOL    HW1 6986   0.249   0.827   0.375
 2029SOL    HW2 6987   0.240   0.719   0.253
 2030SOL     OW 6988   2.004   1.441   3.962
 2030SOL    HW1 6989   1.914   1.466   3.997
 2030SOL    HW2 6990   1.995   1.397   3.873
 2031SOL     OW 6991   4.819   6.136   2.379
 2031SOL    HW1 6992   4.739   6.090   2.343
 2031SOL    HW2 6993   4.792   6.224   2.420
 2032SOL     OW 6994   5.353   5.827   1.233
 2032SOL    HW1 6995   5.369   5.900   1.299
 2032SOL    HW2 6996   5.363   5.862   1.140
 2033SOL     OW 6997   3.467   4.536   6.922
 2033SOL    HW1 6998   3.383   4.494   6.887
 2033SOL    HW2 6999   3.529   4.555   6.846
 2034SOL     OW 7000   2.638   0.119   4.572
 2034SOL    HW1 7001   2.654   0.082   4.664
 2034SOL    HW2 7002   2.706   0.082   4.509
 2035SOL     OW 7003   0.576   0.564   2.525
 2035SOL    HW1 7004   0.540   0.651   2.558
 2035SOL    HW2 7005   0.671   0.577   2.495
 2036SOL     OW 7006   0.451   5.879   3.063
 2036SOL    HW1 7007   0.520   5.938   3.107
 2036SOL    HW2 7008   0.465   5.880   2.964
 2037SOL     OW 7009   6.853   1.917   5.659
 2037SOL    HW1 7010   6.866   1.954   5.752
 2037SOL    HW2 7011   6.756   1.913   5.638
 2038SOL     OW 7012   1.198   1.314   6.756
 2038SOL    HW1 7013   1.266   1.279   6.821
 2038SOL    HW2 7014   1.182   1.246   6.685
 2039SOL     OW 7015   0.731   5.147   2.801
 2039SOL    HW1 7016   0.770   5.221   2.857
 2039SOL    HW2 7017   0.680   5.084   2.860
 2040SOL     OW 7018   3.229   3.161   4.941
 2040SOL    HW1 7019   3.293   3.221   4.988
 2040SOL    HW2 7020   3.233   3.069   4.981
 2041SOL     OW 7021   6.864   6.190   6.449
 2041SOL    HW1 7022   6.934   6.125   6.479
 2041SOL    HW2 7023   6.773   6.153   6.469
 2042SOL     OW 7024   6.008   5.351   6.957
 2042SOL    HW1 7025   6.081   5.338   0.008
 2042SOL    HW2 7026   6.049   5.379   6.870
 2043SOL     OW 7027   6.718   4.291   2.215
 2043SOL    HW1 7028   6.622   4.272   2.194
 2043SOL    HW2 7029   6.742   4.251   2.303
 2044SOL     OW 7030   4.978   0.202   2.255
 2044SOL    HW1 7031   4.982   0.239   2.348
 2044SOL    HW2 7032   5.055   0.139   2.241
 2045SOL     OW 7033   2.168   4.484   4.790
 2045SOL    HW1 7034   2.103   4.461   4.717
 2045SOL    HW2 7035   2.260   4.489   4.752
 2046SOL     OW 7036   6.839   0.228   4.721
 2046SOL    HW1 7037   6.784   0.194   4.645
 2046SOL    HW2 7038   6.887   0.151   4.764
 2047SOL     OW 7039   4.329   2.099   6.870
 2047SOL    HW1 7040   4.309   2.187   6.913
 2047SOL    HW2 7041   4.265   2.030   6.904
 2048SOL     OW 7042   3.323   6.196   0.090
 2048SOL    HW1 7043   3.319   6.100   0.117
 2048SOL    HW2 7044   3.357   6.252   0.166
 2049SOL     OW 7045   4.326   2.255   6.283
 2049SOL    HW1 7046   4.285   2.344   6.301
 2049SOL    HW2 7047   4.273   2.207   6.213
 2050SOL     OW 7048   6.181   2.882   4.028
 2050SOL    HW1 7049   6.093   2.901   3.984
 2050SOL    HW2 7050   6.169   2.809   4.095
 2051SOL     OW 7051   6.823   4.720   6.984
 2051SOL    HW1 7052   6.781   4.811   6.988
 2051SOL    HW2 7053   6.917   4.728   6.953
 2052SOL     OW 7054   0.435   4.292   0.308
 2052SOL    HW1 7055   0.500   4.319   0.379
 2052SOL    HW2 7056   0.433   4.192   0.302
 2053SOL     OW 7057   6.311   0.586   0.606
 2053SOL    HW1 7058   6.281   0.502   0.562
 2053SOL    HW2 7059   6.411   0.590   0.605
 2054SOL     OW 7060   4.638   2.554   1.960
 2054SOL    HW1 7061   4.720   2.542   2.015
 2054SOL    HW2 7062   4.652   2.513   1.870
 2055SOL     OW 7063   6.108   2.796   2.545
 2055SOL    HW1 7064   6.138   2.846   2.627
 2055SOL    HW2 7065   6.044   2.724   2.572
 2056SOL     OW 7066   2.406   1.265   2.931
 2056SOL    HW1 7067   2.447   1.356   2.922
 2056SOL    HW2 7068   2.338   1.252   2.858
 2057SOL     OW 7069   5.564   2.655   3.910
 2057SOL    HW1 7070   5.481   2.657   3.854
 2057SOL    HW2 7071   5.588   2.560   3.930
 2058SOL     OW 7072   1.131   1.842   3.551
 2058SOL    HW1 7073   1.042   1.812   3.515
 2058SOL    HW2 7074   1.119   1.882   3.641
 2059SOL     OW 7075   2.947   6.416   6.324
 2059SOL    HW1 7076   2.849   6.429   6.311
 2059SOL    HW2 7077   2.996   6.494   6.285
 2060SOL     OW 7078   0.110   4.042   0.975
 2060SOL    HW1 7079   0.094   3.946   0.995
 2060SOL    HW2 7080   0.168   4.083   1.046
 2061SOL     OW 7081   1.115   1.947   3.071
 2061SOL    HW1 7082   1.085   1.899   3.153
 2061SOL    HW2 7083   1.083   1.897   2.990
 2062SOL     OW 7084   5.735   0.065   3.046
 2062SOL    HW1 7085   5.748   6.987   3.073
 2062SOL    HW2 7086   5.652   0.073   2.991
 2063SOL     OW 7087   1.152   1.184   6.030
 2063SOL    HW1 7088   1.156   1.237   5.945
 2063SOL    HW2 7089   1.119   1.242   6.104
 2064SOL     OW 7090   1.043   1.491   5.596
 2064SOL    HW1 7091   1.090   1.525   5.515
 2064SOL    HW2 7092   1.049   1.559   5.669
 2065SOL     OW 7093   6.668   4.054   2.672
 2065SOL    HW1 7094   6.585   4.006   2.701
 2065SOL    HW2 7095   6.727   4.069   2.751
 2066SOL     OW 7096   0.664   5.863   4.072
 2066SOL    HW1 7097   0.692   5.942   4.127
 2066SOL    HW2 7098   0.576   5.829   4.106
 2067SOL     OW 7099   6.831   6.688   0.663
 2067SOL    HW1 7100   6.847   6.743   0.581
 2067SOL    HW2 7101   6.845   6.745   0.744
 2068SOL     OW 7102   1.004   1.234   5.594
 2068SOL    HW1 7103   1.008   1.334   5.598
 2068SOL    HW2 7104   0.954   1.206   5.512
 2069SOL     OW 7105   0.473   2.746   3.653
 2069SOL    HW1 7106   0.419   2.662   3.649
 2069SOL    HW2 7107   0.413   2.824   3.634
 2070SOL     OW 7108   2.061   0.084   2.460
 2070SOL    HW1 7109   2.003   0.165   2.468
 2070SOL    HW2 7110   2.153   0.112   2.433
 2071SOL     OW 7111   6.960   5.785   5.614
 2071SOL    HW1 7112   6.905   5.703   5.605
 2071SOL    HW2 7113   0.008   5.790   5.539
 2072SOL     OW 7114   4.651   6.531   1.453
 2072SOL    HW1 7115   4.698   6.619   1.444
 2072SOL    HW2 7116   4.573   6.541   1.514
 2073SOL     OW 7117   3.778   0.285   4.563
 2073SOL    HW1 7118   3.727   0.304   4.647
 2073SOL    HW2 7119   3.746   0.347   4.491
 2074SOL     OW 7120   0.584   3.419   0.321
 2074SOL    HW1 7121   0.681   3.395   0.328
 2074SOL    HW2 7122   0.569   3.468   0.235
 2075SOL     OW 7123   5.276   2.875   1.699
 2075SOL    HW1 7124   5.361   2.833   1.729
 2075SOL    HW2 7125   5.295   2.945   1.631
 2076SOL     OW 7126   5.205   6.787   6.954
 2076SOL    HW1 7127   5.238   6.737   0.017
 2076SOL    HW2 7128   5.234   6.883   6.961
 2077SOL     OW 7129   4.684   2.592   2.302
 2077SOL    HW1 7130   4.695   2.669   2.239
 2077SOL    HW2 7131   4.605   2.537   2.274
 2078SOL     OW 7132   1.470   6.781   6.407
 2078SOL    HW1 7133   1.402   6.855   6.413
 2078SOL    HW2 7134   1.526   6.794   6.326
 2079SOL     OW 7135   5.439   1.009   3.494
 2079SOL    HW1 7136   5.475   1.005   3.401
 2079SOL    HW2 7137   5.364   1.074   3.498
 2080SOL     OW 7138   1.665   0.782   4.835
 2080SOL    HW1 7139   1.603   0.704   4.828
 2080SOL    HW2 7140   1.644   0.849   4.764
 2081SOL     OW 7141   1.699   5.558   4.950
 2081SOL    HW1 7142   1.657   5.647   4.967
 2081SOL    HW2 7143   1.779   5.547   5.009
 2082SOL     OW 7144   6.758   0.707   2.919
 2082SOL    HW1 7145   6.725   0.798   2.894
 2082SOL    HW2 7146   6.798   0.710   3.010
 2083SOL     OW 7147   4.681   4.652   6.914
 2083SOL    HW1 7148   4.690   4.747   6.885
 2083SOL    HW2 7149   4.674   4.593   6.834
 2084SOL     OW 7150   6.733   4.149   3.514
 2084SOL    HW1 7151   6.638   4.179   3.515
 2084SOL    HW2 7152   6.788   4.213   3.569
 2085SOL     OW 7153   5.068   1.317   0.309
 2085SOL    HW1 7154   5.016   1.245   0.262
 2085SOL    HW2 7155   5.011   1.399   0.318
 2086SOL     OW 7156   3.052   6.614   5.504
 2086SOL    HW1 7157   3.121   6.685   5.490
 2086SOL    HW2 7158   3.058   6.579   5.597
 2087SOL     OW 7159   5.182   0.033   2.205
 2087SOL    HW1 7160   5.160   7.015   2.296
 2087SOL    HW2 7161   5.171   6.977   2.137
 2088SOL     OW 7162   2.873   6.191   0.710
 2088SOL    HW1 7163   2.832   6.210   0.621
 2088SOL    HW2 7164   2.906   6.097   0.712
 2089SOL     OW 7165   5.132   1.739   6.846
 2089SOL    HW1 7166   5.040   1.748   6.805
 2089SOL    HW2 7167   5.125   1.750   6.945
 2090SOL     OW 7168   3.781   3.657   5.367
 2090SOL    HW1 7169   3.727   3.715   5.306
 2090SOL    HW2 7170   3.797   3.569   5.322
 2091SOL     OW 7171   6.798   5.702   6.737
 2091SOL    HW1 7172   6.784   5.782   6.679
 2091SOL    HW2 7173   6.852   5.728   6.817
 2092SOL     OW 7174   4.421   5.453   6.720
 2092SOL    HW1 7175   4.323   5.467   6.729
 2092SOL    HW2 7176   4.458   5.518   6.653
 2093SOL     OW 7177   1.782   2.621   1.698
 2093SOL    HW1 7178   1.795   2.699   1.637
 2093SOL    HW2 7179   1.811   2.644   1.790
 2094SOL     OW 7180   5.732   1.930   1.548
 2094SOL    HW1 7181   5.755   1.972   1.460
 2094SOL    HW2 7182   5.754   1.833   1.545
 2095SOL     OW 7183   5.480   0.146   4.801
 2095SOL    HW1 7184   5.511   0.236   4.832
 2095SOL    HW2 7185   5.489   0.080   4.876
 2096SOL     OW 7186   4.490   4.552   2.438
 2096SOL    HW1 7187   4.511   4.500   2.355
 2096SOL    HW2 7188   4.392   4.568   2.444
 2097SOL     OW 7189   1.622   3.107   7.004
 2097SOL    HW1 7190   1.597   3.010   7.002
 2097SOL    HW2 7191   1.573   3.153   0.060
 2098SOL     OW 7192   4.426   5.464   3.451
 2098SOL    HW1 7193   4.413   5.438   3.547
 2098SOL    HW2 7194   4.505   5.525   3.444
 2099SOL     OW 7195   2.843   2.951   5.321
 2099SOL    HW1 7196   2.863   3.047   5.303
 2099SOL    HW2 7197   2.748   2.932   5.296
 2100SOL     OW 7198   4.067   3.433   5.667
 2100SOL    HW1 7199   3.998   3.495   5.629
 2100SOL    HW2 7200   4.082   3.455   5.763
 2101SOL     OW 7201   1.468   6.549   2.878
 2101SOL    HW1 7202   1.426   6.596   2.956
 2101SOL    HW2 7203   1.559   6.516   2.905
 2102SOL     OW 7204   6.354   4.989   2.368
 2102SOL    HW1 7205   6.334   5.076   2.412
 2102SOL    HW2 7206   6.387   5.005   2.275
 2103SOL     OW 7207   2.869   3.331   6.615
 2103SOL    HW1 7208   2.936   3.283   6.558
 2103SOL    HW2 7209   2.779   3.290   6.602
 2104SOL     OW 7210   1.077   3.747   6.808
 2104SOL    HW1 7211   0.995   3.749   6.866
 2104SOL    HW2 7212   1.118   3.838   6.807
 2105SOL     OW 7213   5.039   5.670   4.553
 2105SOL    HW1 7214   5.015   5.706   4.643
 2105SOL    HW2 7215   5.021   5.571   4.551
 2106SOL     OW 7216   4.793   3.762   0.440
 2106SOL    HW1 7217   4.831   3.769   0.348
 2106SOL    HW2 7218   4.833   3.683   0.487
 2107SOL     OW 7219   4.714   3.045   5.878
 2107SOL    HW1 7220   4.804   3.085   5.893
 2107SOL    HW2 7221   4.643   3.108   5.908
 2108SOL     OW 7222   0.010   6.357   5.466
 2108SOL    HW1 7223   6.932   6.384   5.480
 2108SOL    HW2 7224   0.030   6.359   5.368
 2109SOL     OW 7225   4.873   6.617   3.297
 2109SOL    HW1 7226   4.971   6.627   3.311
 2109SOL    HW2 7227   4.828   6.605   3.386
 2110SOL     OW 7228   2.468   2.487   5.733
 2110SOL    HW1 7229   2.444   2.441   5.647
 2110SOL    HW2 7230   2.516   2.572   5.713
 2111SOL     OW 7231   1.432   2.137   6.534
 2111SOL    HW1 7232   1.436   2.085   6.619
 2111SOL    HW2 7233   1.343   2.123   6.490
 2112SOL     OW 7234   5.226   2.270   0.901
 2112SOL    HW1 7235   5.288   2.326   0.956
 2112SOL    HW2 7236   5.154   2.328   0.862
 2113SOL     OW 7237   1.459   0.391   5.080
 2113SOL    HW1 7238   1.415   0.481   5.082
 2113SOL    HW2 7239   1.396   0.322   5.116
 2114SOL     OW 7240   1.599   2.896   0.886
 2114SOL    HW1 7241   1.670   2.910   0.955
 2114SOL    HW2 7242   1.542   2.978   0.879
 2115SOL     OW 7243   2.153   3.721   2.990
 2115SOL    HW1 7244   2.174   3.812   3.026
 2115SOL    HW2 7245   2.156   3.723   2.890
 2116SOL     OW 7246   0.222   5.117   3.477
 2116SOL    HW1 7247   0.231   5.215   3.496
 2116SOL    HW2 7248   0.239   5.100   3.380
 2117SOL     OW 7249   6.906   4.332   1.361
 2117SOL    HW1 7250   6.933   4.418   1.403
 2117SOL    HW2 7251   6.909   4.259   1.430
 2118SOL     OW 7252   6.489   3.677   1.739
 2118SOL    HW1 7253   6.567   3.617   1.724
 2118SOL    HW2 7254   6.421   3.629   1.795
 2119SOL     OW 7255   2.456   5.750   1.270
 2119SOL    HW1 7256   2.504   5.665   1.250
 2119SOL    HW2 7257   2.500   5.825   1.221
 2120SOL     OW 7258   0.450   4.894   4.314
 2120SOL    HW1 7259   0.399   4.930   4.236
 2120SOL    HW2 7260   0.489   4.805   4.291
 2121SOL     OW 7261   0.503   4.371   5.531
 2121SOL    HW1 7262   0.547   4.458   5.552
 2121SOL    HW2 7263   0.543   4.332   5.449
 2122SOL     OW 7264   5.494   4.562   6.106
 2122SOL    HW1 7265   5.473   4.616   6.025
 2122SOL    HW2 7266   5.416   4.503   6.128
 2123SOL     OW 7267   6.944   5.125   2.183
 2123SOL    HW1 7268   6.938   5.204   2.121
 2123SOL    HW2 7269   6.930   5.041   2.130
 2124SOL     OW 7270   2.857   1.796   1.896
 2124SOL    HW1 7271   2.806   1.882   1.885
 2124SOL    HW2 7272   2.871   1.779   1.994
 2125SOL     OW 7273   1.757   6.892   0.835
 2125SOL    HW1 7274   1.844   6.923   0.875
 2125SOL    HW2 7275   1.681   6.934   0.884
 2126SOL     OW 7276   3.825   0.939   0.499
 2126SOL    HW1 7277   3.793   1.021   0.546
 2126SOL    HW2 7278   3.923   0.926   0.516
 2127SOL     OW 7279   6.583   3.306   4.297
 2127SOL    HW1 7280   6.664   3.311   4.355
 2127SOL    HW2 7281   6.611   3.281   4.204
 2128SOL     OW 7282   6.509   3.877   4.239
 2128SOL    HW1 7283   6.499   3.975   4.220
 2128SOL    HW2 7284   6.472   3.824   4.163
 2129SOL     OW 7285   4.370   3.192   5.657
 2129SOL    HW1 7286   4.380   3.291   5.655
 2129SOL    HW2 7287   4.458   3.149   5.637
 2130SOL     OW 7288   3.583   0.525   2.489
 2130SOL    HW1 7289   3.612   0.429   2.477
 2130SOL    HW2 7290   3.484   0.528   2.505
 2131SOL     OW 7291   6.724   0.219   0.857
 2131SOL    HW1 7292   6.641   0.240   0.805
 2131SOL    HW2 7293   6.699   0.179   0.945
 2132SOL     OW 7294   4.158   2.131   1.351
 2132SOL    HW1 7295   4.239   2.180   1.320
 2132SOL    HW2 7296   4.172   2.100   1.445
 2133SOL     OW 7297   2.673   2.743   6.512
 2133SOL    HW1 7298   2.675   2.833   6.556
 2133SOL    HW2 7299   2.667   2.672   6.582
 2134SOL     OW 7300   0.529   2.799   6.998
 2134SOL    HW1 7301   0.600   2.845   6.944
 2134SOL    HW2 7302   0.523   2.704   6.969
 2135SOL     OW 7303   0.465   3.794   4.793
 2135SOL    HW1 7304   0.513   3.833   4.872
 2135SOL    HW2 7305   0.367   3.790   4.812
 2136SOL     OW 7306   2.167   4.485   2.907
 2136SOL    HW1 7307   2.159   4.576   2.867
 2136SOL    HW2 7308   2.256   4.476   2.951
 2137SOL     OW 7309   2.400   5.456   5.386
 2137SOL    HW1 7310   2.328   5.411   5.437
 2137SOL    HW2 7311   2.384   5.555   5.386
 2138SOL     OW 7312   6.345   6.416   3.327
 2138SOL    HW1 7313   6.278   6.483   3.295
 2138SOL    HW2 7314   6.299   6.332   3.353
 2139SOL     OW 7315   4.351   1.141   3.878
 2139SOL    HW1 7316   4.439   1.114   3.917
 2139SOL    HW2 7317   4.331   1.236   3.902
 2140SOL     OW 7318   2.816   0.017   4.402
 2140SOL    HW1 7319   2.813   6.989   4.312
 2140SOL    HW2 7320   2.911   0.042   4.423
 2141SOL     OW 7321   6.502   2.770   2.549
 2141SOL    HW1 7322   6.571   2.841   2.565
 2141SOL    HW2 7323   6.463   2.742   2.637
 2142SOL     OW 7324   1.750   1.522   3.039
 2142SOL    HW1 7325   1.700   1.438   3.058
 2142SOL    HW2 7326   1.687   1.592   3.006
 2143SOL     OW 7327   3.133   4.935   1.000
 2143SOL    HW1 7328   3.070   4.979   0.936
 2143SOL    HW2 7329   3.203   4.886   0.949
 2144SOL     OW 7330   0.335   5.501   4.589
 2144SOL    HW1 7331   0.338   5.601   4.585
 2144SOL    HW2 7332   0.396   5.463   4.520
 2145SOL     OW 7333   4.114   6.297   4.517
 2145SOL    HW1 7334   4.169   6.374   4.548
 2145SOL    HW2 7335   4.143   6.214   4.565
 2146SOL     OW 7336   2.347   3.102   1.279
 2146SOL    HW1 7337   2.381   3.093   1.373
 2146SOL    HW2 7338   2.272   3.168   1.277
 2147SOL     OW 7339   5.845   1.321   6.617
 2147SOL    HW1 7340   5.927   1.297   6.668
 2147SOL    HW2 7341   5.801   1.238   6.582
 2148SOL     OW 7342   5.865   3.424   6.203
 2148SOL    HW1 7343   5.944   3.416   6.143
 2148SOL    HW2 7344   5.810   3.503   6.175
 2149SOL     OW 7345   2.230   1.479   1.037
 2149SOL    HW1 7346   2.139   1.478   1.079
 2149SOL    HW2 7347   2.287   1.409   1.082
 2150SOL     OW 7348   2.487   2.567   2.414
 2150SOL    HW1 7349   2.438   2.513   2.345
 2150SOL    HW2 7350   2.438   2.651   2.432
 2151SOL     OW 7351   1.475   6.510   6.435
 2151SOL    HW1 7352   1.398   6.462   6.393
 2151SOL    HW2 7353   1.481   6.603   6.398
 2152SOL     OW 7354   4.217   4.663   1.979
 2152SOL    HW1 7355   4.120   4.671   1.957
 2152SOL    HW2 7356   4.256   4.585   1.930
 2153SOL     OW 7357   3.877   1.839   2.811
 2153SOL    HW1 7358   3.882   1.873   2.905
 2153SOL    HW2 7359   3.860   1.741   2.812
 2154SOL     OW 7360   4.071   6.999   4.283
 2154SOL    HW1 7361   4.115   7.014   4.372
 2154SOL    HW2 7362   4.132   6.944   4.225
 2155SOL     OW 7363   4.253   0.217   0.884
 2155SOL    HW1 7364   4.240   0.117   0.882
 2155SOL    HW2 7365   4.165   0.262   0.869
 2156SOL     OW 7366   0.274   0.320   4.976
 2156SOL    HW1 7367   0.324   0.285   4.897
 2156SOL    HW2 7368   0.181   0.284   4.977
 2157SOL     OW 7369   5.589   6.385   3.430
 2157SOL    HW1 7370   5.515   6.319   3.445
 2157SOL    HW2 7371   5.667   6.361   3.487
 2158SOL     OW 7372   3.660   6.139   0.457
 2158SOL    HW1 7373   3.675   6.197   0.537
 2158SOL    HW2 7374   3.729   6.160   0.387
 2159SOL     OW 7375   1.385   0.958   4.871
 2159SOL    HW1 7376   1.421   0.872   4.834
 2159SOL    HW2 7377   1.322   0.999   4.804
 2160SOL     OW 7378   5.131   4.303   6.973
 2160SOL    HW1 7379   5.056   4.366   6.956
 2160SOL    HW2 7380   5.210   4.328   6.917
 2161SOL     OW 7381   6.322   4.561   2.019
 2161SOL    HW1 7382   6.374   4.597   2.096
 2161SOL    HW2 7383   6.384   4.542   1.943
 2162SOL     OW 7384   3.265   0.290   2.063
 2162SOL    HW1 7385   3.346   0.247   2.104
 2162SOL    HW2 7386   3.280   0.388   2.054
 2163SOL     OW 7387   1.808   5.034   0.449
 2163SOL    HW1 7388   1.900   5.012   0.419
 2163SOL    HW2 7389   1.747   4.957   0.431
 2164SOL     OW 7390   2.016   1.970   6.331
 2164SOL    HW1 7391   2.063   1.996   6.247
 2164SOL    HW2 7392   2.031   1.873   6.349
 2165SOL     OW 7393   0.129   2.433   3.242
 2165SOL    HW1 7394   0.203   2.412   3.178
 2165SOL    HW2 7395   0.148   2.519   3.289
 2166SOL     OW 7396   0.889   3.692   4.410
 2166SOL    HW1 7397   0.956   3.710   4.482
 2166SOL    HW2 7398   0.889   3.768   4.345
 2167SOL     OW 7399   1.116   2.888   3.791
 2167SOL    HW1 7400   1.215   2.881   3.805
 2167SOL    HW2 7401   1.071   2.909   3.878
 2168SOL     OW 7402   1.343   1.815   2.745
 2168SOL    HW1 7403   1.381   1.723   2.746
 2168SOL    HW2 7404   1.413   1.881   2.771
 2169SOL     OW 7405   5.858   1.506   0.816
 2169SOL    HW1 7406   5.803   1.559   0.880
 2169SOL    HW2 7407   5.802   1.477   0.739
 2170SOL     OW 7408   6.843   4.047   5.167
 2170SOL    HW1 7409   6.828   4.006   5.077
 2170SOL    HW2 7410   6.858   3.975   5.235
 2171SOL     OW 7411   0.314   5.734   1.293
 2171SOL    HW1 7412   0.374   5.803   1.252
 2171SOL    HW2 7413   0.224   5.739   1.252
 2172SOL     OW 7414   2.078   1.733   6.647
 2172SOL    HW1 7415   2.067   1.646   6.695
 2172SOL    HW2 7416   2.041   1.725   6.555
 2173SOL     OW 7417   4.434   0.662   5.202
 2173SOL    HW1 7418   4.379   0.597   5.151
 2173SOL    HW2 7419   4.404   0.663   5.298
 2174SOL     OW 7420   6.490   5.830   4.758
 2174SOL    HW1 7421   6.445   5.773   4.826
 2174SOL    HW2 7422   6.561   5.776   4.712
 2175SOL     OW 7423   1.624   3.486   3.974
 2175SOL    HW1 7424   1.654   3.432   4.053
 2175SOL    HW2 7425   1.687   3.473   3.898
 2176SOL     OW 7426   5.769   2.054   0.897
 2176SOL    HW1 7427   5.736   1.994   0.970
 2176SOL    HW2 7428   5.691   2.088   0.844
 2177SOL     OW 7429   0.226   0.517   2.507
 2177SOL    HW1 7430   0.261   0.429   2.473
 2177SOL    HW2 7431   0.222   0.514   2.607
 2178SOL     OW 7432   1.533   1.263   2.199
 2178SOL    HW1 7433   1.602   1.304   2.259
 2178SOL    HW2 7434   1.576   1.233   2.114
 2179SOL     OW 7435   1.643   4.248   5.926
 2179SOL    HW1 7436   1.741   4.257   5.905
 2179SOL    HW2 7437   1.633   4.206   6.016
 2180SOL     OW 7438   1.501   3.406   2.150
 2180SOL    HW1 7439   1.425   3.381   2.210
 2180SOL    HW2 7440   1.492   3.357   2.063
 2181SOL     OW 7441   4.470   5.217   4.162
 2181SOL    HW1 7442   4.436   5.250   4.074
 2181SOL    HW2 7443   4.537   5.282   4.197
 2182SOL     OW 7444   1.922   4.566   3.428
 2182SOL    HW1 7445   1.877   4.503   3.492
 2182SOL    HW2 7446   2.001   4.521   3.387
 2183SOL     OW 7447   2.109   4.363   0.184
 2183SOL    HW1 7448   2.142   4.326   0.097
 2183SOL    HW2 7449   2.150   4.312   0.259
 2184SOL     OW 7450   4.385   0.605   5.975
 2184SOL    HW1 7451   4.437   0.559   6.047
 2184SOL    HW2 7452   4.415   0.572   5.885
 2185SOL     OW 7453   0.861   1.127   0.253
 2185SOL    HW1 7454   0.825   1.058   0.191
 2185SOL    HW2 7455   0.961   1.122   0.254
 2186SOL     OW 7456   6.639   5.143   0.187
 2186SOL    HW1 7457   6.626   5.232   0.230
 2186SOL    HW2 7458   6.640   5.072   0.257
 2187SOL     OW 7459   0.088   5.837   1.947
 2187SOL    HW1 7460   0.102   5.931   1.976
 2187SOL    HW2 7461   0.177   5.792   1.935
 2188SOL     OW 7462   1.008   5.470   5.193
 2188SOL    HW1 7463   0.987   5.514   5.280
 2188SOL    HW2 7464   0.923   5.452   5.143
 2189SOL     OW 7465   1.851   6.698   1.261
 2189SOL    HW1 7466   1.883   6.739   1.347
 2189SOL    HW2 7467   1.780   6.757   1.221
 2190SOL     OW 7468   6.519   3.242   1.746
 2190SOL    HW1 7469   6.571   3.294   1.814
 2190SOL    HW2 7470   6.434   3.290   1.725
 2191SOL     OW 7471   2.265   2.107   5.869
 2191SOL    HW1 7472   2.350   2.108   5.816
 2191SOL    HW2 7473   2.199   2.170   5.828
 2192SOL     OW 7474   5.286   1.081   2.382
 2192SOL    HW1 7475   5.226   1.158   2.363
 2192SOL    HW2 7476   5.269   1.047   2.475
 2193SOL     OW 7477   6.290   7.014   6.835
 2193SOL    HW1 7478   6.285   0.008   6.735
 2193SOL    HW2 7479   6.285   6.917   6.858
 2194SOL     OW 7480   1.890   3.817   6.368
 2194SOL    HW1 7481   1.984   3.848   6.382
 2194SOL    HW2 7482   1.869   3.817   6.271
 2195SOL     OW 7483   6.759   6.427   5.488
 2195SOL    HW1 7484   6.732   6.524   5.492
 2195SOL    HW2 7485   6.731   6.389   5.400
 2196SOL     OW 7486   3.095   0.079   4.862
 2196SOL    HW1 7487   3.057   0.167   4.833
 2196SOL    HW2 7488   3.177   0.059   4.809
 2197SOL     OW 7489   2.192   3.621   6.614
 2197SOL    HW1 7490   2.156   3.712   6.637
 2197SOL    HW2 7491   2.194   3.610   6.515
 2198SOL     OW 7492   5.730   0.021   1.502
 2198SOL    HW1 7493   5.787   0.012   1.584
 2198SOL    HW2 7494   5.727   0.117   1.475
 2199SOL     OW 7495   5.257   6.697   3.898
 2199SOL    HW1 7496   5.303   6.777   3.860
 2199SOL    HW2 7497   5.305   6.614   3.869
 2200SOL     OW 7498   1.887   1.984   4.291
 2200SOL    HW1 7499   1.852   2.072   4.259
 2200SOL    HW2 7500   1.951   1.999   4.367
 2201SOL     OW 7501   6.410   2.820   3.431
 2201SOL    HW1 7502   6.490   2.879   3.417
 2201SOL    HW2 7503   6.440   2.726   3.443
 2202SOL     OW 7504   3.985   6.031   1.863
 2202SOL    HW1 7505   4.030   5.999   1.780
 2202SOL    HW2 7506   4.038   6.105   1.904
 2203SOL     OW 7507   2.137   3.472   1.390
 2203SOL    HW1 7508   2.196   3.486   1.470
 2203SOL    HW2 7509   2.194   3.467   1.308
 2204SOL     OW 7510   5.052   2.139   1.088
 2204SOL    HW1 7511   4.955   2.144   1.064
 2204SOL    HW2 7512   5.105   2.193   1.022
 2205SOL     OW 7513   0.717   6.675   6.489
 2205SOL    HW1 7514   0.700   6.772   6.473
 2205SOL    HW2 7515   0.665   6.645   6.569
 2206SOL     OW 7516   3.264   4.680   5.673
 2206SOL    HW1 7517   3.168   4.706   5.678
 2206SOL    HW2 7518   3.276   4.589   5.713
 2207SOL     OW 7519   2.936   5.163   6.218
 2207SOL    HW1 7520   2.880   5.196   6.293
 2207SOL    HW2 7521   2.901   5.074   6.187
 2208SOL     OW 7522   1.764   5.079   3.469
 2208SOL    HW1 7523   1.756   5.166   3.420
 2208SOL    HW2 7524   1.837   5.024   3.427
 2209SOL     OW 7525   2.117   0.019   5.257
 2209SOL    HW1 7526   2.137   6.959   5.195
 2209SOL    HW2 7527   2.110   0.103   5.203
 2210SOL     OW 7528   0.515   4.395   4.206
 2210SOL    HW1 7529   0.480   4.379   4.114
 2210SOL    HW2 7530   0.511   4.310   4.259
 2211SOL     OW 7531   6.610   0.640   0.315
 2211SOL    HW1 7532   6.687   0.620   0.255
 2211SOL    HW2 7533   6.591   0.738   0.313
 2212SOL     OW 7534   2.560   5.959   0.572
 2212SOL    HW1 7535   2.636   6.021   0.593
 2212SOL    HW2 7536   2.582   5.903   0.492
 2213SOL     OW 7537   3.161   1.773   5.088
 2213SOL    HW1 7538   3.198   1.865   5.103
 2213SOL    HW2 7539   3.062   1.778   5.076
 2214SOL     OW 7540   3.077   3.934   4.842
 2214SOL    HW1 7541   3.140   3.861   4.816
 2214SOL    HW2 7542   2.984   3.898   4.848
 2215SOL     OW 7543   5.544   0.950   0.267
 2215SOL    HW1 7544   5.579   0.910   0.352
 2215SOL    HW2 7545   5.545   1.049   0.274
 2216SOL     OW 7546   1.423   1.107   6.847
 2216SOL    HW1 7547   1.405   1.159   6.930
 2216SOL    HW2 7548   1.509   1.057   6.858
 2217SOL     OW 7549   3.718   6.864   2.267
 2217SOL    HW1 7550   3.772   6.894   2.345
 2217SOL    HW2 7551   3.771   6.797   2.214
 2218SOL     OW 7552   6.942   5.241   7.006
 2218SOL    HW1 7553   6.964   5.323   0.043
 2218SOL    HW2 7554   6.941   5.161   0.049
 2219SOL     OW 7555   6.120   1.590   0.744
 2219SOL    HW1 7556   6.131   1.648   0.663
 2219SOL    HW2 7557   6.024   1.566   0.755
 2220SOL     OW 7558   2.404   5.774   5.269
 2220SOL    HW1 7559   2.466   5.758   5.193
 2220SOL    HW2 7560   2.445   5.841   5.332
 2221SOL     OW 7561   6.253   1.753   5.626
 2221SOL    HW1 7562   6.226   1.657   5.636
 2221SOL    HW2 7563   6.173   1.811   5.636
 2222SOL     OW 7564   5.786   0.504   1.185
 2222SOL    HW1 7565   5.757   0.481   1.278
 2222SOL    HW2 7566   5.755   0.432   1.123
 2223SOL     OW 7567   6.087   1.239   5.759
 2223SOL    HW1 7568   6.080   1.319   5.700
 2223SOL    HW2 7569   6.000   1.225   5.807
 2224SOL     OW 7570   6.337   3.870   0.695
 2224SOL    HW1 7571   6.409   3.803   0.710
 2224SOL    HW2 7572   6.248   3.824   0.689
 2225SOL     OW 7573   6.077   6.714   4.535
 2225SOL    HW1 7574   6.106   6.626   4.573
 2225SOL    HW2 7575   6.145   6.784   4.558
 2226SOL     OW 7576   3.743   5.352   0.802
 2226SOL    HW1 7577   3.801   5.310   0.871
 2226SOL    HW2 7578   3.670   5.288   0.776
 2227SOL     OW 7579   5.940   2.522   0.139
 2227SOL    HW1 7580   6.037   2.532   0.159
 2227SOL    HW2 7581   5.888   2.525   0.224
 2228SOL     OW 7582   4.379   5.240   1.053
 2228SOL    HW1 7583   4.324   5.276   1.129
 2228SOL    HW2 7584   4.350   5.283   0.967
 2229SOL     OW 7585   4.255   2.980   5.347
 2229SOL    HW1 7586   4.222   3.072   5.327
 2229SOL    HW2 7587   4.178   2.917   5.353
 2230SOL     OW 7588   5.971   5.933   0.332
 2230SOL    HW1 7589   6.045   5.957   0.269
 2230SOL    HW2 7590   5.966   5.833   0.340
 2231SOL     OW 7591   0.175   1.129   1.275
 2231SOL    HW1 7592   0.169   1.150   1.372
 2231SOL    HW2 7593   0.253   1.070   1.258
 2232SOL     OW 7594   0.713   1.679   4.326
 2232SOL    HW1 7595   0.659   1.762   4.314
 2232SOL    HW2 7596   0.807   1.703   4.350
 2233SOL     OW 7597   2.115   3.237   0.666
 2233SOL    HW1 7598   2.163   3.276   0.744
 2233SOL    HW2 7599   2.082   3.145   0.690
 2234SOL     OW 7600   4.226   1.640   0.881
 2234SOL    HW1 7601   4.308   1.680   0.840
 2234SOL    HW2 7602   4.205   1.686   0.967
 2235SOL     OW 7603   3.049   0.169   1.735
 2235SOL    HW1 7604   3.137   0.209   1.710
 2235SOL    HW2 7605   2.975   0.231   1.709
 2236SOL     OW 7606   2.192   4.043   6.117
 2236SOL    HW1 7607   2.280   4.052   6.071
 2236SOL    HW2 7608   2.124   4.007   6.052
 2237SOL     OW 7609   5.420   4.262   3.870
 2237SOL    HW1 7610   5.378   4.325   3.935
 2237SOL    HW2 7611   5.504   4.302   3.834
 2238SOL     OW 7612   4.695   5.313   1.450
 2238SOL    HW1 7613   4.622   5.368   1.411
 2238SOL    HW2 7614   4.655   5.236   1.501
 2239SOL     OW 7615   3.633   5.303   3.959
 2239SOL    HW1 7616   3.696   5.226   3.948
 2239SOL    HW2 7617   3.552   5.273   4.009
 2240SOL     OW 7618   3.550   5.429   3.344
 2240SOL    HW1 7619   3.458   5.395   3.329
 2240SOL    HW2 7620   3.592   5.380   3.420
 2241SOL     OW 7621   0.271   5.446   3.201
 2241SOL    HW1 7622   0.223   5.423   3.285
 2241SOL    HW2 7623   0.250   5.540   3.175
 2242SOL     OW 7624   5.315   2.955   2.774
 2242SOL    HW1 7625   5.306   2.862   2.808
 2242SOL    HW2 7626   5.394   2.961   2.713
 2243SOL     OW 7627   1.941   6.474   5.637
 2243SOL    HW1 7628   1.878   6.418   5.583
 2243SOL    HW2 7629   1.917   6.468   5.734
 2244SOL     OW 7630   2.164   6.678   1.206
 2244SOL    HW1 7631   2.230   6.752   1.222
 2244SOL    HW2 7632   2.082   6.694   1.260
 2245SOL     OW 7633   0.659   1.307   1.889
 2245SOL    HW1 7634   0.676   1.238   1.818
 2245SOL    HW2 7635   0.712   1.284   1.971
 2246SOL     OW 7636   1.744   0.951   4.211
 2246SOL    HW1 7637   1.779   0.990   4.296
 2246SOL    HW2 7638   1.798   0.871   4.186
 2247SOL     OW 7639   3.305   2.887   3.319
 2247SOL    HW1 7640   3.216   2.861   3.282
 2247SOL    HW2 7641   3.362   2.923   3.245
 2248SOL     OW 7642   6.487   3.904   5.121
 2248SOL    HW1 7643   6.539   3.904   5.206
 2248SOL    HW2 7644   6.464   3.998   5.096
 2249SOL     OW 7645   5.896   6.694   3.942
 2249SOL    HW1 7646   5.819   6.641   3.977
 2249SOL    HW2 7647   5.875   6.723   3.848
 2250SOL     OW 7648   3.602   3.522   4.823
 2250SOL    HW1 7649   3.687   3.566   4.853
 2250SOL    HW2 7650   3.525   3.585   4.836
 2251SOL     OW 7651   5.285   0.279   0.021
 2251SOL    HW1 7652   5.323   0.372   0.024
 2251SOL    HW2 7653   5.186   0.285   0.009
 2252SOL     OW 7654   4.491   2.501   2.598
 2252SOL    HW1 7655   4.442   2.501   2.511
 2252SOL    HW2 7656   4.554   2.579   2.601
 2253SOL     OW 7657   6.944   3.758   6.878
 2253SOL    HW1 7658   7.001   3.827   6.923
 2253SOL    HW2 7659   6.976   3.745   6.784
 2254SOL     OW 7660   3.206   3.027   4.579
 2254SOL    HW1 7661   3.292   3.057   4.620
 2254SOL    HW2 7662   3.203   2.927   4.576
 2255SOL     OW 7663   4.098   3.371   6.159
 2255SOL    HW1 7664   4.152   3.353   6.241
 2255SOL    HW2 7665   4.033   3.444   6.178
 2256SOL     OW 7666   4.813   6.289   2.627
 2256SOL    HW1 7667   4.761   6.370   2.600
 2256SOL    HW2 7668   4.909   6.300   2.599
 2257SOL     OW 7669   6.971   1.585   4.130
 2257SOL    HW1 7670   6.947   1.488   4.127
 2257SOL    HW2 7671   6.893   1.640   4.100
 2258SOL     OW 7672   1.722   5.126   4.175
 2258SOL    HW1 7673   1.751   5.168   4.261
 2258SOL    HW2 7674   1.733   5.193   4.101
 2259SOL     OW 7675   5.139   3.316   5.584
 2259SOL    HW1 7676   5.061   3.376   5.568
 2259SOL    HW2 7677   5.223   3.360   5.551
 2260SOL     OW 7678   0.716   4.591   1.279
 2260SOL    HW1 7679   0.652   4.546   1.342
 2260SOL    HW2 7680   0.736   4.683   1.313
 2261SOL     OW 7681   5.364   4.916   0.030
 2261SOL    HW1 7682   5.426   4.912   6.968
 2261SOL    HW2 7683   5.333   5.010   0.042
 2262SOL     OW 7684   6.067   0.637   3.764
 2262SOL    HW1 7685   5.990   0.608   3.821
 2262SOL    HW2 7686   6.074   0.736   3.764
 2263SOL     OW 7687   3.324   5.924   0.172
 2263SOL    HW1 7688   3.369   5.886   0.092
 2263SOL    HW2 7689   3.265   5.855   0.214
 2264SOL     OW 7690   2.860   5.482   6.651
 2264SOL    HW1 7691   2.849   5.563   6.708
 2264SOL    HW2 7692   2.770   5.451   6.620
 2265SOL     OW 7693   1.709   1.071   3.859
 2265SOL    HW1 7694   1.613   1.081   3.886
 2265SOL    HW2 7695   1.740   0.978   3.880
 2266SOL     OW 7696   5.369   1.724   0.113
 2266SOL    HW1 7697   5.400   1.642   0.066
 2266SOL    HW2 7698   5.311   1.698   0.190
 2267SOL     OW 7699   4.587   2.663   4.592
 2267SOL    HW1 7700   4.584   2.600   4.670
 2267SOL    HW2 7701   4.618   2.753   4.623
 2268SOL     OW 7702   5.999   4.358   6.563
 2268SOL    HW1 7703   5.977   4.319   6.474
 2268SOL    HW2 7704   5.967   4.453   6.567
 2269SOL     OW 7705   6.701   4.907   5.748
 2269SOL    HW1 7706   6.779   4.894   5.809
 2269SOL    HW2 7707   6.712   4.992   5.696
 2270SOL     OW 7708   3.154   2.621   5.699
 2270SOL    HW1 7709   3.141   2.541   5.641
 2270SOL    HW2 7710   3.114   2.702   5.654
 2271SOL     OW 7711   5.382   4.394   0.340
 2271SOL    HW1 7712   5.384   4.475   0.280
 2271SOL    HW2 7713   5.463   4.338   0.322
 2272SOL     OW 7714   6.215   2.248   6.305
 2272SOL    HW1 7715   6.240   2.167   6.252
 2272SOL    HW2 7716   6.262   2.247   6.393
 2273SOL     OW 7717   1.618   1.368   1.830
 2273SOL    HW1 7718   1.613   1.285   1.774
 2273SOL    HW2 7719   1.654   1.443   1.775
 2274SOL     OW 7720   1.120   2.126   6.132
 2274SOL    HW1 7721   1.021   2.134   6.145
 2274SOL    HW2 7722   1.162   2.093   6.216
 2275SOL     OW 7723   6.505   6.324   4.791
 2275SOL    HW1 7724   6.503   6.234   4.747
 2275SOL    HW2 7725   6.463   6.392   4.731
 2276SOL     OW 7726   2.483   5.500   1.979
 2276SOL    HW1 7727   2.471   5.478   1.882
 2276SOL    HW2 7728   2.412   5.564   2.009
 2277SOL     OW 7729   4.050   3.900   4.291
 2277SOL    HW1 7730   4.051   3.851   4.377
 2277SOL    HW2 7731   4.008   3.990   4.304
 2278SOL     OW 7732   6.139   4.445   4.305
 2278SOL    HW1 7733   6.209   4.514   4.324
 2278SOL    HW2 7734   6.158   4.362   4.358
 2279SOL     OW 7735   5.765   6.830   5.956
 2279SOL    HW1 7736   5.728   6.737   5.951
 2279SOL    HW2 7737   5.788   6.861   5.864
 2280SOL     OW 7738   6.942   6.989   4.636
 2280SOL    HW1 7739   6.912   6.906   4.684
 2280SOL    HW2 7740   6.929   6.976   4.537
 2281SOL     OW 7741   3.167   0.956   2.143
 2281SOL    HW1 7742   3.218   0.977   2.227
 2281SOL    HW2 7743   3.120   1.038   2.112
 2282SOL     OW 7744   5.736   0.110   5.232
 2282SOL    HW1 7745   5.757   0.204   5.259
 2282SOL    HW2 7746   5.726   0.105   5.133
 2283SOL     OW 7747   1.159   5.584   1.685
 2283SOL    HW1 7748   1.157   5.663   1.746
 2283SOL    HW2 7749   1.070   5.538   1.687
 2284SOL     OW 7750   1.820   2.796   0.076
 2284SOL    HW1 7751   1.801   2.811   0.173
 2284SOL    HW2 7752   1.917   2.813   0.058
 2285SOL     OW 7753   1.934   2.644   1.306
 2285SOL    HW1 7754   1.955   2.631   1.210
 2285SOL    HW2 7755   1.866   2.718   1.316
 2286SOL     OW 7756   5.723   0.296   3.564
 2286SOL    HW1 7757   5.811   0.303   3.612
 2286SOL    HW2 7758   5.699   0.200   3.551
 2287SOL     OW 7759   2.444   0.164   3.341
 2287SOL    HW1 7760   2.358   0.113   3.335
 2287SOL    HW2 7761   2.517   0.111   3.298
 2288SOL     OW 7762   5.722   4.821   3.966
 2288SOL    HW1 7763   5.676   4.768   4.037
 2288SOL    HW2 7764   5.798   4.872   4.006
 2289SOL     OW 7765   0.756   4.840   0.729
 2289SOL    HW1 7766   0.658   4.823   0.739
 2289SOL    HW2 7767   0.771   4.935   0.703
 2290SOL     OW 7768   0.941   3.929   0.887
 2290SOL    HW1 7769   0.950   4.016   0.839
 2290SOL    HW2 7770   0.867   3.934   0.954
 2291SOL     OW 7771   2.138   2.304   5.249
 2291SOL    HW1 7772   2.066   2.266   5.307
 2291SOL    HW2 7773   2.132   2.404   5.250
 2292SOL     OW 7774   0.411   2.040   4.586
 2292SOL    HW1 7775   0.315   2.013   4.600
 2292SOL    HW2 7776   0.414   2.134   4.553
 2293SOL     OW 7777   4.878   5.707   1.908
 2293SOL    HW1 7778   4.827   5.751   1.834
 2293SOL    HW2 7779   4.927   5.628   1.871
 2294SOL     OW 7780   3.456   0.523   6.898
 2294SOL    HW1 7781   3.433   0.504   6.993
 2294SOL    HW2 7782   3.492   0.616   6.890
 2295SOL     OW 7783   0.551   1.937   3.136
 2295SOL    HW1 7784   0.630   1.876   3.134
 2295SOL    HW2 7785   0.532   1.969   3.043
 2296SOL     OW 7786   4.761   5.343   0.719
 2296SOL    HW1 7787   4.809   5.308   0.800
 2296SOL    HW2 7788   4.799   5.300   0.637
 2297SOL     OW 7789   4.314   4.248   5.350
 2297SOL    HW1 7790   4.404   4.206   5.337
 2297SOL    HW2 7791   4.285   4.292   5.265
 2298SOL     OW 7792   4.105   2.938   1.340
 2298SOL    HW1 7793   4.074   2.882   1.262
 2298SOL    HW2 7794   4.025   2.973   1.389
 2299SOL     OW 7795   4.571   6.203   5.390
 2299SOL    HW1 7796   4.640   6.135   5.366
 2299SOL    HW2 7797   4.491   6.191   5.333
 2300SOL     OW 7798   2.209   5.444   2.610
 2300SOL    HW1 7799   2.250   5.443   2.701
 2300SOL    HW2 7800   2.260   5.507   2.551
 2301SOL     OW 7801   3.171   2.956   3.015
 2301SOL    HW1 7802   3.152   2.980   2.919
 2301SOL    HW2 7803   3.270   2.949   3.028
 2302SOL     OW 7804   3.731   0.289   0.492
 2302SOL    HW1 7805   3.784   0.232   0.555
 2302SOL    HW2 7806   3.682   0.359   0.544
 2303SOL     OW 7807   2.294   2.939   6.036
 2303SOL    HW1 7808   2.299   2.839   6.041
 2303SOL    HW2 7809   2.202   2.967   6.010
 2304SOL     OW 7810   4.508   6.731   3.722
 2304SOL    HW1 7811   4.481   6.816   3.676
 2304SOL    HW2 7812   4.503   6.744   3.822
 2305SOL     OW 7813   2.808   6.429   2.720
 2305SOL    HW1 7814   2.765   6.378   2.645
 2305SOL    HW2 7815   2.893   6.384   2.747
 2306SOL     OW 7816   2.781   5.265   2.283
 2306SOL    HW1 7817   2.802   5.273   2.381
 2306SOL    HW2 7818   2.803   5.173   2.251
 2307SOL     OW 7819   0.526   4.382   2.596
 2307SOL    HW1 7820   0.429   4.407   2.590
 2307SOL    HW2 7821   0.536   4.298   2.648
 2308SOL     OW 7822   1.388   6.459   0.524
 2308SOL    HW1 7823   1.289   6.444   0.522
 2308SOL    HW2 7824   1.420   6.458   0.618
 2309SOL     OW 7825   1.676   6.838   6.577
 2309SOL    HW1 7826   1.595   6.808   6.527
 2309SOL    HW2 7827   1.752   6.853   6.514
 2310SOL     OW 7828   5.354   6.598   1.165
 2310SOL    HW1 7829   5.300   6.607   1.081
 2310SOL    HW2 7830   5.330   6.671   1.229
 2311SOL     OW 7831   1.908   5.780   2.039
 2311SOL    HW1 7832   1.890   5.760   1.942
 2311SOL    HW2 7833   1.970   5.858   2.046
 2312SOL     OW 7834   3.639   6.585   4.160
 2312SOL    HW1 7835   3.550   6.541   4.161
 2312SOL    HW2 7836   3.680   6.576   4.069
 2313SOL     OW 7837   4.874   5.487   1.567
 2313SOL    HW1 7838   4.793   5.442   1.530
 2313SOL    HW2 7839   4.881   5.467   1.665
 2314SOL     OW 7840   5.425   0.286   5.118
 2314SOL    HW1 7841   5.485   0.293   5.198
 2314SOL    HW2 7842   5.468   0.332   5.040
 2315SOL     OW 7843   4.630   3.240   5.466
 2315SOL    HW1 7844   4.570   3.168   5.430
 2315SOL    HW2 7845   4.712   3.246   5.410
 2316SOL     OW 7846   2.881   0.637   4.573
 2316SOL    HW1 7847   2.787   0.619   4.601
 2316SOL    HW2 7848   2.882   0.654   4.474
 2317SOL     OW 7849   0.045   6.029   3.491
 2317SOL    HW1 7850   0.143   6.018   3.508
 2317SOL    HW2 7851   0.028   6.022   3.392
 2318SOL     OW 7852   2.236   2.923   4.482
 2318SOL    HW1 7853   2.293   2.854   4.439
 2318SOL    HW2 7854   2.140   2.908   4.457
 2319SOL     OW 7855   2.443   5.290   4.226
 2319SOL    HW1 7856   2.464   5.305   4.323
 2319SOL    HW2 7857   2.514   5.231   4.186
 2320SOL     OW 7858   1.069   3.137   4.980
 2320SOL    HW1 7859   1.135   3.096   4.917
 2320SOL    HW2 7860   1.060   3.235   4.959
 2321SOL     OW 7861   2.396   6.406   6.861
 2321SOL    HW1 7862   2.479   6.351   6.873
 2321SOL    HW2 7863   2.316   6.350   6.881
 2322SOL     OW 7864   1.382   3.317   3.496
 2322SOL    HW1 7865   1.319   3.389   3.468
 2322SOL    HW2 7866   1.475   3.355   3.500
 2323SOL     OW 7867   3.573   5.170   1.564
 2323SOL    HW1 7868   3.594   5.096   1.628
 2323SOL    HW2 7869   3.656   5.193   1.512
 2324SOL     OW 7870   6.774   5.575   0.577
 2324SOL    HW1 7871   6.799   5.503   0.641
 2324SOL    HW2 7872   6.680   5.605   0.596
 2325SOL     OW 7873   1.030   4.769   1.594
 2325SOL    HW1 7874   1.004   4.674   1.576
 2325SOL    HW2 7875   0.952   4.828   1.579
 2326SOL     OW 7876   3.700   5.408   6.323
 2326SOL    HW1 7877   3.653   5.321   6.337
 2326SOL    HW2 7878   3.677   5.471   6.398
 2327SOL     OW 7879   6.618   1.661   3.878
 2327SOL    HW1 7880   6.701   1.708   3.909
 2327SOL    HW2 7881   6.626   1.564   3.899
 2328SOL     OW 7882   1.911   1.865   3.081
 2328SOL    HW1 7883   1.838   1.886   3.145
 2328SOL    HW2 7884   1.904   1.770   3.052
 2329SOL     OW 7885   1.355   4.466   4.508
 2329SOL    HW1 7886   1.395   4.557   4.520
 2329SOL    HW2 7887   1.290   4.448   4.582
 2330SOL     OW 7888   1.081   3.947   1.400
 2330SOL    HW1 7889   1.092   3.907   1.309
 2330SOL    HW2 7890   1.153   3.912   1.461
 2331SOL     OW 7891   4.177   5.675   6.477
 2331SOL    HW1 7892   4.167   5.774   6.485
 2331SOL    HW2 7893   4.274   5.651   6.480
 2332SOL     OW 7894   5.380   1.467   5.487
 2332SOL    HW1 7895   5.296   1.514   5.517
 2332SOL    HW2 7896   5.390   1.383   5.540
 2333SOL     OW 7897   0.110   4.660   3.172
 2333SOL    HW1 7898   0.059   4.742   3.146
 2333SOL    HW2 7899   0.207   4.672   3.149
 2334SOL     OW 7900   2.189   0.515   0.163
 2334SOL    HW1 7901   2.136   0.586   0.118
 2334SOL    HW2 7902   2.271   0.496   0.109
 2335SOL     OW 7903   6.044   1.230   3.186
 2335SOL    HW1 7904   5.991   1.206   3.267
 2335SOL    HW2 7905   6.142   1.223   3.207
 2336SOL     OW 7906   4.489   2.604   5.059
 2336SOL    HW1 7907   4.399   2.564   5.077
 2336SOL    HW2 7908   4.497   2.691   5.108
 2337SOL     OW 7909   4.701   1.170   1.988
 2337SOL    HW1 7910   4.787   1.120   1.979
 2337SOL    HW2 7911   4.637   1.117   2.042
 2338SOL     OW 7912   1.045   2.438   5.724
 2338SOL    HW1 7913   1.138   2.402   5.732
 2338SOL    HW2 7914   0.990   2.406   5.802
 2339SOL     OW 7915   3.106   3.543   4.459
 2339SOL    HW1 7916   3.038   3.608   4.493
 2339SOL    HW2 7917   3.183   3.538   4.522
 2340SOL     OW 7918   5.856   4.107   0.466
 2340SOL    HW1 7919   5.887   4.026   0.417
 2340SOL    HW2 7920   5.935   4.155   0.505
 2341SOL     OW 7921   4.240   4.774   1.622
 2341SOL    HW1 7922   4.304   4.699   1.636
 2341SOL    HW2 7923   4.268   4.852   1.678
 2342SOL     OW 7924   0.586   0.402   5.276
 2342SOL    HW1 7925   0.642   0.343   5.218
 2342SOL    HW2 7926   0.525   0.457   5.218
 2343SOL     OW 7927   2.114   5.670   3.226
 2343SOL    HW1 7928   2.038   5.607   3.238
 2343SOL    HW2 7929   2.111   5.740   3.298
 2344SOL     OW 7930   1.940   6.237   0.001
 2344SOL    HW1 7931   2.028   6.250   6.971
 2344SOL    HW2 7932   1.944   6.279   0.091
 2345SOL     OW 7933   3.545   5.766   4.754
 2345SOL    HW1 7934   3.561   5.711   4.672
 2345SOL    HW2 7935   3.490   5.713   4.820
 2346SOL     OW 7936   4.030   2.892   5.605
 2346SOL    HW1 7937   4.018   2.873   5.508
 2346SOL    HW2 7938   4.021   2.806   5.657
 2347SOL     OW 7939   2.763   2.823   1.628
 2347SOL    HW1 7940   2.777   2.911   1.674
 2347SOL    HW2 7941   2.723   2.838   1.538
 2348SOL     OW 7942   2.778   0.311   3.651
 2348SOL    HW1 7943   2.733   0.400   3.663
 2348SOL    HW2 7944   2.714   0.239   3.676
 2349SOL     OW 7945   0.743   4.225   6.551
 2349SOL    HW1 7946   0.701   4.266   6.469
 2349SOL    HW2 7947   0.811   4.288   6.588
 2350SOL     OW 7948   4.256   6.538   6.255
 2350SOL    HW1 7949   4.201   6.620   6.267
 2350SOL    HW2 7950   4.274   6.496   6.344
 2351SOL     OW 7951   2.836   5.253   3.646
 2351SOL    HW1 7952   2.846   5.207   3.734
 2351SOL    HW2 7953   2.848   5.187   3.572
 2352SOL     OW 7954   0.851   5.351   2.323
 2352SOL    HW1 7955   0.925   5.286   2.306
 2352SOL    HW2 7956   0.883   5.444   2.306
 2353SOL     OW 7957   2.879   4.660   6.004
 2353SOL    HW1 7958   2.887   4.603   6.086
 2353SOL    HW2 7959   2.964   4.656   5.951
 2354SOL     OW 7960   3.336   1.274   5.617
 2354SOL    HW1 7961   3.334   1.201   5.685
 2354SOL    HW2 7962   3.299   1.240   5.530
 2355SOL     OW 7963   2.494   5.531   0.305
 2355SOL    HW1 7964   2.561   5.487   0.365
 2355SOL    HW2 7965   2.496   5.630   0.320
 2356SOL     OW 7966   1.491   4.064   0.015
 2356SOL    HW1 7967   1.513   3.978   0.060
 2356SOL    HW2 7968   1.413   4.106   0.061
 2357SOL     OW 7969   4.620   6.775   2.929
 2357SOL    HW1 7970   4.586   6.847   2.869
 2357SOL    HW2 7971   4.576   6.689   2.906
 2358SOL     OW 7972   4.194   5.056   5.381
 2358SOL    HW1 7973   4.209   4.961   5.407
 2358SOL    HW2 7974   4.214   5.068   5.283
 2359SOL     OW 7975   6.017   0.856   6.028
 2359SOL    HW1 7976   5.931   0.908   6.026
 2359SOL    HW2 7977   6.008   0.775   5.970
 2360SOL     OW 7978   5.596   4.583   0.193
 2360SOL    HW1 7979   5.590   4.671   0.239
 2360SOL    HW2 7980   5.691   4.550   0.197
 2361SOL     OW 7981   2.268   0.743   5.192
 2361SOL    HW1 7982   2.314   0.831   5.208
 2361SOL    HW2 7983   2.256   0.729   5.094
 2362SOL     OW 7984   2.349   0.115   4.854
 2362SOL    HW1 7985   2.338   0.140   4.758
 2362SOL    HW2 7986   2.336   0.197   4.911
 2363SOL     OW 7987   4.406   2.374   5.468
 2363SOL    HW1 7988   4.320   2.360   5.516
 2363SOL    HW2 7989   4.483   2.359   5.530
 2364SOL     OW 7990   0.958   1.664   2.396
 2364SOL    HW1 7991   0.922   1.754   2.420
 2364SOL    HW2 7992   1.049   1.653   2.436
 2365SOL     OW 7993   6.613   2.764   6.434
 2365SOL    HW1 7994   6.555   2.838   6.468
 2365SOL    HW2 7995   6.617   2.767   6.334
 2366SOL     OW 7996   1.256   5.539   6.377
 2366SOL    HW1 7997   1.280   5.445   6.401
 2366SOL    HW2 7998   1.188   5.573   6.442
 2367SOL     OW 7999   2.928   4.637   0.572
 2367SOL    HW1 8000   3.010   4.582   0.590
 2367SOL    HW2 8001   2.930   4.669   0.477
 2368SOL     OW 8002   4.515   0.274   3.093
 2368SOL    HW1 8003   4.608   0.307   3.111
 2368SOL    HW2 8004   4.519   0.184   3.050
 2369SOL     OW 8005   0.822   2.620   5.980
 2369SOL    HW1 8006   0.859   2.528   5.991
 2369SOL    HW2 8007   0.818   2.643   5.883
 2370SOL     OW 8008   5.331   3.406   0.086
 2370SOL    HW1 8009   5.331   3.327   0.147
 2370SOL    HW2 8010   5.391   3.477   0.123
 2371SOL     OW 8011   0.473   0.142   2.090
 2371SOL    HW1 8012   0.528   0.145   2.007
 2371SOL    HW2 8013   0.412   0.222   2.093
 2372SOL     OW 8014   6.795   2.479   2.294
 2372SOL    HW1 8015   6.867   2.471   2.363
 2372SOL    HW2 8016   6.706   2.458   2.336
 2373SOL     OW 8017   0.461   1.390   0.457
 2373SOL    HW1 8018   0.555   1.417   0.438
 2373SOL    HW2 8019   0.427   1.439   0.538
 2374SOL     OW 8020   6.059   1.138   3.938
 2374SOL    HW1 8021   5.989   1.128   4.008
 2374SOL    HW2 8022   6.069   1.235   3.915
 2375SOL     OW 8023   2.876   6.801   4.603
 2375SOL    HW1 8024   2.847   6.859   4.527
 2375SOL    HW2 8025   2.861   6.705   4.580
 2376SOL     OW 8026   6.408   2.531   4.043
 2376SOL    HW1 8027   6.412   2.595   3.967
 2376SOL    HW2 8028   6.403   2.438   4.009
 2377SOL     OW 8029   3.452   4.100   3.160
 2377SOL    HW1 8030   3.414   4.173   3.217
 2377SOL    HW2 8031   3.494   4.140   3.078
 2378SOL     OW 8032   5.248   2.443   0.085
 2378SOL    HW1 8033   5.190   2.420   0.007
 2378SOL    HW2 8034   5.278   2.538   0.078
 2379SOL     OW 8035   5.644   2.491   6.818
 2379SOL    HW1 8036   5.594   2.405   6.824
 2379SOL    HW2 8037   5.612   2.554   6.890
 2380SOL     OW 8038   0.783   0.280   5.674
 2380SOL    HW1 8039   0.824   0.196   5.637
 2380SOL    HW2 8040   0.852   0.352   5.676
 2381SOL     OW 8041   2.079   3.891   4.470
 2381SOL    HW1 8042   2.050   3.815   4.527
 2381SOL    HW2 8043   2.003   3.917   4.409
 2382SOL     OW 8044   2.350   4.309   3.680
 2382SOL    HW1 8045   2.357   4.255   3.596
 2382SOL    HW2 8046   2.288   4.264   3.744
 2383SOL     OW 8047   5.851   6.597   1.024
 2383SOL    HW1 8048   5.845   6.540   0.942
 2383SOL    HW2 8049   5.825   6.544   1.104
 2384SOL     OW 8050   6.655   6.684   2.711
 2384SOL    HW1 8051   6.656   6.647   2.618
 2384SOL    HW2 8052   6.737   6.740   2.725
 2385SOL     OW 8053   0.713   6.322   0.860
 2385SOL    HW1 8054   0.715   6.330   0.760
 2385SOL    HW2 8055   0.621   6.293   0.889
 2386SOL     OW 8056   5.170   5.205   4.182
 2386SOL    HW1 8057   5.112   5.261   4.123
 2386SOL    HW2 8058   5.247   5.259   4.214
 2387SOL     OW 8059   1.352   1.557   3.746
 2387SOL    HW1 8060   1.442   1.523   3.772
 2387SOL    HW2 8061   1.316   1.617   3.818
 2388SOL     OW 8062   1.417   2.154   3.525
 2388SOL    HW1 8063   1.494   2.139   3.587
 2388SOL    HW2 8064   1.424   2.093   3.446
 2389SOL     OW 8065   4.862   3.615   2.720
 2389SOL    HW1 8066   4.789   3.660   2.773
 2389SOL    HW2 8067   4.939   3.677   2.710
 2390SOL     OW 8068   3.882   4.006   3.068
 2390SOL    HW1 8069   3.917   3.935   3.130
 2390SOL    HW2 8070   3.860   4.088   3.120
 2391SOL     OW 8071   4.662   4.714   5.716
 2391SOL    HW1 8072   4.659   4.741   5.812
 2391SOL    HW2 8073   4.691   4.618   5.710
 2392SOL     OW 8074   3.388   6.564   5.390
 2392SOL    HW1 8075   3.409   6.467   5.404
 2392SOL    HW2 8076   3.450   6.601   5.320
 2393SOL     OW 8077   4.981   3.990   6.222
 2393SOL    HW1 8078   5.016   4.055   6.290
 2393SOL    HW2 8079   4.929   3.918   6.268
 2394SOL     OW 8080   1.770   3.312   4.154
 2394SOL    HW1 8081   1.755   3.224   4.109
 2394SOL    HW2 8082   1.866   3.338   4.146
 2395SOL     OW 8083   6.385   2.833   6.709
 2395SOL    HW1 8084   6.440   2.874   6.636
 2395SOL    HW2 8085   6.348   2.746   6.677
 2396SOL     OW 8086   4.369   4.975   0.986
 2396SOL    HW1 8087   4.413   5.058   1.021
 2396SOL    HW2 8088   4.359   4.982   0.887
 2397SOL     OW 8089   0.377   4.088   7.008
 2397SOL    HW1 8090   0.319   4.021   0.037
 2397SOL    HW2 8091   0.345   4.103   6.915
 2398SOL     OW 8092   2.749   3.742   6.444
 2398SOL    HW1 8093   2.782   3.698   6.528
 2398SOL    HW2 8094   2.730   3.671   6.375
 2399SOL     OW 8095   4.237   1.506   2.571
 2399SOL    HW1 8096   4.171   1.552   2.511
 2399SOL    HW2 8097   4.229   1.407   2.558
 2400SOL     OW 8098   3.155   4.829   6.873
 2400SOL    HW1 8099   3.152   4.929   6.870
 2400SOL    HW2 8100   3.202   4.796   6.791
 2401SOL     OW 8101   3.551   6.573   6.173
 2401SOL    HW1 8102   3.591   6.588   6.263
 2401SOL    HW2 8103   3.622   6.547   6.108
 2402SOL     OW 8104   0.349   0.824   3.938
 2402SOL    HW1 8105   0.320   0.768   3.860
 2402SOL    HW2 8106   0.294   0.907   3.942
 2403SOL     OW 8107   2.114   2.656   0.854
 2403SOL    HW1 8108   2.089   2.706   0.771
 2403SOL    HW2 8109   2.181   2.585   0.832
 2404SOL     OW 8110   5.025   1.123   1.005
 2404SOL    HW1 8111   5.015   1.083   1.096
 2404SOL    HW2 8112   4.934   1.139   0.966
 2405SOL     OW 8113   3.886   3.407   2.756
 2405SOL    HW1 8114   3.880   3.484   2.819
 2405SOL    HW2 8115   3.865   3.437   2.663
 2406SOL     OW 8116   2.794   6.181   3.158
 2406SOL    HW1 8117   2.785   6.164   3.256
 2406SOL    HW2 8118   2.886   6.213   3.138
 2407SOL     OW 8119   5.223   2.092   2.543
 2407SOL    HW1 8120   5.151   2.150   2.504
 2407SOL    HW2 8121   5.260   2.135   2.624
 2408SOL     OW 8122   4.421   4.876   3.609
 2408SOL    HW1 8123   4.439   4.871   3.708
 2408SOL    HW2 8124   4.355   4.805   3.584
 2409SOL     OW 8125   1.066   3.729   1.917
 2409SOL    HW1 8126   1.129   3.788   1.869
 2409SOL    HW2 8127   1.104   3.636   1.923
 2410SOL     OW 8128   5.113   2.441   5.926
 2410SOL    HW1 8129   5.074   2.349   5.927
 2410SOL    HW2 8130   5.116   2.478   6.019
 2411SOL     OW 8131   4.433   5.145   5.516
 2411SOL    HW1 8132   4.424   5.223   5.579
 2411SOL    HW2 8133   4.342   5.108   5.496
 2412SOL     OW 8134   4.219   4.554   1.273
 2412SOL    HW1 8135   4.265   4.472   1.240
 2412SOL    HW2 8136   4.268   4.635   1.241
 2413SOL     OW 8137   6.475   2.613   0.704
 2413SOL    HW1 8138   6.433   2.702   0.688
 2413SOL    HW2 8139   6.409   2.552   0.748
 2414SOL     OW 8140   4.767   4.191   2.292
 2414SOL    HW1 8141   4.704   4.261   2.257
 2414SOL    HW2 8142   4.804   4.139   2.215
 2415SOL     OW 8143   6.876   6.850   1.592
 2415SOL    HW1 8144   6.962   6.844   1.542
 2415SOL    HW2 8145   6.887   6.911   1.671
 2416SOL     OW 8146   4.127   2.356   5.446
 2416SOL    HW1 8147   4.132   2.256   5.442
 2416SOL    HW2 8148   4.045   2.387   5.398
 2417SOL     OW 8149   3.987   3.638   6.184
 2417SOL    HW1 8150   3.915   3.654   6.117
 2417SOL    HW2 8151   4.016   3.725   6.223
 2418SOL     OW 8152   3.174   4.076   3.704
 2418SOL    HW1 8153   3.212   4.167   3.688
 2418SOL    HW2 8154   3.179   4.054   3.801
 2419SOL     OW 8155   0.885   6.168   4.708
 2419SOL    HW1 8156   0.973   6.210   4.688
 2419SOL    HW2 8157   0.836   6.223   4.776
 2420SOL     OW 8158   3.078   1.158   1.813
 2420SOL    HW1 8159   3.178   1.163   1.819
 2420SOL    HW2 8160   3.049   1.186   1.721
 2421SOL     OW 8161   2.701   1.569   4.769
 2421SOL    HW1 8162   2.663   1.499   4.830
 2421SOL    HW2 8163   2.801   1.568   4.777
 2422SOL     OW 8164   5.993   0.237   1.538
 2422SOL    HW1 8165   6.043   0.319   1.511
 2422SOL    HW2 8166   5.924   0.260   1.607
 2423SOL     OW 8167   0.970   6.076   3.369
 2423SOL    HW1 8168   1.021   5.997   3.335
 2423SOL    HW2 8169   0.876   6.048   3.391
 2424SOL     OW 8170   6.056   6.438   6.529
 2424SOL    HW1 8171   6.146   6.452   6.571
 2424SOL    HW2 8172   6.064   6.371   6.456
 2425SOL     OW 8173   6.400   0.171   3.942
 2425SOL    HW1 8174   6.374   0.129   4.029
 2425SOL    HW2 8175   6.401   0.102   3.870
 2426SOL     OW 8176   1.237   5.389   4.289
 2426SOL    HW1 8177   1.306   5.397   4.217
 2426SOL    HW2 8178   1.282   5.381   4.378
 2427SOL     OW 8179   5.744   5.135   5.650
 2427SOL    HW1 8180   5.671   5.169   5.589
 2427SOL    HW2 8181   5.778   5.211   5.706
 2428SOL     OW 8182   6.057   0.056   3.531
 2428SOL    HW1 8183   6.110   0.101   3.459
 2428SOL    HW2 8184   6.005   0.124   3.582
 2429SOL     OW 8185   5.535   4.970   3.821
 2429SOL    HW1 8186   5.597   5.048   3.813
 2429SOL    HW2 8187   5.580   4.897   3.872
 2430SOL     OW 8188   6.335   1.851   1.169
 2430SOL    HW1 8189   6.312   1.795   1.089
 2430SOL    HW2 8190   6.299   1.944   1.156
 2431SOL     OW 8191   4.370   0.757   2.712
 2431SOL    HW1 8192   4.456   0.727   2.752
 2431SOL    HW2 8193   4.299   0.688   2.731
 2432SOL     OW 8194   3.376   6.622   3.222
 2432SOL    HW1 8195   3.464   6.625   3.270
 2432SOL    HW2 8196   3.384   6.673   3.136
 2433SOL     OW 8197   3.412   0.682   1.400
 2433SOL    HW1 8198   3.345   0.610   1.380
 2433SOL    HW2 8199   3.484   0.681   1.331
 2434SOL     OW 8200   4.582   0.380   4.911
 2434SOL    HW1 8201   4.560   0.406   5.005
 2434SOL    HW2 8202   4.564   0.457   4.849
 2435SOL     OW 8203   4.357   4.831   6.511
 2435SOL    HW1 8204   4.442   4.825   6.563
 2435SOL    HW2 8205   4.280   4.804   6.569
 2436SOL     OW 8206   1.659   5.816   1.651
 2436SOL    HW1 8207   1.706   5.735   1.687
 2436SOL    HW2 8208   1.597   5.788   1.578
 2437SOL     OW 8209   5.028   5.882   0.054
 2437SOL    HW1 8210   5.074   5.897   0.142
 2437SOL    HW2 8211   5.066   5.943   7.002
 2438SOL     OW 8212   3.731   1.199   5.949
 2438SOL    HW1 8213   3.781   1.221   6.033
 2438SOL    HW2 8214   3.708   1.101   5.949
 2439SOL     OW 8215   0.976   4.477   6.284
 2439SOL    HW1 8216   0.905   4.493   6.215
 2439SOL    HW2 8217   0.938   4.496   6.375
 2440SOL     OW 8218   5.060   5.785   5.794
 2440SOL    HW1 8219   5.052   5.884   5.803
 2440SOL    HW2 8220   4.976   5.742   5.826
 2441SOL     OW 8221   0.661   0.501   0.148
 2441SOL    HW1 8222   0.678   0.427   0.082
 2441SOL    HW2 8223   0.564   0.505   0.168
 2442SOL     OW 8224   6.661   4.522   4.831
 2442SOL    HW1 8225   6.666   4.579   4.749
 2442SOL    HW2 8226   6.567   4.488   4.842
 2443SOL     OW 8227   4.170   5.930   5.469
 2443SOL    HW1 8228   4.157   6.021   5.509
 2443SOL    HW2 8229   4.239   5.936   5.396
 2444SOL     OW 8230   2.933   4.190   6.191
 2444SOL    HW1 8231   2.912   4.099   6.227
 2444SOL    HW2 8232   2.938   4.256   6.266
 2445SOL     OW 8233   0.223   0.298   2.368
 2445SOL    HW1 8234   0.202   0.208   2.329
 2445SOL    HW2 8235   0.164   0.367   2.326
 2446SOL     OW 8236   0.389   4.706   4.044
 2446SOL    HW1 8237   0.488   4.697   4.034
 2446SOL    HW2 8238   0.365   4.799   4.070
 2447SOL     OW 8239   2.283   2.224   1.131
 2447SOL    HW1 8240   2.264   2.284   1.209
 2447SOL    HW2 8241   2.380   2.199   1.131
 2448SOL     OW 8242   0.581   0.473   4.794
 2448SOL    HW1 8243   0.664   0.447   4.744
 2448SOL    HW2 8244   0.599   0.468   4.892
 2449SOL     OW 8245   0.395   5.184   0.875
 2449SOL    HW1 8246   0.345   5.152   0.956
 2449SOL    HW2 8247   0.486   5.143   0.874
 2450SOL     OW 8248   2.525   4.959   3.161
 2450SOL    HW1 8249   2.575   5.012   3.093
 2450SOL    HW2 8250   2.484   4.879   3.118
 2451SOL     OW 8251   0.781   0.311   3.478
 2451SOL    HW1 8252   0.731   0.318   3.392
 2451SOL    HW2 8253   0.716   0.293   3.552
 2452SOL     OW 8254   1.513   3.276   2.799
 2452SOL    HW1 8255   1.503   3.376   2.807
 2452SOL    HW2 8256   1.609   3.254   2.782
 2453SOL     OW 8257   5.999   4.119   0.909
 2453SOL    HW1 8258   6.053   4.071   0.979
 2453SOL    HW2 8259   6.038   4.101   0.819
 2454SOL     OW 8260   2.958   1.311   0.888
 2454SOL    HW1 8261   3.001   1.262   0.812
 2454SOL    HW2 8262   2.865   1.277   0.903
 2455SOL     OW 8263   5.511   6.158   0.548
 2455SOL    HW1 8264   5.485   6.241   0.597
 2455SOL    HW2 8265   5.606   6.165   0.519
 2456SOL     OW 8266   5.720   6.757   0.773
 2456SOL    HW1 8267   5.664   6.698   0.830
 2456SOL    HW2 8268   5.816   6.750   0.801
 2457SOL     OW 8269   6.635   6.522   0.540
 2457SOL    HW1 8270   6.712   6.580   0.564
 2457SOL    HW2 8271   6.550   6.564   0.573
 2458SOL     OW 8272   2.897   5.994   3.593
 2458SOL    HW1 8273   2.973   6.057   3.612
 2458SOL    HW2 8274   2.931   5.900   3.599
 2459SOL     OW 8275   2.549   6.749   0.458
 2459SOL    HW1 8276   2.482   6.693   0.508
 2459SOL    HW2 8277   2.510   6.840   0.442
 2460SOL     OW 8278   1.768   0.736   1.077
 2460SOL    HW1 8279   1.867   0.742   1.092
 2460SOL    HW2 8280   1.746   0.646   1.040
 2461SOL     OW 8281   4.698   0.873   2.903
 2461SOL    HW1 8282   4.761   0.900   2.830
 2461SOL    HW2 8283   4.609   0.915   2.887
 2462SOL     OW 8284   2.452   5.607   6.821
 2462SOL    HW1 8285   2.394   5.582   6.743
 2462SOL    HW2 8286   2.425   5.697   6.854
 2463SOL     OW 8287   6.030   2.646   3.864
 2463SOL    HW1 8288   6.005   2.642   3.767
 2463SOL    HW2 8289   6.076   2.732   3.884
 2464SOL     OW 8290   1.185   4.986   1.538
 2464SOL    HW1 8291   1.136   4.904   1.567
 2464SOL    HW2 8292   1.208   4.980   1.441
 2465SOL     OW 8293   0.137   5.341   1.247
 2465SOL    HW1 8294   0.147   5.373   1.341
 2465SOL    HW2 8295   0.192   5.398   1.187
 2466SOL     OW 8296   3.443   0.484   1.772
 2466SOL    HW1 8297   3.399   0.474   1.862
 2466SOL    HW2 8298   3.390   0.547   1.716
 2467SOL     OW 8299   5.679   0.840   6.050
 2467SOL    HW1 8300   5.597   0.797   6.088
 2467SOL    HW2 8301   5.662   0.868   5.956
 2468SOL     OW 8302   6.482   6.392   1.830
 2468SOL    HW1 8303   6.392   6.409   1.788
 2468SOL    HW2 8304   6.548   6.459   1.795
 2469SOL     OW 8305   3.892   4.345   5.486
 2469SOL    HW1 8306   3.921   4.255   5.519
 2469SOL    HW2 8307   3.967   4.388   5.436
 2470SOL     OW 8308   2.515   3.878   6.434
 2470SOL    HW1 8309   2.468   3.815   6.372
 2470SOL    HW2 8310   2.610   3.850   6.444
 2471SOL     OW 8311   2.051   6.678   0.963
 2471SOL    HW1 8312   2.085   6.660   1.056
 2471SOL    HW2 8313   2.041   6.776   0.949
 2472SOL     OW 8314   5.222   1.315   4.689
 2472SOL    HW1 8315   5.174   1.305   4.602
 2472SOL    HW2 8316   5.159   1.295   4.765
 2473SOL     OW 8317   2.195   4.182   4.906
 2473SOL    HW1 8318   2.233   4.261   4.858
 2473SOL    HW2 8319   2.258   4.153   4.978
 2474SOL     OW 8320   6.974   5.040   0.208
 2474SOL    HW1 8321   6.984   5.099   0.288
 2474SOL    HW2 8322   6.975   4.944   0.236
 2475SOL     OW 8323   4.176   1.928   0.503
 2475SOL    HW1 8324   4.258   1.874   0.522
 2475SOL    HW2 8325   4.106   1.906   0.572
 2476SOL     OW 8326   0.353   2.730   3.183
 2476SOL    HW1 8327   0.294   2.708   3.261
 2476SOL    HW2 8328   0.449   2.718   3.209
 2477SOL     OW 8329   6.283   6.972   2.075
 2477SOL    HW1 8330   6.213   7.011   2.016
 2477SOL    HW2 8331   6.281   0.000   2.164
 2478SOL     OW 8332   5.116   6.773   2.977
 2478SOL    HW1 8333   5.181   6.845   3.003
 2478SOL    HW2 8334   5.031   6.786   3.028
 2479SOL     OW 8335   0.549   3.377   1.390
 2479SOL    HW1 8336   0.496   3.314   1.446
 2479SOL    HW2 8337   0.644   3.376   1.420
 2480SOL     OW 8338   6.856   2.762   0.964
 2480SOL    HW1 8339   6.880   2.775   1.060
 2480SOL    HW2 8340   6.760   2.739   0.956
 2481SOL     OW 8341   3.400   6.057   0.425
 2481SOL    HW1 8342   3.497   6.078   0.438
 2481SOL    HW2 8343   3.391   5.989   0.352
 2482SOL     OW 8344   4.540   3.160   6.190
 2482SOL    HW1 8345   4.637   3.154   6.211
 2482SOL    HW2 8346   4.521   3.247   6.145
 2483SOL     OW 8347   2.208   1.339   0.701
 2483SOL    HW1 8348   2.173   1.432   0.709
 2483SOL    HW2 8349   2.308   1.341   0.694
 2484SOL     OW 8350   2.059   0.765   1.024
 2484SOL    HW1 8351   2.105   0.853   1.035
 2484SOL    HW2 8352   2.113   0.694   1.070
 2485SOL     OW 8353   4.939   5.321   2.576
 2485SOL    HW1 8354   4.994   5.308   2.493
 2485SOL    HW2 8355   4.994   5.303   2.656
 2486SOL     OW 8356   2.075   5.752   2.953
 2486SOL    HW1 8357   2.129   5.747   3.037
 2486SOL    HW2 8358   2.079   5.845   2.917
 2487SOL     OW 8359   3.983   6.086   0.377
 2487SOL    HW1 8360   3.991   6.009   0.440
 2487SOL    HW2 8361   3.957   6.053   0.287
 2488SOL     OW 8362   2.666   4.288   1.675
 2488SOL    HW1 8363   2.737   4.220   1.698
 2488SOL    HW2 8364   2.709   4.377   1.661
 2489SOL     OW 8365   2.648   5.156   4.109
 2489SOL    HW1 8366   2.615   5.181   4.018
 2489SOL    HW2 8367   2.721   5.089   4.100
 2490SOL     OW 8368   6.477   4.788   0.879
 2490SOL    HW1 8369   6.557   4.794   0.939
 2490SOL    HW2 8370   6.395   4.770   0.933
 2491SOL     OW 8371   3.091   5.843   2.864
 2491SOL    HW1 8372   3.172   5.796   2.828
 2491SOL    HW2 8373   3.009   5.790   2.843
 2492SOL     OW 8374   3.849   3.008   6.383
 2492SOL    HW1 8375   3.794   3.084   6.416
 2492SOL    HW2 8376   3.793   2.926   6.376
 2493SOL     OW 8377   6.268   0.012   2.656
 2493SOL    HW1 8378   6.363   0.003   2.688
 2493SOL    HW2 8379   6.221   6.942   2.667
 2494SOL     OW 8380   5.027   2.960   2.679
 2494SOL    HW1 8381   5.012   2.905   2.761
 2494SOL    HW2 8382   5.124   2.980   2.669
 2495SOL     OW 8383   5.178   1.120   5.152
 2495SOL    HW1 8384   5.194   1.023   5.173
 2495SOL    HW2 8385   5.167   1.171   5.237
 2496SOL     OW 8386   1.007   5.040   0.069
 2496SOL    HW1 8387   1.081   5.091   0.112
 2496SOL    HW2 8388   1.043   4.956   0.029
 2497SOL     OW 8389   0.313   1.750   0.191
 2497SOL    HW1 8390   0.408   1.719   0.185
 2497SOL    HW2 8391   0.276   1.727   0.281
 2498SOL     OW 8392   2.173   2.955   3.633
 2498SOL    HW1 8393   2.186   2.891   3.557
 2498SOL    HW2 8394   2.207   2.914   3.717
 2499SOL     OW 8395   5.435   0.557   4.520
 2499SOL    HW1 8396   5.528   0.520   4.519
 2499SOL    HW2 8397   5.432   0.636   4.581
 2500SOL     OW 8398   4.566   3.853   5.974
 2500SOL    HW1 8399   4.531   3.816   6.060
 2500SOL    HW2 8400   4.494   3.853   5.906
 2501SOL     OW 8401   5.975   4.322   6.856
 2501SOL    HW1 8402   6.057   4.282   6.898
 2501SOL    HW2 8403   5.978   4.309   6.757
 2502SOL     OW 8404   2.451   6.984   3.748
 2502SOL    HW1 8405   2.476   0.051   3.699
 2502SOL    HW2 8406   2.363   6.951   3.714
 2503SOL     OW 8407   3.922   5.855   5.995
 2503SOL    HW1 8408   3.952   5.837   6.089
 2503SOL    HW2 8409   3.848   5.922   5.997
 2504SOL     OW 8410   2.313   4.909   5.066
 2504SOL    HW1 8411   2.354   4.954   5.145
 2504SOL    HW2 8412   2.294   4.813   5.089
 2505SOL     OW 8413   3.815   5.797   4.818
 2505SOL    HW1 8414   3.746   5.756   4.759
 2505SOL    HW2 8415   3.779   5.882   4.857
 2506SOL     OW 8416   6.680   3.193   6.052
 2506SOL    HW1 8417   6.708   3.181   5.957
 2506SOL    HW2 8418   6.588   3.156   6.065
 2507SOL     OW 8419   5.771   5.142   0.476
 2507SOL    HW1 8420   5.788   5.070   0.409
 2507SOL    HW2 8421   5.681   5.128   0.518
 2508SOL     OW 8422   2.651   1.999   1.818
 2508SOL    HW1 8423   2.711   2.044   1.752
 2508SOL    HW2 8424   2.595   1.931   1.772
 2509SOL     OW 8425   5.811   1.833   2.356
 2509SOL    HW1 8426   5.848   1.755   2.304
 2509SOL    HW2 8427   5.882   1.901   2.370
 2510SOL     OW 8428   2.878   4.500   0.285
 2510SOL    HW1 8429   2.791   4.468   0.323
 2510SOL    HW2 8430   2.947   4.428   0.292
 2511SOL     OW 8431   1.369   1.373   4.639
 2511SOL    HW1 8432   1.464   1.378   4.609
 2511SOL    HW2 8433   1.312   1.340   4.564
 2512SOL     OW 8434   5.359   4.412   4.086
 2512SOL    HW1 8435   5.302   4.401   4.167
 2512SOL    HW2 8436   5.444   4.458   4.112
 2513SOL     OW 8437   0.651   2.349   6.546
 2513SOL    HW1 8438   0.711   2.381   6.473
 2513SOL    HW2 8439   0.652   2.415   6.621
 2514SOL     OW 8440   0.100   2.070   4.227
 2514SOL    HW1 8441   0.078   2.151   4.173
 2514SOL    HW2 8442   0.196   2.075   4.256
 2515SOL     OW 8443   1.177   6.466   0.879
 2515SOL    HW1 8444   1.162   6.367   0.877
 2515SOL    HW2 8445   1.107   6.509   0.936
 2516SOL     OW 8446   5.970   5.338   2.885
 2516SOL    HW1 8447   5.966   5.428   2.929
 2516SOL    HW2 8448   5.898   5.331   2.817
 2517SOL     OW 8449   2.262   4.314   6.315
 2517SOL    HW1 8450   2.326   4.345   6.245
 2517SOL    HW2 8451   2.289   4.224   6.347
 2518SOL     OW 8452   2.125   2.788   0.003
 2518SOL    HW1 8453   2.126   2.745   6.930
 2518SOL    HW2 8454   2.145   2.885   7.010
 2519SOL     OW 8455   4.611   5.442   4.236
 2519SOL    HW1 8456   4.617   5.509   4.310
 2519SOL    HW2 8457   4.703   5.408   4.215
 2520SOL     OW 8458   1.541   3.307   0.722
 2520SOL    HW1 8459   1.479   3.312   0.643
 2520SOL    HW2 8460   1.624   3.257   0.696
 2521SOL     OW 8461   0.995   6.864   5.652
 2521SOL    HW1 8462   1.039   6.829   5.570
 2521SOL    HW2 8463   1.064   6.885   5.722
 2522SOL     OW 8464   1.515   3.157   4.357
 2522SOL    HW1 8465   1.494   3.083   4.294
 2522SOL    HW2 8466   1.569   3.121   4.434
 2523SOL     OW 8467   6.592   3.307   1.053
 2523SOL    HW1 8468   6.664   3.341   0.993
 2523SOL    HW2 8469   6.627   3.230   1.106
 2524SOL     OW 8470   0.338   6.032   4.162
 2524SOL    HW1 8471   0.413   6.093   4.190
 2524SOL    HW2 8472   0.299   6.065   4.076
 2525SOL     OW 8473   0.543   4.133   4.295
 2525SOL    HW1 8474   0.628   4.168   4.255
 2525SOL    HW2 8475   0.556   4.038   4.322
 2526SOL     OW 8476   0.585   2.711   5.224
 2526SOL    HW1 8477   0.566   2.781   5.292
 2526SOL    HW2 8478   0.512   2.710   5.156
 2527SOL     OW 8479   5.868   6.661   5.505
 2527SOL    HW1 8480   5.774   6.694   5.505
 2527SOL    HW2 8481   5.880   6.594   5.579
 2528SOL     OW 8482   5.573   5.051   0.660
 2528SOL    HW1 8483   5.532   5.140   0.678
 2528SOL    HW2 8484   5.517   4.979   0.703
 2529SOL     OW 8485   4.720   5.237   5.701
 2529SOL    HW1 8486   4.808   5.196   5.723
 2529SOL    HW2 8487   4.651   5.165   5.692
 2530SOL     OW 8488   1.164   6.219   3.797
 2530SOL    HW1 8489   1.110   6.271   3.732
 2530SOL    HW2 8490   1.143   6.122   3.787
 2531SOL     OW 8491   5.465   6.757   5.358
 2531SOL    HW1 8492   5.491   6.705   5.439
 2531SOL    HW2 8493   5.533   6.743   5.286
 2532SOL     OW 8494   0.697   5.580   0.618
 2532SOL    HW1 8495   0.729   5.656   0.673
 2532SOL    HW2 8496   0.776   5.528   0.584
 2533SOL     OW 8497   5.381   6.538   4.863
 2533SOL    HW1 8498   5.398   6.486   4.947
 2533SOL    HW2 8499   5.364   6.633   4.885
 2534SOL     OW 8500   2.769   0.332   3.158
 2534SOL    HW1 8501   2.767   0.293   3.250
 2534SOL    HW2 8502   2.760   0.258   3.091
 2535SOL     OW 8503   1.711   2.119   5.187
 2535SOL    HW1 8504   1.778   2.139   5.115
 2535SOL    HW2 8505   1.636   2.065   5.148
 2536SOL     OW 8506   6.627   1.409   4.067
 2536SOL    HW1 8507   6.529   1.412   4.085
 2536SOL    HW2 8508   6.675   1.368   4.144
 2537SOL     OW 8509   4.997   6.881   0.611
 2537SOL    HW1 8510   5.075   6.860   0.553
 2537SOL    HW2 8511   4.957   6.796   0.646
 2538SOL     OW 8512   1.849   4.686   4.975
 2538SOL    HW1 8513   1.773   4.631   4.942
 2538SOL    HW2 8514   1.871   4.659   5.069
 2539SOL     OW 8515   4.476   0.113   5.257
 2539SOL    HW1 8516   4.475   0.054   5.176
 2539SOL    HW2 8517   4.560   0.168   5.258
 2540SOL     OW 8518   5.553   0.656   1.370
 2540SOL    HW1 8519   5.594   0.608   1.448
 2540SOL    HW2 8520   5.501   0.735   1.404
 2541SOL     OW 8521   1.793   0.267   5.334
 2541SOL    HW1 8522   1.788   0.168   5.349
 2541SOL    HW2 8523   1.803   0.285   5.236
 2542SOL     OW 8524   4.326   1.986   4.742
 2542SOL    HW1 8525   4.283   2.075   4.754
 2542SOL    HW2 8526   4.425   1.995   4.753
 2543SOL     OW 8527   0.966   0.366   3.191
 2543SOL    HW1 8528   0.923   0.277   3.179
 2543SOL    HW2 8529   1.064   0.354   3.207
 2544SOL     OW 8530   0.112   4.700   1.667
 2544SOL    HW1 8531   0.113   4.796   1.639
 2544SOL    HW2 8532   0.204   4.661   1.657
 2545SOL     OW 8533   1.912   1.999   1.176
 2545SOL    HW1 8534   1.888   1.946   1.095
 2545SOL    HW2 8535   1.901   2.097   1.156
 2546SOL     OW 8536   6.684   3.498   1.665
 2546SOL    HW1 8537   6.695   3.401   1.686
 2546SOL    HW2 8538   6.690   3.512   1.566
 2547SOL     OW 8539   5.592   5.359   0.966
 2547SOL    HW1 8540   5.565   5.336   1.059
 2547SOL    HW2 8541   5.539   5.438   0.935
 2548SOL     OW 8542   1.944   6.970   4.699
 2548SOL    HW1 8543   1.938   0.022   4.771
 2548SOL    HW2 8544   1.901   7.005   4.615
 2549SOL     OW 8545   1.840   2.793   1.935
 2549SOL    HW1 8546   1.930   2.835   1.940
 2549SOL    HW2 8547   1.810   2.767   2.027
 2550SOL     OW 8548   5.636   6.979   0.021
 2550SOL    HW1 8549   5.665   0.023   6.964
 2550SOL    HW2 8550   5.672   6.887   0.006
 2551SOL     OW 8551   3.559   4.443   0.163
 2551SOL    HW1 8552   3.651   4.425   0.128
 2551SOL    HW2 8553   3.492   4.432   0.088
 2552SOL     OW 8554   2.133   5.396   6.375
 2552SOL    HW1 8555   2.101   5.412   6.469
 2552SOL    HW2 8556   2.068   5.437   6.311
 2553SOL     OW 8557   3.848   2.197   6.373
 2553SOL    HW1 8558   3.945   2.218   6.365
 2553SOL    HW2 8559   3.829   2.165   6.466
 2554SOL     OW 8560   2.115   5.889   6.991
 2554SOL    HW1 8561   2.163   5.966   6.949
 2554SOL    HW2 8562   2.020   5.887   6.960
 2555SOL     OW 8563   6.411   6.423   6.424
 2555SOL    HW1 8564   6.509   6.404   6.420
 2555SOL    HW2 8565   6.383   6.428   6.520
 2556SOL     OW 8566   4.007   0.294   0.830
 2556SOL    HW1 8567   3.950   0.377   0.828
 2556SOL    HW2 8568   3.997   0.246   0.743
 2557SOL     OW 8569   3.085   0.947   0.130
 2557SOL    HW1 8570   3.057   0.887   0.055
 2557SOL    HW2 8571   3.185   0.944   0.139
 2558SOL     OW 8572   5.350   4.277   6.174
 2558SOL    HW1 8573   5.395   4.205   6.226
 2558SOL    HW2 8574   5.302   4.338   6.237
 2559SOL     OW 8575   6.830   3.441   3.441
 2559SOL    HW1 8576   6.852   3.347   3.414
 2559SOL    HW2 8577   6.897   3.472   3.509
 2560SOL     OW 8578   4.890   3.544   3.532
 2560SOL    HW1 8579   4.874   3.447   3.550
 2560SOL    HW2 8580   4.917   3.589   3.617
 2561SOL     OW 8581   3.944   1.101   3.635
 2561SOL    HW1 8582   3.919   1.072   3.727
 2561SOL    HW2 8583   4.039   1.131   3.634
 2562SOL     OW 8584   3.258   6.355   3.279
 2562SOL    HW1 8585   3.180   6.398   3.325
 2562SOL    HW2 8586   3.338   6.415   3.287
 2563SOL     OW 8587   3.348   1.567   6.582
 2563SOL    HW1 8588   3.438   1.580   6.622
 2563SOL    HW2 8589   3.319   1.651   6.536
 2564SOL     OW 8590   2.113   0.035   0.532
 2564SOL    HW1 8591   2.044   0.034   0.460
 2564SOL    HW2 8592   2.191   6.995   0.504
 2565SOL     OW 8593   0.616   1.357   6.515
 2565SOL    HW1 8594   0.633   1.401   6.604
 2565SOL    HW2 8595   0.697   1.306   6.487
 2566SOL     OW 8596   2.529   6.385   1.258
 2566SOL    HW1 8597   2.594   6.331   1.204
 2566SOL    HW2 8598   2.441   6.388   1.211
 2567SOL     OW 8599   1.584   1.570   0.540
 2567SOL    HW1 8600   1.517   1.640   0.564
 2567SOL    HW2 8601   1.657   1.569   0.608
 2568SOL     OW 8602   2.588   6.768   1.064
 2568SOL    HW1 8603   2.659   6.838   1.065
 2568SOL    HW2 8604   2.548   6.763   0.972
 2569SOL     OW 8605   3.337   1.593   1.380
 2569SOL    HW1 8606   3.259   1.572   1.320
 2569SOL    HW2 8607   3.358   1.513   1.436
 2570SOL     OW 8608   5.766   5.729   6.059
 2570SOL    HW1 8609   5.835   5.678   6.111
 2570SOL    HW2 8610   5.746   5.815   6.107
 2571SOL     OW 8611   3.657   2.856   4.768
 2571SOL    HW1 8612   3.560   2.877   4.760
 2571SOL    HW2 8613   3.683   2.790   4.697
 2572SOL     OW 8614   3.130   5.801   1.467
 2572SOL    HW1 8615   3.132   5.766   1.561
 2572SOL    HW2 8616   3.221   5.835   1.442
 2573SOL     OW 8617   6.214   2.282   3.760
 2573SOL    HW1 8618   6.226   2.370   3.715
 2573SOL    HW2 8619   6.120   2.251   3.747
 2574SOL     OW 8620   6.293   3.275   0.929
 2574SOL    HW1 8621   6.369   3.336   0.950
 2574SOL    HW2 8622   6.206   3.324   0.939
 2575SOL     OW 8623   5.144   3.765   1.116
 2575SOL    HW1 8624   5.228   3.712   1.131
 2575SOL    HW2 8625   5.136   3.789   1.019
 2576SOL     OW 8626   3.121   0.039   3.188
 2576SOL    HW1 8627   3.204   7.001   3.180
 2576SOL    HW2 8628   3.080   0.051   3.098
 2577SOL     OW 8629   4.141   0.506   3.980
 2577SOL    HW1 8630   4.090   0.430   3.938
 2577SOL    HW2 8631   4.193   0.472   4.058
 2578SOL     OW 8632   4.998   2.857   5.066
 2578SOL    HW1 8633   4.945   2.937   5.038
 2578SOL    HW2 8634   5.095   2.878   5.064
 2579SOL     OW 8635   1.125   1.721   5.732
 2579SOL    HW1 8636   1.134   1.808   5.683
 2579SOL    HW2 8637   1.206   1.665   5.715
 2580SOL     OW 8638   1.519   2.732   5.479
 2580SOL    HW1 8639   1.460   2.812   5.479
 2580SOL    HW2 8640   1.565   2.725   5.568
 2581SOL     OW 8641   5.515   4.978   1.925
 2581SOL    HW1 8642   5.583   4.965   1.997
 2581SOL    HW2 8643   5.559   4.971   1.835
 2582SOL     OW 8644   2.224   5.145   3.015
 2582SOL    HW1 8645   2.299   5.097   3.061
 2582SOL    HW2 8646   2.158   5.176   3.084
 2583SOL     OW 8647   1.170   0.701   1.542
 2583SOL    HW1 8648   1.110   0.655   1.477
 2583SOL    HW2 8649   1.189   0.639   1.618
 2584SOL     OW 8650   3.707   6.604   1.084
 2584SOL    HW1 8651   3.773   6.669   1.045
 2584SOL    HW2 8652   3.715   6.516   1.036
 2585SOL     OW 8653   3.293   0.365   0.856
 2585SOL    HW1 8654   3.211   0.324   0.897
 2585SOL    HW2 8655   3.330   0.434   0.918
 2586SOL     OW 8656   5.568   1.492   5.124
 2586SOL    HW1 8657   5.471   1.519   5.123
 2586SOL    HW2 8658   5.598   1.481   5.219
 2587SOL     OW 8659   6.726   0.200   4.463
 2587SOL    HW1 8660   6.820   0.174   4.442
 2587SOL    HW2 8661   6.702   0.282   4.412
 2588SOL     OW 8662   5.526   0.180   1.144
 2588SOL    HW1 8663   5.459   0.140   1.081
 2588SOL    HW2 8664   5.491   0.267   1.179
 2589SOL     OW 8665   0.178   6.989   5.330
 2589SOL    HW1 8666   0.187   6.893   5.358
 2589SOL    HW2 8667   0.087   7.004   5.290
 2590SOL     OW 8668   3.837   6.967   2.484
 2590SOL    HW1 8669   3.868   6.917   2.566
 2590SOL    HW2 8670   3.846   0.048   2.500
 2591SOL     OW 8671   5.480   6.191   0.871
 2591SOL    HW1 8672   5.577   6.183   0.895
 2591SOL    HW2 8673   5.446   6.103   0.838
 2592SOL     OW 8674   3.015   6.023   1.595
 2592SOL    HW1 8675   2.999   5.941   1.541
 2592SOL    HW2 8676   3.098   6.069   1.563
 2593SOL     OW 8677   4.200   6.915   2.636
 2593SOL    HW1 8678   4.282   6.859   2.647
 2593SOL    HW2 8679   4.139   6.900   2.714
 2594SOL     OW 8680   0.537   6.982   6.003
 2594SOL    HW1 8681   0.467   0.018   6.051
 2594SOL    HW2 8682   0.523   6.990   5.905
 2595SOL     OW 8683   0.396   2.060   5.342
 2595SOL    HW1 8684   0.381   2.042   5.244
 2595SOL    HW2 8685   0.488   2.097   5.355
 2596SOL     OW 8686   3.695   2.497   1.730
 2596SOL    HW1 8687   3.683   2.417   1.788
 2596SOL    HW2 8688   3.644   2.574   1.767
 2597SOL     OW 8689   1.978   4.021   1.023
 2597SOL    HW1 8690   2.069   4.062   1.022
 2597SOL    HW2 8691   1.924   4.058   0.948
 2598SOL     OW 8692   6.116   2.684   4.209
 2598SOL    HW1 8693   6.200   2.646   4.248
 2598SOL    HW2 8694   6.042   2.618   4.218
 2599SOL     OW 8695   3.778   5.836   6.443
 2599SOL    HW1 8696   3.842   5.760   6.437
 2599SOL    HW2 8697   3.700   5.819   6.382
 2600SOL     OW 8698   4.872   3.736   4.180
 2600SOL    HW1 8699   4.953   3.785   4.149
 2600SOL    HW2 8700   4.898   3.668   4.249
 2601SOL     OW 8701   3.156   2.480   6.671
 2601SOL    HW1 8702   3.131   2.396   6.624
 2601SOL    HW2 8703   3.227   2.528   6.619
 2602SOL     OW 8704   0.117   4.721   3.908
 2602SOL    HW1 8705   0.136   4.632   3.865
 2602SOL    HW2 8706   0.204   4.767   3.928
 2603SOL     OW 8707   2.595   2.335   1.491
 2603SOL    HW1 8708   2.528   2.408   1.479
 2603SOL    HW2 8709   2.623   2.332   1.587
 2604SOL     OW 8710   5.169   0.819   0.985
 2604SOL    HW1 8711   5.107   0.750   1.022
 2604SOL    HW2 8712   5.126   0.862   0.905
 2605SOL     OW 8713   4.255   5.279   2.989
 2605SOL    HW1 8714   4.331   5.343   2.983
 2605SOL    HW2 8715   4.290   5.186   2.996
 2606SOL     OW 8716   7.000   4.755   0.252
 2606SOL    HW1 8717   0.065   4.717   0.208
 2606SOL    HW2 8718   6.929   4.685   0.258
 2607SOL     OW 8719   0.605   1.723   4.866
 2607SOL    HW1 8720   0.655   1.791   4.812
 2607SOL    HW2 8721   0.552   1.665   4.804
 2608SOL     OW 8722   5.095   6.498   2.940
 2608SOL    HW1 8723   5.114   6.591   2.973
 2608SOL    HW2 8724   4.998   6.477   2.954
 2609SOL     OW 8725   0.764   2.124   1.883
 2609SOL    HW1 8726   0.771   2.027   1.906
 2609SOL    HW2 8727   0.854   2.166   1.890
 2610SOL     OW 8728   6.736   5.204   4.753
 2610SOL    HW1 8729   6.797   5.263   4.806
 2610SOL    HW2 8730   6.791   5.144   4.694
 2611SOL     OW 8731   5.940   6.523   1.412
 2611SOL    HW1 8732   5.841   6.538   1.414
 2611SOL    HW2 8733   5.983   6.596   1.359
 2612SOL     OW 8734   6.212   5.950   4.948
 2612SOL    HW1 8735   6.221   6.013   4.871
 2612SOL    HW2 8736   6.115   5.933   4.965
 2613SOL     OW 8737   2.943   5.963   2.453
 2613SOL    HW1 8738   2.966   6.031   2.522
 2613SOL    HW2 8739   2.849   5.977   2.422
 2614SOL     OW 8740   6.228   6.202   5.994
 2614SOL    HW1 8741   6.176   6.125   6.031
 2614SOL    HW2 8742   6.326   6.185   6.005
 2615SOL     OW 8743   5.512   5.299   3.250
 2615SOL    HW1 8744   5.593   5.350   3.219
 2615SOL    HW2 8745   5.514   5.207   3.213
 2616SOL     OW 8746   4.082   3.610   4.163
 2616SOL    HW1 8747   4.058   3.554   4.242
 2616SOL    HW2 8748   4.113   3.701   4.193
 2617SOL     OW 8749   2.888   5.795   0.945
 2617SOL    HW1 8750   2.988   5.796   0.958
 2617SOL    HW2 8751   2.851   5.884   0.973
 2618SOL     OW 8752   0.384   6.473   3.537
 2618SOL    HW1 8753   0.464   6.523   3.502
 2618SOL    HW2 8754   0.374   6.387   3.488
 2619SOL     OW 8755   3.902   1.457   2.244
 2619SOL    HW1 8756   3.849   1.542   2.244
 2619SOL    HW2 8757   3.884   1.407   2.328
 2620SOL     OW 8758   1.530   5.815   3.702
 2620SOL    HW1 8759   1.465   5.856   3.638
 2620SOL    HW2 8760   1.501   5.722   3.724
 2621SOL     OW 8761   1.865   5.989   3.275
 2621SOL    HW1 8762   1.911   5.993   3.364
 2621SOL    HW2 8763   1.766   5.988   3.288
 2622SOL     OW 8764   1.876   2.764   6.478
 2622SOL    HW1 8765   1.786   2.769   6.522
 2622SOL    HW2 8766   1.907   2.857   6.456
 2623SOL     OW 8767   4.192   1.149   4.832
 2623SOL    HW1 8768   4.119   1.086   4.805
 2623SOL    HW2 8769   4.177   1.179   4.926
 2624SOL     OW 8770   6.644   2.963   3.432
 2624SOL    HW1 8771   6.605   3.029   3.497
 2624SOL    HW2 8772   6.741   2.952   3.451
 2625SOL     OW 8773   1.539   3.210   5.399
 2625SOL    HW1 8774   1.557   3.182   5.304
 2625SOL    HW2 8775   1.609   3.172   5.459
 2626SOL     OW 8776   0.294   6.060   3.607
 2626SOL    HW1 8777   0.277   6.108   3.693
 2626SOL    HW2 8778   0.339   5.973   3.625
 2627SOL     OW 8779   0.575   0.764   4.706
 2627SOL    HW1 8780   0.649   0.790   4.767
 2627SOL    HW2 8781   0.545   0.671   4.729
 2628SOL     OW 8782   3.618   5.564   6.523
 2628SOL    HW1 8783   3.696   5.543   6.583
 2628SOL    HW2 8784   3.567   5.641   6.560
 2629SOL     OW 8785   3.876   3.766   1.748
 2629SOL    HW1 8786   3.891   3.695   1.817
 2629SOL    HW2 8787   3.778   3.773   1.729
 2630SOL     OW 8788   3.435   2.078   2.530
 2630SOL    HW1 8789   3.456   2.096   2.434
 2630SOL    HW2 8790   3.517   2.091   2.586
 2631SOL     OW 8791   4.408   6.611   3.443
 2631SOL    HW1 8792   4.481   6.655   3.392
 2631SOL    HW2 8793   4.322   6.620   3.392
 2632SOL     OW 8794   3.131   1.981   5.483
 2632SOL    HW1 8795   3.075   2.055   5.523
 2632SOL    HW2 8796   3.158   2.007   5.390
 2633SOL     OW 8797   6.486   2.256   6.255
 2633SOL    HW1 8798   6.548   2.209   6.317
 2633SOL    HW2 8799   6.438   2.188   6.199
 2634SOL     OW 8800   1.947   4.153   3.169
 2634SOL    HW1 8801   1.857   4.145   3.213
 2634SOL    HW2 8802   1.968   4.249   3.155
 2635SOL     OW 8803   5.533   5.811   3.883
 2635SOL    HW1 8804   5.606   5.742   3.883
 2635SOL    HW2 8805   5.508   5.834   3.789
 2636SOL     OW 8806   5.361   0.516   6.546
 2636SOL    HW1 8807   5.444   0.473   6.508
 2636SOL    HW2 8808   5.281   0.480   6.499
 2637SOL     OW 8809   6.370   0.917   3.576
 2637SOL    HW1 8810   6.408   0.826   3.588
 2637SOL    HW2 8811   6.362   0.962   3.665
 2638SOL     OW 8812   6.388   6.752   2.661
 2638SOL    HW1 8813   6.346   6.699   2.735
 2638SOL    HW2 8814   6.480   6.780   2.688
 2639SOL     OW 8815   6.934   6.635   1.916
 2639SOL    HW1 8816   6.873   6.556   1.925
 2639SOL    HW2 8817   6.879   6.718   1.912
 2640SOL     OW 8818   6.883   6.482   5.763
 2640SOL    HW1 8819   6.862   6.578   5.782
 2640SOL    HW2 8820   6.855   6.459   5.670
 2641SOL     OW 8821   6.121   3.077   1.429
 2641SOL    HW1 8822   6.184   3.151   1.405
 2641SOL    HW2 8823   6.113   3.014   1.351
 2642SOL     OW 8824   5.224   0.394   4.522
 2642SOL    HW1 8825   5.301   0.454   4.501
 2642SOL    HW2 8826   5.257   0.299   4.529
 2643SOL     OW 8827   0.821   4.948   3.248
 2643SOL    HW1 8828   0.799   4.850   3.243
 2643SOL    HW2 8829   0.909   4.960   3.293
 2644SOL     OW 8830   0.174   4.328   5.518
 2644SOL    HW1 8831   0.123   4.265   5.459
 2644SOL    HW2 8832   0.261   4.287   5.544
 2645SOL     OW 8833   4.361   6.526   5.080
 2645SOL    HW1 8834   4.346   6.614   5.126
 2645SOL    HW2 8835   4.323   6.530   4.987
 2646SOL     OW 8836   6.443   6.861   6.458
 2646SOL    HW1 8837   6.533   6.827   6.487
 2646SOL    HW2 8838   6.374   6.791   6.475
 2647SOL     OW 8839   5.518   0.852   1.156
 2647SOL    HW1 8840   5.440   0.889   1.206
 2647SOL    HW2 8841   5.568   0.788   1.214
 2648SOL     OW 8842   6.570   6.411   3.708
 2648SOL    HW1 8843   6.529   6.486   3.760
 2648SOL    HW2 8844   6.667   6.402   3.732
 2649SOL     OW 8845   4.158   1.996   6.089
 2649SOL    HW1 8846   4.178   1.933   6.164
 2649SOL    HW2 8847   4.059   2.007   6.081
 2650SOL     OW 8848   0.751   4.201   4.112
 2650SOL    HW1 8849   0.799   4.119   4.080
 2650SOL    HW2 8850   0.818   4.268   4.144
 2651SOL     OW 8851   1.499   1.714   0.780
 2651SOL    HW1 8852   1.468   1.767   0.859
 2651SOL    HW2 8853   1.469   1.620   0.790
 2652SOL     OW 8854   2.885   3.696   3.509
 2652SOL    HW1 8855   2.881   3.630   3.584
 2652SOL    HW2 8856   2.908   3.786   3.544
 2653SOL     OW 8857   5.034   6.845   5.020
 2653SOL    HW1 8858   5.064   6.815   4.929
 2653SOL    HW2 8859   5.101   6.816   5.089
 2654SOL     OW 8860   4.764   3.348   0.361
 2654SOL    HW1 8861   4.723   3.437   0.341
 2654SOL    HW2 8862   4.696   3.276   0.348
 2655SOL     OW 8863   4.788   4.773   4.380
 2655SOL    HW1 8864   4.796   4.704   4.308
 2655SOL    HW2 8865   4.860   4.842   4.368
 2656SOL     OW 8866   4.497   4.667   4.148
 2656SOL    HW1 8867   4.485   4.766   4.142
 2656SOL    HW2 8868   4.448   4.632   4.228
 2657SOL     OW 8869   2.824   4.399   6.364
 2657SOL    HW1 8870   2.808   4.492   6.331
 2657SOL    HW2 8871   2.844   4.400   6.462
 2658SOL     OW 8872   5.680   4.608   6.940
 2658SOL    HW1 8873   5.688   4.691   6.886
 2658SOL    HW2 8874   5.668   4.632   0.020
 2659SOL     OW 8875   6.379   2.602   4.296
 2659SOL    HW1 8876   6.384   2.579   4.199
 2659SOL    HW2 8877   6.469   2.585   4.338
 2660SOL     OW 8878   0.883   1.931   0.991
 2660SOL    HW1 8879   0.815   2.000   0.969
 2660SOL    HW2 8880   0.877   1.856   0.925
 2661SOL     OW 8881   1.926   6.425   1.923
 2661SOL    HW1 8882   1.943   6.339   1.875
 2661SOL    HW2 8883   2.010   6.456   1.967
 2662SOL     OW 8884   4.268   0.023   4.731
 2662SOL    HW1 8885   4.249   0.093   4.800
 2662SOL    HW2 8886   4.359   7.002   4.746
 2663SOL     OW 8887   2.174   5.226   0.959
 2663SOL    HW1 8888   2.256   5.282   0.964
 2663SOL    HW2 8889   2.132   5.220   1.050
 2664SOL     OW 8890   3.680   3.790   3.407
 2664SOL    HW1 8891   3.647   3.725   3.475
 2664SOL    HW2 8892   3.606   3.811   3.343
 2665SOL     OW 8893   3.660   1.726   5.131
 2665SOL    HW1 8894   3.717   1.759   5.056
 2665SOL    HW2 8895   3.578   1.683   5.094
 2666SOL     OW 8896   4.676   3.413   1.030
 2666SOL    HW1 8897   4.721   3.370   1.109
 2666SOL    HW2 8898   4.580   3.429   1.051
 2667SOL     OW 8899   1.289   5.731   4.793
 2667SOL    HW1 8900   1.206   5.707   4.743
 2667SOL    HW2 8901   1.298   5.673   4.874
 2668SOL     OW 8902   6.629   3.645   3.382
 2668SOL    HW1 8903   6.550   3.599   3.340
 2668SOL    HW2 8904   6.694   3.576   3.414
 2669SOL     OW 8905   3.011   4.720   5.502
 2669SOL    HW1 8906   3.070   4.672   5.438
 2669SOL    HW2 8907   2.959   4.653   5.556
 2670SOL     OW 8908   6.178   1.240   6.400
 2670SOL    HW1 8909   6.162   1.147   6.435
 2670SOL    HW2 8910   6.227   1.293   6.469
 2671SOL     OW 8911   2.845   4.519   7.000
 2671SOL    HW1 8912   2.883   4.585   0.047
 2671SOL    HW2 8913   2.797   4.567   6.926
 2672SOL     OW 8914   0.585   5.773   6.540
 2672SOL    HW1 8915   0.633   5.687   6.556
 2672SOL    HW2 8916   0.495   5.770   6.585
 2673SOL     OW 8917   5.284   2.432   3.701
 2673SOL    HW1 8918   5.314   2.525   3.724
 2673SOL    HW2 8919   5.188   2.433   3.674
 2674SOL     OW 8920   2.310   4.384   4.104
 2674SOL    HW1 8921   2.322   4.422   4.012
 2674SOL    HW2 8922   2.361   4.440   4.170
 2675SOL     OW 8923   1.031   4.299   5.331
 2675SOL    HW1 8924   1.022   4.348   5.418
 2675SOL    HW2 8925   1.118   4.250   5.330
 2676SOL     OW 8926   4.122   0.901   2.732
 2676SOL    HW1 8927   4.210   0.927   2.773
 2676SOL    HW2 8928   4.138   0.849   2.649
 2677SOL     OW 8929   3.762   5.138   1.354
 2677SOL    HW1 8930   3.726   5.048   1.333
 2677SOL    HW2 8931   3.720   5.206   1.294
 2678SOL     OW 8932   0.293   4.650   0.691
 2678SOL    HW1 8933   0.302   4.560   0.647
 2678SOL    HW2 8934   0.236   4.709   0.634
 2679SOL     OW 8935   4.497   5.540   1.023
 2679SOL    HW1 8936   4.494   5.630   1.066
 2679SOL    HW2 8937   4.419   5.530   0.961
 2680SOL     OW 8938   1.792   1.252   1.171
 2680SOL    HW1 8939   1.765   1.313   1.097
 2680SOL    HW2 8940   1.718   1.245   1.238
 2681SOL     OW 8941   1.246   2.827   4.198
 2681SOL    HW1 8942   1.240   2.735   4.159
 2681SOL    HW2 8943   1.327   2.833   4.257
 2682SOL     OW 8944   5.520   2.993   2.583
 2682SOL    HW1 8945   5.476   2.931   2.518
 2682SOL    HW2 8946   5.547   3.077   2.537
 2683SOL     OW 8947   1.698   3.885   1.169
 2683SOL    HW1 8948   1.607   3.852   1.193
 2683SOL    HW2 8949   1.696   3.925   1.077
 2684SOL     OW 8950   3.762   5.327   2.311
 2684SOL    HW1 8951   3.806   5.411   2.342
 2684SOL    HW2 8952   3.772   5.256   2.381
 2685SOL     OW 8953   6.586   6.442   5.244
 2685SOL    HW1 8954   6.505   6.392   5.212
 2685SOL    HW2 8955   6.580   6.537   5.214
 2686SOL     OW 8956   1.573   2.219   4.699
 2686SOL    HW1 8957   1.578   2.120   4.716
 2686SOL    HW2 8958   1.524   2.235   4.613
 2687SOL     OW 8959   4.525   4.842   2.468
 2687SOL    HW1 8960   4.619   4.842   2.434
 2687SOL    HW2 8961   4.474   4.767   2.426
 2688SOL     OW 8962   4.321   6.172   6.290
 2688SOL    HW1 8963   4.251   6.198   6.357
 2688SOL    HW2 8964   4.396   6.238   6.293
 2689SOL     OW 8965   2.088   1.937   3.727
 2689SOL    HW1 8966   2.184   1.928   3.756
 2689SOL    HW2 8967   2.045   1.847   3.726
 2690SOL     OW 8968   3.347   3.320   3.786
 2690SOL    HW1 8969   3.263   3.365   3.757
 2690SOL    HW2 8970   3.390   3.276   3.707
 2691SOL     OW 8971   1.743   5.247   2.544
 2691SOL    HW1 8972   1.817   5.254   2.477
 2691SOL    HW2 8973   1.682   5.327   2.535
 2692SOL     OW 8974   5.515   6.080   4.192
 2692SOL    HW1 8975   5.420   6.100   4.216
 2692SOL    HW2 8976   5.575   6.144   4.239
 2693SOL     OW 8977   2.255   4.172   2.944
 2693SOL    HW1 8978   2.304   4.255   2.972
 2693SOL    HW2 8979   2.259   4.163   2.845
 2694SOL     OW 8980   3.419   0.551   2.939
 2694SOL    HW1 8981   3.376   0.517   3.023
 2694SOL    HW2 8982   3.471   0.478   2.896
 2695SOL     OW 8983   5.224   1.721   2.774
 2695SOL    HW1 8984   5.294   1.792   2.779
 2695SOL    HW2 8985   5.155   1.748   2.707
 2696SOL     OW 8986   3.206   2.692   5.236
 2696SOL    HW1 8987   3.302   2.712   5.256
 2696SOL    HW2 8988   3.196   2.594   5.216
 2697SOL     OW 8989   4.733   2.074   3.951
 2697SOL    HW1 8990   4.797   2.145   3.920
 2697SOL    HW2 8991   4.660   2.116   4.004
 2698SOL     OW 8992   2.105   5.107   0.635
 2698SOL    HW1 8993   2.093   5.051   0.553
 2698SOL    HW2 8994   2.051   5.068   0.710
 2699SOL     OW 8995   3.506   5.221   6.992
 2699SOL    HW1 8996   3.519   5.313   6.955
 2699SOL    HW2 8997   3.593   5.188   0.013
 2700SOL     OW 8998   2.119   3.181   2.049
 2700SOL    HW1 8999   2.177   3.258   2.025
 2700SOL    HW2 9000   2.026   3.213   2.068
 2701SOL     OW 9001   4.056   0.247   6.469
 2701SOL    HW1 9002   4.008   0.305   6.404
 2701SOL    HW2 9003   4.102   0.304   6.538
 2702SOL     OW 9004   0.025   1.196   3.048
 2702SOL    HW1 9005   0.020   1.246   2.962
 2702SOL    HW2 9006   6.990   1.244   3.119
 2703SOL     OW 9007   2.080   0.671   2.792
 2703SOL    HW1 9008   2.072   0.619   2.877
 2703SOL    HW2 9009   2.148   0.743   2.803
 2704SOL     OW 9010   1.052   5.500   0.425
 2704SOL    HW1 9011   1.064   5.579   0.486
 2704SOL    HW2 9012   0.982   5.440   0.461
 2705SOL     OW 9013   0.830   5.239   4.081
 2705SOL    HW1 9014   0.895   5.257   4.155
 2705SOL    HW2 9015   0.856   5.154   4.034
 2706SOL     OW 9016   0.198   0.789   1.583
 2706SOL    HW1 9017   0.276   0.846   1.556
 2706SOL    HW2 9018   0.114   0.831   1.549
 2707SOL     OW 9019   2.385   0.682   5.638
 2707SOL    HW1 9020   2.366   0.586   5.660
 2707SOL    HW2 9021   2.462   0.714   5.692
 2708SOL     OW 9022   1.655   2.991   1.861
 2708SOL    HW1 9023   1.710   3.062   1.818
 2708SOL    HW2 9024   1.716   2.919   1.896
 2709SOL     OW 9025   5.570   6.620   0.999
 2709SOL    HW1 9026   5.660   6.590   1.029
 2709SOL    HW2 9027   5.509   6.627   1.078
 2710SOL     OW 9028   6.544   3.434   2.781
 2710SOL    HW1 9029   6.625   3.487   2.756
 2710SOL    HW2 9030   6.534   3.432   2.880
 2711SOL     OW 9031   2.819   0.014   2.623
 2711SOL    HW1 9032   2.840   0.106   2.589
 2711SOL    HW2 9033   2.724   0.011   2.653
 2712SOL     OW 9034   4.018   5.122   0.340
 2712SOL    HW1 9035   3.965   5.052   0.293
 2712SOL    HW2 9036   4.061   5.182   0.272
 2713SOL     OW 9037   1.687   2.777   4.465
 2713SOL    HW1 9038   1.635   2.829   4.533
 2713SOL    HW2 9039   1.647   2.791   4.374
 2714SOL     OW 9040   4.811   2.252   0.223
 2714SOL    HW1 9041   4.827   2.154   0.237
 2714SOL    HW2 9042   4.824   2.274   0.126
 2715SOL     OW 9043   6.017   0.219   0.137
 2715SOL    HW1 9044   6.037   0.307   0.095
 2715SOL    HW2 9045   6.025   0.227   0.237
 2716SOL     OW 9046   6.128   5.275   1.823
 2716SOL    HW1 9047   6.206   5.337   1.811
 2716SOL    HW2 9048   6.096   5.244   1.734
 2717SOL     OW 9049   1.137   5.535   2.266
 2717SOL    HW1 9050   1.137   5.485   2.353
 2717SOL    HW2 9051   1.100   5.626   2.280
 2718SOL     OW 9052   2.121   3.664   4.246
 2718SOL    HW1 9053   2.130   3.665   4.345
 2718SOL    HW2 9054   2.138   3.572   4.212
 2719SOL     OW 9055   4.947   4.793   1.356
 2719SOL    HW1 9056   4.848   4.807   1.354
 2719SOL    HW2 9057   4.990   4.855   1.291
 2720SOL     OW 9058   2.238   6.432   3.632
 2720SOL    HW1 9059   2.257   6.446   3.534
 2720SOL    HW2 9060   2.270   6.511   3.684
 2721SOL     OW 9061   2.875   0.252   5.300
 2721SOL    HW1 9062   2.824   0.230   5.383
 2721SOL    HW2 9063   2.886   0.170   5.244
 2722SOL     OW 9064   6.166   5.336   2.606
 2722SOL    HW1 9065   6.227   5.328   2.528
 2722SOL    HW2 9066   6.197   5.410   2.665
 2723SOL     OW 9067   1.729   0.576   6.610
 2723SOL    HW1 9068   1.801   0.638   6.578
 2723SOL    HW2 9069   1.748   0.483   6.579
 2724SOL     OW 9070   3.210   6.775   5.744
 2724SOL    HW1 9071   3.216   6.860   5.797
 2724SOL    HW2 9072   3.295   6.762   5.693
 2725SOL     OW 9073   6.054   5.053   3.045
 2725SOL    HW1 9074   6.063   4.969   2.991
 2725SOL    HW2 9075   6.019   5.126   2.987
 2726SOL     OW 9076   6.514   4.282   1.466
 2726SOL    HW1 9077   6.533   4.184   1.455
 2726SOL    HW2 9078   6.520   4.307   1.563
 2727SOL     OW 9079   0.418   4.672   2.847
 2727SOL    HW1 9080   0.330   4.625   2.839
 2727SOL    HW2 9081   0.403   4.771   2.846
 2728SOL     OW 9082   3.298   0.631   5.097
 2728SOL    HW1 9083   3.231   0.594   5.161
 2728SOL    HW2 9084   3.251   0.689   5.030
 2729SOL     OW 9085   6.981   5.619   1.819
 2729SOL    HW1 9086   6.894   5.614   1.868
 2729SOL    HW2 9087   0.011   5.703   1.844
 2730SOL     OW 9088   1.318   6.592   1.185
 2730SOL    HW1 9089   1.398   6.540   1.156
 2730SOL    HW2 9090   1.308   6.673   1.128
 2731SOL     OW 9091   3.250   3.507   1.423
 2731SOL    HW1 9092   3.162   3.467   1.449
 2731SOL    HW2 9093   3.279   3.470   1.335
 2732SOL     OW 9094   5.893   3.718   2.278
 2732SOL    HW1 9095   5.871   3.643   2.340
 2732SOL    HW2 9096   5.945   3.788   2.326
 2733SOL     OW 9097   0.635   6.968   5.026
 2733SOL    HW1 9098   0.610   6.883   4.980
 2733SOL    HW2 9099   0.576   6.982   5.106
 2734SOL     OW 9100   2.335   5.386   2.937
 2734SOL    HW1 9101   2.334   5.467   2.996
 2734SOL    HW2 9102   2.264   5.322   2.965
 2735SOL     OW 9103   0.872   3.261   2.717
 2735SOL    HW1 9104   0.825   3.292   2.799
 2735SOL    HW2 9105   0.891   3.339   2.657
 2736SOL     OW 9106   5.299   0.613   4.248
 2736SOL    HW1 9107   5.371   0.552   4.284
 2736SOL    HW2 9108   5.302   0.700   4.297
 2737SOL     OW 9109   3.277   3.416   5.394
 2737SOL    HW1 9110   3.305   3.444   5.302
 2737SOL    HW2 9111   3.293   3.318   5.406
 2738SOL     OW 9112   5.360   5.745   4.625
 2738SOL    HW1 9113   5.401   5.810   4.561
 2738SOL    HW2 9114   5.305   5.678   4.575
 2739SOL     OW 9115   5.947   4.010   0.084
 2739SOL    HW1 9116   6.020   4.071   0.054
 2739SOL    HW2 9117   5.861   4.038   0.042
 2740SOL     OW 9118   5.505   2.205   2.042
 2740SOL    HW1 9119   5.442   2.205   2.120
 2740SOL    HW2 9120   5.573   2.132   2.054
 2741SOL     OW 9121   0.313   1.768   6.131
 2741SOL    HW1 9122   0.386   1.812   6.078
 2741SOL    HW2 9123   0.324   1.791   6.227
 2742SOL     OW 9124   1.491   5.411   6.161
 2742SOL    HW1 9125   1.531   5.378   6.247
 2742SOL    HW2 9126   1.563   5.446   6.102
 2743SOL     OW 9127   5.929   5.197   1.643
 2743SOL    HW1 9128   5.843   5.244   1.663
 2743SOL    HW2 9129   5.942   5.192   1.544
 2744SOL     OW 9130   3.369   2.872   0.246
 2744SOL    HW1 9131   3.338   2.808   0.316
 2744SOL    HW2 9132   3.423   2.823   0.178
 2745SOL     OW 9133   2.269   6.797   0.032
 2745SOL    HW1 9134   2.306   6.708   0.061
 2745SOL    HW2 9135   2.214   6.785   6.966
 2746SOL     OW 9136   1.864   3.102   4.651
 2746SOL    HW1 9137   1.863   3.196   4.617
 2746SOL    HW2 9138   1.931   3.094   4.725
 2747SOL     OW 9139   5.742   4.021   5.001
 2747SOL    HW1 9140   5.697   4.097   4.954
 2747SOL    HW2 9141   5.766   4.049   5.094
 2748SOL     OW 9142   3.355   1.146   1.795
 2748SOL    HW1 9143   3.449   1.123   1.771
 2748SOL    HW2 9144   3.354   1.202   1.878
 2749SOL     OW 9145   5.346   4.956   4.016
 2749SOL    HW1 9146   5.361   5.047   4.052
 2749SOL    HW2 9147   5.394   4.947   3.928
 2750SOL     OW 9148   0.473   5.388   1.343
 2750SOL    HW1 9149   0.469   5.288   1.353
 2750SOL    HW2 9150   0.410   5.430   1.408
 2751SOL     OW 9151   1.889   0.124   0.380
 2751SOL    HW1 9152   1.837   0.068   0.315
 2751SOL    HW2 9153   1.952   0.183   0.330
 2752SOL     OW 9154   5.382   5.654   5.472
 2752SOL    HW1 9155   5.412   5.665   5.378
 2752SOL    HW2 9156   5.410   5.565   5.507
 2753SOL     OW 9157   1.891   0.198   6.278
 2753SOL    HW1 9158   1.930   0.118   6.323
 2753SOL    HW2 9159   1.964   0.263   6.256
 2754SOL     OW 9160   6.506   0.456   4.699
 2754SOL    HW1 9161   6.594   0.505   4.702
 2754SOL    HW2 9162   6.489   0.422   4.607
 2755SOL     OW 9163   3.062   6.281   3.072
 2755SOL    HW1 9164   3.112   6.326   3.147
 2755SOL    HW2 9165   3.112   6.199   3.044
 2756SOL     OW 9166   5.723   4.252   3.797
 2756SOL    HW1 9167   5.700   4.174   3.739
 2756SOL    HW2 9168   5.762   4.221   3.883
 2757SOL     OW 9169   2.889   1.750   6.575
 2757SOL    HW1 9170   2.905   1.712   6.484
 2757SOL    HW2 9171   2.892   1.850   6.570
 2758SOL     OW 9172   5.162   6.106   3.499
 2758SOL    HW1 9173   5.075   6.069   3.468
 2758SOL    HW2 9174   5.185   6.067   3.589
 2759SOL     OW 9175   3.579   4.761   5.304
 2759SOL    HW1 9176   3.502   4.788   5.362
 2759SOL    HW2 9177   3.598   4.664   5.319
 2760SOL     OW 9178   6.001   5.851   2.729
 2760SOL    HW1 9179   5.986   5.763   2.685
 2760SOL    HW2 9180   6.090   5.851   2.774
 2761SOL     OW 9181   1.434   3.776   3.891
 2761SOL    HW1 9182   1.371   3.705   3.858
 2761SOL    HW2 9183   1.471   3.748   3.980
 2762SOL     OW 9184   1.341   2.389   6.814
 2762SOL    HW1 9185   1.301   2.298   6.804
 2762SOL    HW2 9186   1.339   2.415   6.911
 2763SOL     OW 9187   5.562   1.497   5.772
 2763SOL    HW1 9188   5.463   1.488   5.773
 2763SOL    HW2 9189   5.588   1.586   5.810
 2764SOL     OW 9190   0.420   4.972   2.861
 2764SOL    HW1 9191   0.372   5.058   2.850
 2764SOL    HW2 9192   0.487   4.979   2.935
 2765SOL     OW 9193   0.520   0.380   1.335
 2765SOL    HW1 9194   0.595   0.321   1.365
 2765SOL    HW2 9195   0.538   0.474   1.363
 2766SOL     OW 9196   4.331   1.196   6.960
 2766SOL    HW1 9197   4.301   1.170   0.035
 2766SOL    HW2 9198   4.368   1.288   6.961
 2767SOL     OW 9199   5.851   5.937   6.895
 2767SOL    HW1 9200   5.900   6.018   6.926
 2767SOL    HW2 9201   5.901   5.854   6.921
 2768SOL     OW 9202   4.412   1.201   0.435
 2768SOL    HW1 9203   4.458   1.112   0.432
 2768SOL    HW2 9204   4.397   1.233   0.341
 2769SOL     OW 9205   2.050   4.580   6.159
 2769SOL    HW1 9206   1.975   4.625   6.111
 2769SOL    HW2 9207   2.069   4.492   6.116
 2770SOL     OW 9208   3.429   6.271   6.141
 2770SOL    HW1 9209   3.422   6.204   6.067
 2770SOL    HW2 9210   3.449   6.361   6.103
 2771SOL     OW 9211   5.533   6.884   4.670
 2771SOL    HW1 9212   5.628   6.898   4.641
 2771SOL    HW2 9213   5.529   6.879   4.769
 2772SOL     OW 9214   3.328   0.787   2.407
 2772SOL    HW1 9215   3.314   0.836   2.493
 2772SOL    HW2 9216   3.404   0.829   2.357
 2773SOL     OW 9217   0.074   2.664   3.789
 2773SOL    HW1 9218   7.015   2.729   3.788
 2773SOL    HW2 9219   0.086   2.626   3.697
 2774SOL     OW 9220   5.054   2.744   2.861
 2774SOL    HW1 9221   5.023   2.720   2.769
 2774SOL    HW2 9222   5.064   2.660   2.916
 2775SOL     OW 9223   6.980   3.871   3.720
 2775SOL    HW1 9224   0.049   3.821   3.725
 2775SOL    HW2 9225   6.943   3.865   3.627
 2776SOL     OW 9226   5.138   5.702   6.502
 2776SOL    HW1 9227   5.073   5.707   6.578
 2776SOL    HW2 9228   5.197   5.622   6.514
 2777SOL     OW 9229   2.527   1.926   6.109
 2777SOL    HW1 9230   2.444   1.913   6.164
 2777SOL    HW2 9231   2.532   2.021   6.079
 2778SOL     OW 9232   2.013   6.150   6.337
 2778SOL    HW1 9233   1.985   6.182   6.247
 2778SOL    HW2 9234   1.989   6.053   6.346
 2779SOL     OW 9235   5.592   6.276   2.313
 2779SOL    HW1 9236   5.607   6.364   2.269
 2779SOL    HW2 9237   5.609   6.203   2.247
 2780SOL     OW 9238   6.850   0.479   5.908
 2780SOL    HW1 9239   6.796   0.492   5.825
 2780SOL    HW2 9240   6.947   0.498   5.889
 2781SOL     OW 9241   5.880   0.316   2.818
 2781SOL    HW1 9242   5.959   0.351   2.868
 2781SOL    HW2 9243   5.874   0.216   2.830
 2782SOL     OW 9244   4.593   1.253   5.645
 2782SOL    HW1 9245   4.601   1.169   5.700
 2782SOL    HW2 9246   4.623   1.331   5.700
 2783SOL     OW 9247   6.119   3.498   1.450
 2783SOL    HW1 9248   6.112   3.512   1.549
 2783SOL    HW2 9249   6.083   3.579   1.402
 2784SOL     OW 9250   2.847   1.683   2.148
 2784SOL    HW1 9251   2.908   1.633   2.209
 2784SOL    HW2 9252   2.755   1.685   2.186
 2785SOL     OW 9253   5.170   2.166   1.362
 2785SOL    HW1 9254   5.097   2.136   1.301
 2785SOL    HW2 9255   5.158   2.124   1.452
 2786SOL     OW 9256   6.124   5.900   1.111
 2786SOL    HW1 9257   6.082   5.849   1.186
 2786SOL    HW2 9258   6.092   5.863   1.024
 2787SOL     OW 9259   6.478   5.838   5.549
 2787SOL    HW1 9260   6.406   5.778   5.583
 2787SOL    HW2 9261   6.511   5.803   5.461
 2788SOL     OW 9262   3.302   6.067   6.375
 2788SOL    HW1 9263   3.400   6.086   6.377
 2788SOL    HW2 9264   3.251   6.150   6.399
 2789SOL     OW 9265   1.034   2.541   3.759
 2789SOL    HW1 9266   1.042   2.640   3.762
 2789SOL    HW2 9267   1.069   2.507   3.672
 2790SOL     OW 9268   3.009   4.945   0.414
 2790SOL    HW1 9269   2.946   4.890   0.360
 2790SOL    HW2 9270   2.998   4.924   0.511
 2791SOL     OW 9271   0.357   4.078   2.219
 2791SOL    HW1 9272   0.343   4.104   2.123
 2791SOL    HW2 9273   0.333   4.156   2.277
 2792SOL     OW 9274   3.179   0.773   4.607
 2792SOL    HW1 9275   3.154   0.722   4.525
 2792SOL    HW2 9276   3.098   0.785   4.664
 2793SOL     OW 9277   5.020   4.169   1.867
 2793SOL    HW1 9278   4.995   4.213   1.780
 2793SOL    HW2 9279   5.044   4.074   1.851
 2794SOL     OW 9280   0.181   1.481   6.322
 2794SOL    HW1 9281   0.145   1.388   6.331
 2794SOL    HW2 9282   0.134   1.541   6.387
 2795SOL     OW 9283   0.918   5.388   1.174
 2795SOL    HW1 9284   0.869   5.442   1.105
 2795SOL    HW2 9285   0.865   5.388   1.259
 2796SOL     OW 9286   0.606   5.122   4.919
 2796SOL    HW1 9287   0.590   5.185   4.843
 2796SOL    HW2 9288   0.518   5.083   4.949
 2797SOL     OW 9289   5.269   5.201   5.447
 2797SOL    HW1 9290   5.232   5.228   5.536
 2797SOL    HW2 9291   5.365   5.228   5.441
 2798SOL     OW 9292   6.986   6.115   2.743
 2798SOL    HW1 9293   0.040   6.056   2.782
 2798SOL    HW2 9294   6.994   6.207   2.780
 2799SOL     OW 9295   4.700   5.663   5.425
 2799SOL    HW1 9296   4.745   5.582   5.462
 2799SOL    HW2 9297   4.606   5.666   5.457
 2800SOL     OW 9298   5.874   0.662   6.848
 2800SOL    HW1 9299   5.862   0.640   6.944
 2800SOL    HW2 9300   5.895   0.759   6.838
 2801SOL     OW 9301   1.365   5.552   5.889
 2801SOL    HW1 9302   1.293   5.514   5.946
 2801SOL    HW2 9303   1.453   5.542   5.936
 2802SOL     OW 9304   0.140   6.334   5.085
 2802SOL    HW1 9305   0.118   6.241   5.057
 2802SOL    HW2 9306   0.056   6.383   5.109
 2803SOL     OW 9307   3.340   4.095   5.645
 2803SOL    HW1 9308   3.385   4.060   5.727
 2803SOL    HW2 9309   3.277   4.027   5.609
 2804SOL     OW 9310   0.359   3.030   4.093
 2804SOL    HW1 9311   0.380   3.043   4.190
 2804SOL    HW2 9312   0.404   3.102   4.039
 2805SOL     OW 9313   5.518   3.789   2.247
 2805SOL    HW1 9314   5.558   3.881   2.239
 2805SOL    HW2 9315   5.491   3.773   2.342
 2806SOL     OW 9316   2.284   4.709   6.325
 2806SOL    HW1 9317   2.342   4.650   6.380
 2806SOL    HW2 9318   2.211   4.656   6.283
 2807SOL     OW 9319   3.069   0.253   2.802
 2807SOL    HW1 9320   3.110   0.166   2.830
 2807SOL    HW2 9321   2.999   0.235   2.733
 2808SOL     OW 9322   5.664   5.791   0.995
 2808SOL    HW1 9323   5.704   5.828   1.079
 2808SOL    HW2 9324   5.649   5.864   0.929
 2809SOL     OW 9325   5.623   3.089   1.841
 2809SOL    HW1 9326   5.620   3.096   1.741
 2809SOL    HW2 9327   5.717   3.082   1.872
 2810SOL     OW 9328   2.520   5.898   3.341
 2810SOL    HW1 9329   2.528   5.938   3.250
 2810SOL    HW2 9330   2.432   5.852   3.349
 2811SOL     OW 9331   0.986   0.779   2.763
 2811SOL    HW1 9332   0.990   0.717   2.841
 2811SOL    HW2 9333   1.063   0.761   2.702
 2812SOL     OW 9334   0.217   3.274   0.674
 2812SOL    HW1 9335   0.265   3.360   0.657
 2812SOL    HW2 9336   0.261   3.201   0.621
 2813SOL     OW 9337   0.990   1.364   1.312
 2813SOL    HW1 9338   0.918   1.427   1.340
 2813SOL    HW2 9339   0.966   1.323   1.224
 2814SOL     OW 9340   2.863   3.951   6.314
 2814SOL    HW1 9341   2.833   3.936   6.219
 2814SOL    HW2 9342   2.831   3.875   6.371
 2815SOL     OW 9343   0.103   6.121   5.894
 2815SOL    HW1 9344   0.128   6.043   5.951
 2815SOL    HW2 9345   0.186   6.167   5.862
 2816SOL     OW 9346   6.950   5.915   5.191
 2816SOL    HW1 9347   6.891   5.869   5.257
 2816SOL    HW2 9348   0.024   5.928   5.231
 2817SOL     OW 9349   3.886   0.903   1.922
 2817SOL    HW1 9350   3.807   0.843   1.915
 2817SOL    HW2 9351   3.945   0.872   1.997
 2818SOL     OW 9352   0.553   1.210   0.952
 2818SOL    HW1 9353   0.550   1.222   1.051
 2818SOL    HW2 9354   0.463   1.230   0.913
 2819SOL     OW 9355   0.906   0.535   1.121
 2819SOL    HW1 9356   0.855   0.451   1.139
 2819SOL    HW2 9357   0.942   0.532   1.028
 2820SOL     OW 9358   1.471   1.735   2.133
 2820SOL    HW1 9359   1.412   1.664   2.171
 2820SOL    HW2 9360   1.525   1.698   2.058
 2821SOL     OW 9361   3.402   5.192   6.014
 2821SOL    HW1 9362   3.329   5.145   6.063
 2821SOL    HW2 9363   3.392   5.177   5.916
 2822SOL     OW 9364   3.862   2.935   0.465
 2822SOL    HW1 9365   3.917   2.852   0.470
 2822SOL    HW2 9366   3.770   2.917   0.500
 2823SOL     OW 9367   5.276   1.028   0.558
 2823SOL    HW1 9368   5.314   1.045   0.649
 2823SOL    HW2 9369   5.313   0.941   0.523
 2824SOL     OW 9370   1.594   3.716   5.320
 2824SOL    HW1 9371   1.687   3.751   5.322
 2824SOL    HW2 9372   1.595   3.617   5.310
 2825SOL     OW 9373   5.472   0.478   6.792
 2825SOL    HW1 9374   5.531   0.402   6.764
 2825SOL    HW2 9375   5.409   0.500   6.718
 2826SOL     OW 9376   1.637   3.429   6.276
 2826SOL    HW1 9377   1.685   3.449   6.362
 2826SOL    HW2 9378   1.655   3.502   6.210
 2827SOL     OW 9379   0.794   0.673   6.422
 2827SOL    HW1 9380   0.849   0.621   6.356
 2827SOL    HW2 9381   0.715   0.713   6.375
 2828SOL     OW 9382   1.617   3.339   1.189
 2828SOL    HW1 9383   1.611   3.314   1.286
 2828SOL    HW2 9384   1.529   3.324   1.144
 2829SOL     OW 9385   3.687   3.807   3.026
 2829SOL    HW1 9386   3.754   3.876   3.056
 2829SOL    HW2 9387   3.736   3.727   2.992
 2830SOL     OW 9388   3.850   4.315   5.222
 2830SOL    HW1 9389   3.933   4.365   5.199
 2830SOL    HW2 9390   3.831   4.325   5.319
 2831SOL     OW 9391   0.012   1.855   2.300
 2831SOL    HW1 9392   0.075   1.920   2.257
 2831SOL    HW2 9393   0.053   1.764   2.300
 2832SOL     OW 9394   0.813   3.395   1.416
 2832SOL    HW1 9395   0.884   3.454   1.377
 2832SOL    HW2 9396   0.847   3.356   1.502
 2833SOL     OW 9397   2.320   0.681   2.004
 2833SOL    HW1 9398   2.402   0.636   1.969
 2833SOL    HW2 9399   2.264   0.712   1.928
 2834SOL     OW 9400   4.438   6.216   4.947
 2834SOL    HW1 9401   4.456   6.143   4.881
 2834SOL    HW2 9402   4.519   6.274   4.955
 2835SOL     OW 9403   1.125   6.461   0.454
 2835SOL    HW1 9404   1.138   6.486   0.358
 2835SOL    HW2 9405   1.119   6.544   0.510
 2836SOL     OW 9406   3.985   6.246   3.432
 2836SOL    HW1 9407   3.937   6.159   3.419
 2836SOL    HW2 9408   4.041   6.265   3.352
 2837SOL     OW 9409   5.649   4.054   2.282
 2837SOL    HW1 9410   5.731   4.112   2.290
 2837SOL    HW2 9411   5.575   4.108   2.243
 2838SOL     OW 9412   5.055   4.066   6.779
 2838SOL    HW1 9413   5.115   4.129   6.730
 2838SOL    HW2 9414   5.053   3.978   6.732
 2839SOL     OW 9415   6.576   2.607   3.391
 2839SOL    HW1 9416   6.579   2.663   3.308
 2839SOL    HW2 9417   6.643   2.641   3.457
 2840SOL     OW 9418   1.676   5.711   2.829
 2840SOL    HW1 9419   1.627   5.624   2.840
 2840SOL    HW2 9420   1.714   5.739   2.917
 2841SOL     OW 9421   6.137   2.671   0.674
 2841SOL    HW1 9422   6.169   2.738   0.607
 2841SOL    HW2 9423   6.038   2.678   0.683
 2842SOL     OW 9424   1.162   5.394   4.789
 2842SOL    HW1 9425   1.066   5.366   4.792
 2842SOL    HW2 9426   1.209   5.358   4.869
 2843SOL     OW 9427   2.422   2.620   2.760
 2843SOL    HW1 9428   2.512   2.576   2.751
 2843SOL    HW2 9429   2.353   2.564   2.714
 2844SOL     OW 9430   4.662   4.250   1.554
 2844SOL    HW1 9431   4.588   4.313   1.579
 2844SOL    HW2 9432   4.648   4.162   1.600
 2845SOL     OW 9433   5.163   2.784   3.900
 2845SOL    HW1 9434   5.074   2.793   3.856
 2845SOL    HW2 9435   5.199   2.875   3.921
 2846SOL     OW 9436   4.004   0.758   0.025
 2846SOL    HW1 9437   4.049   0.828   6.987
 2846SOL    HW2 9438   3.943   0.801   0.091
 2847SOL     OW 9439   4.793   4.116   2.019
 2847SOL    HW1 9440   4.720   4.184   2.016
 2847SOL    HW2 9441   4.874   4.150   1.972
 2848SOL     OW 9442   1.243   2.219   5.373
 2848SOL    HW1 9443   1.218   2.243   5.467
 2848SOL    HW2 9444   1.229   2.298   5.313
 2849SOL     OW 9445   3.791   0.670   1.619
 2849SOL    HW1 9446   3.691   0.676   1.619
 2849SOL    HW2 9447   3.830   0.759   1.642
 2850SOL     OW 9448   2.055   0.026   3.491
 2850SOL    HW1 9449   1.958   0.005   3.505
 2850SOL    HW2 9450   2.073   0.121   3.519
 2851SOL     OW 9451   3.790   3.325   6.833
 2851SOL    HW1 9452   3.841   3.331   6.919
 2851SOL    HW2 9453   3.780   3.230   6.807
 2852SOL     OW 9454   6.536   4.271   0.139
 2852SOL    HW1 9455   6.439   4.283   0.162
 2852SOL    HW2 9456   6.547   4.187   0.086
 2853SOL     OW 9457   0.155   3.417   6.987
 2853SOL    HW1 9458   0.223   3.456   0.032
 2853SOL    HW2 9459   0.106   3.344   0.017
 2854SOL     OW 9460   3.497   1.058   6.181
 2854SOL    HW1 9461   3.523   1.048   6.085
 2854SOL    HW2 9462   3.492   1.155   6.205
 2855SOL     OW 9463   1.012   2.531   4.416
 2855SOL    HW1 9464   1.043   2.603   4.478
 2855SOL    HW2 9465   0.965   2.571   4.338
 2856SOL     OW 9466   1.586   3.037   2.960
 2856SOL    HW1 9467   1.514   3.084   2.908
 2856SOL    HW2 9468   1.675   3.074   2.936
 2857SOL     OW 9469   0.296   3.693   0.438
 2857SOL    HW1 9470   0.355   3.706   0.518
 2857SOL    HW2 9471   0.218   3.636   0.463
 2858SOL     OW 9472   5.774   6.211   2.701
 2858SOL    HW1 9473   5.743   6.240   2.791
 2858SOL    HW2 9474   5.864   6.251   2.683
 2859SOL     OW 9475   5.455   5.733   0.469
 2859SOL    HW1 9476   5.501   5.755   0.383
 2859SOL    HW2 9477   5.373   5.788   0.478
 2860SOL     OW 9478   1.597   6.096   1.508
 2860SOL    HW1 9479   1.691   6.122   1.529
 2860SOL    HW2 9480   1.586   5.998   1.521
 2861SOL     OW 9481   2.896   5.043   5.773
 2861SOL    HW1 9482   2.911   5.012   5.679
 2861SOL    HW2 9483   2.802   5.077   5.782
 2862SOL     OW 9484   4.359   2.688   1.692
 2862SOL    HW1 9485   4.343   2.725   1.601
 2862SOL    HW2 9486   4.458   2.679   1.708
 2863SOL     OW 9487   5.414   0.942   6.220
 2863SOL    HW1 9488   5.479   0.902   6.285
 2863SOL    HW2 9489   5.364   1.016   6.264
 2864SOL     OW 9490   4.354   2.965   1.138
 2864SOL    HW1 9491   4.326   2.977   1.233
 2864SOL    HW2 9492   4.367   2.867   1.119
 2865SOL     OW 9493   4.183   6.252   4.204
 2865SOL    HW1 9494   4.175   6.291   4.296
 2865SOL    HW2 9495   4.155   6.320   4.136
 2866SOL     OW 9496   5.719   4.339   6.906
 2866SOL    HW1 9497   5.816   4.324   6.892
 2866SOL    HW2 9498   5.705   4.429   6.948
 2867SOL     OW 9499   6.674   6.726   2.202
 2867SOL    HW1 9500   6.750   6.780   2.166
 2867SOL    HW2 9501   6.623   6.686   2.126
 2868SOL     OW 9502   1.200   1.337   5.811
 2868SOL    HW1 9503   1.292   1.312   5.781
 2868SOL    HW2 9504   1.133   1.303   5.744
 2869SOL     OW 9505   6.048   0.132   4.377
 2869SOL    HW1 9506   6.019   0.203   4.313
 2869SOL    HW2 9507   5.998   0.048   4.358
 2870SOL     OW 9508   1.275   2.014   0.077
 2870SOL    HW1 9509   1.232   2.034   0.165
 2870SOL    HW2 9510   1.350   1.949   0.090
 2871SOL     OW 9511   6.785   0.690   0.723
 2871SOL    HW1 9512   6.859   0.624   0.714
 2871SOL    HW2 9513   6.785   0.752   0.645
 2872SOL     OW 9514   2.765   1.291   1.814
 2872SOL    HW1 9515   2.806   1.276   1.724
 2872SOL    HW2 9516   2.757   1.389   1.832
 2873SOL     OW 9517   0.264   5.395   1.543
 2873SOL    HW1 9518   0.323   5.337   1.600
 2873SOL    HW2 9519   0.277   5.490   1.568
 2874SOL     OW 9520   3.545   0.208   2.635
 2874SOL    HW1 9521   3.579   0.140   2.700
 2874SOL    HW2 9522   3.446   0.200   2.627
 2875SOL     OW 9523   3.061   6.845   2.643
 2875SOL    HW1 9524   2.965   6.868   2.659
 2875SOL    HW2 9525   3.079   6.842   2.545
 2876SOL     OW 9526   1.043   6.511   1.751
 2876SOL    HW1 9527   1.095   6.435   1.790
 2876SOL    HW2 9528   1.053   6.592   1.808
 2877SOL     OW 9529   2.165   2.024   6.116
 2877SOL    HW1 9530   2.214   1.954   6.168
 2877SOL    HW2 9531   2.210   2.035   6.027
 2878SOL     OW 9532   3.021   3.233   4.603
 2878SOL    HW1 9533   2.970   3.224   4.517
 2878SOL    HW2 9534   3.099   3.171   4.603
 2879SOL     OW 9535   4.589   5.108   5.981
 2879SOL    HW1 9536   4.596   5.070   5.889
 2879SOL    HW2 9537   4.518   5.178   5.984
 2880SOL     OW 9538   0.532   2.052   3.608
 2880SOL    HW1 9539   0.539   2.095   3.518
 2880SOL    HW2 9540   0.624   2.030   3.641
 2881SOL     OW 9541   3.076   5.124   6.976
 2881SOL    HW1 9542   3.008   5.186   7.016
 2881SOL    HW2 9543   3.158   5.124   0.016
 2882SOL     OW 9544   5.614   6.527   0.547
 2882SOL    HW1 9545   5.646   6.545   0.454
 2882SOL    HW2 9546   5.605   6.614   0.596
 2883SOL     OW 9547   6.574   6.570   3.334
 2883SOL    HW1 9548   6.495   6.508   3.334
 2883SOL    HW2 9549   6.659   6.517   3.333
 2884SOL     OW 9550   6.945   4.870   2.509
 2884SOL    HW1 9551   0.019   4.907   2.489
 2884SOL    HW2 9552   6.883   4.944   2.534
 2885SOL     OW 9553   1.099   2.295   4.239
 2885SOL    HW1 9554   1.114   2.357   4.316
 2885SOL    HW2 9555   1.187   2.263   4.205
 2886SOL     OW 9556   2.639   4.353   0.357
 2886SOL    HW1 9557   2.672   4.366   0.451
 2886SOL    HW2 9558   2.586   4.433   0.329
 2887SOL     OW 9559   0.289   6.068   3.906
 2887SOL    HW1 9560   0.375   6.019   3.904
 2887SOL    HW2 9561   0.305   6.166   3.889
 2888SOL     OW 9562   0.105   5.612   6.708
 2888SOL    HW1 9563   0.057   5.645   6.789
 2888SOL    HW2 9564   0.041   5.567   6.646
 2889SOL     OW 9565   3.400   6.121   3.036
 2889SOL    HW1 9566   3.474   6.108   3.102
 2889SOL    HW2 9567   3.399   6.215   3.004
 2890SOL     OW 9568   2.321   6.330   0.669
 2890SOL    HW1 9569   2.321   6.279   0.583
 2890SOL    HW2 9570   2.228   6.360   0.691
 2891SOL     OW 9571   1.122   3.289   2.539
 2891SOL    HW1 9572   1.055   3.265   2.469
 2891SOL    HW2 9573   1.137   3.211   2.600
 2892SOL     OW 9574   6.395   3.455   1.166
 2892SOL    HW1 9575   6.474   3.415   1.118
 2892SOL    HW2 9576   6.355   3.527   1.109
 2893SOL     OW 9577   1.308   5.347   4.574
 2893SOL    HW1 9578   1.368   5.285   4.623
 2893SOL    HW2 9579   1.245   5.390   4.639
 2894SOL     OW 9580   2.374   4.274   1.964
 2894SOL    HW1 9581   2.438   4.340   1.926
 2894SOL    HW2 9582   2.280   4.303   1.946
 2895SOL     OW 9583   3.586   0.711   6.064
 2895SOL    HW1 9584   3.603   0.789   6.124
 2895SOL    HW2 9585   3.591   0.626   6.118
 2896SOL     OW 9586   5.974   0.199   5.870
 2896SOL    HW1 9587   6.035   0.276   5.889
 2896SOL    HW2 9588   5.927   0.216   5.783
 2897SOL     OW 9589   3.620   5.066   2.692
 2897SOL    HW1 9590   3.627   5.148   2.748
 2897SOL    HW2 9591   3.554   5.003   2.733
 2898SOL     OW 9592   5.905   4.128   3.451
 2898SOL    HW1 9593   5.889   4.089   3.361
 2898SOL    HW2 9594   5.820   4.125   3.505
 2899SOL     OW 9595   6.850   2.192   1.459
 2899SOL    HW1 9596   6.795   2.166   1.539
 2899SOL    HW2 9597   6.918   2.260   1.486
 2900SOL     OW 9598   3.704   4.562   6.732
 2900SOL    HW1 9599   3.734   4.493   6.798
 2900SOL    HW2 9600   3.620   4.531   6.688
 2901SOL     OW 9601   1.335   4.871   4.014
 2901SOL    HW1 9602   1.275   4.857   3.935
 2901SOL    HW2 9603   1.292   4.935   4.077
 2902SOL     OW 9604   6.965   5.806   3.724
 2902SOL    HW1 9605   6.896   5.754   3.774
 2902SOL    HW2 9606   6.965   5.777   3.628
 2903SOL     OW 9607   4.430   6.257   0.881
 2903SOL    HW1 9608   4.413   6.280   0.977
 2903SOL    HW2 9609   4.527   6.239   0.868
 2904SOL     OW 9610   2.790   4.728   5.301
 2904SOL    HW1 9611   2.834   4.676   5.227
 2904SOL    HW2 9612   2.859   4.758   5.366
 2905SOL     OW 9613   1.371   4.218   3.376
 2905SOL    HW1 9614   1.398   4.128   3.340
 2905SOL    HW2 9615   1.272   4.225   3.377
 2906SOL     OW 9616   5.688   6.305   2.934
 2906SOL    HW1 9617   5.727   6.342   3.019
 2906SOL    HW2 9618   5.597   6.267   2.953
 2907SOL     OW 9619   0.892   0.977   3.923
 2907SOL    HW1 9620   0.797   0.946   3.921
 2907SOL    HW2 9621   0.910   1.025   4.008
 2908SOL     OW 9622   5.370   0.298   3.609
 2908SOL    HW1 9623   5.444   0.356   3.575
 2908SOL    HW2 9624   5.381   0.285   3.708
 2909SOL     OW 9625   1.299   6.665   3.043
 2909SOL    HW1 9626   1.233   6.625   3.107
 2909SOL    HW2 9627   1.255   6.738   2.991
 2910SOL     OW 9628   6.855   1.146   3.805
 2910SOL    HW1 9629   6.757   1.129   3.793
 2910SOL    HW2 9630   6.892   1.187   3.722
 2911SOL     OW 9631   1.138   4.854   3.836
 2911SOL    HW1 9632   1.108   4.761   3.857
 2911SOL    HW2 9633   1.059   4.912   3.817
 2912SOL     OW 9634   6.963   6.428   0.523
 2912SOL    HW1 9635   6.913   6.404   0.440
 2912SOL    HW2 9636   6.899   6.430   0.600
 2913SOL     OW 9637   2.393   4.438   2.196
 2913SOL    HW1 9638   2.480   4.478   2.171
 2913SOL    HW2 9639   2.361   4.379   2.122
 2914SOL     OW 9640   5.110   5.261   1.204
 2914SOL    HW1 9641   5.016   5.291   1.189
 2914SOL    HW2 9642   5.137   5.285   1.297
 2915SOL     OW 9643   2.796   2.329   3.262
 2915SOL    HW1 9644   2.773   2.238   3.296
 2915SOL    HW2 9645   2.785   2.331   3.162
 2916SOL     OW 9646   2.144   5.468   0.181
 2916SOL    HW1 9647   2.098   5.557   0.193
 2916SOL    HW2 9648   2.103   5.401   0.243
 2917SOL     OW 9649   3.019   0.188   3.701
 2917SOL    HW1 9650   2.927   0.218   3.673
 2917SOL    HW2 9651   3.030   0.203   3.799
 2918SOL     OW 9652   6.144   3.394   0.634
 2918SOL    HW1 9653   6.087   3.379   0.715
 2918SOL    HW2 9654   6.109   3.338   0.559
 2919SOL     OW 9655   6.558   6.120   4.009
 2919SOL    HW1 9656   6.632   6.073   4.057
 2919SOL    HW2 9657   6.577   6.218   4.005
 2920SOL     OW 9658   2.287   0.433   1.721
 2920SOL    HW1 9659   2.237   0.396   1.799
 2920SOL    HW2 9660   2.376   0.467   1.751
 2921SOL     OW 9661   6.913   0.017   5.214
 2921SOL    HW1 9662   6.908   0.113   5.241
 2921SOL    HW2 9663   6.907   0.010   5.114
 2922SOL     OW 9664   4.340   0.183   2.144
 2922SOL    HW1 9665   4.305   0.161   2.235
 2922SOL    HW2 9666   4.394   0.266   2.148
 2923SOL     OW 9667   6.337   4.937   4.405
 2923SOL    HW1 9668   6.423   4.972   4.369
 2923SOL    HW2 9669   6.329   4.959   4.502
 2924SOL     OW 9670   6.859   1.408   4.798
 2924SOL    HW1 9671   6.804   1.476   4.846
 2924SOL    HW2 9672   6.939   1.451   4.757
 2925SOL     OW 9673   5.679   1.132   6.851
 2925SOL    HW1 9674   5.636   1.196   6.786
 2925SOL    HW2 9675   5.653   1.038   6.828
 2926SOL     OW 9676   6.741   2.186   4.946
 2926SOL    HW1 9677   6.811   2.258   4.950
 2926SOL    HW2 9678   6.702   2.173   5.037
 2927SOL     OW 9679   2.185   3.500   0.820
 2927SOL    HW1 9680   2.276   3.482   0.783
 2927SOL    HW2 9681   2.190   3.577   0.884
 2928SOL     OW 9682   6.329   1.384   0.234
 2928SOL    HW1 9683   6.391   1.414   0.308
 2928SOL    HW2 9684   6.245   1.347   0.274
 2929SOL     OW 9685   1.253   2.620   5.076
 2929SOL    HW1 9686   1.168   2.626   5.023
 2929SOL    HW2 9687   1.331   2.631   5.015
 2930SOL     OW 9688   6.047   6.005   5.543
 2930SOL    HW1 9689   6.112   6.073   5.508
 2930SOL    HW2 9690   6.010   5.952   5.467
 2931SOL     OW 9691   4.559   5.153   0.673
 2931SOL    HW1 9692   4.636   5.202   0.713
 2931SOL    HW2 9693   4.505   5.216   0.618
 2932SOL     OW 9694   6.745   5.519   2.389
 2932SOL    HW1 9695   6.742   5.419   2.401
 2932SOL    HW2 9696   6.820   5.542   2.328
 2933SOL     OW 9697   0.216   0.026   1.665
 2933SOL    HW1 9698   0.283   6.998   1.724
 2933SOL    HW2 9699   0.171   0.099   1.716
 2934SOL     OW 9700   4.375   2.936   1.411
 2934SOL    HW1 9701   4.405   2.841   1.410
 2934SOL    HW2 9702   4.276   2.940   1.417
 2935SOL     OW 9703   1.072   2.412   6.435
 2935SOL    HW1 9704   1.112   2.502   6.452
 2935SOL    HW2 9705   1.092   2.352   6.512
 2936SOL     OW 9706   4.616   0.229   0.481
 2936SOL    HW1 9707   4.585   0.298   0.545
 2936SOL    HW2 9708   4.636   0.272   0.393
 2937SOL     OW 9709   4.596   4.745   1.344
 2937SOL    HW1 9710   4.555   4.692   1.271
 2937SOL    HW2 9711   4.580   4.700   1.432
 2938SOL     OW 9712   6.229   5.321   0.091
 2938SOL    HW1 9713   6.230   5.280   0.182
 2938SOL    HW2 9714   6.297   5.393   0.087
 2939SOL     OW 9715   0.447   6.773   1.568
 2939SOL    HW1 9716   0.364   6.780   1.512
 2939SOL    HW2 9717   0.461   6.677   1.594
 2940SOL     OW 9718   5.878   6.004   4.332
 2940SOL    HW1 9719   5.798   6.051   4.368
 2940SOL    HW2 9720   5.852   5.912   4.302
 2941SOL     OW 9721   2.324   2.732   3.048
 2941SOL    HW1 9722   2.372   2.700   3.130
 2941SOL    HW2 9723   2.385   2.726   2.969
 2942SOL     OW 9724   3.051   2.696   0.488
 2942SOL    HW1 9725   3.023   2.688   0.393
 2942SOL    HW2 9726   2.976   2.737   0.541
 2943SOL     OW 9727   6.041   4.785   3.899
 2943SOL    HW1 9728   6.003   4.853   3.962
 2943SOL    HW2 9729   6.058   4.699   3.949
 2944SOL     OW 9730   2.737   6.376   3.981
 2944SOL    HW1 9731   2.783   6.458   3.949
 2944SOL    HW2 9732   2.695   6.329   3.903
 2945SOL     OW 9733   5.003   3.706   1.609
 2945SOL    HW1 9734   4.945   3.674   1.684
 2945SOL    HW2 9735   5.085   3.749   1.647
 2946SOL     OW 9736   2.306   4.212   5.671
 2946SOL    HW1 9737   2.373   4.141   5.691
 2946SOL    HW2 9738   2.351   4.301   5.669
 2947SOL     OW 9739   0.119   5.809   0.173
 2947SOL    HW1 9740   0.137   5.815   0.272
 2947SOL    HW2 9741   0.100   5.900   0.138
 2948SOL     OW 9742   6.048   4.901   3.295
 2948SOL    HW1 9743   6.027   4.937   3.204
 2948SOL    HW2 9744   6.051   4.801   3.291
 2949SOL     OW 9745   0.909   6.366   0.130
 2949SOL    HW1 9746   1.008   6.378   0.134
 2949SOL    HW2 9747   0.881   6.351   0.035
 2950SOL     OW 9748   5.712   5.046   2.683
 2950SOL    HW1 9749   5.624   5.002   2.667
 2950SOL    HW2 9750   5.784   4.976   2.683
 2951SOL     OW 9751   5.813   0.953   1.323
 2951SOL    HW1 9752   5.777   1.030   1.271
 2951SOL    HW2 9753   5.885   0.907   1.270
 2952SOL     OW 9754   6.078   0.355   5.086
 2952SOL    HW1 9755   6.074   0.277   5.022
 2952SOL    HW2 9756   6.172   0.389   5.090
 2953SOL     OW 9757   6.742   4.715   3.142
 2953SOL    HW1 9758   6.651   4.755   3.141
 2953SOL    HW2 9759   6.808   4.781   3.105
 2954SOL     OW 9760   0.192   4.628   6.641
 2954SOL    HW1 9761   0.231   4.536   6.634
 2954SOL    HW2 9762   0.251   4.692   6.592
 2955SOL     OW 9763   1.022   4.079   0.056
 2955SOL    HW1 9764   1.003   4.052   6.979
 2955SOL    HW2 9765   0.938   4.074   0.110
 2956SOL     OW 9766   6.848   5.253   4.098
 2956SOL    HW1 9767   6.878   5.285   4.188
 2956SOL    HW2 9768   6.912   5.184   4.065
 2957SOL     OW 9769   4.292   4.825   1.229
 2957SOL    HW1 9770   4.310   4.852   1.134
 2957SOL    HW2 9771   4.223   4.886   1.268
 2958SOL     OW 9772   2.094   5.049   3.425
 2958SOL    HW1 9773   2.042   4.965   3.441
 2958SOL    HW2 9774   2.124   5.087   3.512
 2959SOL     OW 9775   5.366   2.681   2.909
 2959SOL    HW1 9776   5.366   2.662   2.811
 2959SOL    HW2 9777   5.458   2.705   2.939
 2960SOL     OW 9778   3.343   0.885   0.150
 2960SOL    HW1 9779   3.356   0.844   0.240
 2960SOL    HW2 9780   3.356   0.815   0.079
 2961SOL     OW 9781   6.088   4.844   2.832
 2961SOL    HW1 9782   5.995   4.811   2.823
 2961SOL    HW2 9783   6.099   4.927   2.777
 2962SOL     OW 9784   4.993   6.761   3.563
 2962SOL    HW1 9785   5.084   6.734   3.532
 2962SOL    HW2 9786   4.968   6.707   3.643
 2963SOL     OW 9787   1.623   1.144   6.522
 2963SOL    HW1 9788   1.526   1.163   6.538
 2963SOL    HW2 9789   1.633   1.084   6.443
 2964SOL     OW 9790   0.449   2.981   6.573
 2964SOL    HW1 9791   0.480   2.932   6.654
 2964SOL    HW2 9792   0.529   3.007   6.518
 2965SOL     OW 9793   1.669   0.488   4.557
 2965SOL    HW1 9794   1.647   0.506   4.461
 2965SOL    HW2 9795   1.584   0.472   4.608
 2966SOL     OW 9796   4.805   5.805   4.077
 2966SOL    HW1 9797   4.740   5.860   4.128
 2966SOL    HW2 9798   4.898   5.837   4.095
 2967SOL     OW 9799   6.953   1.454   6.085
 2967SOL    HW1 9800   6.918   1.492   6.171
 2967SOL    HW2 9801   0.035   1.445   6.090
 2968SOL     OW 9802   2.258   3.064   0.993
 2968SOL    HW1 9803   2.164   3.030   0.996
 2968SOL    HW2 9804   2.294   3.073   1.086
 2969SOL     OW 9805   4.884   4.015   4.728
 2969SOL    HW1 9806   4.833   4.064   4.657
 2969SOL    HW2 9807   4.982   4.018   4.708
 2970SOL     OW 9808   2.987   2.728   5.364
 2970SOL    HW1 9809   2.941   2.810   5.330
 2970SOL    HW2 9810   3.076   2.718   5.320
 2971SOL     OW 9811   5.735   3.842   0.323
 2971SOL    HW1 9812   5.733   3.765   0.387
 2971SOL    HW2 9813   5.825   3.849   0.282
 2972SOL     OW 9814   5.644   4.997   0.180
 2972SOL    HW1 9815   5.578   4.953   0.242
 2972SOL    HW2 9816   5.691   4.928   0.126
 2973SOL     OW 9817   4.623   6.500   2.770
 2973SOL    HW1 9818   4.588   6.406   2.764
 2973SOL    HW2 9819   4.601   6.548   2.685
 2974SOL     OW 9820   6.132   4.187   3.633
 2974SOL    HW1 9821   6.092   4.262   3.684
 2974SOL    HW2 9822   6.060   4.135   3.587
 2975SOL     OW 9823   4.850   4.602   3.691
 2975SOL    HW1 9824   4.837   4.512   3.650
 2975SOL    HW2 9825   4.804   4.672   3.636
 2976SOL     OW 9826   4.776   1.805   2.904
 2976SOL    HW1 9827   4.769   1.740   2.828
 2976SOL    HW2 9828   4.686   1.843   2.924
 2977SOL     OW 9829   1.050   0.281   2.188
 2977SOL    HW1 9830   1.121   0.252   2.252
 2977SOL    HW2 9831   1.040   0.380   2.191
 2978SOL     OW 9832   4.235   4.126   6.871
 2978SOL    HW1 9833   4.197   4.055   6.931
 2978SOL    HW2 9834   4.332   4.107   6.855
 2979SOL     OW 9835   3.471   1.332   4.425
 2979SOL    HW1 9836   3.379   1.326   4.465
 2979SOL    HW2 9837   3.539   1.317   4.496
 2980SOL     OW 9838   2.561   4.785   6.165
 2980SOL    HW1 9839   2.497   4.861   6.173
 2980SOL    HW2 9840   2.520   4.713   6.109
 2981SOL     OW 9841   2.293   1.919   6.986
 2981SOL    HW1 9842   2.313   1.894   6.892
 2981SOL    HW2 9843   2.369   1.891   0.028
 2982SOL     OW 9844   2.153   6.470   2.416
 2982SOL    HW1 9845   2.213   6.425   2.349
 2982SOL    HW2 9846   2.111   6.551   2.374
 2983SOL     OW 9847   0.292   2.531   0.300
 2983SOL    HW1 9848   0.331   2.525   0.208
 2983SOL    HW2 9849   0.204   2.485   0.302
 2984SOL     OW 9850   6.684   4.603   6.762
 2984SOL    HW1 9851   6.724   4.642   6.679
 2984SOL    HW2 9852   6.700   4.665   6.839
 2985SOL     OW 9853   0.930   0.557   4.593
 2985SOL    HW1 9854   0.932   0.552   4.493
 2985SOL    HW2 9855   0.886   0.475   4.630
 2986SOL     OW 9856   3.139   3.894   2.459
 2986SOL    HW1 9857   3.108   3.868   2.550
 2986SOL    HW2 9858   3.204   3.969   2.466
 2987SOL     OW 9859   1.593   2.124   4.275
 2987SOL    HW1 9860   1.656   2.114   4.198
 2987SOL    HW2 9861   1.576   2.221   4.292
 2988SOL     OW 9862   1.346   0.021   1.716
 2988SOL    HW1 9863   1.358   0.002   1.619
 2988SOL    HW2 9864   1.424   7.002   1.767
 2989SOL     OW 9865   5.537   3.768   5.474
 2989SOL    HW1 9866   5.628   3.791   5.439
 2989SOL    HW2 9867   5.471   3.773   5.399
 2990SOL     OW 9868   5.394   2.424   4.428
 2990SOL    HW1 9869   5.407   2.371   4.511
 2990SOL    HW2 9870   5.301   2.413   4.395
 2991SOL     OW 9871   5.997   3.613   0.322
 2991SOL    HW1 9872   6.029   3.521   0.299
 2991SOL    HW2 9873   5.957   3.656   0.241
 2992SOL     OW 9874   0.808   4.630   4.513
 2992SOL    HW1 9875   0.821   4.541   4.557
 2992SOL    HW2 9876   0.848   4.702   4.569
 2993SOL     OW 9877   7.014   5.220   0.425
 2993SOL    HW1 9878   0.095   5.211   0.440
 2993SOL    HW2 9879   6.989   5.317   0.427
 2994SOL     OW 9880   4.467   6.436   7.009
 2994SOL    HW1 9881   4.516   6.355   0.024
 2994SOL    HW2 9882   4.460   6.503   0.065
 2995SOL     OW 9883   4.785   0.367   0.283
 2995SOL    HW1 9884   4.706   0.417   0.247
 2995SOL    HW2 9885   4.801   0.285   0.227
 2996SOL     OW 9886   1.499   1.915   4.753
 2996SOL    HW1 9887   1.562   1.931   4.677
 2996SOL    HW2 9888   1.458   1.824   4.745
 2997SOL     OW 9889   4.217   0.636   3.176
 2997SOL    HW1 9890   4.211   0.695   3.257
 2997SOL    HW2 9891   4.312   0.623   3.151
 2998SOL     OW 9892   2.972   0.435   4.149
 2998SOL    HW1 9893   3.002   0.347   4.111
 2998SOL    HW2 9894   3.034   0.507   4.118
 2999SOL     OW 9895   2.632   4.817   6.548
 2999SOL    HW1 9896   2.654   4.904   6.593
 2999SOL    HW2 9897   2.685   4.810   6.463
 3000SOL     OW 9898   2.894   3.748   5.873
 3000SOL    HW1 9899   2.937   3.666   5.837
 3000SOL    HW2 9900   2.822   3.723   5.937
 3001SOL     OW 9901   6.157   2.139   0.127
 3001SOL    HW1 9902   6.076   2.185   0.091
 3001SOL    HW2 9903   6.154   2.042   0.102
 3002SOL     OW 9904   3.119   1.512   1.239
 3002SOL    HW1 9905   3.085   1.419   1.256
 3002SOL    HW2 9906   3.129   1.526   1.141
 3003SOL     OW 9907   0.887   6.261   1.068
 3003SOL    HW1 9908   0.834   6.271   0.984
 3003SOL    HW2 9909   0.859   6.331   1.134
 3004SOL     OW 9910   1.822   4.494   4.287
 3004SOL    HW1 9911   1.851   4.547   4.207
 3004SOL    HW2 9912   1.733   4.452   4.268
 3005SOL     OW 9913   0.946   3.340   5.539
 3005SOL    HW1 9914   0.959   3.253   5.586
 3005SOL    HW2 9915   0.955   3.327   5.440
 3006SOL     OW 9916   5.765   1.321   5.795
 3006SOL    HW1 9917   5.742   1.249   5.730
 3006SOL    HW2 9918   5.688   1.385   5.803
 3007SOL     OW 9919   4.751   5.603   0.096
 3007SOL    HW1 9920   4.672   5.563   0.052
 3007SOL    HW2 9921   4.833   5.550   0.073
 3008SOL     OW 9922   3.725   2.430   6.249
 3008SOL    HW1 9923   3.798   2.369   6.279
 3008SOL    HW2 9924   3.715   2.423   6.149
 3009SOL     OW 9925   6.731   2.654   3.004
 3009SOL    HW1 9926   6.745   2.676   2.907
 3009SOL    HW2 9927   6.781   2.570   3.027
 3010SOL     OW 9928   3.606   5.710   5.356
 3010SOL    HW1 9929   3.613   5.770   5.276
 3010SOL    HW2 9930   3.617   5.764   5.440
 3011SOL     OW 9931   6.434   0.361   1.893
 3011SOL    HW1 9932   6.430   0.300   1.813
 3011SOL    HW2 9933   6.490   0.320   1.964
 3012SOL     OW 9934   2.662   3.596   6.831
 3012SOL    HW1 9935   2.746   3.606   6.777
 3012SOL    HW2 9936   2.585   3.583   6.769
 3013SOL     OW 9937   6.021   5.202   3.269
 3013SOL    HW1 9938   5.956   5.150   3.324
 3013SOL    HW2 9939   6.045   5.150   3.187
 3014SOL     OW 9940   5.036   1.272   6.342
 3014SOL    HW1 9941   5.002   1.184   6.309
 3014SOL    HW2 9942   4.961   1.323   6.383
 3015SOL     OW 9943   2.562   1.038   0.770
 3015SOL    HW1 9944   2.637   0.989   0.725
 3015SOL    HW2 9945   2.475   0.995   0.747
 3016SOL     OW 9946   3.168   0.105   4.248
 3016SOL    HW1 9947   3.262   0.104   4.214
 3016SOL    HW2 9948   3.168   0.092   4.347
 3017SOL     OW 9949   6.031   4.657   2.165
 3017SOL    HW1 9950   6.119   4.665   2.210
 3017SOL    HW2 9951   5.981   4.743   2.174
 3018SOL     OW 9952   3.992   6.984   6.600
 3018SOL    HW1 9953   3.927   6.995   6.675
 3018SOL    HW2 9954   4.037   0.055   6.582
 3019SOL     OW 9955   0.967   7.005   0.345
 3019SOL    HW1 9956   0.976   0.087   0.358
 3019SOL    HW2 9957   1.016   6.979   0.261
 3020SOL     OW 9958   4.842   3.405   0.050
 3020SOL    HW1 9959   4.853   3.357   6.980
 3020SOL    HW2 9960   4.838   3.339   0.125
 3021SOL     OW 9961   2.559   6.762   4.369
 3021SOL    HW1 9962   2.580   6.780   4.273
 3021SOL    HW2 9963   2.500   6.682   4.376
 3022SOL     OW 9964   3.841   5.948   4.094
 3022SOL    HW1 9965   3.775   5.992   4.032
 3022SOL    HW2 9966   3.862   6.009   4.170
 3023SOL     OW 9967   3.931   6.879   2.738
 3023SOL    HW1 9968   3.918   6.963   2.791
 3023SOL    HW2 9969   3.983   6.813   2.792
 3024SOL     OW 9970   6.003   5.781   5.294
 3024SOL    HW1 9971   6.029   5.733   5.378
 3024SOL    HW2 9972   5.904   5.776   5.282
 3025SOL     OW 9973   4.172   5.999   0.949
 3025SOL    HW1 9974   4.141   6.064   1.018
 3025SOL    HW2 9975   4.162   6.041   0.858
 3026SOL     OW 9976   6.982   0.959   0.019
 3026SOL    HW1 9977   0.021   0.988   0.096
 3026SOL    HW2 9978   6.980   1.032   6.967
 3027SOL     OW 9979   3.979   1.203   1.921
 3027SOL    HW1 9980   3.986   1.113   1.877
 3027SOL    HW2 9981   4.057   1.216   1.982
 3028SOL     OW 9982   1.781   3.874   6.106
 3028SOL    HW1 9983   1.714   3.948   6.107
 3028SOL    HW2 9984   1.865   3.904   6.060
 3029SOL     OW 9985   0.502   2.353   3.736
 3029SOL    HW1 9986   0.596   2.345   3.770
 3029SOL    HW2 9987   0.454   2.266   3.750
 3030SOL     OW 9988   1.572   4.047   0.933
 3030SOL    HW1 9989   1.636   4.123   0.947
 3030SOL    HW2 9990   1.479   4.083   0.922
 3031SOL     OW 9991   1.363   5.459   1.797
 3031SOL    HW1 9992   1.409   5.391   1.740
 3031SOL    HW2 9993   1.293   5.507   1.744
 3032SOL     OW 9994   1.799   5.766   3.051
 3032SOL    HW1 9995   1.785   5.810   3.140
 3032SOL    HW2 9996   1.879   5.807   3.006
 3033SOL     OW 9997   6.639   2.345   3.429
 3033SOL    HW1 9998   6.624   2.442   3.411
 3033SOL    HW2 9999   6.595   2.320   3.515
 3034SOL     OW10000   1.166   5.757   3.625
 3034SOL    HW110001   1.156   5.718   3.717
 3034SOL    HW210002   1.126   5.695   3.558
 3035SOL     OW10003   1.335   3.269   6.047
 3035SOL    HW110004   1.361   3.303   6.138
 3035SOL    HW210005   1.344   3.170   6.045
 3036SOL     OW10006   1.417   1.927   5.463
 3036SOL    HW110007   1.512   1.900   5.448
 3036SOL    HW210008   1.405   1.954   5.559
 3037SOL     OW10009   0.113   5.463   5.304
 3037SOL    HW110010   0.114   5.374   5.258
 3037SOL    HW210011   0.021   5.503   5.297
 3038SOL     OW10012   5.017   5.393   5.881
 3038SOL    HW110013   4.944   5.449   5.841
 3038SOL    HW210014   5.081   5.452   5.931
 3039SOL     OW10015   6.854   3.230   6.794
 3039SOL    HW110016   6.866   3.131   6.784
 3039SOL    HW210017   6.899   3.277   6.718
 3040SOL     OW10018   3.438   4.217   5.919
 3040SOL    HW110019   3.501   4.192   5.845
 3040SOL    HW210020   3.423   4.139   5.979
 3041SOL     OW10021   0.672   3.881   5.533
 3041SOL    HW110022   0.763   3.922   5.545
 3041SOL    HW210023   0.621   3.934   5.465
 3042SOL     OW10024   6.636   5.657   2.155
 3042SOL    HW110025   6.716   5.637   2.099
 3042SOL    HW210026   6.647   5.616   2.245
 3043SOL     OW10027   3.039   3.814   0.267
 3043SOL    HW110028   2.974   3.881   0.230
 3043SOL    HW210029   3.101   3.860   0.331
 3044SOL     OW10030   3.259   4.358   5.702
 3044SOL    HW110031   3.299   4.274   5.740
 3044SOL    HW210032   3.205   4.336   5.621
 3045SOL     OW10033   4.236   0.266   2.956
 3045SOL    HW110034   4.275   0.313   2.877
 3045SOL    HW210035   4.310   0.238   3.018
 3046SOL     OW10036   4.312   5.944   6.777
 3046SOL    HW110037   4.249   6.021   6.789
 3046SOL    HW210038   4.306   5.883   6.857
 3047SOL     OW10039   6.416   6.678   0.604
 3047SOL    HW110040   6.444   6.761   0.557
 3047SOL    HW210041   6.422   6.691   0.703
 3048SOL     OW10042   4.215   2.755   0.943
 3048SOL    HW110043   4.155   2.699   0.886
 3048SOL    HW210044   4.300   2.773   0.894
 3049SOL     OW10045   1.206   0.666   4.238
 3049SOL    HW110046   1.273   0.725   4.284
 3049SOL    HW210047   1.254   0.597   4.184
 3050SOL     OW10048   2.149   2.637   1.495
 3050SOL    HW110049   2.139   2.551   1.545
 3050SOL    HW210050   2.078   2.643   1.425
 3051SOL     OW10051   2.959   0.021   6.362
 3051SOL    HW110052   3.033   0.079   6.328
 3051SOL    HW210053   2.894   0.076   6.414
 3052SOL     OW10054   5.545   6.269   2.569
 3052SOL    HW110055   5.619   6.241   2.631
 3052SOL    HW210056   5.577   6.261   2.475
 3053SOL     OW10057   1.144   4.183   1.052
 3053SOL    HW110058   1.242   4.198   1.040
 3053SOL    HW210059   1.099   4.184   0.963
 3054SOL     OW10060   5.536   1.001   3.227
 3054SOL    HW110061   5.579   0.946   3.156
 3054SOL    HW210062   5.451   1.040   3.193
 3055SOL     OW10063   6.100   6.959   6.137
 3055SOL    HW110064   6.026   6.895   6.162
 3055SOL    HW210065   6.180   6.907   6.107
 3056SOL     OW10066   5.884   1.452   6.069
 3056SOL    HW110067   5.889   1.380   6.000
 3056SOL    HW210068   5.958   1.440   6.135
 3057SOL     OW10069   5.748   6.355   3.748
 3057SOL    HW110070   5.730   6.414   3.827
 3057SOL    HW210071   5.829   6.388   3.700
 3058SOL     OW10072   6.599   3.962   1.391
 3058SOL    HW110073   6.639   3.871   1.398
 3058SOL    HW210074   6.639   4.010   1.313
 3059SOL     OW10075   2.157   2.397   4.308
 3059SOL    HW110076   2.122   2.382   4.400
 3059SOL    HW210077   2.158   2.310   4.259
 3060SOL     OW10078   2.744   5.209   6.418
 3060SOL    HW110079   2.781   5.155   6.494
 3060SOL    HW210080   2.689   5.284   6.454
 3061SOL     OW10081   5.845   5.019   5.978
 3061SOL    HW110082   5.904   4.952   5.933
 3061SOL    HW210083   5.862   5.110   5.939
 3062SOL     OW10084   3.900   5.208   0.990
 3062SOL    HW110085   3.969   5.138   1.004
 3062SOL    HW210086   3.810   5.173   1.019
 3063SOL     OW10087   0.983   4.759   0.310
 3063SOL    HW110088   0.982   4.823   0.233
 3063SOL    HW210089   1.017   4.805   0.391
 3064SOL     OW10090   4.631   2.945   0.252
 3064SOL    HW110091   4.599   3.036   0.278
 3064SOL    HW210092   4.614   2.882   0.328
 3065SOL     OW10093   0.878   1.231   6.502
 3065SOL    HW110094   0.824   1.170   6.560
 3065SOL    HW210095   0.920   1.179   6.428
 3066SOL     OW10096   4.864   5.051   6.026
 3066SOL    HW110097   4.866   4.956   6.059
 3066SOL    HW210098   4.771   5.086   6.033
 3067SOL     OW10099   2.026   1.981   0.371
 3067SOL    HW110100   1.931   1.950   0.365
 3067SOL    HW210101   2.077   1.921   0.432
 3068SOL     OW10102   0.653   1.231   1.388
 3068SOL    HW110103   0.645   1.138   1.355
 3068SOL    HW210104   0.585   1.289   1.343
 3069SOL     OW10105   6.204   6.774   3.511
 3069SOL    HW110106   6.286   6.829   3.494
 3069SOL    HW210107   6.176   6.729   3.426
 3070SOL     OW10108   3.017   1.417   6.774
 3070SOL    HW110109   2.925   1.453   6.755
 3070SOL    HW210110   3.016   1.370   6.862
 3071SOL     OW10111   6.911   4.365   3.980
 3071SOL    HW110112   6.909   4.437   4.050
 3071SOL    HW210113   6.933   4.277   4.023
 3072SOL     OW10114   1.848   5.979   6.972
 3072SOL    HW110115   1.879   6.070   6.943
 3072SOL    HW210116   1.818   5.982   0.050
 3073SOL     OW10117   0.658   4.636   0.973
 3073SOL    HW110118   0.700   4.652   1.062
 3073SOL    HW210119   0.711   4.569   0.922
 3074SOL     OW10120   1.446   4.087   1.662
 3074SOL    HW110121   1.424   4.074   1.759
 3074SOL    HW210122   1.409   4.174   1.631
 3075SOL     OW10123   2.230   4.887   3.919
 3075SOL    HW110124   2.148   4.888   3.862
 3075SOL    HW210125   2.228   4.965   3.981
 3076SOL     OW10126   0.103   1.030   4.967
 3076SOL    HW110127   0.081   1.045   4.870
 3076SOL    HW210128   0.147   1.112   5.004
 3077SOL     OW10129   6.286   3.793   2.052
 3077SOL    HW110130   6.308   3.855   1.977
 3077SOL    HW210131   6.298   3.841   2.139
 3078SOL     OW10132   6.554   2.967   2.249
 3078SOL    HW110133   6.530   3.026   2.171
 3078SOL    HW210134   6.517   3.006   2.333
 3079SOL     OW10135   2.620   2.324   4.062
 3079SOL    HW110136   2.621   2.407   4.006
 3079SOL    HW210137   2.676   2.254   4.017
 3080SOL     OW10138   4.509   4.034   1.669
 3080SOL    HW110139   4.594   3.999   1.708
 3080SOL    HW210140   4.474   4.107   1.727
 3081SOL     OW10141   0.747   4.449   6.957
 3081SOL    HW110142   0.788   4.375   6.903
 3081SOL    HW210143   0.654   4.423   6.983
 3082SOL     OW10144   2.980   5.502   4.645
 3082SOL    HW110145   3.006   5.456   4.730
 3082SOL    HW210146   3.059   5.554   4.611
 3083SOL     OW10147   2.941   5.415   2.482
 3083SOL    HW110148   2.963   5.512   2.494
 3083SOL    HW210149   3.023   5.360   2.496
 3084SOL     OW10150   0.639   3.829   2.506
 3084SOL    HW110151   0.646   3.732   2.484
 3084SOL    HW210152   0.622   3.881   2.422
 3085SOL     OW10153   5.156   4.546   0.751
 3085SOL    HW110154   5.118   4.639   0.757
 3085SOL    HW210155   5.240   4.548   0.698
 3086SOL     OW10156   4.925   1.547   0.302
 3086SOL    HW110157   4.880   1.589   0.381
 3086SOL    HW210158   4.919   1.608   0.224
 3087SOL     OW10159   2.606   6.329   2.012
 3087SOL    HW110160   2.674   6.285   1.954
 3087SOL    HW210161   2.549   6.389   1.956
 3088SOL     OW10162   0.929   2.950   5.924
 3088SOL    HW110163   0.998   3.022   5.930
 3088SOL    HW210164   0.969   2.869   5.882
 3089SOL     OW10165   4.876   1.021   5.247
 3089SOL    HW110166   4.947   0.974   5.196
 3089SOL    HW210167   4.852   1.106   5.201
 3090SOL     OW10168   1.990   1.001   2.271
 3090SOL    HW110169   2.015   1.070   2.203
 3090SOL    HW210170   2.014   0.910   2.237
 3091SOL     OW10171   1.298   1.412   0.611
 3091SOL    HW110172   1.353   1.465   0.546
 3091SOL    HW210173   1.278   1.322   0.572
 3092SOL     OW10174   5.150   6.844   1.997
 3092SOL    HW110175   5.176   6.750   2.019
 3092SOL    HW210176   5.159   6.859   1.898
 3093SOL     OW10177   5.633   6.224   5.763
 3093SOL    HW110178   5.536   6.203   5.775
 3093SOL    HW210179   5.679   6.145   5.722
 3094SOL     OW10180   2.866   0.645   4.272
 3094SOL    HW110181   2.877   0.573   4.203
 3094SOL    HW210182   2.789   0.703   4.246
 3095SOL     OW10183   2.549   2.890   5.369
 3095SOL    HW110184   2.540   2.932   5.460
 3095SOL    HW210185   2.496   2.943   5.302
 3096SOL     OW10186   0.703   3.598   4.761
 3096SOL    HW110187   0.619   3.559   4.798
 3096SOL    HW210188   0.690   3.697   4.747
 3097SOL     OW10189   5.889   2.973   0.064
 3097SOL    HW110190   5.978   2.945   0.028
 3097SOL    HW210191   5.817   2.941   0.004
 3098SOL     OW10192   1.766   2.736   2.180
 3098SOL    HW110193   1.685   2.788   2.208
 3098SOL    HW210194   1.834   2.741   2.253
 3099SOL     OW10195   1.066   5.978   3.760
 3099SOL    HW110196   1.105   5.912   3.696
 3099SOL    HW210197   0.967   5.981   3.748
 3100SOL     OW10198   0.027   6.348   2.853
 3100SOL    HW110199   0.101   6.337   2.920
 3100SOL    HW210200   7.009   6.442   2.857
 3101SOL     OW10201   4.856   0.049   5.646
 3101SOL    HW110202   4.774   0.044   5.588
 3101SOL    HW210203   4.921   6.995   5.618
 3102SOL     OW10204   6.743   5.735   0.106
 3102SOL    HW110205   6.726   5.830   0.080
 3102SOL    HW210206   6.677   5.707   0.176
 3103SOL     OW10207   4.565   0.872   1.136
 3103SOL    HW110208   4.632   0.869   1.210
 3103SOL    HW210209   4.612   0.866   1.048
 3104SOL     OW10210   4.443   0.001   6.567
 3104SOL    HW110211   4.435   6.924   6.535
 3104SOL    HW210212   4.407   0.063   6.497
 3105SOL     OW10213   5.122   3.272   0.774
 3105SOL    HW110214   5.049   3.235   0.831
 3105SOL    HW210215   5.085   3.302   0.686
 3106SOL     OW10216   5.207   0.623   5.714
 3106SOL    HW110217   5.235   0.618   5.809
 3106SOL    HW210218   5.115   0.664   5.708
 3107SOL     OW10219   4.250   1.773   4.607
 3107SOL    HW110220   4.277   1.843   4.673
 3107SOL    HW210221   4.322   1.762   4.538
 3108SOL     OW10222   2.277   4.759   4.719
 3108SOL    HW110223   2.337   4.690   4.680
 3108SOL    HW210224   2.199   4.715   4.764
 3109SOL     OW10225   6.370   0.273   4.853
 3109SOL    HW110226   6.422   0.334   4.794
 3109SOL    HW210227   6.414   0.267   4.943
 3110SOL     OW10228   2.367   4.495   3.258
 3110SOL    HW110229   2.425   4.495   3.339
 3110SOL    HW210230   2.274   4.465   3.283
 3111SOL     OW10231   6.313   4.906   3.768
 3111SOL    HW110232   6.220   4.893   3.732
 3111SOL    HW210233   6.312   4.894   3.867
 3112SOL     OW10234   3.412   3.612   6.639
 3112SOL    HW110235   3.491   3.553   6.656
 3112SOL    HW210236   3.424   3.659   6.551
 3113SOL     OW10237   3.425   5.562   2.371
 3113SOL    HW110238   3.425   5.662   2.374
 3113SOL    HW210239   3.501   5.530   2.315
 3114SOL     OW10240   3.978   1.117   0.314
 3114SOL    HW110241   3.910   1.161   0.372
 3114SOL    HW210242   4.013   1.035   0.359
 3115SOL     OW10243   4.064   4.465   5.315
 3115SOL    HW110244   4.038   4.559   5.335
 3115SOL    HW210245   4.143   4.465   5.253
 3116SOL     OW10246   1.121   2.088   0.761
 3116SOL    HW110247   1.032   2.105   0.717
 3116SOL    HW210248   1.166   2.175   0.779
 3117SOL     OW10249   5.026   2.385   5.529
 3117SOL    HW110250   5.094   2.422   5.592
 3117SOL    HW210251   4.983   2.459   5.478
 3118SOL     OW10252   1.301   0.298   2.737
 3118SOL    HW110253   1.315   0.316   2.639
 3118SOL    HW210254   1.289   0.384   2.785
 3119SOL     OW10255   3.078   2.496   5.453
 3119SOL    HW110256   3.125   2.460   5.372
 3119SOL    HW210257   3.034   2.583   5.431
 3120SOL     OW10258   3.429   0.370   5.285
 3120SOL    HW110259   3.426   0.279   5.243
 3120SOL    HW210260   3.339   0.413   5.277
 3121SOL     OW10261   5.034   1.824   4.309
 3121SOL    HW110262   5.028   1.725   4.325
 3121SOL    HW210263   5.088   1.841   4.227
 3122SOL     OW10264   4.540   4.596   4.774
 3122SOL    HW110265   4.558   4.694   4.781
 3122SOL    HW210266   4.463   4.572   4.833
 3123SOL     OW10267   1.957   0.415   3.401
 3123SOL    HW110268   2.014   0.480   3.451
 3123SOL    HW210269   1.937   0.336   3.459
 3124SOL     OW10270   5.361   6.525   4.327
 3124SOL    HW110271   5.293   6.590   4.293
 3124SOL    HW210272   5.429   6.573   4.382
 3125SOL     OW10273   0.660   2.872   5.796
 3125SOL    HW110274   0.726   2.895   5.868
 3125SOL    HW210275   0.683   2.784   5.756
 3126SOL     OW10276   5.671   4.857   6.091
 3126SOL    HW110277   5.702   4.914   6.015
 3126SOL    HW210278   5.603   4.907   6.145
 3127SOL     OW10279   1.336   2.507   5.500
 3127SOL    HW110280   1.419   2.558   5.480
 3127SOL    HW210281   1.277   2.507   5.419
 3128SOL     OW10282   3.700   0.729   0.666
 3128SOL    HW110283   3.770   0.672   0.708
 3128SOL    HW210284   3.744   0.808   0.622
 3129SOL     OW10285   5.407   3.249   0.850
 3129SOL    HW110286   5.319   3.272   0.809
 3129SOL    HW210287   5.423   3.308   0.929
 3130SOL     OW10288   1.599   4.319   1.371
 3130SOL    HW110289   1.679   4.380   1.380
 3130SOL    HW210290   1.628   4.224   1.378
 3131SOL     OW10291   0.037   3.487   2.349
 3131SOL    HW110292   0.128   3.445   2.349
 3131SOL    HW210293   0.045   3.583   2.376
 3132SOL     OW10294   4.355   4.798   6.874
 3132SOL    HW110295   4.288   4.754   6.814
 3132SOL    HW210296   4.428   4.837   6.819
 3133SOL     OW10297   3.887   1.468   3.472
 3133SOL    HW110298   3.978   1.505   3.490
 3133SOL    HW210299   3.884   1.372   3.501
 3134SOL     OW10300   3.613   4.990   1.768
 3134SOL    HW110301   3.703   5.027   1.792
 3134SOL    HW210302   3.577   4.938   1.846
 3135SOL     OW10303   5.311   6.520   6.451
 3135SOL    HW110304   5.364   6.437   6.436
 3135SOL    HW210305   5.324   6.553   6.544
 3136SOL     OW10306   5.600   0.479   1.903
 3136SOL    HW110307   5.560   0.547   1.965
 3136SOL    HW210308   5.619   0.395   1.953
 3137SOL     OW10309   6.840   6.926   2.105
 3137SOL    HW110310   6.850   6.995   2.033
 3137SOL    HW210311   6.873   6.963   2.191
 3138SOL     OW10312   5.758   5.272   3.582
 3138SOL    HW110313   5.659   5.272   3.571
 3138SOL    HW210314   5.799   5.205   3.520
 3139SOL     OW10315   3.567   4.907   1.333
 3139SOL    HW110316   3.488   4.885   1.391
 3139SOL    HW210317   3.566   4.849   1.252
 3140SOL     OW10318   0.151   6.062   5.300
 3140SOL    HW110319   0.130   6.054   5.398
 3140SOL    HW210320   0.234   6.117   5.289
 3141SOL     OW10321   6.862   1.750   0.314
 3141SOL    HW110322   6.896   1.786   0.401
 3141SOL    HW210323   6.876   1.651   0.312
 3142SOL     OW10324   3.945   1.240   2.767
 3142SOL    HW110325   3.900   1.265   2.852
 3142SOL    HW210326   4.042   1.222   2.784
 3143SOL     OW10327   6.416   1.778   0.122
 3143SOL    HW110328   6.465   1.860   0.091
 3143SOL    HW210329   6.470   1.730   0.190
 3144SOL     OW10330   4.090   3.665   6.956
 3144SOL    HW110331   4.003   3.659   7.005
 3144SOL    HW210332   4.164   3.679   0.005
 3145SOL     OW10333   1.791   6.719   2.207
 3145SOL    HW110334   1.761   6.762   2.292
 3145SOL    HW210335   1.891   6.710   2.208
 3146SOL     OW10336   1.051   1.191   4.964
 3146SOL    HW110337   1.088   1.158   5.051
 3146SOL    HW210338   1.121   1.243   4.915
 3147SOL     OW10339   3.281   5.275   6.582
 3147SOL    HW110340   3.347   5.205   6.610
 3147SOL    HW210341   3.195   5.261   6.632
 3148SOL     OW10342   0.271   0.377   3.756
 3148SOL    HW110343   0.284   0.390   3.658
 3148SOL    HW210344   0.187   0.423   3.785
 3149SOL     OW10345   3.164   1.261   6.296
 3149SOL    HW110346   3.141   1.301   6.385
 3149SOL    HW210347   3.088   1.274   6.232
 3150SOL     OW10348   6.268   5.509   5.819
 3150SOL    HW110349   6.359   5.467   5.815
 3150SOL    HW210350   6.200   5.438   5.839
 3151SOL     OW10351   0.059   2.094   6.081
 3151SOL    HW110352   0.046   1.999   6.109
 3151SOL    HW210353   0.087   2.149   6.160
 3152SOL     OW10354   0.948   4.329   6.728
 3152SOL    HW110355   1.047   4.337   6.729
 3152SOL    HW210356   0.922   4.236   6.755
 3153SOL     OW10357   6.138   4.932   0.516
 3153SOL    HW110358   6.125   4.969   0.424
 3153SOL    HW210359   6.077   4.979   0.579
 3154SOL     OW10360   5.901   1.021   0.807
 3154SOL    HW110361   5.917   0.924   0.789
 3154SOL    HW210362   5.912   1.039   0.905
 3155SOL     OW10363   6.556   4.475   0.523
 3155SOL    HW110364   6.528   4.459   0.618
 3155SOL    HW210365   6.651   4.506   0.522
 3156SOL     OW10366   3.584   4.005   2.081
 3156SOL    HW110367   3.631   3.963   2.159
 3156SOL    HW210368   3.542   3.934   2.025
 3157SOL     OW10369   1.539   1.985   5.022
 3157SOL    HW110370   1.486   2.068   5.036
 3157SOL    HW210371   1.513   1.942   4.936
 3158SOL     OW10372   2.606   1.812   5.395
 3158SOL    HW110373   2.591   1.887   5.331
 3158SOL    HW210374   2.685   1.832   5.452
 3159SOL     OW10375   5.365   0.518   0.022
 3159SOL    HW110376   5.418   0.524   6.954
 3159SOL    HW210377   5.370   0.604   0.071
 3160SOL     OW10378   2.138   6.799   5.126
 3160SOL    HW110379   2.106   6.705   5.131
 3160SOL    HW210380   2.230   6.801   5.087
 3161SOL     OW10381   1.876   2.786   2.909
 3161SOL    HW110382   1.938   2.811   2.983
 3161SOL    HW210383   1.878   2.687   2.896
 3162SOL     OW10384   2.269   5.713   0.327
 3162SOL    HW110385   2.296   5.617   0.317
 3162SOL    HW210386   2.282   5.742   0.422
 3163SOL     OW10387   3.709   3.341   0.465
 3163SOL    HW110388   3.721   3.429   0.511
 3163SOL    HW210389   3.669   3.275   0.528
 3164SOL     OW10390   3.529   5.758   2.058
 3164SOL    HW110391   3.623   5.791   2.051
 3164SOL    HW210392   3.529   5.662   2.085
 3165SOL     OW10393   1.201   5.376   1.253
 3165SOL    HW110394   1.255   5.338   1.178
 3165SOL    HW210395   1.106   5.386   1.223
 3166SOL     OW10396   4.595   1.336   4.118
 3166SOL    HW110397   4.574   1.239   4.122
 3166SOL    HW210398   4.524   1.384   4.066
 3167SOL     OW10399   5.436   4.491   0.911
 3167SOL    HW110400   5.339   4.474   0.925
 3167SOL    HW210401   5.457   4.586   0.933
 3168SOL     OW10402   6.163   2.431   1.124
 3168SOL    HW110403   6.096   2.502   1.104
 3168SOL    HW210404   6.117   2.351   1.160
 3169SOL     OW10405   1.990   4.404   3.107
 3169SOL    HW110406   2.048   4.451   3.041
 3169SOL    HW210407   1.902   4.452   3.115
 3170SOL     OW10408   4.165   5.963   2.426
 3170SOL    HW110409   4.166   6.016   2.511
 3170SOL    HW210410   4.110   6.010   2.358
 3171SOL     OW10411   5.663   2.249   1.817
 3171SOL    HW110412   5.581   2.229   1.872
 3171SOL    HW210413   5.723   2.170   1.816
 3172SOL     OW10414   0.284   5.617   0.041
 3172SOL    HW110415   0.378   5.634   0.011
 3172SOL    HW210416   0.232   5.703   0.039
 3173SOL     OW10417   2.893   2.449   6.754
 3173SOL    HW110418   2.852   2.420   6.667
 3173SOL    HW210419   2.989   2.471   6.739
 3174SOL     OW10420   2.534   2.774   6.280
 3174SOL    HW110421   2.444   2.765   6.322
 3174SOL    HW210422   2.604   2.759   6.349
 3175SOL     OW10423   5.604   0.896   2.094
 3175SOL    HW110424   5.613   0.879   1.996
 3175SOL    HW210425   5.567   0.814   2.138
 3176SOL     OW10426   0.361   2.800   5.405
 3176SOL    HW110427   0.403   2.867   5.467
 3176SOL    HW210428   0.406   2.712   5.416
 3177SOL     OW10429   5.081   4.167   3.941
 3177SOL    HW110430   5.095   4.087   4.000
 3177SOL    HW210431   4.989   4.203   3.956
 3178SOL     OW10432   6.353   2.230   0.346
 3178SOL    HW110433   6.295   2.151   0.325
 3178SOL    HW210434   6.343   2.298   0.274
 3179SOL     OW10435   1.195   1.732   1.880
 3179SOL    HW110436   1.234   1.646   1.847
 3179SOL    HW210437   1.268   1.797   1.898
 3180SOL     OW10438   5.428   6.385   0.296
 3180SOL    HW110439   5.514   6.401   0.344
 3180SOL    HW210440   5.442   6.317   0.224
 3181SOL     OW10441   6.669   1.224   4.248
 3181SOL    HW110442   6.603   1.148   4.253
 3181SOL    HW210443   6.687   1.259   4.340
 3182SOL     OW10444   2.570   0.651   6.376
 3182SOL    HW110445   2.567   0.578   6.445
 3182SOL    HW210446   2.634   0.721   6.405
 3183SOL     OW10447   4.473   4.998   2.184
 3183SOL    HW110448   4.505   4.918   2.234
 3183SOL    HW210449   4.400   4.972   2.121
 3184SOL     OW10450   0.285   1.937   2.637
 3184SOL    HW110451   0.319   1.879   2.563
 3184SOL    HW210452   0.232   1.882   2.702
 3185SOL     OW10453   5.906   6.798   6.326
 3185SOL    HW110454   5.975   6.734   6.292
 3185SOL    HW210455   5.847   6.751   6.392
 3186SOL     OW10456   2.969   1.600   0.765
 3186SOL    HW110457   2.950   1.554   0.851
 3186SOL    HW210458   3.033   1.676   0.781
 3187SOL     OW10459   3.206   5.171   2.082
 3187SOL    HW110460   3.171   5.258   2.118
 3187SOL    HW210461   3.213   5.105   2.156
 3188SOL     OW10462   2.321   5.793   4.716
 3188SOL    HW110463   2.278   5.863   4.773
 3188SOL    HW210464   2.253   5.723   4.692
 3189SOL     OW10465   2.118   1.605   0.368
 3189SOL    HW110466   2.051   1.537   0.395
 3189SOL    HW210467   2.127   1.673   0.441
 3190SOL     OW10468   6.527   5.686   6.874
 3190SOL    HW110469   6.597   5.630   6.830
 3190SOL    HW210470   6.486   5.634   6.950
 3191SOL     OW10471   4.486   5.221   1.786
 3191SOL    HW110472   4.528   5.232   1.876
 3191SOL    HW210473   4.443   5.130   1.780
 3192SOL     OW10474   0.154   2.744   0.853
 3192SOL    HW110475   0.155   2.644   0.853
 3192SOL    HW210476   0.065   2.777   0.884
 3193SOL     OW10477   4.103   1.248   5.072
 3193SOL    HW110478   4.141   1.182   5.137
 3193SOL    HW210479   4.128   1.341   5.100
 3194SOL     OW10480   0.621   1.151   4.947
 3194SOL    HW110481   0.530   1.171   4.910
 3194SOL    HW210482   0.687   1.216   4.909
 3195SOL     OW10483   0.520   1.348   1.623
 3195SOL    HW110484   0.575   1.315   1.546
 3195SOL    HW210485   0.577   1.356   1.704
 3196SOL     OW10486   6.874   0.523   6.383
 3196SOL    HW110487   6.858   0.519   6.481
 3196SOL    HW210488   6.967   0.554   6.365
 3197SOL     OW10489   2.342   6.752   5.377
 3197SOL    HW110490   2.295   6.677   5.424
 3197SOL    HW210491   2.319   6.838   5.421
 3198SOL     OW10492   6.216   2.278   3.063
 3198SOL    HW110493   6.134   2.313   3.109
 3198SOL    HW210494   6.296   2.330   3.093
 3199SOL     OW10495   5.302   4.873   2.911
 3199SOL    HW110496   5.280   4.880   3.008
 3199SOL    HW210497   5.237   4.811   2.866
 3200SOL     OW10498   6.205   2.938   2.765
 3200SOL    HW110499   6.286   2.941   2.824
 3200SOL    HW210500   6.172   3.031   2.750
 3201SOL     OW10501   6.338   5.045   3.332
 3201SOL    HW110502   6.399   5.041   3.253
 3201SOL    HW210503   6.264   4.978   3.319
 3202SOL     OW10504   0.878   5.382   0.604
 3202SOL    HW110505   0.898   5.287   0.627
 3202SOL    HW210506   0.936   5.443   0.659
 3203SOL     OW10507   5.543   1.598   1.571
 3203SOL    HW110508   5.633   1.639   1.559
 3203SOL    HW210509   5.473   1.660   1.536
 3204SOL     OW10510   3.141   0.760   2.951
 3204SOL    HW110511   3.234   0.785   2.977
 3204SOL    HW210512   3.143   0.682   2.889
 3205SOL     OW10513   5.107   2.861   5.703
 3205SOL    HW110514   5.052   2.873   5.620
 3205SOL    HW210515   5.057   2.805   5.768
 3206SOL     OW10516   2.287   3.793   1.224
 3206SOL    HW110517   2.287   3.890   1.247
 3206SOL    HW210518   2.229   3.777   1.145
 3207SOL     OW10519   1.303   0.925   6.662
 3207SOL    HW110520   1.371   0.864   6.622
 3207SOL    HW210521   1.342   0.971   6.742
 3208SOL     OW10522   5.745   5.990   6.175
 3208SOL    HW110523   5.680   6.066   6.172
 3208SOL    HW210524   5.800   5.996   6.258
 3209SOL     OW10525   3.086   4.979   4.801
 3209SOL    HW110526   3.068   4.919   4.878
 3209SOL    HW210527   2.999   5.010   4.761
 3210SOL     OW10528   1.255   5.015   1.275
 3210SOL    HW110529   1.327   5.057   1.221
 3210SOL    HW210530   1.216   4.938   1.225
 3211SOL     OW10531   2.010   4.744   0.550
 3211SOL    HW110532   2.063   4.664   0.522
 3211SOL    HW210533   2.018   4.757   0.649
 3212SOL     OW10534   3.345   6.747   2.231
 3212SOL    HW110535   3.343   6.775   2.135
 3212SOL    HW210536   3.402   6.810   2.283
 3213SOL     OW10537   1.775   0.338   6.537
 3213SOL    HW110538   1.846   0.283   6.581
 3213SOL    HW210539   1.762   0.306   6.444
 3214SOL     OW10540   4.638   6.112   2.743
 3214SOL    HW110541   4.719   6.168   2.724
 3214SOL    HW210542   4.635   6.035   2.680
 3215SOL     OW10543   0.710   3.977   1.026
 3215SOL    HW110544   0.663   4.028   0.954
 3215SOL    HW210545   0.673   4.004   1.115
 3216SOL     OW10546   5.885   5.465   1.022
 3216SOL    HW110547   5.787   5.446   1.018
 3216SOL    HW210548   5.928   5.440   0.936
 3217SOL     OW10549   0.168   5.787   2.416
 3217SOL    HW110550   0.256   5.740   2.409
 3217SOL    HW210551   0.179   5.883   2.393
 3218SOL     OW10552   6.001   2.485   3.087
 3218SOL    HW110553   6.040   2.521   3.003
 3218SOL    HW210554   5.914   2.531   3.107
 3219SOL     OW10555   6.772   0.488   4.791
 3219SOL    HW110556   6.744   0.495   4.887
 3219SOL    HW210557   6.790   0.392   4.769
 3220SOL     OW10558   0.159   5.625   6.124
 3220SOL    HW110559   0.242   5.636   6.069
 3220SOL    HW210560   0.096   5.699   6.104
 3221SOL     OW10561   3.148   6.489   2.449
 3221SOL    HW110562   3.236   6.483   2.496
 3221SOL    HW210563   3.136   6.581   2.411
 3222SOL     OW10564   3.010   0.962   2.402
 3222SOL    HW110565   2.976   0.929   2.314
 3222SOL    HW210566   3.097   1.009   2.388
 3223SOL     OW10567   2.853   0.031   0.312
 3223SOL    HW110568   2.847   6.949   0.320
 3223SOL    HW210569   2.949   0.060   0.319
 3224SOL     OW10570   4.752   2.529   5.161
 3224SOL    HW110571   4.663   2.573   5.146
 3224SOL    HW210572   4.758   2.447   5.105
 3225SOL     OW10573   4.698   1.351   5.421
 3225SOL    HW110574   4.671   1.302   5.504
 3225SOL    HW210575   4.761   1.425   5.444
 3226SOL     OW10576   1.966   0.533   1.768
 3226SOL    HW110577   1.879   0.544   1.815
 3226SOL    HW210578   1.950   0.523   1.670
 3227SOL     OW10579   3.454   3.136   6.767
 3227SOL    HW110580   3.541   3.086   6.764
 3227SOL    HW210581   3.404   3.120   6.682
 3228SOL     OW10582   6.881   3.710   0.671
 3228SOL    HW110583   6.925   3.693   0.759
 3228SOL    HW210584   6.790   3.747   0.686
 3229SOL     OW10585   3.654   0.593   5.410
 3229SOL    HW110586   3.726   0.637   5.464
 3229SOL    HW210587   3.647   0.497   5.437
 3230SOL     OW10588   1.659   5.547   5.990
 3230SOL    HW110589   1.684   5.597   6.073
 3230SOL    HW210590   1.731   5.557   5.922
 3231SOL     OW10591   2.703   0.638   2.948
 3231SOL    HW110592   2.734   0.701   2.877
 3231SOL    HW210593   2.763   0.645   3.028
 3232SOL     OW10594   4.090   5.849   4.062
 3232SOL    HW110595   4.002   5.895   4.077
 3232SOL    HW210596   4.145   5.902   3.999
 3233SOL     OW10597   0.081   2.917   0.534
 3233SOL    HW110598   7.001   2.938   0.547
 3233SOL    HW210599   0.100   2.825   0.570
 3234SOL     OW10600   1.154   2.978   0.253
 3234SOL    HW110601   1.121   2.929   0.172
 3234SOL    HW210602   1.237   2.933   0.288
 3235SOL     OW10603   6.567   0.169   2.080
 3235SOL    HW110604   6.516   0.090   2.115
 3235SOL    HW210605   6.615   0.144   1.996
 3236SOL     OW10606   1.180   4.554   0.848
 3236SOL    HW110607   1.104   4.571   0.785
 3236SOL    HW210608   1.267   4.568   0.801
 3237SOL     OW10609   6.136   1.164   2.689
 3237SOL    HW110610   6.049   1.210   2.707
 3237SOL    HW210611   6.126   1.101   2.612
 3238SOL     OW10612   5.876   5.200   0.178
 3238SOL    HW110613   5.877   5.257   0.096
 3238SOL    HW210614   5.797   5.139   0.174
 3239SOL     OW10615   6.995   0.645   3.643
 3239SOL    HW110616   0.003   0.668   3.549
 3239SOL    HW210617   6.896   0.632   3.649
 3240SOL     OW10618   0.644   0.612   5.926
 3240SOL    HW110619   0.545   0.620   5.912
 3240SOL    HW210620   0.669   0.516   5.936
 3241SOL     OW10621   5.260   1.472   5.786
 3241SOL    HW110622   5.187   1.405   5.793
 3241SOL    HW210623   5.244   1.530   5.706
 3242SOL     OW10624   4.773   3.710   5.804
 3242SOL    HW110625   4.723   3.752   5.879
 3242SOL    HW210626   4.709   3.687   5.730
 3243SOL     OW10627   4.531   5.299   0.115
 3243SOL    HW110628   4.471   5.251   0.179
 3243SOL    HW210629   4.610   5.336   0.165
 3244SOL     OW10630   5.912   6.260   6.874
 3244SOL    HW110631   5.877   6.306   6.956
 3244SOL    HW210632   5.841   6.261   6.803
 3245SOL     OW10633   4.842   1.747   4.731
 3245SOL    HW110634   4.755   1.697   4.725
 3245SOL    HW210635   4.911   1.700   4.676
 3246SOL     OW10636   6.573   0.030   2.811
 3246SOL    HW110637   6.645   0.063   2.751
 3246SOL    HW210638   6.613   6.994   2.886
 3247SOL     OW10639   6.517   4.650   2.207
 3247SOL    HW110640   6.495   4.574   2.267
 3247SOL    HW210641   6.538   4.731   2.261
 3248SOL     OW10642   5.348   2.229   2.733
 3248SOL    HW110643   5.428   2.270   2.690
 3248SOL    HW210644   5.316   2.287   2.808
 3249SOL     OW10645   3.441   3.871   3.689
 3249SOL    HW110646   3.485   3.787   3.722
 3249SOL    HW210647   3.384   3.849   3.609
 3250SOL     OW10648   5.383   0.338   2.847
 3250SOL    HW110649   5.341   0.387   2.770
 3250SOL    HW210650   5.319   0.335   2.923
 3251SOL     OW10651   2.961   0.912   4.327
 3251SOL    HW110652   2.900   0.835   4.345
 3251SOL    HW210653   2.954   0.938   4.231
 3252SOL     OW10654   2.948   0.524   2.676
 3252SOL    HW110655   2.937   0.596   2.608
 3252SOL    HW210656   3.040   0.528   2.714
 3253SOL     OW10657   4.532   3.567   0.355
 3253SOL    HW110658   4.557   3.664   0.360
 3253SOL    HW210659   4.440   3.559   0.316
 3254SOL     OW10660   4.957   6.621   6.567
 3254SOL    HW110661   4.883   6.555   6.579
 3254SOL    HW210662   4.935   6.704   6.618
 3255SOL     OW10663   4.861   6.694   1.143
 3255SOL    HW110664   4.838   6.613   1.089
 3255SOL    HW210665   4.862   6.775   1.084
 3256SOL     OW10666   3.310   2.170   0.931
 3256SOL    HW110667   3.323   2.093   0.993
 3256SOL    HW210668   3.348   2.253   0.973
 3257SOL     OW10669   1.939   1.787   1.698
 3257SOL    HW110670   1.952   1.827   1.789
 3257SOL    HW210671   1.897   1.855   1.638
 3258SOL     OW10672   3.909   5.434   3.395
 3258SOL    HW110673   3.939   5.511   3.337
 3258SOL    HW210674   3.902   5.352   3.339
 3259SOL     OW10675   4.862   5.513   4.296
 3259SOL    HW110676   4.945   5.549   4.254
 3259SOL    HW210677   4.809   5.588   4.336
 3260SOL     OW10678   1.626   3.266   1.447
 3260SOL    HW110679   1.547   3.263   1.509
 3260SOL    HW210680   1.705   3.303   1.496
 3261SOL     OW10681   5.214   0.744   1.296
 3261SOL    HW110682   5.172   0.680   1.232
 3261SOL    HW210683   5.229   0.832   1.250
 3262SOL     OW10684   3.860   1.908   1.986
 3262SOL    HW110685   3.890   1.960   1.905
 3262SOL    HW210686   3.760   1.911   1.991
 3263SOL     OW10687   3.195   1.087   2.653
 3263SOL    HW110688   3.235   1.178   2.664
 3263SOL    HW210689   3.123   1.073   2.721
 3264SOL     OW10690   1.891   5.550   0.958
 3264SOL    HW110691   1.908   5.453   0.938
 3264SOL    HW210692   1.965   5.585   1.016
 3265SOL     OW10693   5.658   6.979   6.589
 3265SOL    HW110694   5.563   6.989   6.559
 3265SOL    HW210695   5.719   7.012   6.517
 3266SOL     OW10696   3.094   4.541   6.609
 3266SOL    HW110697   3.073   4.638   6.596
 3266SOL    HW210698   3.158   4.511   6.539
 3267SOL     OW10699   2.792   6.879   2.383
 3267SOL    HW110700   2.798   6.785   2.415
 3267SOL    HW210701   2.803   6.941   2.460
 3268SOL     OW10702   1.878   4.489   1.144
 3268SOL    HW110703   1.789   4.458   1.111
 3268SOL    HW210704   1.873   4.507   1.242
 3269SOL     OW10705   6.699   5.635   1.847
 3269SOL    HW110706   6.648   5.551   1.827
 3269SOL    HW210707   6.638   5.714   1.840
 3270SOL     OW10708   1.410   3.580   6.995
 3270SOL    HW110709   1.397   3.658   0.040
 3270SOL    HW210710   1.459   3.507   0.026
 3271SOL     OW10711   6.800   3.263   1.723
 3271SOL    HW110712   6.750   3.179   1.701
 3271SOL    HW210713   6.814   3.268   1.822
 3272SOL     OW10714   2.852   4.412   6.629
 3272SOL    HW110715   2.952   4.417   6.635
 3272SOL    HW210716   2.811   4.470   6.699
 3273SOL     OW10717   6.502   4.884   6.938
 3273SOL    HW110718   6.593   4.893   6.980
 3273SOL    HW210719   6.509   4.905   6.840
 3274SOL     OW10720   5.907   0.478   0.817
 3274SOL    HW110721   6.000   0.445   0.833
 3274SOL    HW210722   5.844   0.435   0.882
 3275SOL     OW10723   4.674   1.006   0.016
 3275SOL    HW110724   4.636   1.075   6.972
 3275SOL    HW210725   4.774   1.012   0.017
 3276SOL     OW10726   4.068   6.570   6.749
 3276SOL    HW110727   4.027   6.524   6.828
 3276SOL    HW210728   4.066   6.508   6.671
 3277SOL     OW10729   3.687   1.550   1.056
 3277SOL    HW110730   3.780   1.572   1.026
 3277SOL    HW210731   3.691   1.500   1.143
 3278SOL     OW10732   1.293   0.948   5.823
 3278SOL    HW110733   1.194   0.949   5.838
 3278SOL    HW210734   1.328   0.856   5.840
 3279SOL     OW10735   5.287   0.134   0.565
 3279SOL    HW110736   5.187   0.131   0.568
 3279SOL    HW210737   5.321   0.073   0.493
 3280SOL     OW10738   4.891   4.810   4.820
 3280SOL    HW110739   4.809   4.866   4.817
 3280SOL    HW210740   4.882   4.733   4.756
 3281SOL     OW10741   1.047   5.193   1.027
 3281SOL    HW110742   1.022   5.282   1.064
 3281SOL    HW210743   0.989   5.122   1.068
 3282SOL     OW10744   6.463   4.637   5.043
 3282SOL    HW110745   6.411   4.609   5.124
 3282SOL    HW210746   6.406   4.624   4.962
 3283SOL     OW10747   3.237   1.124   1.452
 3283SOL    HW110748   3.175   1.046   1.455
 3283SOL    HW210749   3.276   1.132   1.360
 3284SOL     OW10750   0.973   5.975   5.427
 3284SOL    HW110751   0.966   6.063   5.475
 3284SOL    HW210752   0.981   5.902   5.493
 3285SOL     OW10753   4.788   2.311   5.005
 3285SOL    HW110754   4.773   2.218   5.037
 3285SOL    HW210755   4.850   2.310   4.926
 3286SOL     OW10756   3.384   2.649   1.580
 3286SOL    HW110757   3.307   2.604   1.625
 3286SOL    HW210758   3.460   2.660   1.645
 3287SOL     OW10759   0.591   0.388   0.453
 3287SOL    HW110760   0.681   0.412   0.418
 3287SOL    HW210761   0.525   0.387   0.379
 3288SOL     OW10762   1.846   6.927   0.190
 3288SOL    HW110763   1.927   6.871   0.208
 3288SOL    HW210764   1.812   6.909   0.098
 3289SOL     OW10765   2.624   1.462   5.882
 3289SOL    HW110766   2.644   1.506   5.794
 3289SOL    HW210767   2.686   1.497   5.952
 3290SOL     OW10768   6.649   5.078   0.763
 3290SOL    HW110769   6.558   5.042   0.743
 3290SOL    HW210770   6.698   5.014   0.822
 3291SOL     OW10771   2.632   0.971   5.609
 3291SOL    HW110772   2.674   1.059   5.588
 3291SOL    HW210773   2.688   0.923   5.677
 3292SOL     OW10774   0.013   1.130   0.494
 3292SOL    HW110775   0.032   1.133   0.592
 3292SOL    HW210776   0.042   1.216   0.452
 3293SOL     OW10777   6.540   4.907   1.533
 3293SOL    HW110778   6.575   4.848   1.461
 3293SOL    HW210779   6.487   4.853   1.598
 3294SOL     OW10780   5.065   2.286   6.259
 3294SOL    HW110781   5.068   2.221   6.335
 3294SOL    HW210782   5.089   2.239   6.174
 3295SOL     OW10783   1.136   3.461   1.930
 3295SOL    HW110784   1.158   3.455   2.028
 3295SOL    HW210785   1.111   3.370   1.896
 3296SOL     OW10786   0.875   0.788   3.331
 3296SOL    HW110787   0.944   0.755   3.394
 3296SOL    HW210788   0.811   0.848   3.379
 3297SOL     OW10789   2.733   1.177   5.451
 3297SOL    HW110790   2.788   1.192   5.369
 3297SOL    HW210791   2.657   1.241   5.452
 3298SOL     OW10792   6.690   2.269   5.760
 3298SOL    HW110793   6.731   2.185   5.796
 3298SOL    HW210794   6.600   2.282   5.801
 3299SOL     OW10795   3.583   6.047   3.247
 3299SOL    HW110796   3.530   6.006   3.321
 3299SOL    HW210797   3.632   5.976   3.198
 3300SOL     OW10798   1.688   0.522   6.159
 3300SOL    HW110799   1.698   0.439   6.104
 3300SOL    HW210800   1.643   0.499   6.246
 3301SOL     OW10801   1.828   3.455   3.792
 3301SOL    HW110802   1.806   3.526   3.725
 3301SOL    HW210803   1.910   3.406   3.762
 3302SOL     OW10804   0.958   4.789   5.145
 3302SOL    HW110805   0.946   4.700   5.188
 3302SOL    HW210806   0.895   4.797   5.068
 3303SOL     OW10807   2.969   3.719   7.003
 3303SOL    HW110808   2.874   3.702   6.978
 3303SOL    HW210809   3.000   3.803   6.958
 3304SOL     OW10810   1.472   5.096   6.273
 3304SOL    HW110811   1.451   5.033   6.198
 3304SOL    HW210812   1.551   5.152   6.248
 3305SOL     OW10813   2.898   0.908   1.790
 3305SOL    HW110814   2.810   0.919   1.836
 3305SOL    HW210815   2.946   0.996   1.790
 3306SOL     OW10816   1.320   4.969   4.588
 3306SOL    HW110817   1.366   5.020   4.661
 3306SOL    HW210818   1.227   5.005   4.577
 3307SOL     OW10819   0.970   0.120   5.304
 3307SOL    HW110820   0.954   0.070   5.219
 3307SOL    HW210821   0.897   0.101   5.369
 3308SOL     OW10822   3.226   5.535   0.996
 3308SOL    HW110823   3.247   5.548   1.093
 3308SOL    HW210824   3.250   5.442   0.969
 3309SOL     OW10825   6.344   4.640   4.383
 3309SOL    HW110826   6.377   4.642   4.288
 3309SOL    HW210827   6.302   4.728   4.405
 3310SOL     OW10828   6.880   3.924   4.730
 3310SOL    HW110829   6.916   3.922   4.637
 3310SOL    HW210830   6.848   4.017   4.751
 3311SOL     OW10831   3.156   4.198   0.582
 3311SOL    HW110832   3.119   4.197   0.675
 3311SOL    HW210833   3.081   4.212   0.517
 3312SOL     OW10834   3.942   3.217   5.969
 3312SOL    HW110835   3.987   3.274   6.037
 3312SOL    HW210836   4.005   3.197   5.894
 3313SOL     OW10837   1.180   6.749   3.597
 3313SOL    HW110838   1.256   6.791   3.646
 3313SOL    HW210839   1.174   6.789   3.505
 3314SOL     OW10840   2.522   0.519   1.881
 3314SOL    HW110841   2.554   0.444   1.938
 3314SOL    HW210842   2.600   0.562   1.836
 3315SOL     OW10843   0.526   3.909   5.053
 3315SOL    HW110844   0.427   3.891   5.052
 3315SOL    HW210845   0.541   4.007   5.045
 3316SOL     OW10846   4.274   0.873   5.068
 3316SOL    HW110847   4.278   0.808   4.991
 3316SOL    HW210848   4.301   0.826   5.152
 3317SOL     OW10849   5.247   2.456   2.403
 3317SOL    HW110850   5.190   2.379   2.431
 3317SOL    HW210851   5.190   2.538   2.394
 3318SOL     OW10852   1.747   1.426   0.304
 3318SOL    HW110853   1.726   1.386   0.393
 3318SOL    HW210854   1.706   1.516   0.297
 3319SOL     OW10855   5.611   1.072   3.702
 3319SOL    HW110856   5.572   1.157   3.738
 3319SOL    HW210857   5.554   1.039   3.627
 3320SOL     OW10858   5.981   0.886   0.136
 3320SOL    HW110859   6.062   0.921   0.089
 3320SOL    HW210860   5.965   0.939   0.219
 3321SOL     OW10861   5.700   1.738   0.892
 3321SOL    HW110862   5.621   1.799   0.887
 3321SOL    HW210863   5.724   1.706   0.800
 3322SOL     OW10864   0.023   2.499   1.269
 3322SOL    HW110865   0.047   2.457   1.356
 3322SOL    HW210866   0.093   2.567   1.244
 3323SOL     OW10867   2.384   2.515   0.772
 3323SOL    HW110868   2.477   2.527   0.807
 3323SOL    HW210869   2.370   2.575   0.693
 3324SOL     OW10870   4.605   5.163   6.263
 3324SOL    HW110871   4.655   5.091   6.310
 3324SOL    HW210872   4.631   5.163   6.166
 3325SOL     OW10873   0.203   3.888   0.102
 3325SOL    HW110874   0.134   3.937   0.049
 3325SOL    HW210875   0.199   3.917   0.198
 3326SOL     OW10876   4.601   1.587   1.727
 3326SOL    HW110877   4.503   1.607   1.725
 3326SOL    HW210878   4.628   1.546   1.640
 3327SOL     OW10879   3.027   5.776   1.226
 3327SOL    HW110880   3.098   5.779   1.156
 3327SOL    HW210881   3.064   5.806   1.314
 3328SOL     OW10882   3.842   1.873   0.539
 3328SOL    HW110883   3.854   1.844   0.444
 3328SOL    HW210884   3.746   1.897   0.555
 3329SOL     OW10885   5.553   0.286   5.690
 3329SOL    HW110886   5.521   0.209   5.745
 3329SOL    HW210887   5.507   0.286   5.601
 3330SOL     OW10888   6.258   3.353   1.777
 3330SOL    HW110889   6.185   3.418   1.757
 3330SOL    HW210890   6.223   3.283   1.840
 3331SOL     OW10891   2.557   3.276   1.458
 3331SOL    HW110892   2.544   3.355   1.517
 3331SOL    HW210893   2.513   3.196   1.499
 3332SOL     OW10894   5.847   5.426   0.353
 3332SOL    HW110895   5.786   5.420   0.432
 3332SOL    HW210896   5.862   5.334   0.316
 3333SOL     OW10897   3.561   5.752   6.277
 3333SOL    HW110898   3.531   5.769   6.184
 3333SOL    HW210899   3.614   5.667   6.280
 3334SOL     OW10900   2.963   3.485   1.274
 3334SOL    HW110901   3.033   3.554   1.257
 3334SOL    HW210902   2.891   3.524   1.330
 3335SOL     OW10903   4.781   4.982   5.207
 3335SOL    HW110904   4.702   4.951   5.260
 3335SOL    HW210905   4.862   4.985   5.267
 3336SOL     OW10906   2.671   5.067   5.050
 3336SOL    HW110907   2.629   4.982   5.079
 3336SOL    HW210908   2.696   5.062   4.953
 3337SOL     OW10909   3.110   2.831   1.931
 3337SOL    HW110910   3.066   2.833   1.841
 3337SOL    HW210911   3.079   2.750   1.981
 3338SOL     OW10912   5.993   3.454   1.126
 3338SOL    HW110913   6.063   3.509   1.172
 3338SOL    HW210914   5.953   3.391   1.192
 3339SOL     OW10915   6.826   0.075   6.653
 3339SOL    HW110916   6.886   0.130   6.594
 3339SOL    HW210917   6.751   0.132   6.687
 3340SOL     OW10918   3.951   0.089   1.483
 3340SOL    HW110919   4.035   0.131   1.517
 3340SOL    HW210920   3.873   0.148   1.506
 3341SOL     OW10921   1.782   6.062   4.078
 3341SOL    HW110922   1.840   6.060   3.996
 3341SOL    HW210923   1.826   6.011   4.152
 3342SOL     OW10924   2.406   6.553   4.273
 3342SOL    HW110925   2.338   6.532   4.343
 3342SOL    HW210926   2.394   6.490   4.196
 3343SOL     OW10927   5.138   2.955   0.417
 3343SOL    HW110928   5.149   2.998   0.507
 3343SOL    HW210929   5.078   2.876   0.424
 3344SOL     OW10930   5.786   3.308   4.683
 3344SOL    HW110931   5.759   3.346   4.595
 3344SOL    HW210932   5.709   3.256   4.722
 3345SOL     OW10933   1.994   3.799   5.732
 3345SOL    HW110934   2.008   3.881   5.677
 3345SOL    HW210935   1.933   3.736   5.684
 3346SOL     OW10936   1.690   1.025   1.835
 3346SOL    HW110937   1.727   0.948   1.783
 3346SOL    HW210938   1.598   1.046   1.803
 3347SOL     OW10939   0.573   5.063   3.836
 3347SOL    HW110940   0.622   5.149   3.831
 3347SOL    HW210941   0.622   5.000   3.897
 3348SOL     OW10942   3.113   3.211   3.104
 3348SOL    HW110943   3.101   3.116   3.076
 3348SOL    HW210944   3.097   3.220   3.202
 3349SOL     OW10945   0.570   4.653   4.372
 3349SOL    HW110946   0.650   4.637   4.430
 3349SOL    HW210947   0.552   4.572   4.316
 3350SOL     OW10948   1.207   2.046   6.383
 3350SOL    HW110949   1.196   1.947   6.388
 3350SOL    HW210950   1.135   2.091   6.436
 3351SOL     OW10951   5.007   0.303   2.551
 3351SOL    HW110952   4.999   0.222   2.609
 3351SOL    HW210953   5.081   0.361   2.584
 3352SOL     OW10954   0.104   3.584   0.616
 3352SOL    HW110955   0.009   3.615   0.614
 3352SOL    HW210956   0.109   3.487   0.592
 3353SOL     OW10957   0.980   6.378   2.099
 3353SOL    HW110958   0.892   6.387   2.145
 3353SOL    HW210959   1.054   6.380   2.166
 3354SOL     OW10960   5.688   2.746   4.275
 3354SOL    HW110961   5.603   2.736   4.326
 3354SOL    HW210962   5.680   2.822   4.211
 3355SOL     OW10963   1.599   1.358   0.097
 3355SOL    HW110964   1.640   1.282   0.047
 3355SOL    HW210965   1.653   1.378   0.178
 3356SOL     OW10966   1.862   3.382   0.099
 3356SOL    HW110967   1.817   3.430   0.024
 3356SOL    HW210968   1.931   3.442   0.140
 3357SOL     OW10969   2.427   5.207   1.963
 3357SOL    HW110970   2.518   5.197   1.924
 3357SOL    HW210971   2.424   5.288   2.022
 3358SOL     OW10972   4.625   0.228   1.671
 3358SOL    HW110973   4.535   0.236   1.714
 3358SOL    HW210974   4.615   0.199   1.576
 3359SOL     OW10975   6.799   0.143   4.019
 3359SOL    HW110976   6.849   0.221   4.057
 3359SOL    HW210977   6.708   0.139   4.061
 3360SOL     OW10978   6.976   1.035   0.783
 3360SOL    HW110979   6.878   1.015   0.784
 3360SOL    HW210980   0.010   0.950   0.776
 3361SOL     OW10981   0.405   5.042   2.325
 3361SOL    HW110982   0.459   5.056   2.409
 3361SOL    HW210983   0.458   4.986   2.261
 3362SOL     OW10984   3.647   1.559   4.364
 3362SOL    HW110985   3.594   1.477   4.388
 3362SOL    HW210986   3.640   1.626   4.438
 3363SOL     OW10987   1.023   0.579   6.763
 3363SOL    HW110988   1.099   0.581   6.698
 3363SOL    HW210989   1.058   0.552   6.853
 3364SOL     OW10990   1.064   4.488   4.136
 3364SOL    HW110991   0.991   4.545   4.176
 3364SOL    HW210992   1.076   4.406   4.192
 3365SOL     OW10993   0.658   2.204   5.031
 3365SOL    HW110994   0.586   2.137   5.051
 3365SOL    HW210995   0.747   2.167   5.059
 3366SOL     OW10996   6.523   0.326   5.736
 3366SOL    HW110997   6.468   0.385   5.676
 3366SOL    HW210998   6.596   0.380   5.777
 3367SOL     OW10999   2.012   2.391   1.945
 3367SOL    HW111000   1.990   2.396   2.042
 3367SOL    HW211001   2.100   2.436   1.928
 3368SOL     OW11002   0.834   6.241   6.612
 3368SOL    HW111003   0.856   6.144   6.623
 3368SOL    HW211004   0.791   6.255   6.523
 3369SOL     OW11005   3.459   2.100   5.955
 3369SOL    HW111006   3.481   2.006   5.929
 3369SOL    HW211007   3.473   2.160   5.876
 3370SOL     OW11008   6.722   5.974   5.686
 3370SOL    HW111009   6.650   5.913   5.653
 3370SOL    HW211010   6.810   5.928   5.679
 3371SOL     OW11011   0.568   4.611   2.340
 3371SOL    HW111012   0.597   4.577   2.250
 3371SOL    HW211013   0.473   4.587   2.356
 3372SOL     OW11014   1.149   0.980   2.266
 3372SOL    HW111015   1.211   0.997   2.343
 3372SOL    HW211016   1.059   0.955   2.301
 3373SOL     OW11017   6.385   1.329   3.539
 3373SOL    HW111018   6.349   1.244   3.501
 3373SOL    HW211019   6.357   1.337   3.634
 3374SOL     OW11020   2.709   5.493   4.340
 3374SOL    HW111021   2.689   5.530   4.249
 3374SOL    HW211022   2.720   5.568   4.405
 3375SOL     OW11023   4.872   5.094   4.977
 3375SOL    HW111024   4.825   5.047   5.053
 3375SOL    HW211025   4.805   5.116   4.906
 3376SOL     OW11026   4.083   3.598   3.053
 3376SOL    HW111027   4.139   3.515   3.047
 3376SOL    HW211028   4.084   3.632   3.147
 3377SOL     OW11029   0.170   5.905   4.589
 3377SOL    HW111030   0.237   5.948   4.649
 3377SOL    HW211031   0.151   5.964   4.511
 3378SOL     OW11032   6.438   0.308   0.936
 3378SOL    HW111033   6.387   0.261   0.863
 3378SOL    HW211034   6.420   0.263   1.023
 3379SOL     OW11035   6.636   4.926   6.368
 3379SOL    HW111036   6.711   4.954   6.428
 3379SOL    HW211037   6.571   5.002   6.359
 3380SOL     OW11038   6.054   5.990   6.063
 3380SOL    HW111039   6.057   5.949   5.971
 3380SOL    HW211040   5.959   6.010   6.087
 3381SOL     OW11041   1.557   2.318   0.498
 3381SOL    HW111042   1.509   2.282   0.578
 3381SOL    HW211043   1.539   2.415   0.489
 3382SOL     OW11044   0.956   1.303   0.605
 3382SOL    HW111045   0.921   1.250   0.683
 3382SOL    HW211046   1.049   1.273   0.584
 3383SOL     OW11047   4.828   5.236   3.057
 3383SOL    HW111048   4.749   5.220   3.115
 3383SOL    HW211049   4.831   5.333   3.030
 3384SOL     OW11050   2.956   3.221   5.015
 3384SOL    HW111051   2.902   3.228   4.931
 3384SOL    HW211052   3.054   3.223   4.991
 3385SOL     OW11053   0.131   3.646   3.813
 3385SOL    HW111054   0.089   3.697   3.888
 3385SOL    HW211055   0.208   3.593   3.848
 3386SOL     OW11056   6.170   2.998   5.432
 3386SOL    HW111057   6.149   3.091   5.463
 3386SOL    HW211058   6.095   2.964   5.376
 3387SOL     OW11059   2.557   0.326   2.491
 3387SOL    HW111060   2.656   0.317   2.502
 3387SOL    HW211061   2.518   0.365   2.575
 3388SOL     OW11062   6.065   3.545   1.729
 3388SOL    HW111063   5.976   3.514   1.761
 3388SOL    HW211064   6.062   3.643   1.710
 3389SOL     OW11065   4.659   5.185   4.846
 3389SOL    HW111066   4.626   5.216   4.935
 3389SOL    HW211067   4.621   5.244   4.774
 3390SOL     OW11068   5.402   4.695   5.851
 3390SOL    HW111069   5.308   4.728   5.855
 3390SOL    HW211070   5.464   4.773   5.844
 3391SOL     OW11071   5.864   2.196   4.500
 3391SOL    HW111072   5.822   2.287   4.492
 3391SOL    HW211073   5.948   2.204   4.554
 3392SOL     OW11074   2.570   1.098   3.162
 3392SOL    HW111075   2.580   1.172   3.229
 3392SOL    HW211076   2.494   1.119   3.101
 3393SOL     OW11077   0.188   6.282   0.618
 3393SOL    HW111078   0.224   6.251   0.530
 3393SOL    HW211079   0.099   6.326   0.604
 3394SOL     OW11080   6.003   3.351   0.862
 3394SOL    HW111081   5.998   3.386   0.956
 3394SOL    HW211082   5.933   3.281   0.849
 3395SOL     OW11083   6.567   3.708   3.990
 3395SOL    HW111084   6.551   3.671   3.898
 3395SOL    HW211085   6.544   3.638   4.058
 3396SOL     OW11086   6.997   2.027   3.581
 3396SOL    HW111087   6.975   2.099   3.515
 3396SOL    HW211088   6.929   1.955   3.575
 3397SOL     OW11089   2.927   1.173   5.868
 3397SOL    HW111090   2.898   1.266   5.847
 3397SOL    HW211091   2.912   1.154   5.965
 3398SOL     OW11092   1.278   6.744   3.994
 3398SOL    HW111093   1.195   6.718   3.943
 3398SOL    HW211094   1.331   6.662   4.014
 3399SOL     OW11095   5.057   4.593   4.083
 3399SOL    HW111096   5.069   4.526   4.156
 3399SOL    HW211097   4.963   4.591   4.050
 3400SOL     OW11098   4.440   1.652   5.335
 3400SOL    HW111099   4.508   1.708   5.382
 3400SOL    HW211100   4.486   1.589   5.272
 3401SOL     OW11101   6.783   3.283   1.325
 3401SOL    HW111102   6.874   3.280   1.367
 3401SOL    HW211103   6.773   3.206   1.263
 3402SOL     OW11104   4.361   6.512   0.449
 3402SOL    HW111105   4.398   6.546   0.535
 3402SOL    HW211106   4.319   6.422   0.463
 3403SOL     OW11107   3.544   0.647   4.477
 3403SOL    HW111108   3.623   0.670   4.421
 3403SOL    HW211109   3.531   0.718   4.546
 3404SOL     OW11110   5.404   1.706   6.779
 3404SOL    HW111111   5.320   1.754   6.803
 3404SOL    HW211112   5.393   1.661   6.690
 3405SOL     OW11113   6.024   3.683   3.885
 3405SOL    HW111114   6.049   3.587   3.877
 3405SOL    HW211115   6.046   3.716   3.977
 3406SOL     OW11116   1.263   4.523   2.020
 3406SOL    HW111117   1.320   4.468   1.959
 3406SOL    HW211118   1.207   4.462   2.077
 3407SOL     OW11119   1.597   5.048   0.017
 3407SOL    HW111120   1.515   5.005   0.056
 3407SOL    HW211121   1.677   4.991   0.033
 3408SOL     OW11122   5.385   4.214   4.721
 3408SOL    HW111123   5.306   4.252   4.769
 3408SOL    HW211124   5.467   4.266   4.745
 3409SOL     OW11125   2.934   6.445   5.955
 3409SOL    HW111126   3.014   6.478   5.904
 3409SOL    HW211127   2.924   6.499   6.039
 3410SOL     OW11128   6.197   5.770   0.227
 3410SOL    HW111129   6.249   5.798   0.146
 3410SOL    HW211130   6.132   5.698   0.201
 3411SOL     OW11131   0.283   2.889   2.048
 3411SOL    HW111132   0.334   2.944   1.982
 3411SOL    HW211133   0.217   2.832   1.999
 3412SOL     OW11134   4.502   2.805   6.848
 3412SOL    HW111135   4.469   2.765   6.934
 3412SOL    HW211136   4.430   2.801   6.779
 3413SOL     OW11137   4.807   0.925   2.642
 3413SOL    HW111138   4.797   1.021   2.619
 3413SOL    HW211139   4.754   0.869   2.578
 3414SOL     OW11140   2.122   1.829   5.654
 3414SOL    HW111141   2.208   1.802   5.610
 3414SOL    HW211142   2.066   1.748   5.670
 3415SOL     OW11143   2.207   4.576   4.416
 3415SOL    HW111144   2.207   4.640   4.340
 3415SOL    HW211145   2.126   4.592   4.473
 3416SOL     OW11146   6.444   5.555   0.080
 3416SOL    HW111147   6.523   5.495   0.085
 3416SOL    HW211148   6.451   5.626   0.151
 3417SOL     OW11149   6.948   5.663   3.479
 3417SOL    HW111150   6.977   5.605   3.403
 3417SOL    HW211151   6.855   5.695   3.462
 3418SOL     OW11152   4.033   0.139   4.889
 3418SOL    HW111153   4.064   0.234   4.900
 3418SOL    HW211154   3.944   0.138   4.843
 3419SOL     OW11155   3.476   5.543   4.956
 3419SOL    HW111156   3.429   5.539   4.867
 3419SOL    HW211157   3.414   5.581   5.025
 3420SOL     OW11158   5.271   2.628   3.158
 3420SOL    HW111159   5.283   2.630   3.059
 3420SOL    HW211160   5.353   2.591   3.201
 3421SOL     OW11161   6.157   0.441   6.199
 3421SOL    HW111162   6.252   0.443   6.229
 3421SOL    HW211163   6.128   0.346   6.186
 3422SOL     OW11164   2.065   6.252   1.148
 3422SOL    HW111165   2.075   6.203   1.061
 3422SOL    HW211166   2.090   6.192   1.223
 3423SOL     OW11167   2.135   6.775   0.533
 3423SOL    HW111168   2.111   6.862   0.576
 3423SOL    HW211169   2.225   6.745   0.566
 3424SOL     OW11170   2.959   6.318   2.360
 3424SOL    HW111171   2.932   6.334   2.265
 3424SOL    HW211172   3.032   6.382   2.384
 3425SOL     OW11173   5.244   3.706   2.106
 3425SOL    HW111174   5.204   3.615   2.095
 3425SOL    HW211175   5.331   3.699   2.155
 3426SOL     OW11176   2.510   3.053   0.151
 3426SOL    HW111177   2.544   3.098   0.069
 3426SOL    HW211178   2.537   2.957   0.149
 3427SOL     OW11179   6.976   6.931   6.356
 3427SOL    HW111180   6.981   7.007   6.420
 3427SOL    HW211181   6.923   6.959   6.276
 3428SOL     OW11182   3.677   5.025   1.032
 3428SOL    HW111183   3.665   4.926   1.038
 3428SOL    HW211184   3.606   5.071   1.086
 3429SOL     OW11185   0.919   1.309   6.888
 3429SOL    HW111186   0.840   1.361   6.856
 3429SOL    HW211187   0.988   1.305   6.816
 3430SOL     OW11188   0.508   6.634   5.250
 3430SOL    HW111189   0.564   6.552   5.243
 3430SOL    HW211190   0.413   6.607   5.268
 3431SOL     OW11191   1.825   0.080   1.206
 3431SOL    HW111192   1.920   0.097   1.233
 3431SOL    HW211193   1.778   0.168   1.196
 3432SOL     OW11194   2.811   2.355   6.516
 3432SOL    HW111195   2.867   2.383   6.438
 3432SOL    HW211196   2.715   2.378   6.498
 3433SOL     OW11197   1.034   6.991   6.369
 3433SOL    HW111198   0.954   6.933   6.353
 3433SOL    HW211199   1.004   0.067   6.389
 3434SOL     OW11200   3.833   2.642   0.939
 3434SOL    HW111201   3.742   2.603   0.925
 3434SOL    HW211202   3.871   2.608   1.025
 3435SOL     OW11203   1.062   1.839   1.420
 3435SOL    HW111204   1.128   1.911   1.398
 3435SOL    HW211205   0.975   1.858   1.374
 3436SOL     OW11206   3.894   6.468   5.732
 3436SOL    HW111207   3.989   6.458   5.760
 3436SOL    HW211208   3.889   6.481   5.633
 3437SOL     OW11209   3.546   0.590   6.305
 3437SOL    HW111210   3.579   0.529   6.377
 3437SOL    HW211211   3.453   0.619   6.327
 3438SOL     OW11212   1.518   2.701   0.133
 3438SOL    HW111213   1.470   2.691   0.046
 3438SOL    HW211214   1.589   2.771   0.124
 3439SOL     OW11215   1.854   6.904   6.077
 3439SOL    HW111216   1.948   6.876   6.056
 3439SOL    HW211217   1.821   6.965   6.004
 3440SOL     OW11218   4.121   3.240   1.498
 3440SOL    HW111219   4.041   3.197   1.456
 3440SOL    HW211220   4.093   3.290   1.580
 3441SOL     OW11221   4.907   0.328   3.803
 3441SOL    HW111222   4.877   0.321   3.708
 3441SOL    HW211223   4.828   0.331   3.863
 3442SOL     OW11224   3.148   4.871   2.517
 3442SOL    HW111225   3.073   4.810   2.490
 3442SOL    HW211226   3.110   4.953   2.561
 3443SOL     OW11227   5.542   0.370   2.199
 3443SOL    HW111228   5.520   0.281   2.158
 3443SOL    HW211229   5.521   0.369   2.296
 3444SOL     OW11230   4.922   5.232   6.809
 3444SOL    HW111231   5.003   5.245   6.752
 3444SOL    HW211232   4.853   5.181   6.757
 3445SOL     OW11233   5.826   5.327   4.148
 3445SOL    HW111234   5.831   5.410   4.203
 3445SOL    HW211235   5.919   5.298   4.123
 3446SOL     OW11236   6.101   0.951   3.082
 3446SOL    HW111237   6.097   0.876   3.148
 3446SOL    HW211238   6.066   1.035   3.124
 3447SOL     OW11239   5.538   4.240   0.850
 3447SOL    HW111240   5.482   4.203   0.776
 3447SOL    HW211241   5.492   4.319   0.890
 3448SOL     OW11242   2.853   0.163   1.087
 3448SOL    HW111243   2.896   0.107   1.157
 3448SOL    HW211244   2.780   0.219   1.128
 3449SOL     OW11245   6.110   6.428   4.362
 3449SOL    HW111246   6.158   6.464   4.442
 3449SOL    HW211247   6.131   6.484   4.282
 3450SOL     OW11248   0.687   2.861   6.751
 3450SOL    HW111249   0.726   2.935   6.806
 3450SOL    HW211250   0.761   2.809   6.709
 3451SOL     OW11251   1.247   5.413   3.027
 3451SOL    HW111252   1.244   5.317   3.052
 3451SOL    HW211253   1.294   5.465   3.098
 3452SOL     OW11254   5.658   2.046   6.891
 3452SOL    HW111255   5.683   1.975   6.825
 3452SOL    HW211256   5.577   2.016   6.943
 3453SOL     OW11257   6.671   6.344   6.054
 3453SOL    HW111258   6.651   6.437   6.022
 3453SOL    HW211259   6.770   6.330   6.055
 3454SOL     OW11260   1.800   0.956   6.659
 3454SOL    HW111261   1.739   1.016   6.608
 3454SOL    HW211262   1.753   0.922   6.741
 3455SOL     OW11263   2.059   3.366   4.551
 3455SOL    HW111264   2.093   3.291   4.496
 3455SOL    HW211265   2.108   3.369   4.638
 3456SOL     OW11266   5.485   6.534   2.606
 3456SOL    HW111267   5.494   6.434   2.600
 3456SOL    HW211268   5.482   6.561   2.703
 3457SOL     OW11269   2.362   5.547   4.043
 3457SOL    HW111270   2.461   5.558   4.035
 3457SOL    HW211271   2.337   5.538   4.139
 3458SOL     OW11272   5.063   6.927   0.252
 3458SOL    HW111273   5.150   6.906   0.296
 3458SOL    HW211274   5.012   6.843   0.235
 3459SOL     OW11275   6.377   3.575   2.627
 3459SOL    HW111276   6.291   3.581   2.679
 3459SOL    HW211277   6.437   3.509   2.670
 3460SOL     OW11278   2.597   3.783   0.278
 3460SOL    HW111279   2.606   3.695   0.233
 3460SOL    HW211280   2.503   3.816   0.269
 3461SOL     OW11281   4.441   5.808   4.617
 3461SOL    HW111282   4.403   5.831   4.528
 3461SOL    HW211283   4.368   5.809   4.686
 3462SOL     OW11284   0.178   3.827   2.393
 3462SOL    HW111285   0.251   3.787   2.337
 3462SOL    HW211286   0.163   3.770   2.474
 3463SOL     OW11287   1.017   2.995   3.072
 3463SOL    HW111288   0.999   2.897   3.065
 3463SOL    HW211289   1.107   3.016   3.033
 3464SOL     OW11290   6.504   2.302   0.017
 3464SOL    HW111291   6.413   2.328   7.002
 3464SOL    HW211292   6.563   2.282   6.955
 3465SOL     OW11293   0.308   3.052   1.825
 3465SOL    HW111294   0.247   3.131   1.815
 3465SOL    HW211295   0.288   2.986   1.753
 3466SOL     OW11296   6.828   4.433   6.373
 3466SOL    HW111297   6.814   4.362   6.442
 3466SOL    HW211298   6.774   4.411   6.292
 3467SOL     OW11299   2.151   1.808   0.586
 3467SOL    HW111300   2.251   1.809   0.576
 3467SOL    HW211301   2.124   1.875   0.656
 3468SOL     OW11302   5.299   1.050   3.087
 3468SOL    HW111303   5.258   1.141   3.086
 3468SOL    HW211304   5.291   1.008   2.997
 3469SOL     OW11305   4.663   0.713   4.405
 3469SOL    HW111306   4.611   0.737   4.488
 3469SOL    HW211307   4.601   0.672   4.338
 3470SOL     OW11308   0.436   2.334   1.681
 3470SOL    HW111309   0.359   2.275   1.657
 3470SOL    HW211310   0.521   2.282   1.677
 3471SOL     OW11311   4.652   4.380   3.889
 3471SOL    HW111312   4.688   4.467   3.923
 3471SOL    HW211313   4.601   4.396   3.805
 3472SOL     OW11314   2.715   0.681   1.785
 3472SOL    HW111315   2.689   0.770   1.823
 3472SOL    HW211316   2.728   0.690   1.686
 3473SOL     OW11317   6.702   2.954   2.571
 3473SOL    HW111318   6.767   2.970   2.497
 3473SOL    HW211319   6.705   3.030   2.635
 3474SOL     OW11320   0.275   4.669   2.463
 3474SOL    HW111321   0.190   4.630   2.499
 3474SOL    HW211322   0.322   4.720   2.535
 3475SOL     OW11323   1.068   4.567   3.869
 3475SOL    HW111324   0.975   4.560   3.832
 3475SOL    HW211325   1.071   4.528   3.961
 3476SOL     OW11326   2.553   2.122   2.546
 3476SOL    HW111327   2.558   2.075   2.634
 3476SOL    HW211328   2.593   2.213   2.555
 3477SOL     OW11329   2.012   4.972   0.863
 3477SOL    HW111330   1.991   4.974   0.961
 3477SOL    HW211331   2.018   4.877   0.832
 3478SOL     OW11332   2.250   5.973   5.915
 3478SOL    HW111333   2.215   5.934   6.000
 3478SOL    HW211334   2.348   5.991   5.924
 3479SOL     OW11335   0.794   0.588   3.144
 3479SOL    HW111336   0.861   0.520   3.176
 3479SOL    HW211337   0.819   0.678   3.180
 3480SOL     OW11338   6.962   5.597   4.690
 3480SOL    HW111339   7.013   5.512   4.704
 3480SOL    HW211340   0.008   5.674   4.698
 3481SOL     OW11341   5.003   0.979   0.511
 3481SOL    HW111342   4.986   0.916   0.436
 3481SOL    HW211343   5.084   1.035   0.490
 3482SOL     OW11344   6.604   1.073   1.949
 3482SOL    HW111345   6.506   1.085   1.960
 3482SOL    HW211346   6.650   1.160   1.967
 3483SOL     OW11347   5.319   2.252   1.791
 3483SOL    HW111348   5.341   2.347   1.813
 3483SOL    HW211349   5.316   2.198   1.875
 3484SOL     OW11350   1.006   2.897   0.488
 3484SOL    HW111351   1.059   2.936   0.564
 3484SOL    HW211352   1.048   2.923   0.402
 3485SOL     OW11353   2.044   1.629   4.491
 3485SOL    HW111354   1.973   1.695   4.517
 3485SOL    HW211355   2.108   1.673   4.428
 3486SOL     OW11356   2.529   0.447   3.256
 3486SOL    HW111357   2.491   0.354   3.256
 3486SOL    HW211358   2.615   0.448   3.206
 3487SOL     OW11359   6.957   1.993   0.739
 3487SOL    HW111360   6.866   1.970   0.772
 3487SOL    HW211361   0.002   2.004   0.816
 3488SOL     OW11362   5.869   0.860   5.384
 3488SOL    HW111363   5.929   0.820   5.453
 3488SOL    HW211364   5.835   0.788   5.324
 3489SOL     OW11365   3.879   0.487   1.803
 3489SOL    HW111366   3.827   0.533   1.875
 3489SOL    HW211367   3.863   0.532   1.716
 3490SOL     OW11368   4.293   4.306   1.122
 3490SOL    HW111369   4.327   4.214   1.104
 3490SOL    HW211370   4.291   4.359   1.037
 3491SOL     OW11371   4.468   2.247   5.850
 3491SOL    HW111372   4.505   2.252   5.758
 3491SOL    HW211373   4.539   2.216   5.913
 3492SOL     OW11374   6.786   3.930   1.014
 3492SOL    HW111375   6.835   3.956   1.097
 3492SOL    HW211376   6.767   3.832   1.015
 3493SOL     OW11377   4.730   4.177   4.489
 3493SOL    HW111378   4.670   4.245   4.532
 3493SOL    HW211379   4.752   4.205   4.396
 3494SOL     OW11380   2.763   1.012   1.493
 3494SOL    HW111381   2.852   1.035   1.533
 3494SOL    HW211382   2.725   0.933   1.542
 3495SOL     OW11383   6.153   4.777   1.895
 3495SOL    HW111384   6.234   4.797   1.841
 3495SOL    HW211385   6.160   4.686   1.935
 3496SOL     OW11386   6.056   5.102   0.845
 3496SOL    HW111387   6.057   5.016   0.896
 3496SOL    HW211388   6.103   5.172   0.898
 3497SOL     OW11389   2.718   1.418   3.534
 3497SOL    HW111390   2.668   1.487   3.587
 3497SOL    HW211391   2.734   1.337   3.591
 3498SOL     OW11392   3.231   1.838   1.445
 3498SOL    HW111393   3.155   1.825   1.509
 3498SOL    HW211394   3.259   1.750   1.406
 3499SOL     OW11395   5.671   3.912   4.153
 3499SOL    HW111396   5.630   4.003   4.144
 3499SOL    HW211397   5.698   3.879   4.063
 3500SOL     OW11398   1.635   3.199   3.860
 3500SOL    HW111399   1.730   3.172   3.876
 3500SOL    HW211400   1.632   3.292   3.824
 3501SOL     OW11401   3.144   5.934   6.021
 3501SOL    HW111402   3.173   5.901   6.111
 3501SOL    HW211403   3.098   6.022   6.030
 3502SOL     OW11404   6.616   1.662   1.404
 3502SOL    HW111405   6.527   1.623   1.431
 3502SOL    HW211406   6.629   1.750   1.451
 3503SOL     OW11407   6.375   5.721   4.973
 3503SOL    HW111408   6.415   5.685   5.057
 3503SOL    HW211409   6.324   5.805   4.994
 3504SOL     OW11410   2.203   0.224   1.545
 3504SOL    HW111411   2.251   0.306   1.577
 3504SOL    HW211412   2.254   0.143   1.573
 3505SOL     OW11413   5.208   4.261   5.928
 3505SOL    HW111414   5.264   4.238   6.008
 3505SOL    HW211415   5.131   4.197   5.923
 3506SOL     OW11416   5.415   4.696   5.447
 3506SOL    HW111417   5.386   4.620   5.505
 3506SOL    HW211418   5.389   4.783   5.491
 3507SOL     OW11419   2.651   0.636   1.033
 3507SOL    HW111420   2.687   0.696   0.962
 3507SOL    HW211421   2.692   0.659   1.121
 3508SOL     OW11422   1.949   2.143   5.938
 3508SOL    HW111423   1.953   2.186   6.028
 3508SOL    HW211424   2.007   2.194   5.874
 3509SOL     OW11425   5.031   0.288   6.874
 3509SOL    HW111426   5.034   0.388   6.875
 3509SOL    HW211427   4.940   0.258   6.844
 3510SOL     OW11428   1.212   0.872   1.971
 3510SOL    HW111429   1.301   0.827   1.971
 3510SOL    HW211430   1.196   0.914   2.061
 3511SOL     OW11431   2.139   4.652   1.332
 3511SOL    HW111432   2.149   4.704   1.416
 3511SOL    HW211433   2.100   4.562   1.353
 3512SOL     OW11434   0.705   4.788   0.262
 3512SOL    HW111435   0.791   4.759   0.305
 3512SOL    HW211436   0.718   4.795   0.163
 3513SOL     OW11437   5.491   2.234   0.462
 3513SOL    HW111438   5.511   2.331   0.446
 3513SOL    HW211439   5.528   2.180   0.386
 3514SOL     OW11440   0.026   1.027   1.915
 3514SOL    HW111441   0.079   1.055   1.835
 3514SOL    HW211442   0.007   1.107   1.972
 3515SOL     OW11443   4.483   6.029   3.127
 3515SOL    HW111444   4.581   6.034   3.107
 3515SOL    HW211445   4.454   5.933   3.133
 3516SOL     OW11446   5.096   6.939   0.928
 3516SOL    HW111447   5.100   0.020   0.908
 3516SOL    HW211448   5.171   6.892   0.880
 3517SOL     OW11449   0.771   2.028   1.275
 3517SOL    HW111450   0.784   1.981   1.188
 3517SOL    HW211451   0.678   2.064   1.280
 3518SOL     OW11452   4.859   3.152   4.756
 3518SOL    HW111453   4.816   3.242   4.751
 3518SOL    HW211454   4.950   3.156   4.716
 3519SOL     OW11455   1.427   1.156   6.229
 3519SOL    HW111456   1.442   1.254   6.240
 3519SOL    HW211457   1.476   1.107   6.301
 3520SOL     OW11458   3.168   5.704   6.838
 3520SOL    HW111459   3.224   5.646   6.779
 3520SOL    HW211460   3.153   5.793   6.794
 3521SOL     OW11461   4.890   2.602   0.148
 3521SOL    HW111462   4.806   2.556   0.177
 3521SOL    HW211463   4.895   2.604   0.048
 3522SOL     OW11464   0.488   4.816   0.843
 3522SOL    HW111465   0.405   4.766   0.817
 3522SOL    HW211466   0.555   4.753   0.880
 3523SOL     OW11467   1.251   4.515   5.664
 3523SOL    HW111468   1.266   4.610   5.693
 3523SOL    HW211469   1.306   4.497   5.582
 3524SOL     OW11470   4.980   1.431   1.659
 3524SOL    HW111471   5.002   1.338   1.689
 3524SOL    HW211472   4.887   1.454   1.687
 3525SOL     OW11473   6.867   4.592   3.600
 3525SOL    HW111474   6.844   4.615   3.505
 3525SOL    HW211475   6.945   4.530   3.600
 3526SOL     OW11476   2.235   6.741   3.835
 3526SOL    HW111477   2.326   6.719   3.800
 3526SOL    HW211478   2.244   6.782   3.926
 3527SOL     OW11479   5.558   3.367   5.996
 3527SOL    HW111480   5.487   3.300   5.975
 3527SOL    HW211481   5.529   3.423   6.074
 3528SOL     OW11482   1.454   6.309   5.328
 3528SOL    HW111483   1.364   6.306   5.370
 3528SOL    HW211484   1.520   6.348   5.392
 3529SOL     OW11485   3.967   0.517   0.477
 3529SOL    HW111486   4.021   0.555   0.401
 3529SOL    HW211487   3.949   0.420   0.460
 3530SOL     OW11488   6.298   5.695   2.337
 3530SOL    HW111489   6.332   5.620   2.394
 3530SOL    HW211490   6.348   5.779   2.359
 3531SOL     OW11491   5.397   3.286   1.151
 3531SOL    HW111492   5.297   3.291   1.155
 3531SOL    HW211493   5.425   3.191   1.148
 3532SOL     OW11494   2.557   6.637   1.940
 3532SOL    HW111495   2.630   6.672   1.999
 3532SOL    HW211496   2.588   6.637   1.845
 3533SOL     OW11497   1.072   1.823   2.797
 3533SOL    HW111498   1.170   1.807   2.797
 3533SOL    HW211499   1.033   1.796   2.709
 3534SOL     OW11500   6.975   1.809   1.030
 3534SOL    HW111501   6.895   1.833   1.086
 3534SOL    HW211502   0.035   1.788   1.090
 3535SOL     OW11503   1.539   5.383   6.733
 3535SOL    HW111504   1.487   5.449   6.679
 3535SOL    HW211505   1.628   5.368   6.689
 3536SOL     OW11506   3.396   1.725   3.314
 3536SOL    HW111507   3.342   1.644   3.292
 3536SOL    HW211508   3.367   1.800   3.254
 3537SOL     OW11509   3.187   5.813   2.346
 3537SOL    HW111510   3.099   5.851   2.375
 3537SOL    HW211511   3.247   5.803   2.426
 3538SOL     OW11512   1.874   6.921   6.409
 3538SOL    HW111513   1.876   6.901   6.311
 3538SOL    HW211514   1.967   6.932   6.443
 3539SOL     OW11515   3.720   3.259   5.781
 3539SOL    HW111516   3.646   3.257   5.848
 3539SOL    HW211517   3.807   3.242   5.827
 3540SOL     OW11518   1.886   2.497   5.509
 3540SOL    HW111519   1.839   2.413   5.535
 3540SOL    HW211520   1.862   2.520   5.415
 3541SOL     OW11521   2.061   3.036   5.956
 3541SOL    HW111522   2.007   2.955   5.935
 3541SOL    HW211523   2.019   3.086   6.032
 3542SOL     OW11524   1.853   5.514   3.178
 3542SOL    HW111525   1.777   5.578   3.188
 3542SOL    HW211526   1.889   5.519   3.085
 3543SOL     OW11527   0.797   2.360   4.783
 3543SOL    HW111528   0.759   2.273   4.816
 3543SOL    HW211529   0.788   2.430   4.854
 3544SOL     OW11530   2.103   4.317   6.049
 3544SOL    HW111531   2.181   4.322   5.987
 3544SOL    HW211532   2.133   4.285   6.139
 3545SOL     OW11533   4.091   5.580   0.343
 3545SOL    HW111534   4.026   5.555   0.415
 3545SOL    HW211535   4.136   5.666   0.367
 3546SOL     OW11536   1.161   4.018   4.393
 3546SOL    HW111537   1.088   3.990   4.331
 3546SOL    HW211538   1.134   3.998   4.487
 3547SOL     OW11539   6.879   4.282   3.703
 3547SOL    HW111540   6.883   4.326   3.792
 3547SOL    HW211541   6.953   4.317   3.645
 3548SOL     OW11542   5.938   1.707   5.970
 3548SOL    HW111543   5.848   1.729   5.932
 3548SOL    HW211544   5.933   1.618   6.017
 3549SOL     OW11545   6.242   5.084   6.020
 3549SOL    HW111546   6.220   4.988   6.036
 3549SOL    HW211547   6.178   5.141   6.072
 3550SOL     OW11548   6.415   2.218   2.612
 3550SOL    HW111549   6.339   2.202   2.675
 3550SOL    HW211550   6.422   2.142   2.548
 3551SOL     OW11551   3.802   0.637   2.054
 3551SOL    HW111552   3.722   0.675   2.006
 3551SOL    HW211553   3.817   0.686   2.139
 3552SOL     OW11554   5.571   6.590   2.192
 3552SOL    HW111555   5.575   6.626   2.285
 3552SOL    HW211556   5.579   6.664   2.126
 3553SOL     OW11557   5.329   4.021   1.161
 3553SOL    HW111558   5.246   3.966   1.176
 3553SOL    HW211559   5.404   3.960   1.137
 3554SOL     OW11560   4.162   2.483   0.838
 3554SOL    HW111561   4.120   2.448   0.754
 3554SOL    HW211562   4.104   2.461   0.916
 3555SOL     OW11563   1.134   3.838   3.853
 3555SOL    HW111564   1.155   3.815   3.948
 3555SOL    HW211565   1.054   3.899   3.851
 3556SOL     OW11566   4.647   1.271   3.189
 3556SOL    HW111567   4.658   1.175   3.166
 3556SOL    HW211568   4.736   1.312   3.207
 3557SOL     OW11569   1.409   0.135   3.904
 3557SOL    HW111570   1.487   0.168   3.958
 3557SOL    HW211571   1.359   0.213   3.866
 3558SOL     OW11572   1.169   6.733   1.379
 3558SOL    HW111573   1.107   6.763   1.307
 3558SOL    HW211574   1.237   6.671   1.340
 3559SOL     OW11575   0.319   6.023   4.786
 3559SOL    HW111576   0.348   6.116   4.808
 3559SOL    HW211577   0.270   5.984   4.865
 3560SOL     OW11578   0.844   5.642   1.523
 3560SOL    HW111579   0.748   5.647   1.551
 3560SOL    HW211580   0.853   5.677   1.429
 3561SOL     OW11581   4.314   4.798   5.313
 3561SOL    HW111582   4.232   4.756   5.352
 3561SOL    HW211583   4.305   4.804   5.214
 3562SOL     OW11584   5.172   1.118   3.485
 3562SOL    HW111585   5.167   1.139   3.582
 3562SOL    HW211586   5.100   1.053   3.461
 3563SOL     OW11587   5.818   1.334   0.313
 3563SOL    HW111588   5.742   1.391   0.344
 3563SOL    HW211589   5.812   1.322   0.214
 3564SOL     OW11590   1.546   4.315   3.949
 3564SOL    HW111591   1.453   4.317   3.986
 3564SOL    HW211592   1.563   4.400   3.899
 3565SOL     OW11593   3.751   5.734   5.115
 3565SOL    HW111594   3.841   5.774   5.131
 3565SOL    HW211595   3.761   5.642   5.077
 3566SOL     OW11596   6.744   3.585   6.294
 3566SOL    HW111597   6.675   3.512   6.289
 3566SOL    HW211598   6.834   3.546   6.277
 3567SOL     OW11599   1.086   3.205   6.939
 3567SOL    HW111600   1.093   3.155   6.853
 3567SOL    HW211601   0.990   3.230   6.955
 3568SOL     OW11602   4.981   5.791   3.825
 3568SOL    HW111603   4.904   5.840   3.785
 3568SOL    HW211604   4.991   5.816   3.921
 3569SOL     OW11605   2.949   2.915   6.102
 3569SOL    HW111606   2.896   2.842   6.059
 3569SOL    HW211607   2.987   2.975   6.031
 3570SOL     OW11608   5.152   0.062   4.836
 3570SOL    HW111609   5.219   0.122   4.793
 3570SOL    HW211610   5.175   0.049   4.932
 3571SOL     OW11611   2.010   0.600   5.163
 3571SOL    HW111612   1.916   0.611   5.130
 3571SOL    HW211613   2.049   0.689   5.186
 3572SOL     OW11614   5.511   3.646   2.670
 3572SOL    HW111615   5.609   3.641   2.654
 3572SOL    HW211616   5.462   3.630   2.585
 3573SOL     OW11617   6.383   3.931   2.651
 3573SOL    HW111618   6.362   3.964   2.743
 3573SOL    HW211619   6.337   3.843   2.636
 3574SOL     OW11620   0.887   3.105   0.708
 3574SOL    HW111621   0.902   3.017   0.752
 3574SOL    HW211622   0.860   3.173   0.776
 3575SOL     OW11623   4.871   5.634   2.699
 3575SOL    HW111624   4.866   5.584   2.613
 3575SOL    HW211625   4.895   5.571   2.773
 3576SOL     OW11626   0.747   2.092   0.228
 3576SOL    HW111627   0.702   2.021   0.283
 3576SOL    HW211628   0.755   2.061   0.134
 3577SOL     OW11629   1.617   2.825   6.548
 3577SOL    HW111630   1.598   2.904   6.489
 3577SOL    HW211631   1.557   2.749   6.521
 3578SOL     OW11632   5.230   1.805   1.285
 3578SOL    HW111633   5.293   1.865   1.237
 3578SOL    HW211634   5.140   1.811   1.243
 3579SOL     OW11635   6.737   2.344   2.854
 3579SOL    HW111636   6.773   2.269   2.798
 3579SOL    HW211637   6.801   2.364   2.929
 3580SOL     OW11638   5.921   2.931   0.329
 3580SOL    HW111639   5.897   2.949   0.233
 3580SOL    HW211640   5.858   2.979   0.389
 3581SOL     OW11641   0.773   5.607   3.450
 3581SOL    HW111642   0.751   5.644   3.540
 3581SOL    HW211643   0.700   5.628   3.386
 3582SOL     OW11644   1.734   4.473   5.440
 3582SOL    HW111645   1.812   4.522   5.400
 3582SOL    HW211646   1.711   4.515   5.528
 3583SOL     OW11647   1.368   4.864   0.141
 3583SOL    HW111648   1.400   4.781   0.186
 3583SOL    HW211649   1.362   4.850   0.043
 3584SOL     OW11650   5.621   4.431   5.412
 3584SOL    HW111651   5.676   4.490   5.472
 3584SOL    HW211652   5.525   4.461   5.415
 3585SOL     OW11653   2.567   2.320   4.793
 3585SOL    HW111654   2.509   2.242   4.817
 3585SOL    HW211655   2.598   2.365   4.876
 3586SOL     OW11656   6.749   1.620   4.896
 3586SOL    HW111657   6.763   1.706   4.849
 3586SOL    HW211658   6.652   1.610   4.920
 3587SOL     OW11659   1.932   5.784   5.954
 3587SOL    HW111660   2.021   5.772   5.998
 3587SOL    HW211661   1.926   5.723   5.875
 3588SOL     OW11662   6.690   2.832   5.168
 3588SOL    HW111663   6.783   2.815   5.200
 3588SOL    HW211664   6.690   2.910   5.106
 3589SOL     OW11665   5.932   0.639   6.311
 3589SOL    HW111666   5.983   0.603   6.233
 3589SOL    HW211667   5.968   0.601   6.396
 3590SOL     OW11668   6.836   3.550   0.419
 3590SOL    HW111669   6.862   3.645   0.435
 3590SOL    HW211670   6.852   3.527   0.323
 3591SOL     OW11671   5.337   3.784   0.134
 3591SOL    HW111672   5.319   3.736   0.048
 3591SOL    HW211673   5.407   3.735   0.186
 3592SOL     OW11674   0.321   6.874   3.027
 3592SOL    HW111675   0.358   6.782   3.036
 3592SOL    HW211676   0.392   6.935   2.992
 3593SOL     OW11677   0.150   4.210   5.896
 3593SOL    HW111678   0.152   4.223   5.996
 3593SOL    HW211679   0.153   4.299   5.851
 3594SOL     OW11680   4.567   0.252   3.728
 3594SOL    HW111681   4.505   0.174   3.732
 3594SOL    HW211682   4.587   0.284   3.821
 3595SOL     OW11683   5.368   5.986   6.434
 3595SOL    HW111684   5.272   6.014   6.443
 3595SOL    HW211685   5.373   5.887   6.425
 3596SOL     OW11686   5.105   3.077   3.462
 3596SOL    HW111687   5.021   3.130   3.472
 3596SOL    HW211688   5.083   2.984   3.435
 3597SOL     OW11689   1.684   2.846   5.265
 3597SOL    HW111690   1.777   2.857   5.298
 3597SOL    HW211691   1.628   2.803   5.336
 3598SOL     OW11692   1.951   6.585   5.916
 3598SOL    HW111693   1.918   6.606   6.008
 3598SOL    HW211694   2.032   6.641   5.896
 3599SOL     OW11695   4.770   2.316   0.776
 3599SOL    HW111696   4.687   2.370   0.773
 3599SOL    HW211697   4.804   2.301   0.683
 3600SOL     OW11698   0.606   2.815   2.162
 3600SOL    HW111699   0.687   2.805   2.219
 3600SOL    HW211700   0.630   2.867   2.080
 3601SOL     OW11701   5.357   2.872   5.857
 3601SOL    HW111702   5.339   2.790   5.911
 3601SOL    HW211703   5.276   2.895   5.803
 3602SOL     OW11704   1.130   3.903   1.147
 3602SOL    HW111705   1.143   3.986   1.093
 3602SOL    HW211706   1.051   3.852   1.113
 3603SOL     OW11707   3.634   1.075   4.356
 3603SOL    HW111708   3.680   1.047   4.272
 3603SOL    HW211709   3.593   1.166   4.343
 3604SOL     OW11710   6.775   6.950   3.820
 3604SOL    HW111711   6.780   0.010   3.884
 3604SOL    HW211712   6.850   6.886   3.838
 3605SOL     OW11713   0.821   4.531   3.781
 3605SOL    HW111714   0.781   4.574   3.701
 3605SOL    HW211715   0.780   4.441   3.794
 3606SOL     OW11716   1.222   6.489   3.492
 3606SOL    HW111717   1.227   6.576   3.542
 3606SOL    HW211718   1.281   6.422   3.537
 3607SOL     OW11719   5.438   3.854   1.852
 3607SOL    HW111720   5.526   3.884   1.817
 3607SOL    HW211721   5.432   3.876   1.950
 3608SOL     OW11722   4.938   1.419   4.760
 3608SOL    HW111723   4.860   1.433   4.820
 3608SOL    HW211724   4.912   1.358   4.685
 3609SOL     OW11725   2.441   0.228   4.156
 3609SOL    HW111726   2.494   0.161   4.208
 3609SOL    HW211727   2.348   0.195   4.143
 3610SOL     OW11728   1.733   0.985   5.925
 3610SOL    HW111729   1.655   1.048   5.921
 3610SOL    HW211730   1.767   0.981   6.019
 3611SOL     OW11731   4.155   4.777   3.711
 3611SOL    HW111732   4.161   4.741   3.618
 3611SOL    HW211733   4.194   4.710   3.775
 3612SOL     OW11734   0.564   0.701   6.262
 3612SOL    HW111735   0.529   0.784   6.218
 3612SOL    HW211736   0.509   0.623   6.233
 3613SOL     OW11737   5.186   4.478   2.114
 3613SOL    HW111738   5.209   4.381   2.116
 3613SOL    HW211739   5.151   4.507   2.203
 3614SOL     OW11740   3.230   3.951   0.428
 3614SOL    HW111741   3.311   3.923   0.480
 3614SOL    HW211742   3.179   4.019   0.480
 3615SOL     OW11743   5.562   2.427   6.146
 3615SOL    HW111744   5.484   2.372   6.176
 3615SOL    HW211745   5.557   2.442   6.048
 3616SOL     OW11746   1.060   0.199   6.095
 3616SOL    HW111747   1.120   0.174   6.171
 3616SOL    HW211748   1.114   0.239   6.021
 3617SOL     OW11749   4.314   0.618   5.447
 3617SOL    HW111750   4.251   0.543   5.425
 3617SOL    HW211751   4.266   0.705   5.436
 3618SOL     OW11752   2.502   3.238   5.409
 3618SOL    HW111753   2.476   3.179   5.333
 3618SOL    HW211754   2.529   3.328   5.375
 3619SOL     OW11755   5.519   3.316   6.376
 3619SOL    HW111756   5.595   3.258   6.346
 3619SOL    HW211757   5.441   3.259   6.402
 3620SOL     OW11758   5.768   5.702   5.611
 3620SOL    HW111759   5.726   5.757   5.540
 3620SOL    HW211760   5.698   5.669   5.674
 3621SOL     OW11761   3.363   2.979   4.811
 3621SOL    HW111762   3.303   3.058   4.825
 3621SOL    HW211763   3.393   2.944   4.900
 3622SOL     OW11764   2.288   0.977   0.752
 3622SOL    HW111765   2.267   1.037   0.829
 3622SOL    HW211766   2.232   0.894   0.758
 3623SOL     OW11767   6.486   5.462   4.629
 3623SOL    HW111768   6.474   5.420   4.540
 3623SOL    HW211769   6.462   5.397   4.701
 3624SOL     OW11770   1.352   6.791   2.058
 3624SOL    HW111771   1.424   6.856   2.034
 3624SOL    HW211772   1.393   6.709   2.097
 3625SOL     OW11773   6.864   3.319   6.325
 3625SOL    HW111774   6.888   3.271   6.409
 3625SOL    HW211775   6.945   3.332   6.269
 3626SOL     OW11776   0.818   2.886   5.497
 3626SOL    HW111777   0.800   2.961   5.434
 3626SOL    HW211778   0.741   2.874   5.558
 3627SOL     OW11779   4.414   3.336   1.648
 3627SOL    HW111780   4.346   3.409   1.652
 3627SOL    HW211781   4.382   3.258   1.702
 3628SOL     OW11782   1.257   1.261   2.155
 3628SOL    HW111783   1.215   1.198   2.220
 3628SOL    HW211784   1.357   1.258   2.165
 3629SOL     OW11785   0.960   0.377   4.994
 3629SOL    HW111786   0.967   0.409   5.088
 3629SOL    HW211787   0.948   0.455   4.933
 3630SOL     OW11788   6.797   3.203   3.659
 3630SOL    HW111789   6.762   3.166   3.745
 3630SOL    HW211790   6.793   3.303   3.663
 3631SOL     OW11791   1.775   6.916   3.425
 3631SOL    HW111792   1.823   6.830   3.442
 3631SOL    HW211793   1.684   6.896   3.388
 3632SOL     OW11794   4.988   4.593   0.503
 3632SOL    HW111795   4.940   4.680   0.488
 3632SOL    HW211796   4.991   4.542   0.417
 3633SOL     OW11797   4.684   2.899   6.114
 3633SOL    HW111798   4.721   2.969   6.175
 3633SOL    HW211799   4.656   2.940   6.027
 3634SOL     OW11800   1.968   6.259   6.090
 3634SOL    HW111801   1.907   6.199   6.038
 3634SOL    HW211802   2.054   6.272   6.039
 3635SOL     OW11803   2.739   1.191   0.955
 3635SOL    HW111804   2.678   1.122   0.915
 3635SOL    HW211805   2.697   1.229   1.037
 3636SOL     OW11806   6.550   5.776   0.682
 3636SOL    HW111807   6.513   5.784   0.589
 3636SOL    HW211808   6.508   5.846   0.740
 3637SOL     OW11809   0.842   2.901   1.197
 3637SOL    HW111810   0.837   2.996   1.229
 3637SOL    HW211811   0.887   2.898   1.108
 3638SOL     OW11812   6.860   4.313   2.959
 3638SOL    HW111813   6.815   4.402   2.965
 3638SOL    HW211814   6.945   4.315   3.011
 3639SOL     OW11815   3.613   5.153   6.318
 3639SOL    HW111816   3.566   5.082   6.371
 3639SOL    HW211817   3.711   5.137   6.320
 3640SOL     OW11818   4.785   2.013   0.670
 3640SOL    HW111819   4.874   1.979   0.643
 3640SOL    HW211820   4.791   2.059   0.758
 3641SOL     OW11821   5.780   3.707   1.426
 3641SOL    HW111822   5.840   3.720   1.347
 3641SOL    HW211823   5.741   3.615   1.423
 3642SOL     OW11824   4.968   2.287   6.669
 3642SOL    HW111825   5.008   2.205   6.628
 3642SOL    HW211826   4.886   2.313   6.618
 3643SOL     OW11827   4.222   5.847   5.912
 3643SOL    HW111828   4.256   5.941   5.912
 3643SOL    HW211829   4.122   5.848   5.918
 3644SOL     OW11830   2.306   0.538   1.453
 3644SOL    HW111831   2.276   0.514   1.545
 3644SOL    HW211832   2.400   0.507   1.439
 3645SOL     OW11833   0.882   3.491   4.199
 3645SOL    HW111834   0.901   3.397   4.224
 3645SOL    HW211835   0.859   3.544   4.280
 3646SOL     OW11836   1.821   4.202   5.370
 3646SOL    HW111837   1.854   4.196   5.275
 3646SOL    HW211838   1.797   4.297   5.391
 3647SOL     OW11839   2.504   6.101   6.917
 3647SOL    HW111840   2.564   6.040   6.970
 3647SOL    HW211841   2.557   6.180   6.885
 3648SOL     OW11842   4.960   5.693   3.199
 3648SOL    HW111843   4.979   5.611   3.252
 3648SOL    HW211844   5.011   5.770   3.238
 3649SOL     OW11845   6.460   3.402   0.311
 3649SOL    HW111846   6.444   3.405   0.410
 3649SOL    HW211847   6.382   3.441   0.263
 3650SOL     OW11848   6.170   4.409   0.783
 3650SOL    HW111849   6.111   4.489   0.793
 3650SOL    HW211850   6.266   4.437   0.792
 3651SOL     OW11851   2.127   0.173   4.355
 3651SOL    HW111852   2.165   0.139   4.269
 3651SOL    HW211853   2.200   0.186   4.421
 3652SOL     OW11854   5.842   6.840   3.119
 3652SOL    HW111855   5.794   6.755   3.098
 3652SOL    HW211856   5.839   6.856   3.218
 3653SOL     OW11857   2.094   0.960   3.027
 3653SOL    HW111858   2.097   0.928   3.122
 3653SOL    HW211859   2.147   0.898   2.970
 3654SOL     OW11860   5.019   5.832   0.372
 3654SOL    HW111861   4.991   5.737   0.357
 3654SOL    HW211862   4.946   5.881   0.419
 3655SOL     OW11863   3.057   1.378   3.946
 3655SOL    HW111864   3.120   1.442   3.901
 3655SOL    HW211865   3.109   1.305   3.990
 3656SOL     OW11866   1.259   5.631   1.418
 3656SOL    HW111867   1.237   5.555   1.355
 3656SOL    HW211868   1.228   5.607   1.510
 3657SOL     OW11869   4.909   5.636   5.063
 3657SOL    HW111870   4.965   5.601   4.989
 3657SOL    HW211871   4.845   5.565   5.093
 3658SOL     OW11872   1.799   5.102   6.757
 3658SOL    HW111873   1.771   5.007   6.774
 3658SOL    HW211874   1.723   5.151   6.713
 3659SOL     OW11875   0.737   1.729   6.668
 3659SOL    HW111876   0.786   1.710   6.583
 3659SOL    HW211877   0.651   1.776   6.646
 3660SOL     OW11878   5.991   5.893   4.687
 3660SOL    HW111879   6.087   5.867   4.696
 3660SOL    HW211880   5.942   5.869   4.771
 3661SOL     OW11881   0.922   0.605   4.881
 3661SOL    HW111882   0.868   0.683   4.914
 3661SOL    HW211883   0.907   0.594   4.782
 3662SOL     OW11884   4.204   1.065   4.335
 3662SOL    HW111885   4.298   1.073   4.369
 3662SOL    HW211886   4.144   1.126   4.388
 3663SOL     OW11887   1.776   2.825   6.781
 3663SOL    HW111888   1.715   2.817   6.702
 3663SOL    HW211889   1.824   2.738   6.794
 3664SOL     OW11890   4.136   2.141   1.662
 3664SOL    HW111891   4.166   2.210   1.728
 3664SOL    HW211892   4.053   2.097   1.695
 3665SOL     OW11893   0.604   5.669   5.630
 3665SOL    HW111894   0.677   5.631   5.573
 3665SOL    HW211895   0.554   5.595   5.674
 3666SOL     OW11896   0.998   3.263   3.135
 3666SOL    HW111897   0.986   3.171   3.098
 3666SOL    HW211898   1.095   3.285   3.138
 3667SOL     OW11899   0.751   1.240   3.705
 3667SOL    HW111900   0.773   1.336   3.722
 3667SOL    HW211901   0.698   1.204   3.781
 3668SOL     OW11902   1.692   0.597   1.539
 3668SOL    HW111903   1.602   0.561   1.567
 3668SOL    HW211904   1.682   0.655   1.459
 3669SOL     OW11905   5.563   1.300   3.833
 3669SOL    HW111906   5.642   1.313   3.893
 3669SOL    HW211907   5.481   1.338   3.877
 3670SOL     OW11908   2.916   5.436   0.562
 3670SOL    HW111909   2.959   5.425   0.472
 3670SOL    HW211910   2.829   5.386   0.563
 3671SOL     OW11911   6.959   0.969   3.982
 3671SOL    HW111912   0.041   0.963   3.970
 3671SOL    HW211913   6.927   1.060   3.955
 3672SOL     OW11914   4.579   2.054   2.276
 3672SOL    HW111915   4.667   2.071   2.231
 3672SOL    HW211916   4.592   1.990   2.352
 3673SOL     OW11917   3.819   5.492   6.703
 3673SOL    HW111918   3.819   5.544   6.789
 3673SOL    HW211919   3.903   5.438   6.697
 3674SOL     OW11920   1.462   5.897   5.453
 3674SOL    HW111921   1.468   5.904   5.353
 3674SOL    HW211922   1.532   5.955   5.495
 3675SOL     OW11923   0.609   2.625   4.447
 3675SOL    HW111924   0.542   2.681   4.398
 3675SOL    HW211925   0.692   2.679   4.463
 3676SOL     OW11926   5.753   2.728   2.743
 3676SOL    HW111927   5.746   2.825   2.765
 3676SOL    HW211928   5.697   2.708   2.663
 3677SOL     OW11929   2.499   0.540   5.099
 3677SOL    HW111930   2.405   0.575   5.104
 3677SOL    HW211931   2.561   0.614   5.072
 3678SOL     OW11932   1.762   1.493   4.044
 3678SOL    HW111933   1.676   1.468   4.089
 3678SOL    HW211934   1.806   1.566   4.095
 3679SOL     OW11935   6.795   0.284   3.759
 3679SOL    HW111936   6.722   0.262   3.695
 3679SOL    HW211937   6.799   0.214   3.830
 3680SOL     OW11938   4.480   2.460   4.433
 3680SOL    HW111939   4.492   2.535   4.498
 3680SOL    HW211940   4.566   2.444   4.385
 3681SOL     OW11941   1.312   0.922   6.198
 3681SOL    HW111942   1.376   0.900   6.272
 3681SOL    HW211943   1.339   1.008   6.155
 3682SOL     OW11944   5.813   2.635   0.390
 3682SOL    HW111945   5.868   2.711   0.357
 3682SOL    HW211946   5.831   2.619   0.487
 3683SOL     OW11947   0.403   1.341   4.550
 3683SOL    HW111948   0.412   1.295   4.639
 3683SOL    HW211949   0.490   1.336   4.501
 3684SOL     OW11950   1.041   5.966   6.990
 3684SOL    HW111951   1.099   5.894   0.013
 3684SOL    HW211952   1.100   6.035   6.948
 3685SOL     OW11953   2.633   6.207   5.459
 3685SOL    HW111954   2.659   6.241   5.550
 3685SOL    HW211955   2.683   6.258   5.389
 3686SOL     OW11956   6.128   4.567   4.057
 3686SOL    HW111957   6.141   4.522   4.146
 3686SOL    HW211958   6.188   4.524   3.990
 3687SOL     OW11959   4.711   6.603   3.567
 3687SOL    HW111960   4.630   6.643   3.610
 3687SOL    HW211961   4.793   6.642   3.608
 3688SOL     OW11962   6.367   3.217   6.668
 3688SOL    HW111963   6.412   3.303   6.644
 3688SOL    HW211964   6.277   3.213   6.625
 3689SOL     OW11965   2.725   2.108   5.442
 3689SOL    HW111966   2.798   2.148   5.498
 3689SOL    HW211967   2.684   2.179   5.385
 3690SOL     OW11968   4.879   6.042   1.432
 3690SOL    HW111969   4.913   6.047   1.526
 3690SOL    HW211970   4.841   6.130   1.406
 3691SOL     OW11971   2.746   1.802   6.010
 3691SOL    HW111972   2.727   1.835   5.917
 3691SOL    HW211973   2.666   1.819   6.068
 3692SOL     OW11974   6.694   4.421   6.121
 3692SOL    HW111975   6.598   4.446   6.133
 3692SOL    HW211976   6.700   4.325   6.094
 3693SOL     OW11977   2.071   1.523   3.132
 3693SOL    HW111978   2.096   1.568   3.046
 3693SOL    HW211979   2.031   1.433   3.113
 3694SOL     OW11980   1.357   6.706   1.781
 3694SOL    HW111981   1.426   6.777   1.795
 3694SOL    HW211982   1.285   6.741   1.722
 3695SOL     OW11983   6.201   1.765   2.098
 3695SOL    HW111984   6.159   1.820   2.026
 3695SOL    HW211985   6.296   1.745   2.074
 3696SOL     OW11986   4.260   0.044   5.588
 3696SOL    HW111987   4.243   6.978   5.535
 3696SOL    HW211988   4.173   0.088   5.611
 3697SOL     OW11989   6.800   6.357   3.036
 3697SOL    HW111990   6.791   6.394   3.129
 3697SOL    HW211991   6.895   6.365   3.006
 3698SOL     OW11992   2.342   1.245   3.671
 3698SOL    HW111993   2.365   1.331   3.714
 3698SOL    HW211994   2.319   1.261   3.575
 3699SOL     OW11995   2.008   1.997   3.455
 3699SOL    HW111996   2.037   1.960   3.543
 3699SOL    HW211997   2.028   1.931   3.382
 3700SOL     OW11998   1.414   5.150   4.755
 3700SOL    HW111999   1.340   5.181   4.815
 3700SOL    HW212000   1.502   5.171   4.798
 3701SOL     OW12001   0.793   6.478   2.873
 3701SOL    HW112002   0.713   6.511   2.922
 3701SOL    HW212003   0.770   6.395   2.823
 3702SOL     OW12004   5.807   6.629   3.421
 3702SOL    HW112005   5.823   6.560   3.350
 3702SOL    HW212006   5.827   6.720   3.383
 3703SOL     OW12007   0.840   0.314   6.661
 3703SOL    HW112008   0.882   0.402   6.681
 3703SOL    HW212009   0.906   0.257   6.611
 3704SOL     OW12010   5.509   3.058   1.242
 3704SOL    HW112011   5.584   3.077   1.305
 3704SOL    HW212012   5.507   2.961   1.219
 3705SOL     OW12013   4.683   4.997   3.794
 3705SOL    HW112014   4.609   5.063   3.806
 3705SOL    HW212015   4.761   5.023   3.851
 3706SOL     OW12016   0.515   4.340   0.037
 3706SOL    HW112017   0.482   4.250   0.010
 3706SOL    HW212018   0.510   4.350   0.137
 3707SOL     OW12019   4.296   5.904   3.868
 3707SOL    HW112020   4.328   5.875   3.778
 3707SOL    HW212021   4.367   5.886   3.936
 3708SOL     OW12022   4.587   6.735   0.865
 3708SOL    HW112023   4.651   6.812   0.866
 3708SOL    HW212024   4.533   6.736   0.948
 3709SOL     OW12025   2.429   0.140   1.343
 3709SOL    HW112026   2.376   0.196   1.279
 3709SOL    HW212027   2.380   0.055   1.362
 3710SOL     OW12028   0.519   5.670   5.062
 3710SOL    HW112029   0.445   5.603   5.062
 3710SOL    HW212030   0.502   5.739   5.132
 3711SOL     OW12031   1.375   6.266   4.833
 3711SOL    HW112032   1.348   6.174   4.864
 3711SOL    HW212033   1.408   6.318   4.912
 3712SOL     OW12034   1.355   6.085   0.029
 3712SOL    HW112035   1.390   6.106   6.955
 3712SOL    HW212036   1.377   5.990   0.053
 3713SOL     OW12037   1.021   0.820   4.722
 3713SOL    HW112038   1.004   0.729   4.683
 3713SOL    HW212039   1.111   0.853   4.691
 3714SOL     OW12040   6.378   5.109   6.691
 3714SOL    HW112041   6.305   5.062   6.740
 3714SOL    HW212042   6.459   5.050   6.687
 3715SOL     OW12043   0.646   5.169   2.546
 3715SOL    HW112044   0.660   5.151   2.643
 3715SOL    HW212045   0.698   5.103   2.492
 3716SOL     OW12046   5.761   5.450   4.405
 3716SOL    HW112047   5.700   5.371   4.405
 3716SOL    HW212048   5.840   5.431   4.463
 3717SOL     OW12049   6.385   1.273   0.885
 3717SOL    HW112050   6.392   1.350   0.821
 3717SOL    HW212051   6.353   1.192   0.836
 3718SOL     OW12052   6.595   0.199   6.730
 3718SOL    HW112053   6.578   0.272   6.796
 3718SOL    HW212054   6.525   0.129   6.739
 3719SOL     OW12055   4.170   3.366   6.422
 3719SOL    HW112056   4.245   3.317   6.465
 3719SOL    HW212057   4.098   3.383   6.489
 3720SOL     OW12058   5.549   3.799   0.613
 3720SOL    HW112059   5.571   3.883   0.564
 3720SOL    HW212060   5.627   3.736   0.608
 3721SOL     OW12061   7.006   5.084   0.730
 3721SOL    HW112062   7.005   5.103   0.828
 3721SOL    HW212063   0.076   5.112   0.691
 3722SOL     OW12064   5.345   6.411   1.577
 3722SOL    HW112065   5.428   6.357   1.591
 3722SOL    HW212066   5.279   6.358   1.523
 3723SOL     OW12067   5.036   5.530   0.150
 3723SOL    HW112068   5.045   5.459   0.079
 3723SOL    HW212069   5.065   5.618   0.113
 3724SOL     OW12070   1.490   4.750   5.498
 3724SOL    HW112071   1.427   4.776   5.572
 3724SOL    HW212072   1.564   4.695   5.535
 3725SOL     OW12073   0.481   6.305   6.948
 3725SOL    HW112074   0.514   6.241   0.001
 3725SOL    HW212075   0.447   6.254   6.869
 3726SOL     OW12076   5.458   3.645   5.934
 3726SOL    HW112077   5.469   3.702   5.853
 3726SOL    HW212078   5.543   3.593   5.950
 3727SOL     OW12079   6.682   3.209   5.127
 3727SOL    HW112080   6.704   3.170   5.216
 3727SOL    HW212081   6.727   3.298   5.117
 3728SOL     OW12082   2.513   3.944   6.741
 3728SOL    HW112083   2.516   3.935   6.641
 3728SOL    HW212084   2.579   4.013   6.770
 3729SOL     OW12085   0.719   0.473   4.240
 3729SOL    HW112086   0.644   0.517   4.291
 3729SOL    HW212087   0.806   0.499   4.280
 3730SOL     OW12088   3.861   5.953   5.751
 3730SOL    HW112089   3.892   5.885   5.818
 3730SOL    HW212090   3.793   5.911   5.691
 3731SOL     OW12091   0.492   1.639   6.909
 3731SOL    HW112092   0.511   1.677   6.818
 3731SOL    HW212093   0.419   1.571   6.902
 3732SOL     OW12094   1.813   2.277   0.568
 3732SOL    HW112095   1.718   2.264   0.538
 3732SOL    HW212096   1.834   2.213   0.641
 3733SOL     OW12097   1.998   2.376   3.561
 3733SOL    HW112098   2.010   2.355   3.658
 3733SOL    HW212099   2.022   2.471   3.543
 3734SOL     OW12100   4.378   0.643   1.370
 3734SOL    HW112101   4.467   0.626   1.328
 3734SOL    HW212102   4.321   0.696   1.307
 3735SOL     OW12103   4.059   0.604   2.404
 3735SOL    HW112104   4.014   0.540   2.341
 3735SOL    HW212105   4.017   0.598   2.494
 3736SOL     OW12106   6.975   1.313   1.276
 3736SOL    HW112107   0.039   1.255   1.267
 3736SOL    HW212108   6.898   1.259   1.308
 3737SOL     OW12109   6.269   1.867   3.412
 3737SOL    HW112110   6.277   1.768   3.406
 3737SOL    HW212111   6.280   1.896   3.507
 3738SOL     OW12112   6.558   6.262   0.990
 3738SOL    HW112113   6.653   6.266   0.960
 3738SOL    HW212114   6.555   6.251   1.089
 3739SOL     OW12115   2.752   4.534   1.647
 3739SOL    HW112116   2.728   4.622   1.605
 3739SOL    HW212117   2.829   4.548   1.710
 3740SOL     OW12118   6.001   5.572   0.161
 3740SOL    HW112119   5.989   5.523   0.075
 3740SOL    HW212120   5.946   5.529   0.233
 3741SOL     OW12121   3.975   2.952   6.626
 3741SOL    HW112122   4.057   2.996   6.662
 3741SOL    HW212123   3.967   2.970   6.528
 3742SOL     OW12124   4.343   0.349   0.641
 3742SOL    HW112125   4.251   0.319   0.666
 3742SOL    HW212126   4.341   0.446   0.617
 3743SOL     OW12127   5.383   4.059   1.432
 3743SOL    HW112128   5.370   4.048   1.333
 3743SOL    HW212129   5.467   4.013   1.460
 3744SOL     OW12130   1.067   6.624   2.327
 3744SOL    HW112131   0.970   6.613   2.307
 3744SOL    HW212132   1.118   6.549   2.284
 3745SOL     OW12133   5.316   4.114   2.410
 3745SOL    HW112134   5.380   4.040   2.430
 3745SOL    HW212135   5.361   4.184   2.355
 3746SOL     OW12136   5.806   0.375   3.285
 3746SOL    HW112137   5.739   0.440   3.247
 3746SOL    HW212138   5.778   0.348   3.377
 3747SOL     OW12139   5.046   6.560   5.667
 3747SOL    HW112140   4.960   6.566   5.717
 3747SOL    HW212141   5.049   6.632   5.597
 3748SOL     OW12142   5.216   0.461   2.191
 3748SOL    HW112143   5.295   0.454   2.251
 3748SOL    HW212144   5.142   0.508   2.239
 3749SOL     OW12145   2.163   4.395   3.426
 3749SOL    HW112146   2.147   4.428   3.519
 3749SOL    HW212147   2.194   4.300   3.429
 3750SOL     OW12148   6.046   4.284   1.126
 3750SOL    HW112149   5.995   4.236   1.054
 3750SOL    HW212150   6.124   4.228   1.154
 3751SOL     OW12151   0.438   2.776   0.884
 3751SOL    HW112152   0.429   2.845   0.956
 3751SOL    HW212153   0.346   2.747   0.856
 3752SOL     OW12154   0.793   6.777   0.379
 3752SOL    HW112155   0.716   6.789   0.442
 3752SOL    HW212156   0.852   6.858   0.383
 3753SOL     OW12157   0.308   0.147   4.376
 3753SOL    HW112158   0.385   0.086   4.355
 3753SOL    HW212159   0.289   0.205   4.297
 3754SOL     OW12160   4.577   6.180   1.752
 3754SOL    HW112161   4.530   6.257   1.796
 3754SOL    HW212162   4.550   6.095   1.797
 3755SOL     OW12163   5.407   5.723   4.891
 3755SOL    HW112164   5.324   5.702   4.943
 3755SOL    HW212165   5.385   5.728   4.794
 3756SOL     OW12166   1.924   0.597   6.278
 3756SOL    HW112167   1.927   0.683   6.329
 3756SOL    HW212168   1.845   0.597   6.217
 3757SOL     OW12169   3.849   6.143   6.791
 3757SOL    HW112170   3.866   6.092   6.706
 3757SOL    HW212171   3.788   6.220   6.772
 3758SOL     OW12172   1.525   1.427   4.140
 3758SOL    HW112173   1.487   1.336   4.123
 3758SOL    HW212174   1.469   1.473   4.209
 3759SOL     OW12175   3.981   4.727   5.181
 3759SOL    HW112176   3.989   4.799   5.112
 3759SOL    HW212177   3.949   4.766   5.267
 3760SOL     OW12178   0.715   3.454   4.438
 3760SOL    HW112179   0.732   3.552   4.452
 3760SOL    HW212180   0.790   3.402   4.479
 3761SOL     OW12181   0.885   6.811   4.877
 3761SOL    HW112182   0.839   6.890   4.838
 3761SOL    HW212183   0.832   6.728   4.857
 3762SOL     OW12184   0.522   5.533   6.724
 3762SOL    HW112185   0.539   5.583   6.809
 3762SOL    HW212186   0.444   5.471   6.737
 3763SOL     OW12187   6.368   4.895   0.210
 3763SOL    HW112188   6.320   4.972   0.253
 3763SOL    HW212189   6.352   4.898   0.111
 3764SOL     OW12190   2.006   0.496   3.754
 3764SOL    HW112191   1.990   0.525   3.848
 3764SOL    HW212192   2.016   0.577   3.695
 3765SOL     OW12193   5.346   1.605   1.980
 3765SOL    HW112194   5.375   1.582   2.072
 3765SOL    HW212195   5.283   1.683   1.983
 3766SOL     OW12196   1.055   1.171   4.614
 3766SOL    HW112197   1.054   1.267   4.643
 3766SOL    HW212198   0.968   1.129   4.638
 3767SOL     OW12199   2.273   5.360   0.415
 3767SOL    HW112200   2.337   5.432   0.386
 3767SOL    HW212201   2.316   5.271   0.403
 3768SOL     OW12202   2.213   5.795   5.508
 3768SOL    HW112203   2.258   5.794   5.598
 3768SOL    HW212204   2.275   5.835   5.440
 3769SOL     OW12205   5.537   5.413   5.081
 3769SOL    HW112206   5.549   5.431   4.984
 3769SOL    HW212207   5.567   5.320   5.102
 3770SOL     OW12208   1.771   0.500   6.893
 3770SOL    HW112209   1.692   0.448   6.927
 3770SOL    HW212210   1.761   0.514   6.795
 3771SOL     OW12211   5.607   2.069   0.275
 3771SOL    HW112212   5.684   2.132   0.266
 3771SOL    HW212213   5.565   2.055   0.185
 3772SOL     OW12214   6.673   1.464   0.676
 3772SOL    HW112215   6.641   1.445   0.768
 3772SOL    HW212216   6.703   1.560   0.669
 3773SOL     OW12217   5.963   3.058   6.104
 3773SOL    HW112218   5.944   2.997   6.181
 3773SOL    HW212219   6.052   3.036   6.065
 3774SOL     OW12220   0.618   6.612   6.749
 3774SOL    HW112221   0.710   6.645   6.770
 3774SOL    HW212222   0.591   6.544   6.816
 3775SOL     OW12223   5.153   4.178   2.119
 3775SOL    HW112224   5.099   4.186   2.035
 3775SOL    HW212225   5.140   4.087   2.158
 3776SOL     OW12226   3.582   0.932   0.925
 3776SOL    HW112227   3.679   0.922   0.946
 3776SOL    HW212228   3.569   0.937   0.826
 3777SOL     OW12229   3.073   4.836   4.294
 3777SOL    HW112230   2.997   4.787   4.336
 3777SOL    HW212231   3.137   4.866   4.364
 3778SOL     OW12232   2.857   5.589   3.333
 3778SOL    HW112233   2.908   5.543   3.260
 3778SOL    HW212234   2.919   5.650   3.383
 3779SOL     OW12235   1.924   4.477   0.874
 3779SOL    HW112236   1.898   4.481   0.971
 3779SOL    HW212237   1.845   4.500   0.818
 3780SOL     OW12238   4.439   4.665   5.550
 3780SOL    HW112239   4.453   4.727   5.473
 3780SOL    HW212240   4.488   4.700   5.630
 3781SOL     OW12241   1.327   6.663   4.375
 3781SOL    HW112242   1.282   6.666   4.464
 3781SOL    HW212243   1.279   6.597   4.316
 3782SOL     OW12244   2.947   2.254   4.288
 3782SOL    HW112245   2.977   2.201   4.208
 3782SOL    HW212246   2.848   2.268   4.284
 3783SOL     OW12247   5.391   6.443   5.405
 3783SOL    HW112248   5.456   6.489   5.465
 3783SOL    HW212249   5.350   6.366   5.453
 3784SOL     OW12250   5.028   1.917   3.495
 3784SOL    HW112251   5.118   1.878   3.479
 3784SOL    HW212252   5.019   1.943   3.592
 3785SOL     OW12253   1.851   1.014   0.056
 3785SOL    HW112254   1.882   1.015   0.152
 3785SOL    HW212255   1.826   1.107   0.029
 3786SOL     OW12256   2.887   6.493   3.094
 3786SOL    HW112257   2.802   6.440   3.088
 3786SOL    HW212258   2.962   6.440   3.056
 3787SOL     OW12259   5.967   6.017   3.548
 3787SOL    HW112260   5.998   6.036   3.641
 3787SOL    HW212261   5.873   5.985   3.550
 3788SOL     OW12262   0.497   3.227   3.485
 3788SOL    HW112263   0.480   3.130   3.471
 3788SOL    HW212264   0.426   3.280   3.437
 3789SOL     OW12265   1.033   2.968   4.101
 3789SOL    HW112266   0.961   2.906   4.072
 3789SOL    HW212267   1.113   2.915   4.131
 3790SOL     OW12268   1.564   3.820   5.048
 3790SOL    HW112269   1.570   3.919   5.050
 3790SOL    HW212270   1.593   3.783   5.136
 3791SOL     OW12271   6.153   6.865   0.967
 3791SOL    HW112272   6.104   6.790   0.922
 3791SOL    HW212273   6.088   6.926   1.011
 3792SOL     OW12274   6.738   0.790   4.070
 3792SOL    HW112275   6.728   0.812   4.167
 3792SOL    HW212276   6.818   0.838   4.033
 3793SOL     OW12277   3.652   6.778   2.880
 3793SOL    HW112278   3.714   6.759   2.804
 3793SOL    HW212279   3.653   6.701   2.944
 3794SOL     OW12280   3.400   4.597   1.255
 3794SOL    HW112281   3.328   4.663   1.276
 3794SOL    HW212282   3.380   4.552   1.168
 3795SOL     OW12283   3.672   6.588   0.142
 3795SOL    HW112284   3.627   6.633   0.219
 3795SOL    HW212285   3.604   6.565   0.072
 3796SOL     OW12286   2.574   2.180   1.287
 3796SOL    HW112287   2.555   2.242   1.364
 3796SOL    HW212288   2.651   2.215   1.234
 3797SOL     OW12289   6.543   4.610   2.595
 3797SOL    HW112290   6.452   4.588   2.559
 3797SOL    HW212291   6.593   4.526   2.614
 3798SOL     OW12292   3.654   5.711   3.571
 3798SOL    HW112293   3.752   5.696   3.572
 3798SOL    HW212294   3.606   5.624   3.577
 3799SOL     OW12295   0.214   2.523   4.813
 3799SOL    HW112296   0.305   2.482   4.826
 3799SOL    HW212297   0.183   2.561   4.900
 3800SOL     OW12298   5.130   2.891   4.520
 3800SOL    HW112299   5.167   2.861   4.608
 3800SOL    HW212300   5.113   2.990   4.524
 3801SOL     OW12301   0.118   6.638   4.101
 3801SOL    HW112302   0.209   6.641   4.059
 3801SOL    HW212303   0.113   6.562   4.165
 3802SOL     OW12304   0.025   1.863   4.063
 3802SOL    HW112305   0.087   1.785   4.074
 3802SOL    HW212306   0.041   1.929   4.136
 3803SOL     OW12307   3.770   1.709   1.585
 3803SOL    HW112308   3.685   1.655   1.587
 3803SOL    HW212309   3.840   1.661   1.638
 3804SOL     OW12310   5.191   1.921   4.118
 3804SOL    HW112311   5.169   2.018   4.109
 3804SOL    HW212312   5.290   1.908   4.105
 3805SOL     OW12313   2.723   3.619   1.776
 3805SOL    HW112314   2.780   3.594   1.698
 3805SOL    HW212315   2.667   3.698   1.752
 3806SOL     OW12316   2.311   3.831   0.242
 3806SOL    HW112317   2.308   3.732   0.227
 3806SOL    HW212318   2.252   3.854   0.319
 3807SOL     OW12319   2.152   1.074   3.800
 3807SOL    HW112320   2.224   1.134   3.765
 3807SOL    HW212321   2.147   1.083   3.899
 3808SOL     OW12322   3.857   1.271   1.110
 3808SOL    HW112323   3.933   1.334   1.126
 3808SOL    HW212324   3.833   1.226   1.196
 3809SOL     OW12325   6.365   2.867   0.556
 3809SOL    HW112326   6.336   2.953   0.598
 3809SOL    HW212327   6.431   2.885   0.483
 3810SOL     OW12328   4.439   2.728   5.299
 3810SOL    HW112329   4.513   2.729   5.366
 3810SOL    HW212330   4.387   2.813   5.305
 3811SOL     OW12331   0.454   4.760   4.604
 3811SOL    HW112332   0.402   4.677   4.585
 3811SOL    HW212333   0.491   4.797   4.519
 3812SOL     OW12334   5.597   1.249   5.420
 3812SOL    HW112335   5.518   1.225   5.476
 3812SOL    HW212336   5.587   1.210   5.328
 3813SOL     OW12337   3.883   3.871   0.565
 3813SOL    HW112338   3.824   3.952   0.564
 3813SOL    HW212339   3.869   3.821   0.650
 3814SOL     OW12340   6.665   6.686   1.575
 3814SOL    HW112341   6.749   6.729   1.608
 3814SOL    HW212342   6.679   6.655   1.481
 3815SOL     OW12343   5.056   2.500   0.364
 3815SOL    HW112344   5.013   2.562   0.298
 3815SOL    HW212345   5.045   2.405   0.334
 3816SOL     OW12346   6.801   5.877   0.610
 3816SOL    HW112347   6.773   5.783   0.627
 3816SOL    HW212348   6.729   5.939   0.641
 3817SOL     OW12349   4.847   3.179   3.849
 3817SOL    HW112350   4.906   3.107   3.886
 3817SOL    HW212351   4.807   3.231   3.923
 3818SOL     OW12352   5.368   0.103   0.914
 3818SOL    HW112353   5.433   0.051   0.858
 3818SOL    HW212354   5.341   0.186   0.865
 3819SOL     OW12355   5.466   5.272   0.729
 3819SOL    HW112356   5.386   5.328   0.707
 3819SOL    HW212357   5.512   5.310   0.809
 3820SOL     OW12358   6.829   6.858   4.184
 3820SOL    HW112359   6.736   6.860   4.221
 3820SOL    HW212360   6.894   6.838   4.257
 3821SOL     OW12361   1.790   3.212   1.757
 3821SOL    HW112362   1.799   3.273   1.678
 3821SOL    HW212363   1.818   3.260   1.840
 3822SOL     OW12364   1.376   5.519   2.766
 3822SOL    HW112365   1.375   5.422   2.788
 3822SOL    HW212366   1.306   5.566   2.820
 3823SOL     OW12367   4.029   2.681   5.783
 3823SOL    HW112368   4.080   2.722   5.859
 3823SOL    HW212369   4.049   2.584   5.778
 3824SOL     OW12370   6.327   1.567   6.276
 3824SOL    HW112371   6.264   1.496   6.245
 3824SOL    HW212372   6.421   1.540   6.254
 3825SOL     OW12373   0.490   0.318   1.025
 3825SOL    HW112374   0.514   0.350   1.117
 3825SOL    HW212375   0.550   0.363   0.958
 3826SOL     OW12376   0.719   3.756   6.419
 3826SOL    HW112377   0.758   3.723   6.505
 3826SOL    HW212378   0.724   3.684   6.350
 3827SOL     OW12379   3.325   3.492   0.746
 3827SOL    HW112380   3.350   3.410   0.797
 3827SOL    HW212381   3.391   3.507   0.673
 3828SOL     OW12382   4.370   2.316   1.215
 3828SOL    HW112383   4.356   2.323   1.116
 3828SOL    HW212384   4.421   2.396   1.247
 3829SOL     OW12385   2.279   4.699   4.143
 3829SOL    HW112386   2.312   4.614   4.102
 3829SOL    HW212387   2.303   4.776   4.083
 3830SOL     OW12388   0.812   0.343   4.696
 3830SOL    HW112389   0.774   0.272   4.636
 3830SOL    HW212390   0.846   0.300   4.780
 3831SOL     OW12391   4.340   1.806   2.221
 3831SOL    HW112392   4.265   1.855   2.265
 3831SOL    HW212393   4.371   1.857   2.140
 3832SOL     OW12394   5.891   0.711   2.255
 3832SOL    HW112395   5.875   0.793   2.199
 3832SOL    HW212396   5.858   0.630   2.206
 3833SOL     OW12397   0.779   5.769   5.808
 3833SOL    HW112398   0.760   5.759   5.905
 3833SOL    HW212399   0.694   5.793   5.760
 3834SOL     OW12400   3.489   3.026   0.590
 3834SOL    HW112401   3.493   3.094   0.516
 3834SOL    HW212402   3.394   3.013   0.617
 3835SOL     OW12403   3.021   4.838   5.030
 3835SOL    HW112404   3.078   4.772   5.078
 3835SOL    HW212405   2.929   4.800   5.015
 3836SOL     OW12406   1.993   3.370   5.030
 3836SOL    HW112407   2.070   3.325   5.076
 3836SOL    HW212408   1.988   3.465   5.059
 3837SOL     OW12409   4.836   3.297   6.817
 3837SOL    HW112410   4.906   3.282   6.748
 3837SOL    HW212411   4.782   3.213   6.828
 3838SOL     OW12412   6.192   4.050   4.222
 3838SOL    HW112413   6.225   4.125   4.164
 3838SOL    HW212414   6.157   3.976   4.165
 3839SOL     OW12415   4.349   0.178   4.058
 3839SOL    HW112416   4.378   0.178   3.963
 3839SOL    HW212417   4.253   0.148   4.064
 3840SOL     OW12418   1.906   1.158   5.357
 3840SOL    HW112419   1.819   1.175   5.403
 3840SOL    HW212420   1.976   1.136   5.426
 3841SOL     OW12421   6.857   3.697   5.051
 3841SOL    HW112422   6.932   3.741   5.003
 3841SOL    HW212423   6.774   3.751   5.041
 3842SOL     OW12424   1.261   5.111   0.162
 3842SOL    HW112425   1.315   5.158   0.091
 3842SOL    HW212426   1.292   5.016   0.170
 3843SOL     OW12427   6.827   3.569   1.238
 3843SOL    HW112428   6.925   3.588   1.242
 3843SOL    HW212429   6.811   3.473   1.259
 3844SOL     OW12430   6.711   4.553   5.541
 3844SOL    HW112431   6.738   4.474   5.485
 3844SOL    HW212432   6.789   4.581   5.598
 3845SOL     OW12433   3.440   2.846   2.467
 3845SOL    HW112434   3.369   2.794   2.515
 3845SOL    HW212435   3.522   2.849   2.523
 3846SOL     OW12436   0.245   4.291   4.290
 3846SOL    HW112437   0.203   4.362   4.234
 3846SOL    HW212438   0.316   4.245   4.238
 3847SOL     OW12439   6.484   1.817   6.082
 3847SOL    HW112440   6.456   1.831   5.986
 3847SOL    HW212441   6.524   1.726   6.092
 3848SOL     OW12442   2.625   5.592   3.054
 3848SOL    HW112443   2.651   5.688   3.068
 3848SOL    HW212444   2.551   5.569   3.116
 3849SOL     OW12445   0.730   1.038   5.567
 3849SOL    HW112446   0.744   1.081   5.656
 3849SOL    HW212447   0.749   1.105   5.495
 3850SOL     OW12448   2.171   3.648   1.729
 3850SOL    HW112449   2.091   3.587   1.738
 3850SOL    HW212450   2.243   3.618   1.791
 3851SOL     OW12451   1.398   4.256   2.780
 3851SOL    HW112452   1.411   4.286   2.685
 3851SOL    HW212453   1.396   4.336   2.840
 3852SOL     OW12454   4.930   7.007   4.705
 3852SOL    HW112455   4.862   0.062   4.720
 3852SOL    HW212456   5.020   0.025   4.728
 3853SOL     OW12457   1.214   3.537   2.582
 3853SOL    HW112458   1.240   3.558   2.488
 3853SOL    HW212459   1.176   3.445   2.586
 3854SOL     OW12460   0.427   4.017   3.237
 3854SOL    HW112461   0.354   3.954   3.266
 3854SOL    HW212462   0.516   3.975   3.255
 3855SOL     OW12463   5.570   5.586   6.764
 3855SOL    HW112464   5.578   5.537   6.851
 3855SOL    HW212465   5.655   5.576   6.713
 3856SOL     OW12466   0.319   6.500   4.642
 3856SOL    HW112467   0.303   6.461   4.551
 3856SOL    HW212468   0.386   6.574   4.635
 3857SOL     OW12469   1.218   6.563   5.075
 3857SOL    HW112470   1.311   6.524   5.076
 3857SOL    HW212471   1.179   6.558   5.167
 3858SOL     OW12472   1.378   6.047   6.092
 3858SOL    HW112473   1.368   5.947   6.093
 3858SOL    HW212474   1.294   6.089   6.127
 3859SOL     OW12475   0.096   1.868   2.824
 3859SOL    HW112476   0.007   1.848   2.782
 3859SOL    HW212477   0.097   1.962   2.857
 3860SOL     OW12478   2.293   6.281   4.601
 3860SOL    HW112479   2.300   6.199   4.543
 3860SOL    HW212480   2.208   6.329   4.580
 3861SOL     OW12481   5.651   4.396   1.356
 3861SOL    HW112482   5.729   4.444   1.316
 3861SOL    HW212483   5.650   4.301   1.323
 3862SOL     OW12484   6.738   6.850   5.318
 3862SOL    HW112485   6.702   6.780   5.256
 3862SOL    HW212486   6.804   6.907   5.270
 3863SOL     OW12487   3.817   4.390   0.165
 3863SOL    HW112488   3.878   4.325   0.210
 3863SOL    HW212489   3.842   4.399   0.068
 3864SOL     OW12490   4.213   2.247   5.947
 3864SOL    HW112491   4.198   2.170   6.009
 3864SOL    HW212492   4.310   2.254   5.924
 3865SOL     OW12493   4.012   0.599   1.428
 3865SOL    HW112494   4.016   0.682   1.372
 3865SOL    HW212495   3.932   0.603   1.487
 3866SOL     OW12496   4.095   0.923   0.502
 3866SOL    HW112497   4.112   0.924   0.600
 3866SOL    HW212498   4.173   0.882   0.455
 3867SOL     OW12499   2.142   3.751   3.814
 3867SOL    HW112500   2.092   3.798   3.886
 3867SOL    HW212501   2.224   3.708   3.852
 3868SOL     OW12502   2.235   5.926   1.852
 3868SOL    HW112503   2.274   6.014   1.825
 3868SOL    HW212504   2.159   5.941   1.916
 3869SOL     OW12505   0.240   2.599   3.999
 3869SOL    HW112506   0.324   2.625   3.952
 3869SOL    HW212507   0.162   2.619   3.940
 3870SOL     OW12508   3.552   5.025   0.203
 3870SOL    HW112509   3.485   5.085   0.160
 3870SOL    HW212510   3.553   4.936   0.157
 3871SOL     OW12511   3.442   6.921   2.427
 3871SOL    HW112512   3.527   6.971   2.412
 3871SOL    HW212513   3.374   6.983   2.466
 3872SOL     OW12514   3.860   3.012   1.111
 3872SOL    HW112515   3.927   3.081   1.136
 3872SOL    HW212516   3.900   2.921   1.121
 3873SOL     OW12517   5.677   5.681   1.554
 3873SOL    HW112518   5.657   5.696   1.457
 3873SOL    HW212519   5.605   5.624   1.594
 3874SOL     OW12520   4.020   6.784   0.086
 3874SOL    HW112521   4.005   6.817   0.179
 3874SOL    HW212522   4.104   6.730   0.083
 3875SOL     OW12523   1.022   3.646   2.778
 3875SOL    HW112524   1.096   3.708   2.750
 3875SOL    HW212525   1.061   3.560   2.811
 3876SOL     OW12526   4.829   4.981   6.454
 3876SOL    HW112527   4.921   4.982   6.416
 3876SOL    HW212528   4.808   5.070   6.494
 3877SOL     OW12529   6.869   1.587   1.354
 3877SOL    HW112530   6.775   1.602   1.386
 3877SOL    HW212531   6.884   1.489   1.338
 3878SOL     OW12532   2.895   6.083   6.267
 3878SOL    HW112533   2.815   6.120   6.314
 3878SOL    HW212534   2.978   6.122   6.307
 3879SOL     OW12535   4.804   5.645   1.101
 3879SOL    HW112536   4.809   5.564   1.159
 3879SOL    HW212537   4.771   5.619   1.010
 3880SOL     OW12538   6.106   4.387   2.550
 3880SOL    HW112539   6.147   4.348   2.468
 3880SOL    HW212540   6.113   4.321   2.625
 3881SOL     OW12541   1.296   5.490   0.784
 3881SOL    HW112542   1.387   5.451   0.797
 3881SOL    HW212543   1.256   5.509   0.874
 3882SOL     OW12544   6.623   0.729   5.929
 3882SOL    HW112545   6.620   0.827   5.911
 3882SOL    HW212546   6.534   0.689   5.910
 3883SOL     OW12547   4.803   1.376   4.259
 3883SOL    HW112548   4.723   1.369   4.199
 3883SOL    HW212549   4.878   1.321   4.221
 3884SOL     OW12550   1.478   6.142   4.550
 3884SOL    HW112551   1.503   6.049   4.578
 3884SOL    HW212552   1.442   6.192   4.629
 3885SOL     OW12553   6.370   0.831   4.762
 3885SOL    HW112554   6.401   0.926   4.763
 3885SOL    HW212555   6.366   0.796   4.856
 3886SOL     OW12556   6.729   0.565   5.641
 3886SOL    HW112557   6.630   0.556   5.650
 3886SOL    HW212558   6.756   0.547   5.547
 3887SOL     OW12559   4.828   1.537   5.553
 3887SOL    HW112560   4.846   1.634   5.540
 3887SOL    HW212561   4.816   1.518   5.651
 3888SOL     OW12562   6.834   1.343   0.026
 3888SOL    HW112563   6.857   1.275   6.973
 3888SOL    HW212564   6.881   1.321   0.111
 3889SOL     OW12565   0.690   5.365   6.317
 3889SOL    HW112566   0.700   5.414   6.404
 3889SOL    HW212567   0.740   5.415   6.246
 3890SOL     OW12568   5.929   6.192   3.306
 3890SOL    HW112569   5.854   6.159   3.249
 3890SOL    HW212570   5.933   6.137   3.390
 3891SOL     OW12571   5.273   5.234   4.667
 3891SOL    HW112572   5.221   5.177   4.730
 3891SOL    HW212573   5.348   5.278   4.717
 3892SOL     OW12574   0.490   0.036   2.914
 3892SOL    HW112575   0.571   0.050   2.858
 3892SOL    HW212576   0.450   0.125   2.938
 3893SOL     OW12577   3.893   5.649   3.647
 3893SOL    HW112578   3.913   5.644   3.745
 3893SOL    HW212579   3.888   5.557   3.609
 3894SOL     OW12580   3.633   2.677   0.383
 3894SOL    HW112581   3.666   2.739   0.454
 3894SOL    HW212582   3.533   2.678   0.381
 3895SOL     OW12583   1.596   1.454   5.219
 3895SOL    HW112584   1.541   1.378   5.185
 3895SOL    HW212585   1.611   1.520   5.145
 3896SOL     OW12586   0.422   1.610   5.847
 3896SOL    HW112587   0.346   1.580   5.904
 3896SOL    HW212588   0.392   1.616   5.752
 3897SOL     OW12589   2.799   6.503   2.179
 3897SOL    HW112590   2.718   6.446   2.164
 3897SOL    HW212591   2.877   6.464   2.129
 3898SOL     OW12592   3.546   2.887   4.186
 3898SOL    HW112593   3.531   2.907   4.283
 3898SOL    HW212594   3.474   2.930   4.131
 3899SOL     OW12595   5.191   1.337   5.349
 3899SOL    HW112596   5.256   1.337   5.424
 3899SOL    HW212597   5.228   1.392   5.273
 3900SOL     OW12598   6.543   2.755   3.171
 3900SOL    HW112599   6.596   2.708   3.101
 3900SOL    HW212600   6.577   2.849   3.181
 3901SOL     OW12601   1.124   6.330   4.725
 3901SOL    HW112602   1.116   6.427   4.747
 3901SOL    HW212603   1.216   6.298   4.747
 3902SOL     OW12604   5.725   4.841   1.279
 3902SOL    HW112605   5.754   4.809   1.369
 3902SOL    HW212606   5.653   4.781   1.244
 3903SOL     OW12607   4.012   2.114   0.284
 3903SOL    HW112608   4.090   2.120   0.347
 3903SOL    HW212609   3.940   2.177   0.314
 3904SOL     OW12610   0.981   0.311   0.056
 3904SOL    HW112611   0.910   0.380   0.067
 3904SOL    HW212612   0.943   0.220   0.076
 3905SOL     OW12613   6.769   6.741   6.182
 3905SOL    HW112614   6.674   6.715   6.201
 3905SOL    HW212615   6.821   6.744   6.267
 3906SOL     OW12616   1.416   4.776   3.731
 3906SOL    HW112617   1.355   4.834   3.785
 3906SOL    HW212618   1.489   4.831   3.691
 3907SOL     OW12619   6.981   0.711   4.812
 3907SOL    HW112620   6.951   0.619   4.790
 3907SOL    HW212621   6.973   0.769   4.731
 3908SOL     OW12622   1.650   0.937   5.489
 3908SOL    HW112623   1.680   0.892   5.405
 3908SOL    HW212624   1.673   0.881   5.568
 3909SOL     OW12625   5.433   3.138   5.657
 3909SOL    HW112626   5.463   3.229   5.687
 3909SOL    HW212627   5.509   3.074   5.666
 3910SOL     OW12628   3.259   3.315   1.987
 3910SOL    HW112629   3.348   3.284   1.952
 3910SOL    HW212630   3.254   3.415   1.982
 3911SOL     OW12631   5.471   0.451   1.161
 3911SOL    HW112632   5.461   0.484   1.067
 3911SOL    HW212633   5.500   0.527   1.220
 3912SOL     OW12634   2.976   2.179   6.954
 3912SOL    HW112635   3.006   2.215   6.866
 3912SOL    HW212636   2.877   2.190   6.964
 3913SOL     OW12637   3.912   6.320   0.541
 3913SOL    HW112638   3.905   6.233   0.492
 3913SOL    HW212639   3.835   6.379   0.515
 3914SOL     OW12640   5.954   1.377   1.317
 3914SOL    HW112641   6.024   1.334   1.374
 3914SOL    HW212642   5.869   1.386   1.370
 3915SOL     OW12643   4.600   5.628   0.328
 3915SOL    HW112644   4.643   5.618   0.239
 3915SOL    HW212645   4.668   5.654   0.396
 3916SOL     OW12646   2.692   0.430   2.752
 3916SOL    HW112647   2.791   0.443   2.757
 3916SOL    HW212648   2.647   0.490   2.818
 3917SOL     OW12649   2.375   5.405   0.951
 3917SOL    HW112650   2.349   5.391   0.856
 3917SOL    HW212651   2.475   5.404   0.959
 3918SOL     OW12652   5.488   1.268   0.826
 3918SOL    HW112653   5.503   1.284   0.924
 3918SOL    HW212654   5.396   1.233   0.812
 3919SOL     OW12655   4.591   1.192   1.243
 3919SOL    HW112656   4.562   1.284   1.220
 3919SOL    HW212657   4.526   1.151   1.307
 3920SOL     OW12658   3.041   1.591   6.357
 3920SOL    HW112659   3.085   1.518   6.410
 3920SOL    HW212660   3.085   1.598   6.267
 3921SOL     OW12661   0.428   2.579   6.423
 3921SOL    HW112662   0.472   2.601   6.510
 3921SOL    HW212663   0.358   2.647   6.403
 3922SOL     OW12664   5.050   4.748   1.820
 3922SOL    HW112665   5.126   4.760   1.884
 3922SOL    HW212666   5.026   4.651   1.813
 3923SOL     OW12667   5.631   0.907   1.802
 3923SOL    HW112668   5.638   1.000   1.766
 3923SOL    HW212669   5.722   0.874   1.826
 3924SOL     OW12670   6.778   4.402   4.564
 3924SOL    HW112671   6.781   4.462   4.644
 3924SOL    HW212672   6.824   4.446   4.487
 3925SOL     OW12673   5.233   3.885   0.347
 3925SOL    HW112674   5.157   3.949   0.333
 3925SOL    HW212675   5.263   3.849   0.258
 3926SOL     OW12676   1.402   0.577   6.376
 3926SOL    HW112677   1.438   0.483   6.379
 3926SOL    HW212678   1.372   0.598   6.283
 3927SOL     OW12679   0.748   2.486   5.282
 3927SOL    HW112680   0.799   2.480   5.367
 3927SOL    HW212681   0.688   2.567   5.284
 3928SOL     OW12682   2.149   6.760   3.523
 3928SOL    HW112683   2.126   6.853   3.492
 3928SOL    HW212684   2.120   6.750   3.619
 3929SOL     OW12685   6.977   1.888   5.094
 3929SOL    HW112686   6.973   1.938   5.180
 3929SOL    HW212687   7.004   1.794   5.110
 3930SOL     OW12688   1.194   3.244   3.766
 3930SOL    HW112689   1.276   3.298   3.748
 3930SOL    HW212690   1.215   3.147   3.758
 3931SOL     OW12691   1.275   2.404   1.580
 3931SOL    HW112692   1.291   2.320   1.631
 3931SOL    HW212693   1.195   2.452   1.617
 3932SOL     OW12694   2.051   5.709   4.150
 3932SOL    HW112695   1.968   5.733   4.201
 3932SOL    HW212696   2.089   5.624   4.186
 3933SOL     OW12697   2.416   5.145   0.342
 3933SOL    HW112698   2.395   5.076   0.411
 3933SOL    HW212699   2.426   5.100   0.253
 3934SOL     OW12700   0.860   1.584   2.730
 3934SOL    HW112701   0.847   1.521   2.807
 3934SOL    HW212702   0.938   1.553   2.675
 3935SOL     OW12703   6.210   3.493   6.457
 3935SOL    HW112704   6.297   3.448   6.476
 3935SOL    HW212705   6.210   3.529   6.364
 3936SOL     OW12706   6.596   5.400   5.329
 3936SOL    HW112707   6.523   5.379   5.394
 3936SOL    HW212708   6.668   5.331   5.335
 3937SOL     OW12709   6.711   5.859   2.781
 3937SOL    HW112710   6.730   5.900   2.692
 3937SOL    HW212711   6.781   5.791   2.802
 3938SOL     OW12712   6.438   4.011   3.428
 3938SOL    HW112713   6.439   4.110   3.439
 3938SOL    HW212714   6.494   3.969   3.499
 3939SOL     OW12715   0.633   1.162   2.567
 3939SOL    HW112716   0.679   1.073   2.563
 3939SOL    HW212717   0.571   1.171   2.489
 3940SOL     OW12718   3.063   4.816   2.002
 3940SOL    HW112719   3.014   4.729   2.004
 3940SOL    HW212720   3.002   4.889   2.033
 3941SOL     OW12721   5.917   6.810   4.343
 3941SOL    HW112722   5.831   6.763   4.363
 3941SOL    HW212723   5.990   6.773   4.401
 3942SOL     OW12724   1.110   6.257   6.455
 3942SOL    HW112725   1.036   6.195   6.430
 3942SOL    HW212726   1.076   6.327   6.517
 3943SOL     OW12727   1.306   3.132   1.604
 3943SOL    HW112728   1.365   3.059   1.639
 3943SOL    HW212729   1.257   3.099   1.523
 3944SOL     OW12730   6.595   2.377   6.749
 3944SOL    HW112731   6.669   2.413   6.805
 3944SOL    HW212732   6.632   2.338   6.665
 3945SOL     OW12733   1.124   1.296   3.193
 3945SOL    HW112734   1.113   1.245   3.108
 3945SOL    HW212735   1.173   1.381   3.174
 3946SOL     OW12736   0.373   2.982   0.587
 3946SOL    HW112737   0.400   2.940   0.674
 3946SOL    HW212738   0.286   2.942   0.557
 3947SOL     OW12739   5.856   5.709   0.450
 3947SOL    HW112740   5.881   5.655   0.530
 3947SOL    HW212741   5.777   5.767   0.472
 3948SOL     OW12742   1.754   2.402   5.930
 3948SOL    HW112743   1.688   2.341   5.974
 3948SOL    HW212744   1.841   2.353   5.917
 3949SOL     OW12745   5.974   6.404   1.828
 3949SOL    HW112746   5.984   6.350   1.912
 3949SOL    HW212747   5.920   6.486   1.848
 3950SOL     OW12748   4.002   4.397   1.333
 3950SOL    HW112749   4.092   4.440   1.327
 3950SOL    HW212750   4.007   4.313   1.386
 3951SOL     OW12751   0.430   1.996   5.687
 3951SOL    HW112752   0.468   1.947   5.609
 3951SOL    HW212753   0.333   2.015   5.670
 3952SOL     OW12754   6.091   2.405   5.588
 3952SOL    HW112755   6.144   2.414   5.672
 3952SOL    HW212756   5.993   2.411   5.610
 3953SOL     OW12757   3.541   4.543   6.259
 3953SOL    HW112758   3.591   4.624   6.289
 3953SOL    HW212759   3.569   4.518   6.166
 3954SOL     OW12760   0.469   3.528   4.893
 3954SOL    HW112761   0.434   3.618   4.868
 3954SOL    HW212762   0.466   3.518   4.993
 3955SOL     OW12763   5.336   5.795   6.713
 3955SOL    HW112764   5.420   5.756   6.752
 3955SOL    HW212765   5.306   5.738   6.636
 3956SOL     OW12766   0.525   2.801   6.140
 3956SOL    HW112767   0.614   2.841   6.164
 3956SOL    HW212768   0.522   2.706   6.171
 3957SOL     OW12769   2.306   6.827   4.089
 3957SOL    HW112770   2.399   6.807   4.120
 3957SOL    HW212771   2.241   6.789   4.155
 3958SOL     OW12772   6.301   6.463   6.181
 3958SOL    HW112773   6.319   6.437   6.276
 3958SOL    HW212774   6.262   6.385   6.132
 3959SOL     OW12775   3.287   5.166   0.137
 3959SOL    HW112776   3.319   5.200   0.225
 3959SOL    HW212777   3.342   5.206   0.064
 3960SOL     OW12778   3.522   3.148   0.140
 3960SOL    HW112779   3.491   3.114   0.229
 3960SOL    HW212780   3.448   3.200   0.097
 3961SOL     OW12781   4.976   1.198   1.781
 3961SOL    HW112782   4.925   1.116   1.756
 3961SOL    HW212783   4.990   1.200   1.881
 3962SOL     OW12784   0.779   6.909   6.881
 3962SOL    HW112785   0.845   6.882   6.811
 3962SOL    HW212786   0.789   6.849   6.961
 3963SOL     OW12787   4.655   5.679   4.366
 3963SOL    HW112788   4.683   5.721   4.452
 3963SOL    HW212789   4.589   5.739   4.320
 3964SOL     OW12790   4.948   5.999   5.504
 3964SOL    HW112791   4.911   5.984   5.595
 3964SOL    HW212792   4.937   5.916   5.449
 3965SOL     OW12793   3.777   4.360   6.901
 3965SOL    HW112794   3.717   4.290   6.941
 3965SOL    HW212795   3.829   4.320   6.826
 3966SOL     OW12796   6.215   4.501   5.431
 3966SOL    HW112797   6.163   4.415   5.433
 3966SOL    HW212798   6.308   4.483   5.400
 3967SOL     OW12799   0.446   6.333   5.605
 3967SOL    HW112800   0.404   6.424   5.597
 3967SOL    HW212801   0.465   6.296   5.514
 3968SOL     OW12802   5.270   0.870   2.627
 3968SOL    HW112803   5.337   0.808   2.586
 3968SOL    HW212804   5.178   0.833   2.614
 3969SOL     OW12805   0.993   5.016   2.748
 3969SOL    HW112806   0.905   5.064   2.738
 3969SOL    HW212807   0.978   4.918   2.743
 3970SOL     OW12808   4.917   4.570   3.315
 3970SOL    HW112809   4.995   4.625   3.344
 3970SOL    HW212810   4.836   4.595   3.368
 3971SOL     OW12811   2.152   6.038   3.418
 3971SOL    HW112812   2.134   5.953   3.467
 3971SOL    HW212813   2.251   6.053   3.413
 3972SOL     OW12814   0.492   6.581   0.699
 3972SOL    HW112815   0.525   6.540   0.614
 3972SOL    HW212816   0.439   6.513   0.750
 3973SOL     OW12817   3.545   4.061   4.188
 3973SOL    HW112818   3.552   3.974   4.139
 3973SOL    HW212819   3.519   4.133   4.125
 3974SOL     OW12820   6.612   1.080   6.192
 3974SOL    HW112821   6.694   1.026   6.212
 3974SOL    HW212822   6.575   1.054   6.103
 3975SOL     OW12823   6.719   1.115   6.514
 3975SOL    HW112824   6.687   1.184   6.448
 3975SOL    HW212825   6.669   1.030   6.501
 3976SOL     OW12826   1.764   4.267   1.007
 3976SOL    HW112827   1.791   4.280   0.912
 3976SOL    HW212828   1.833   4.211   1.054
 3977SOL     OW12829   2.665   6.165   6.344
 3977SOL    HW112830   2.588   6.114   6.306
 3977SOL    HW212831   2.680   6.248   6.290
 3978SOL     OW12832   5.968   1.846   5.571
 3978SOL    HW112833   5.951   1.934   5.617
 3978SOL    HW212834   5.900   1.779   5.601
 3979SOL     OW12835   1.131   6.867   2.242
 3979SOL    HW112836   1.208   6.851   2.179
 3979SOL    HW212837   1.107   6.781   2.287
 3980SOL     OW12838   4.952   3.334   4.512
 3980SOL    HW112839   4.889   3.266   4.473
 3980SOL    HW212840   4.906   3.382   4.586
 3981SOL     OW12841   6.657   2.086   0.550
 3981SOL    HW112842   6.588   2.027   0.507
 3981SOL    HW212843   6.627   2.181   0.548
 3982SOL     OW12844   2.586   1.789   3.848
 3982SOL    HW112845   2.657   1.843   3.803
 3982SOL    HW212846   2.628   1.708   3.890
 3983SOL     OW12847   3.094   6.780   4.179
 3983SOL    HW112848   3.043   6.859   4.212
 3983SOL    HW212849   3.163   6.754   4.247
 3984SOL     OW12850   1.316   6.512   1.962
 3984SOL    HW112851   1.338   6.589   1.902
 3984SOL    HW212852   1.286   6.434   1.906
 3985SOL     OW12853   1.809   3.778   6.942
 3985SOL    HW112854   1.780   3.847   6.877
 3985SOL    HW212855   1.794   3.687   6.904
 3986SOL     OW12856   6.977   2.049   1.260
 3986SOL    HW112857   7.000   1.953   1.278
 3986SOL    HW212858   6.918   2.083   1.334
 3987SOL     OW12859   1.704   5.215   6.186
 3987SOL    HW112860   1.699   5.259   6.096
 3987SOL    HW212861   1.783   5.154   6.189
 3988SOL     OW12862   3.831   2.573   0.244
 3988SOL    HW112863   3.813   2.549   0.149
 3988SOL    HW212864   3.751   2.617   0.284
 3989SOL     OW12865   5.968   0.002   0.012
 3989SOL    HW112866   5.895   0.002   6.960
 3989SOL    HW212867   5.959   0.083   0.069
 3990SOL     OW12868   0.711   2.896   4.376
 3990SOL    HW112869   0.806   2.928   4.369
 3990SOL    HW212870   0.660   2.926   4.296
 3991SOL     OW12871   0.340   2.505   3.584
 3991SOL    HW112872   0.356   2.486   3.488
 3991SOL    HW212873   0.393   2.441   3.640
 3992SOL     OW12874   4.015   3.376   6.634
 3992SOL    HW112875   4.055   3.307   6.694
 3992SOL    HW212876   3.916   3.362   6.628
 3993SOL     OW12877   2.952   2.193   3.017
 3993SOL    HW112878   2.893   2.174   2.939
 3993SOL    HW212879   2.976   2.290   3.018
 3994SOL     OW12880   2.377   2.763   4.074
 3994SOL    HW112881   2.353   2.788   4.168
 3994SOL    HW212882   2.353   2.667   4.057
 3995SOL     OW12883   2.233   4.143   3.462
 3995SOL    HW112884   2.189   4.070   3.516
 3995SOL    HW212885   2.211   4.130   3.365
 3996SOL     OW12886   1.247   0.960   4.123
 3996SOL    HW112887   1.185   1.002   4.057
 3996SOL    HW212888   1.200   0.884   4.169
 3997SOL     OW12889   4.818   3.755   2.978
 3997SOL    HW112890   4.845   3.679   3.038
 3997SOL    HW212891   4.852   3.841   3.016
 3998SOL     OW12892   6.567   1.980   2.776
 3998SOL    HW112893   6.654   2.025   2.761
 3998SOL    HW212894   6.505   2.000   2.700
 3999SOL     OW12895   6.154   4.355   2.829
 3999SOL    HW112896   6.250   4.381   2.838
 3999SOL    HW212897   6.144   4.257   2.845
 4000SOL     OW12898   2.576   5.609   2.743
 4000SOL    HW112899   2.567   5.590   2.840
 4000SOL    HW212900   2.619   5.531   2.697
 4001SOL     OW12901   2.950   3.962   5.732
 4001SOL    HW112902   2.916   3.879   5.777
 4001SOL    HW212903   2.993   4.021   5.800
 4002SOL     OW12904   3.579   3.206   4.966
 4002SOL    HW112905   3.670   3.179   4.937
 4002SOL    HW212906   3.520   3.216   4.886
 4003SOL     OW12907   2.807   1.478   6.336
 4003SOL    HW112908   2.808   1.489   6.237
 4003SOL    HW212909   2.894   1.508   6.374
 4004SOL     OW12910   6.247   3.332   3.089
 4004SOL    HW112911   6.296   3.280   3.019
 4004SOL    HW212912   6.149   3.313   3.084
 4005SOL     OW12913   4.089   3.492   0.594
 4005SOL    HW112914   4.096   3.409   0.650
 4005SOL    HW212915   4.180   3.519   0.561
 4006SOL     OW12916   5.200   5.316   1.973
 4006SOL    HW112917   5.148   5.253   2.031
 4006SOL    HW212918   5.290   5.333   2.014
 4007SOL     OW12919   0.499   1.951   2.849
 4007SOL    HW112920   0.556   1.878   2.810
 4007SOL    HW212921   0.433   1.982   2.781
 4008SOL     OW12922   3.126   0.311   0.111
 4008SOL    HW112923   3.174   0.238   0.062
 4008SOL    HW212924   3.190   0.385   0.131
 4009SOL     OW12925   4.863   1.819   1.530
 4009SOL    HW112926   4.955   1.796   1.561
 4009SOL    HW212927   4.868   1.894   1.464
 4010SOL     OW12928   3.672   4.735   1.118
 4010SOL    HW112929   3.601   4.667   1.136
 4010SOL    HW212930   3.761   4.698   1.145
 4011SOL     OW12931   0.059   5.895   0.733
 4011SOL    HW112932   6.986   5.906   0.691
 4011SOL    HW212933   0.058   5.814   0.792
 4012SOL     OW12934   4.232   6.890   2.012
 4012SOL    HW112935   4.260   6.976   1.970
 4012SOL    HW212936   4.141   6.865   1.979
 4013SOL     OW12937   1.791   6.628   0.978
 4013SOL    HW112938   1.741   6.714   0.967
 4013SOL    HW212939   1.889   6.646   0.972
 4014SOL     OW12940   3.567   6.373   3.913
 4014SOL    HW112941   3.580   6.296   3.976
 4014SOL    HW212942   3.650   6.430   3.913
 4015SOL     OW12943   4.667   4.706   6.501
 4015SOL    HW112944   4.734   4.779   6.489
 4015SOL    HW212945   4.694   4.648   6.578
 4016SOL     OW12946   2.867   5.153   0.320
 4016SOL    HW112947   2.902   5.245   0.305
 4016SOL    HW212948   2.938   5.096   0.361
 4017SOL     OW12949   0.150   4.920   5.236
 4017SOL    HW112950   0.086   4.845   5.255
 4017SOL    HW212951   0.178   4.915   5.140
 4018SOL     OW12952   4.452   6.735   2.069
 4018SOL    HW112953   4.488   6.726   1.976
 4018SOL    HW212954   4.390   6.814   2.073
 4019SOL     OW12955   5.290   3.404   2.281
 4019SOL    HW112956   5.247   3.410   2.191
 4019SOL    HW212957   5.386   3.377   2.270
 4020SOL     OW12958   6.539   3.602   4.836
 4020SOL    HW112959   6.529   3.621   4.933
 4020SOL    HW212960   6.513   3.507   4.817
 4021SOL     OW12961   3.682   3.988   5.537
 4021SOL    HW112962   3.711   3.893   5.546
 4021SOL    HW212963   3.597   3.992   5.484
 4022SOL     OW12964   4.081   0.208   0.396
 4022SOL    HW112965   4.178   0.187   0.401
 4022SOL    HW212966   4.046   0.179   0.307
 4023SOL     OW12967   0.037   1.125   5.445
 4023SOL    HW112968   0.122   1.140   5.497
 4023SOL    HW212969   6.982   1.093   5.508
 4024SOL     OW12970   2.104   5.039   4.653
 4024SOL    HW112971   2.080   5.093   4.735
 4024SOL    HW212972   2.064   4.948   4.660
 4025SOL     OW12973   1.035   6.178   4.159
 4025SOL    HW112974   1.038   6.267   4.113
 4025SOL    HW212975   1.104   6.117   4.119
 4026SOL     OW12976   6.390   6.329   5.043
 4026SOL    HW112977   6.445   6.339   4.960
 4026SOL    HW212978   6.386   6.233   5.070
 4027SOL     OW12979   2.930   1.599   0.064
 4027SOL    HW112980   2.960   1.673   0.003
 4027SOL    HW212981   2.850   1.628   0.116
 4028SOL     OW12982   4.551   1.425   3.425
 4028SOL    HW112983   4.606   1.386   3.352
 4028SOL    HW212984   4.531   1.521   3.404
 4029SOL     OW12985   2.448   4.060   5.985
 4029SOL    HW112986   2.476   4.034   5.892
 4029SOL    HW212987   2.501   4.139   6.015
 4030SOL     OW12988   6.908   0.989   1.232
 4030SOL    HW112989   6.990   0.966   1.179
 4030SOL    HW212990   6.927   0.977   1.329
 4031SOL     OW12991   5.385   6.595   3.092
 4031SOL    HW112992   5.306   6.630   3.141
 4031SOL    HW212993   5.398   6.650   3.009
 4032SOL     OW12994   0.313   6.985   2.683
 4032SOL    HW112995   0.326   0.035   2.755
 4032SOL    HW212996   0.330   0.010   2.594
 4033SOL     OW12997   1.824   2.267   2.515
 4033SOL    HW112998   1.815   2.360   2.479
 4033SOL    HW212999   1.759   2.207   2.468
 4034SOL     OW13000   6.097   1.968   5.328
 4034SOL    HW113001   6.048   1.939   5.411
 4034SOL    HW213002   6.180   2.017   5.354
 4035SOL     OW13003   6.650   1.182   1.619
 4035SOL    HW113004   6.703   1.108   1.661
 4035SOL    HW213005   6.552   1.164   1.633
 4036SOL     OW13006   3.995   4.918   2.196
 4036SOL    HW113007   3.910   4.919   2.143
 4036SOL    HW213008   3.977   4.881   2.287
 4037SOL     OW13009   2.074   1.717   6.372
 4037SOL    HW113010   2.052   1.621   6.359
 4037SOL    HW213011   2.161   1.738   6.326
 4038SOL     OW13012   4.913   2.873   0.223
 4038SOL    HW113013   4.816   2.895   0.223
 4038SOL    HW213014   4.925   2.774   0.223
 4039SOL     OW13015   4.516   5.889   1.861
 4039SOL    HW113016   4.515   5.800   1.908
 4039SOL    HW213017   4.433   5.939   1.882
 4040SOL     OW13018   2.948   6.371   4.681
 4040SOL    HW113019   2.910   6.448   4.630
 4040SOL    HW213020   2.979   6.301   4.618
 4041SOL     OW13021   2.181   5.884   1.167
 4041SOL    HW113022   2.086   5.882   1.138
 4041SOL    HW213023   2.235   5.825   1.106
 4042SOL     OW13024   5.867   6.313   4.077
 4042SOL    HW113025   5.945   6.353   4.029
 4042SOL    HW213026   5.885   6.217   4.096
 4043SOL     OW13027   6.984   1.939   6.509
 4043SOL    HW113028   6.958   1.875   6.582
 4043SOL    HW213029   0.031   2.007   6.545
 4044SOL     OW13030   5.295   5.384   3.062
 4044SOL    HW113031   5.358   5.461   3.073
 4044SOL    HW213032   5.272   5.347   3.152
 4045SOL     OW13033   4.058   6.155   5.835
 4045SOL    HW113034   4.073   6.139   5.933
 4045SOL    HW213035   3.982   6.098   5.804
 4046SOL     OW13036   0.837   2.378   2.256
 4046SOL    HW113037   0.767   2.350   2.321
 4046SOL    HW213038   0.796   2.432   2.183
 4047SOL     OW13039   2.444   2.412   6.668
 4047SOL    HW113040   2.450   2.490   6.730
 4047SOL    HW213041   2.468   2.441   6.575
 4048SOL     OW13042   5.548   1.203   1.799
 4048SOL    HW113043   5.482   1.274   1.774
 4048SOL    HW213044   5.515   1.153   1.879
 4049SOL     OW13045   5.102   5.751   6.250
 4049SOL    HW113046   5.175   5.804   6.208
 4049SOL    HW213047   5.125   5.731   6.345
 4050SOL     OW13048   0.807   5.987   1.803
 4050SOL    HW113049   0.833   6.075   1.843
 4050SOL    HW213050   0.860   5.971   1.720
 4051SOL     OW13051   4.540   1.236   6.276
 4051SOL    HW113052   4.513   1.325   6.239
 4051SOL    HW213053   4.482   1.165   6.236
 4052SOL     OW13054   5.901   2.092   3.219
 4052SOL    HW113055   5.878   2.125   3.311
 4052SOL    HW213056   5.999   2.068   3.216
 4053SOL     OW13057   2.542   5.890   4.825
 4053SOL    HW113058   2.518   5.872   4.920
 4053SOL    HW213059   2.492   5.827   4.765
 4054SOL     OW13060   4.977   4.083   1.113
 4054SOL    HW113061   4.909   4.012   1.132
 4054SOL    HW213062   4.996   4.086   1.015
 4055SOL     OW13063   2.313   4.294   0.849
 4055SOL    HW113064   2.378   4.221   0.870
 4055SOL    HW213065   2.275   4.330   0.934
 4056SOL     OW13066   5.535   3.849   1.116
 4056SOL    HW113067   5.612   3.912   1.108
 4056SOL    HW213068   5.481   3.852   1.032
 4057SOL     OW13069   0.055   2.853   0.252
 4057SOL    HW113070   0.140   2.825   0.207
 4057SOL    HW213071   0.076   2.905   0.335
 4058SOL     OW13072   3.218   6.380   4.804
 4058SOL    HW113073   3.135   6.327   4.786
 4058SOL    HW213074   3.237   6.380   4.902
 4059SOL     OW13075   0.298   1.409   2.547
 4059SOL    HW113076   0.229   1.473   2.513
 4059SOL    HW213077   0.389   1.442   2.520
 4060SOL     OW13078   5.487   4.949   5.772
 4060SOL    HW113079   5.458   5.011   5.699
 4060SOL    HW213080   5.526   5.003   5.847
 4061SOL     OW13081   2.400   4.687   2.370
 4061SOL    HW113082   2.413   4.630   2.452
 4061SOL    HW213083   2.464   4.657   2.299
 4062SOL     OW13084   2.264   0.099   1.906
 4062SOL    HW113085   2.245   0.189   1.946
 4062SOL    HW213086   2.335   0.053   1.960
 4063SOL     OW13087   6.055   6.998   0.551
 4063SOL    HW113088   5.998   0.012   0.627
 4063SOL    HW213089   6.146   6.974   0.586
 4064SOL     OW13090   2.741   1.566   4.432
 4064SOL    HW113091   2.802   1.625   4.485
 4064SOL    HW213092   2.653   1.560   4.478
 4065SOL     OW13093   1.175   6.802   1.630
 4065SOL    HW113094   1.178   6.757   1.541
 4065SOL    HW213095   1.117   6.883   1.625
 4066SOL     OW13096   6.415   4.417   2.872
 4066SOL    HW113097   6.439   4.508   2.838
 4066SOL    HW213098   6.493   4.356   2.862
 4067SOL     OW13099   6.191   3.734   2.764
 4067SOL    HW113100   6.278   3.731   2.815
 4067SOL    HW213101   6.115   3.734   2.829
 4068SOL     OW13102   2.070   2.023   4.505
 4068SOL    HW113103   2.129   1.979   4.437
 4068SOL    HW213104   2.064   1.966   4.586
 4069SOL     OW13105   3.905   5.149   6.921
 4069SOL    HW113106   3.972   5.076   6.912
 4069SOL    HW213107   3.861   5.142   7.011
 4070SOL     OW13108   0.359   2.392   2.765
 4070SOL    HW113109   0.431   2.334   2.805
 4070SOL    HW213110   0.361   2.482   2.809
 4071SOL     OW13111   1.293   1.302   4.898
 4071SOL    HW113112   1.324   1.305   4.803
 4071SOL    HW213113   1.246   1.387   4.921
 4072SOL     OW13114   0.682   5.468   4.603
 4072SOL    HW113115   0.711   5.444   4.510
 4072SOL    HW213116   0.716   5.559   4.626
 4073SOL     OW13117   2.492   5.954   6.622
 4073SOL    HW113118   2.551   5.876   6.643
 4073SOL    HW213119   2.543   6.039   6.639
 4074SOL     OW13120   0.777   4.895   1.290
 4074SOL    HW113121   0.819   4.986   1.292
 4074SOL    HW213122   0.712   4.891   1.214
 4075SOL     OW13123   4.879   2.013   1.333
 4075SOL    HW113124   4.793   2.006   1.283
 4075SOL    HW213125   4.949   1.957   1.288
 4076SOL     OW13126   2.306   3.264   6.682
 4076SOL    HW113127   2.215   3.282   6.719
 4076SOL    HW213128   2.326   3.166   6.688
 4077SOL     OW13129   3.812   2.311   0.327
 4077SOL    HW113130   3.816   2.409   0.309
 4077SOL    HW213131   3.772   2.265   0.247
 4078SOL     OW13132   1.978   5.126   1.939
 4078SOL    HW113133   1.944   5.081   2.022
 4078SOL    HW213134   2.069   5.091   1.917
 4079SOL     OW13135   2.097   1.024   3.530
 4079SOL    HW113136   2.119   1.055   3.623
 4079SOL    HW213137   2.024   1.081   3.493
 4080SOL     OW13138   4.917   2.780   6.199
 4080SOL    HW113139   4.829   2.820   6.171
 4080SOL    HW213140   4.988   2.849   6.192
 4081SOL     OW13141   1.557   2.722   3.870
 4081SOL    HW113142   1.536   2.669   3.952
 4081SOL    HW213143   1.550   2.819   3.890
 4082SOL     OW13144   1.214   4.494   0.451
 4082SOL    HW113145   1.199   4.429   0.525
 4082SOL    HW213146   1.184   4.453   0.364
 4083SOL     OW13147   6.863   3.467   2.707
 4083SOL    HW113148   6.853   3.565   2.686
 4083SOL    HW213149   6.927   3.426   2.642
 4084SOL     OW13150   5.975   2.594   3.574
 4084SOL    HW113151   5.926   2.517   3.533
 4084SOL    HW213152   5.956   2.677   3.520
 4085SOL     OW13153   3.294   5.480   1.234
 4085SOL    HW113154   3.240   5.473   1.318
 4085SOL    HW213155   3.391   5.475   1.257
 4086SOL     OW13156   1.974   5.585   1.594
 4086SOL    HW113157   2.054   5.642   1.608
 4086SOL    HW213158   1.910   5.597   1.670
 4087SOL     OW13159   3.046   2.168   3.304
 4087SOL    HW113160   2.984   2.239   3.337
 4087SOL    HW213161   3.041   2.164   3.204
 4088SOL     OW13162   0.572   1.954   0.819
 4088SOL    HW113163   0.499   1.977   0.754
 4088SOL    HW213164   0.607   2.037   0.862
 4089SOL     OW13165   6.059   6.465   3.925
 4089SOL    HW113166   6.098   6.424   3.842
 4089SOL    HW213167   5.996   6.538   3.899
 4090SOL     OW13168   0.986   4.160   5.838
 4090SOL    HW113169   0.974   4.150   5.937
 4090SOL    HW213170   1.083   4.178   5.819
 4091SOL     OW13171   6.774   6.465   0.290
 4091SOL    HW113172   6.728   6.465   0.379
 4091SOL    HW213173   6.774   6.372   0.253
 4092SOL     OW13174   6.763   2.504   5.215
 4092SOL    HW113175   6.839   2.569   5.204
 4092SOL    HW213176   6.679   2.554   5.235
 4093SOL     OW13177   4.351   0.397   2.762
 4093SOL    HW113178   4.273   0.457   2.779
 4093SOL    HW213179   4.433   0.451   2.752
 4094SOL     OW13180   2.517   6.042   4.444
 4094SOL    HW113181   2.569   6.034   4.529
 4094SOL    HW213182   2.554   6.116   4.389
 4095SOL     OW13183   0.388   3.692   6.963
 4095SOL    HW113184   0.358   3.739   6.879
 4095SOL    HW213185   0.374   3.753   0.024
 4096SOL     OW13186   4.703   6.032   0.237
 4096SOL    HW113187   4.692   5.977   0.154
 4096SOL    HW213188   4.761   6.110   0.218
 4097SOL     OW13189   3.597   4.470   5.985
 4097SOL    HW113190   3.646   4.496   5.902
 4097SOL    HW213191   3.536   4.393   5.966
 4098SOL     OW13192   0.895   3.320   1.656
 4098SOL    HW113193   0.982   3.302   1.702
 4098SOL    HW213194   0.820   3.304   1.720
 4099SOL     OW13195   2.891   4.718   1.184
 4099SOL    HW113196   2.882   4.626   1.222
 4099SOL    HW213197   2.825   4.730   1.110
 4100SOL     OW13198   6.860   5.508   5.150
 4100SOL    HW113199   6.785   5.451   5.116
 4100SOL    HW213200   6.907   5.550   5.072
 4101SOL     OW13201   5.962   1.000   0.392
 4101SOL    HW113202   5.958   1.092   0.431
 4101SOL    HW213203   5.876   0.953   0.410
 4102SOL     OW13204   6.583   0.528   0.558
 4102SOL    HW113205   6.593   0.572   0.469
 4102SOL    HW213206   6.664   0.547   0.613
 4103SOL     OW13207   0.497   0.992   0.670
 4103SOL    HW113208   0.532   0.949   0.586
 4103SOL    HW213209   0.453   0.923   0.727
 4104SOL     OW13210   0.674   4.780   2.512
 4104SOL    HW113211   0.623   4.724   2.446
 4104SOL    HW213212   0.700   4.867   2.470
 4105SOL     OW13213   4.079   5.851   1.648
 4105SOL    HW113214   4.121   5.912   1.581
 4105SOL    HW213215   4.134   5.768   1.658
 4106SOL     OW13216   6.626   1.650   4.271
 4106SOL    HW113217   6.537   1.694   4.282
 4106SOL    HW213218   6.671   1.685   4.188
 4107SOL     OW13219   1.491   6.164   1.223
 4107SOL    HW113220   1.504   6.067   1.205
 4107SOL    HW213221   1.523   6.186   1.315
 4108SOL     OW13222   6.836   4.325   5.478
 4108SOL    HW113223   6.866   4.276   5.560
 4108SOL    HW213224   6.904   4.313   5.405
 4109SOL     OW13225   4.830   6.638   5.108
 4109SOL    HW113226   4.889   6.713   5.079
 4109SOL    HW213227   4.873   6.551   5.086
 4110SOL     OW13228   3.952   2.673   6.704
 4110SOL    HW113229   3.973   2.663   6.801
 4110SOL    HW213230   3.934   2.769   6.683
 4111SOL     OW13231   3.652   3.467   6.645
 4111SOL    HW113232   3.701   3.446   6.729
 4111SOL    HW213233   3.679   3.558   6.613
 4112SOL     OW13234   4.745   0.278   5.238
 4112SOL    HW113235   4.781   0.196   5.195
 4112SOL    HW213236   4.789   0.359   5.198
 4113SOL     OW13237   4.931   6.414   4.377
 4113SOL    HW113238   4.833   6.428   4.393
 4113SOL    HW213239   4.951   6.425   4.279
 4114SOL     OW13240   3.332   2.006   4.380
 4114SOL    HW113241   3.341   2.021   4.479
 4114SOL    HW213242   3.268   2.073   4.342
 4115SOL     OW13243   3.914   5.570   2.344
 4115SOL    HW113244   3.960   5.524   2.268
 4115SOL    HW213245   3.920   5.669   2.332
 4116SOL     OW13246   3.890   2.121   1.793
 4116SOL    HW113247   3.842   2.072   1.720
 4116SOL    HW213248   3.824   2.176   1.845
 4117SOL     OW13249   0.770   4.997   2.370
 4117SOL    HW113250   0.866   5.001   2.345
 4117SOL    HW213251   0.715   4.984   2.287
 4118SOL     OW13252   2.931   6.893   6.769
 4118SOL    HW113253   2.845   6.848   6.793
 4118SOL    HW213254   2.927   6.989   6.798
 4119SOL     OW13255   4.130   2.281   3.683
 4119SOL    HW113256   4.197   2.295   3.611
 4119SOL    HW213257   4.146   2.347   3.757
 4120SOL     OW13258   4.284   0.597   0.538
 4120SOL    HW113259   4.357   0.624   0.475
 4120SOL    HW213260   4.196   0.627   0.501
 4121SOL     OW13261   5.933   1.116   5.170
 4121SOL    HW113262   5.936   1.145   5.075
 4121SOL    HW213263   5.838   1.120   5.203
 4122SOL     OW13264   0.958   5.352   5.542
 4122SOL    HW113265   0.952   5.259   5.505
 4122SOL    HW213266   1.023   5.353   5.618
 4123SOL     OW13267   4.369   4.803   5.923
 4123SOL    HW113268   4.425   4.883   5.901
 4123SOL    HW213269   4.317   4.822   6.007
 4124SOL     OW13270   6.120   5.193   6.240
 4124SOL    HW113271   6.116   5.274   6.183
 4124SOL    HW213272   6.168   5.215   6.326
 4125SOL     OW13273   4.463   1.548   2.298
 4125SOL    HW113274   4.548   1.536   2.247
 4125SOL    HW213275   4.420   1.634   2.271
 4126SOL     OW13276   1.516   3.683   3.317
 4126SOL    HW113277   1.539   3.627   3.397
 4126SOL    HW213278   1.430   3.731   3.333
 4127SOL     OW13279   4.777   4.629   4.632
 4127SOL    HW113280   4.683   4.608   4.655
 4127SOL    HW213281   4.782   4.663   4.538
 4128SOL     OW13282   1.351   3.651   2.345
 4128SOL    HW113283   1.336   3.580   2.277
 4128SOL    HW213284   1.433   3.629   2.398
 4129SOL     OW13285   4.818   1.540   6.842
 4129SOL    HW113286   4.799   1.447   6.875
 4129SOL    HW213287   4.833   1.538   6.743
 4130SOL     OW13288   6.762   2.555   5.728
 4130SOL    HW113289   6.857   2.540   5.702
 4130SOL    HW213290   6.716   2.467   5.739
 4131SOL     OW13291   1.545   6.202   4.061
 4131SOL    HW113292   1.629   6.150   4.048
 4131SOL    HW213293   1.528   6.214   4.159
 4132SOL     OW13294   5.079   4.161   3.476
 4132SOL    HW113295   5.105   4.085   3.415
 4132SOL    HW213296   5.107   4.247   3.435
 4133SOL     OW13297   2.773   0.091   1.934
 4133SOL    HW113298   2.862   0.069   1.974
 4133SOL    HW213299   2.708   0.018   1.955
 4134SOL     OW13300   2.122   2.615   0.220
 4134SOL    HW113301   2.060   2.538   0.234
 4134SOL    HW213302   2.100   2.660   0.133
 4135SOL     OW13303   2.086   1.443   2.425
 4135SOL    HW113304   2.051   1.485   2.341
 4135SOL    HW213305   2.076   1.507   2.501
 4136SOL     OW13306   1.689   2.244   2.801
 4136SOL    HW113307   1.773   2.279   2.759
 4136SOL    HW213308   1.704   2.232   2.899
 4137SOL     OW13309   1.552   4.400   1.118
 4137SOL    HW113310   1.551   4.381   1.216
 4137SOL    HW213311   1.625   4.346   1.075
 4138SOL     OW13312   3.792   4.901   3.042
 4138SOL    HW113313   3.696   4.902   3.012
 4138SOL    HW213314   3.795   4.908   3.142
 4139SOL     OW13315   2.333   2.672   4.393
 4139SOL    HW113316   2.390   2.619   4.330
 4139SOL    HW213317   2.357   2.646   4.487
 4140SOL     OW13318   3.102   0.619   5.337
 4140SOL    HW113319   3.010   0.655   5.354
 4140SOL    HW213320   3.167   0.665   5.396
 4141SOL     OW13321   5.310   6.691   1.539
 4141SOL    HW113322   5.309   6.596   1.570
 4141SOL    HW213323   5.228   6.710   1.486
 4142SOL     OW13324   6.335   5.451   0.626
 4142SOL    HW113325   6.418   5.452   0.682
 4142SOL    HW213326   6.318   5.358   0.594
 4143SOL     OW13327   0.459   3.062   0.230
 4143SOL    HW113328   0.418   2.995   0.292
 4143SOL    HW213329   0.557   3.068   0.248
 4144SOL     OW13330   5.056   3.706   6.407
 4144SOL    HW113331   4.978   3.769   6.401
 4144SOL    HW213332   5.029   3.625   6.461
 4145SOL     OW13333   6.670   5.861   1.102
 4145SOL    HW113334   6.658   5.794   1.029
 4145SOL    HW213335   6.580   5.892   1.134
 4146SOL     OW13336   0.295   1.125   5.541
 4146SOL    HW113337   0.295   1.175   5.628
 4146SOL    HW213338   0.376   1.067   5.536
 4147SOL     OW13339   4.538   2.576   5.739
 4147SOL    HW113340   4.593   2.497   5.712
 4147SOL    HW213341   4.597   2.647   5.777
 4148SOL     OW13342   1.036   0.225   4.219
 4148SOL    HW113343   1.095   0.237   4.299
 4148SOL    HW213344   1.074   0.276   4.142
 4149SOL     OW13345   0.342   2.546   0.625
 4149SOL    HW113346   0.260   2.601   0.609
 4149SOL    HW213347   0.321   2.449   0.610
 4150SOL     OW13348   0.382   0.842   5.260
 4150SOL    HW113349   0.350   0.810   5.171
 4150SOL    HW213350   0.304   0.863   5.318
 4151SOL     OW13351   4.038   6.343   6.100
 4151SOL    HW113352   4.121   6.334   6.156
 4151SOL    HW213353   4.042   6.428   6.049
 4152SOL     OW13354   3.000   6.254   1.147
 4152SOL    HW113355   2.910   6.221   1.120
 4152SOL    HW213356   3.070   6.187   1.122
 4153SOL     OW13357   4.578   4.989   0.065
 4153SOL    HW113358   4.499   4.957   0.118
 4153SOL    HW213359   4.563   5.083   0.037
 4154SOL     OW13360   0.561   4.275   4.747
 4154SOL    HW113361   0.461   4.268   4.751
 4154SOL    HW213362   0.589   4.313   4.659
 4155SOL     OW13363   6.525   2.085   3.033
 4155SOL    HW113364   6.493   2.008   3.088
 4155SOL    HW213365   6.551   2.052   2.942
 4156SOL     OW13366   5.128   6.617   4.495
 4156SOL    HW113367   5.061   6.551   4.461
 4156SOL    HW213368   5.094   6.710   4.479
 4157SOL     OW13369   4.256   6.527   3.993
 4157SOL    HW113370   4.339   6.551   4.044
 4157SOL    HW213371   4.258   6.574   3.904
 4158SOL     OW13372   1.992   5.179   3.956
 4158SOL    HW113373   1.950   5.233   4.029
 4158SOL    HW213374   2.090   5.196   3.954
 4159SOL     OW13375   2.138   3.167   3.854
 4159SOL    HW113376   2.215   3.118   3.813
 4159SOL    HW213377   2.087   3.215   3.781
 4160SOL     OW13378   6.995   0.250   0.813
 4160SOL    HW113379   0.032   0.175   0.851
 4160SOL    HW213380   6.898   0.235   0.833
 4161SOL     OW13381   1.240   0.246   6.313
 4161SOL    HW113382   1.283   0.236   6.402
 4161SOL    HW213383   1.218   0.342   6.297
 4162SOL     OW13384   5.987   6.438   5.666
 4162SOL    HW113385   6.050   6.450   5.743
 4162SOL    HW213386   6.040   6.432   5.581
 4163SOL     OW13387   6.205   0.158   3.315
 4163SOL    HW113388   6.291   0.134   3.271
 4163SOL    HW213389   6.139   0.187   3.246
 4164SOL     OW13390   0.801   6.661   6.217
 4164SOL    HW113391   0.878   6.600   6.235
 4164SOL    HW213392   0.741   6.662   6.297
 4165SOL     OW13393   4.501   0.371   0.239
 4165SOL    HW113394   4.553   0.305   0.185
 4165SOL    HW213395   4.404   0.350   0.233
 4166SOL     OW13396   5.777   3.579   1.023
 4166SOL    HW113397   5.871   3.583   1.056
 4166SOL    HW213398   5.726   3.512   1.077
 4167SOL     OW13399   1.648   4.601   0.721
 4167SOL    HW113400   1.687   4.586   0.630
 4167SOL    HW213401   1.678   4.689   0.757
 4168SOL     OW13402   0.271   5.108   1.115
 4168SOL    HW113403   0.197   5.175   1.124
 4168SOL    HW213404   0.331   5.113   1.195
 4169SOL     OW13405   5.693   3.694   3.567
 4169SOL    HW113406   5.712   3.742   3.481
 4169SOL    HW213407   5.611   3.638   3.557
 4170SOL     OW13408   2.900   3.553   5.000
 4170SOL    HW113409   2.845   3.471   5.009
 4170SOL    HW213410   2.889   3.610   5.082
 4171SOL     OW13411   5.280   4.558   1.422
 4171SOL    HW113412   5.247   4.581   1.330
 4171SOL    HW213413   5.253   4.465   1.445
 4172SOL     OW13414   0.375   1.805   6.396
 4172SOL    HW113415   0.376   1.872   6.470
 4172SOL    HW213416   0.363   1.714   6.433
 4173SOL     OW13417   5.416   3.460   5.303
 4173SOL    HW113418   5.403   3.496   5.396
 4173SOL    HW213419   5.467   3.527   5.249
 4174SOL     OW13420   5.059   0.470   4.200
 4174SOL    HW113421   5.083   0.418   4.117
 4174SOL    HW213422   5.124   0.544   4.213
 4175SOL     OW13423   2.701   5.684   4.539
 4175SOL    HW113424   2.732   5.758   4.479
 4175SOL    HW213425   2.773   5.663   4.605
 4176SOL     OW13426   2.796   6.733   2.024
 4176SOL    HW113427   2.808   6.648   2.074
 4176SOL    HW213428   2.825   6.811   2.080
 4177SOL     OW13429   6.808   4.227   4.857
 4177SOL    HW113430   6.744   4.154   4.881
 4177SOL    HW213431   6.761   4.315   4.860
 4178SOL     OW13432   4.395   0.831   4.042
 4178SOL    HW113433   4.351   0.840   3.953
 4178SOL    HW213434   4.345   0.886   4.109
 4179SOL     OW13435   5.370   2.691   3.726
 4179SOL    HW113436   5.395   2.741   3.643
 4179SOL    HW213437   5.288   2.733   3.767
 4180SOL     OW13438   5.508   3.356   1.742
 4180SOL    HW113439   5.530   3.269   1.785
 4180SOL    HW213440   5.538   3.431   1.802
 4181SOL     OW13441   2.036   2.261   6.169
 4181SOL    HW113442   2.112   2.195   6.177
 4181SOL    HW213443   1.976   2.251   6.249
 4182SOL     OW13444   0.320   6.114   2.542
 4182SOL    HW113445   0.282   6.051   2.610
 4182SOL    HW213446   0.348   6.198   2.587
 4183SOL     OW13447   4.010   1.146   0.890
 4183SOL    HW113448   3.973   1.151   0.983
 4183SOL    HW213449   4.023   1.238   0.854
 4184SOL     OW13450   4.724   4.965   1.247
 4184SOL    HW113451   4.691   5.033   1.181
 4184SOL    HW213452   4.660   4.888   1.251
 4185SOL     OW13453   0.803   6.015   2.690
 4185SOL    HW113454   0.870   5.979   2.754
 4185SOL    HW213455   0.847   6.032   2.601
 4186SOL     OW13456   1.293   4.874   0.692
 4186SOL    HW113457   1.326   4.787   0.655
 4186SOL    HW213458   1.309   4.877   0.790
 4187SOL     OW13459   3.779   3.565   6.032
 4187SOL    HW113460   3.688   3.599   6.057
 4187SOL    HW213461   3.769   3.482   5.978
 4188SOL     OW13462   4.937   6.608   3.786
 4188SOL    HW113463   4.878   6.586   3.864
 4188SOL    HW213464   4.987   6.526   3.758
 4189SOL     OW13465   3.253   1.311   4.786
 4189SOL    HW113466   3.346   1.276   4.788
 4189SOL    HW213467   3.190   1.240   4.755
 4190SOL     OW13468   1.747   0.068   6.825
 4190SOL    HW113469   1.672   0.098   6.767
 4190SOL    HW213470   1.834   0.081   6.777
 4191SOL     OW13471   5.872   3.659   2.949
 4191SOL    HW113472   5.853   3.690   2.856
 4191SOL    HW213473   5.917   3.569   2.945
 4192SOL     OW13474   6.682   0.899   3.493
 4192SOL    HW113475   6.644   0.809   3.470
 4192SOL    HW213476   6.733   0.893   3.579
 4193SOL     OW13477   2.020   6.805   1.504
 4193SOL    HW113478   2.031   6.890   1.556
 4193SOL    HW213479   2.052   6.728   1.560
 4194SOL     OW13480   6.925   1.650   5.669
 4194SOL    HW113481   6.944   1.609   5.580
 4194SOL    HW213482   6.916   1.749   5.659
 4195SOL     OW13483   3.236   0.475   1.452
 4195SOL    HW113484   3.153   0.427   1.421
 4195SOL    HW213485   3.214   0.534   1.530
 4196SOL     OW13486   6.212   1.593   3.716
 4196SOL    HW113487   6.144   1.632   3.655
 4196SOL    HW213488   6.303   1.623   3.689
 4197SOL     OW13489   4.535   4.829   4.520
 4197SOL    HW113490   4.610   4.797   4.463
 4197SOL    HW213491   4.569   4.853   4.611
 4198SOL     OW13492   5.678   3.437   6.554
 4198SOL    HW113493   5.622   3.381   6.493
 4198SOL    HW213494   5.775   3.425   6.530
 4199SOL     OW13495   2.058   3.607   6.081
 4199SOL    HW113496   1.958   3.617   6.080
 4199SOL    HW213497   2.092   3.603   5.987
 4200SOL     OW13498   3.011   6.783   5.058
 4200SOL    HW113499   2.949   6.743   5.126
 4200SOL    HW213500   2.965   6.860   5.013
 4201SOL     OW13501   5.682   6.507   3.974
 4201SOL    HW113502   5.744   6.436   4.007
 4201SOL    HW213503   5.587   6.478   3.989
 4202SOL     OW13504   4.265   5.530   5.610
 4202SOL    HW113505   4.244   5.444   5.563
 4202SOL    HW213506   4.341   5.576   5.563
 4203SOL     OW13507   4.366   5.899   2.217
 4203SOL    HW113508   4.345   5.805   2.190
 4203SOL    HW213509   4.317   5.922   2.301
 4204SOL     OW13510   3.364   2.876   1.941
 4204SOL    HW113511   3.268   2.851   1.945
 4204SOL    HW213512   3.402   2.880   2.033
 4205SOL     OW13513   3.628   5.353   4.527
 4205SOL    HW113514   3.590   5.443   4.549
 4205SOL    HW213515   3.706   5.364   4.466
 4206SOL     OW13516   5.777   1.114   5.609
 4206SOL    HW113517   5.721   1.139   5.530
 4206SOL    HW213518   5.832   1.034   5.586
 4207SOL     OW13519   2.224   1.760   1.383
 4207SOL    HW113520   2.241   1.856   1.361
 4207SOL    HW213521   2.305   1.705   1.359
 4208SOL     OW13522   1.131   2.269   0.350
 4208SOL    HW113523   1.171   2.347   0.398
 4208SOL    HW213524   1.038   2.291   0.322
 4209SOL     OW13525   1.098   1.685   4.737
 4209SOL    HW113526   1.187   1.693   4.784
 4209SOL    HW213527   1.031   1.743   4.784
 4210SOL     OW13528   2.971   3.338   1.846
 4210SOL    HW113529   3.031   3.260   1.824
 4210SOL    HW213530   3.013   3.391   1.920
 4211SOL     OW13531   4.824   6.039   6.020
 4211SOL    HW113532   4.739   6.041   6.073
 4211SOL    HW213533   4.866   5.949   6.028
 4212SOL     OW13534   6.180   1.811   2.375
 4212SOL    HW113535   6.177   1.795   2.277
 4212SOL    HW213536   6.106   1.873   2.401
 4213SOL     OW13537   2.270   1.224   2.436
 4213SOL    HW113538   2.201   1.286   2.398
 4213SOL    HW213539   2.336   1.277   2.489
 4214SOL     OW13540   6.716   4.116   5.848
 4214SOL    HW113541   6.636   4.073   5.807
 4214SOL    HW213542   6.703   4.122   5.947
 4215SOL     OW13543   6.819   5.757   4.951
 4215SOL    HW113544   6.890   5.765   5.022
 4215SOL    HW213545   6.848   5.807   4.870
 4216SOL     OW13546   1.490   1.658   3.053
 4216SOL    HW113547   1.538   1.648   3.140
 4216SOL    HW213548   1.453   1.751   3.046
 4217SOL     OW13549   6.100   0.513   2.924
 4217SOL    HW113550   6.136   0.495   2.833
 4217SOL    HW213551   6.159   0.472   2.993
 4218SOL     OW13552   4.897   0.023   1.315
 4218SOL    HW113553   4.830   0.063   1.252
 4218SOL    HW213554   4.974   7.003   1.263
 4219SOL     OW13555   2.602   5.325   5.034
 4219SOL    HW113556   2.657   5.379   4.970
 4219SOL    HW213557   2.633   5.230   5.032
 4220SOL     OW13558   6.387   3.162   3.475
 4220SOL    HW113559   6.328   3.081   3.470
 4220SOL    HW213560   6.416   3.188   3.383
 4221SOL     OW13561   6.378   5.706   6.656
 4221SOL    HW113562   6.296   5.748   6.693
 4221SOL    HW213563   6.441   5.685   6.731
 4222SOL     OW13564   6.104   2.055   2.172
 4222SOL    HW113565   6.198   2.054   2.206
 4222SOL    HW213566   6.095   1.988   2.099
 4223SOL     OW13567   3.418   3.052   4.377
 4223SOL    HW113568   3.413   3.087   4.283
 4223SOL    HW213569   3.326   3.037   4.412
 4224SOL     OW13570   4.896   3.156   4.145
 4224SOL    HW113571   4.832   3.082   4.165
 4224SOL    HW213572   4.851   3.244   4.160
 4225SOL     OW13573   5.020   0.764   5.196
 4225SOL    HW113574   5.115   0.788   5.174
 4225SOL    HW213575   5.013   0.745   5.294
 4226SOL     OW13576   2.104   0.226   3.107
 4226SOL    HW113577   2.105   0.305   3.168
 4226SOL    HW213578   2.156   0.151   3.149
 4227SOL     OW13579   3.281   4.479   6.407
 4227SOL    HW113580   3.254   4.386   6.382
 4227SOL    HW213581   3.320   4.525   6.328
 4228SOL     OW13582   6.268   4.748   3.441
 4228SOL    HW113583   6.199   4.801   3.489
 4228SOL    HW213584   6.349   4.738   3.498
 4229SOL     OW13585   4.090   4.762   6.373
 4229SOL    HW113586   4.121   4.675   6.411
 4229SOL    HW213587   4.081   4.829   6.447
 4230SOL     OW13588   2.392   0.429   4.792
 4230SOL    HW113589   2.333   0.468   4.721
 4230SOL    HW213590   2.348   0.437   4.881
 4231SOL     OW13591   5.409   6.428   5.128
 4231SOL    HW113592   5.388   6.448   5.223
 4231SOL    HW213593   5.395   6.330   5.111
 4232SOL     OW13594   0.460   5.289   1.707
 4232SOL    HW113595   0.539   5.345   1.681
 4232SOL    HW213596   0.465   5.267   1.804
 4233SOL     OW13597   6.526   0.191   0.111
 4233SOL    HW113598   6.428   0.193   0.090
 4233SOL    HW213599   6.566   0.107   0.074
 4234SOL     OW13600   1.792   6.343   5.207
 4234SOL    HW113601   1.876   6.392   5.184
 4234SOL    HW213602   1.784   6.335   5.306
 4235SOL     OW13603   5.863   4.052   5.247
 4235SOL    HW113604   5.925   4.002   5.186
 4235SOL    HW213605   5.831   3.991   5.319
 4236SOL     OW13606   6.965   3.037   3.107
 4236SOL    HW113607   6.875   3.046   3.151
 4236SOL    HW213608   6.985   3.120   3.054
 4237SOL     OW13609   5.857   4.463   3.954
 4237SOL    HW113610   5.913   4.502   4.027
 4237SOL    HW213611   5.849   4.364   3.969
 4238SOL     OW13612   4.277   4.637   3.921
 4238SOL    HW113613   4.274   4.568   3.993
 4238SOL    HW213614   4.365   4.684   3.923
 4239SOL     OW13615   5.648   0.073   4.170
 4239SOL    HW113616   5.650   0.097   4.267
 4239SOL    HW213617   5.587   7.011   4.156
 4240SOL     OW13618   2.387   6.114   6.268
 4240SOL    HW113619   2.362   6.029   6.316
 4240SOL    HW213620   2.334   6.190   6.306
 4241SOL     OW13621   6.031   0.368   1.174
 4241SOL    HW113622   5.954   0.428   1.195
 4241SOL    HW213623   6.066   0.387   1.082
 4242SOL     OW13624   2.215   0.028   3.279
 4242SOL    HW113625   2.155   0.035   3.358
 4242SOL    HW213626   2.180   6.974   3.217
 4243SOL     OW13627   0.748   3.743   2.850
 4243SOL    HW113628   0.812   3.679   2.892
 4243SOL    HW213629   0.794   3.795   2.778
 4244SOL     OW13630   4.744   5.884   1.236
 4244SOL    HW113631   4.833   5.904   1.276
 4244SOL    HW213632   4.749   5.800   1.183
 4245SOL     OW13633   0.025   2.373   0.257
 4245SOL    HW113634   0.027   2.277   0.287
 4245SOL    HW213635   6.947   2.405   0.258
 4246SOL     OW13636   5.190   3.358   3.118
 4246SOL    HW113637   5.210   3.285   3.053
 4246SOL    HW213638   5.256   3.355   3.192
 4247SOL     OW13639   2.241   5.394   4.736
 4247SOL    HW113640   2.317   5.334   4.762
 4247SOL    HW213641   2.186   5.349   4.665
 4248SOL     OW13642   1.564   0.932   3.440
 4248SOL    HW113643   1.579   1.023   3.477
 4248SOL    HW213644   1.478   0.929   3.390
 4249SOL     OW13645   6.816   1.859   3.667
 4249SOL    HW113646   6.772   1.820   3.586
 4249SOL    HW213647   6.864   1.787   3.717
 4250SOL     OW13648   6.953   5.761   4.238
 4250SOL    HW113649   0.004   5.697   4.202
 4250SOL    HW213650   6.997   5.818   4.308
 4251SOL     OW13651   6.028   2.537   6.608
 4251SOL    HW113652   6.012   2.544   6.706
 4251SOL    HW213653   5.981   2.456   6.572
 4252SOL     OW13654   6.173   5.912   6.468
 4252SOL    HW113655   6.247   5.903   6.402
 4252SOL    HW213656   6.145   5.821   6.500
 4253SOL     OW13657   3.492   6.393   2.453
 4253SOL    HW113658   3.498   6.466   2.385
 4253SOL    HW213659   3.441   6.426   2.533
 4254SOL     OW13660   2.249   4.629   1.810
 4254SOL    HW113661   2.163   4.591   1.775
 4254SOL    HW213662   2.320   4.559   1.807
 4255SOL     OW13663   6.887   3.328   3.944
 4255SOL    HW113664   6.985   3.335   3.958
 4255SOL    HW213665   6.850   3.419   3.921
 4256SOL     OW13666   1.016   5.744   2.027
 4256SOL    HW113667   0.927   5.788   2.039
 4256SOL    HW213668   1.017   5.690   1.943
 4257SOL     OW13669   6.640   0.732   4.692
 4257SOL    HW113670   6.708   0.704   4.760
 4257SOL    HW213671   6.556   0.760   4.739
 4258SOL     OW13672   3.556   5.722   1.132
 4258SOL    HW113673   3.566   5.641   1.075
 4258SOL    HW213674   3.645   5.745   1.173
 4259SOL     OW13675   1.599   6.567   1.211
 4259SOL    HW113676   1.683   6.526   1.247
 4259SOL    HW213677   1.622   6.641   1.148
 4260SOL     OW13678   4.902   6.877   3.881
 4260SOL    HW113679   4.933   6.784   3.859
 4260SOL    HW213680   4.972   6.924   3.935
 4261SOL     OW13681   2.006   0.261   3.618
 4261SOL    HW113682   1.933   0.215   3.669
 4261SOL    HW213683   2.036   0.342   3.668
 4262SOL     OW13684   1.984   4.669   5.772
 4262SOL    HW113685   2.027   4.738   5.714
 4262SOL    HW213686   2.043   4.588   5.777
 4263SOL     OW13687   3.226   1.483   3.304
 4263SOL    HW113688   3.149   1.432   3.267
 4263SOL    HW213689   3.240   1.457   3.400
 4264SOL     OW13690   5.971   1.246   4.866
 4264SOL    HW113691   5.891   1.305   4.860
 4264SOL    HW213692   5.982   1.195   4.780
 4265SOL     OW13693   3.309   0.508   0.624
 4265SOL    HW113694   3.302   0.454   0.707
 4265SOL    HW213695   3.295   0.605   0.645
 4266SOL     OW13696   1.739   6.843   6.950
 4266SOL    HW113697   1.642   6.820   6.942
 4266SOL    HW213698   1.757   6.930   6.904
 4267SOL     OW13699   2.039   3.927   4.007
 4267SOL    HW113700   2.100   3.971   4.074
 4267SOL    HW213701   1.944   3.940   4.035
 4268SOL     OW13702   2.008   5.290   6.643
 4268SOL    HW113703   1.935   5.231   6.609
 4268SOL    HW213704   2.056   5.245   6.718
 4269SOL     OW13705   3.237   1.695   3.725
 4269SOL    HW113706   3.323   1.687   3.675
 4269SOL    HW213707   3.250   1.663   3.819
 4270SOL     OW13708   3.879   3.118   1.476
 4270SOL    HW113709   3.788   3.089   1.447
 4270SOL    HW213710   3.875   3.154   1.570
 4271SOL     OW13711   6.582   0.937   0.304
 4271SOL    HW113712   6.603   1.035   0.313
 4271SOL    HW213713   6.484   0.923   0.314
 4272SOL     OW13714   6.943   3.320   5.504
 4272SOL    HW113715   6.989   3.234   5.480
 4272SOL    HW213716   7.009   3.395   5.498
 4273SOL     OW13717   5.064   6.456   5.058
 4273SOL    HW113718   5.075   6.357   5.047
 4273SOL    HW213719   5.084   6.481   5.153
 4274SOL     OW13720   0.475   6.611   2.090
 4274SOL    HW113721   0.532   6.548   2.039
 4274SOL    HW213722   0.379   6.598   2.063
 4275SOL     OW13723   0.155   2.046   4.660
 4275SOL    HW113724   0.177   2.142   4.643
 4275SOL    HW213725   0.145   2.032   4.759
 4276SOL     OW13726   3.027   5.132   3.349
 4276SOL    HW113727   2.961   5.205   3.329
 4276SOL    HW213728   2.979   5.053   3.388
 4277SOL     OW13729   6.896   4.810   3.780
 4277SOL    HW113730   6.981   4.818   3.833
 4277SOL    HW213731   6.896   4.725   3.728
 4278SOL     OW13732   6.990   6.221   3.689
 4278SOL    HW113733   0.016   6.193   3.603
 4278SOL    HW213734   0.000   6.157   3.762
 4279SOL     OW13735   1.861   0.524   2.195
 4279SOL    HW113736   1.912   0.608   2.211
 4279SOL    HW213737   1.925   0.447   2.189
 4280SOL     OW13738   6.009   6.733   5.978
 4280SOL    HW113739   6.049   6.787   5.905
 4280SOL    HW213740   5.914   6.762   5.993
 4281SOL     OW13741   4.732   5.061   4.229
 4281SOL    HW113742   4.637   5.043   4.254
 4281SOL    HW213743   4.737   5.143   4.172
 4282SOL     OW13744   3.427   4.432   0.748
 4282SOL    HW113745   3.437   4.332   0.743
 4282SOL    HW213746   3.481   4.474   0.675
 4283SOL     OW13747   4.837   1.377   3.579
 4283SOL    HW113748   4.802   1.433   3.504
 4283SOL    HW213749   4.934   1.360   3.564
 4284SOL     OW13750   3.810   5.606   6.968
 4284SOL    HW113751   3.813   5.577   0.046
 4284SOL    HW213752   3.847   5.698   6.959
 4285SOL     OW13753   3.021   0.821   6.029
 4285SOL    HW113754   3.087   0.830   6.104
 4285SOL    HW213755   3.059   0.862   5.946
 4286SOL     OW13756   0.096   0.630   6.297
 4286SOL    HW113757   0.073   0.726   6.286
 4286SOL    HW213758   0.156   0.619   6.376
 4287SOL     OW13759   4.614   1.142   6.527
 4287SOL    HW113760   4.577   1.157   6.435
 4287SOL    HW213761   4.541   1.152   6.594
 4288SOL     OW13762   6.787   5.957   2.535
 4288SOL    HW113763   6.722   5.953   2.460
 4288SOL    HW213764   6.817   6.052   2.548
 4289SOL     OW13765   1.300   2.251   5.644
 4289SOL    HW113766   1.316   2.254   5.743
 4289SOL    HW213767   1.388   2.255   5.597
 4290SOL     OW13768   0.225   6.347   3.997
 4290SOL    HW113769   0.226   6.407   3.917
 4290SOL    HW213770   0.319   6.326   4.024
 4291SOL     OW13771   4.683   2.702   6.651
 4291SOL    HW113772   4.597   2.708   6.702
 4291SOL    HW213773   4.684   2.771   6.579
 4292SOL     OW13774   6.085   2.793   0.004
 4292SOL    HW113775   6.154   2.853   6.981
 4292SOL    HW213776   6.130   2.725   0.062
 4293SOL     OW13777   4.403   3.733   0.006
 4293SOL    HW113778   4.395   3.828   0.036
 4293SOL    HW213779   4.492   3.696   0.032
 4294SOL     OW13780   2.486   2.255   6.122
 4294SOL    HW113781   2.547   2.257   6.042
 4294SOL    HW213782   2.407   2.313   6.104
 4295SOL     OW13783   3.934   6.372   3.050
 4295SOL    HW113784   4.021   6.377   3.099
 4295SOL    HW213785   3.871   6.313   3.100
 4296SOL     OW13786   3.237   6.929   0.993
 4296SOL    HW113787   3.269   6.967   0.906
 4296SOL    HW213788   3.312   6.927   1.059
 4297SOL     OW13789   6.424   6.408   1.417
 4297SOL    HW113790   6.493   6.480   1.414
 4297SOL    HW213791   6.352   6.427   1.350
 4298SOL     OW13792   3.761   6.303   1.448
 4298SOL    HW113793   3.768   6.399   1.475
 4298SOL    HW213794   3.665   6.281   1.428
 4299SOL     OW13795   0.602   3.555   0.058
 4299SOL    HW113796   0.681   3.529   0.004
 4299SOL    HW213797   0.534   3.598   7.016
 4300SOL     OW13798   2.646   0.249   1.235
 4300SOL    HW113799   2.581   0.187   1.279
 4300SOL    HW213800   2.599   0.335   1.211
 4301SOL     OW13801   3.034   6.911   1.704
 4301SOL    HW113802   3.048   7.005   1.736
 4301SOL    HW213803   3.118   6.859   1.720
 4302SOL     OW13804   6.260   0.172   0.032
 4302SOL    HW113805   6.276   0.123   6.963
 4302SOL    HW213806   6.176   0.139   0.074
 4303SOL     OW13807   0.220   4.593   3.473
 4303SOL    HW113808   0.234   4.692   3.471
 4303SOL    HW213809   0.194   4.562   3.381
 4304SOL     OW13810   3.698   4.071   1.835
 4304SOL    HW113811   3.795   4.050   1.844
 4304SOL    HW213812   3.651   4.048   1.921
 4305SOL     OW13813   0.509   6.706   4.710
 4305SOL    HW113814   0.578   6.774   4.686
 4305SOL    HW213815   0.531   6.664   4.798
 4306SOL     OW13816   4.920   4.404   4.752
 4306SOL    HW113817   4.857   4.330   4.727
 4306SOL    HW213818   4.869   4.490   4.757
 4307SOL     OW13819   5.612   2.965   5.785
 4307SOL    HW113820   5.525   2.917   5.792
 4307SOL    HW213821   5.646   2.985   5.877
 4308SOL     OW13822   5.583   4.925   1.669
 4308SOL    HW113823   5.588   4.997   1.599
 4308SOL    HW213824   5.659   4.861   1.655
 4309SOL     OW13825   0.898   3.475   0.130
 4309SOL    HW113826   0.979   3.514   0.174
 4309SOL    HW213827   0.903   3.490   0.031
 4310SOL     OW13828   1.372   2.812   2.011
 4310SOL    HW113829   1.407   2.770   1.928
 4310SOL    HW213830   1.310   2.748   2.058
 4311SOL     OW13831   1.096   6.719   1.913
 4311SOL    HW113832   1.159   6.719   1.991
 4311SOL    HW213833   1.142   6.757   1.833
 4312SOL     OW13834   1.033   5.472   2.878
 4312SOL    HW113835   1.048   5.569   2.897
 4312SOL    HW213836   1.120   5.428   2.856
 4313SOL     OW13837   3.347   2.427   6.856
 4313SOL    HW113838   3.264   2.447   6.805
 4313SOL    HW213839   3.326   2.416   6.953
 4314SOL     OW13840   6.602   1.892   5.577
 4314SOL    HW113841   6.564   1.837   5.502
 4314SOL    HW213842   6.533   1.904   5.648
 4315SOL     OW13843   1.937   1.770   3.986
 4315SOL    HW113844   1.853   1.772   4.039
 4315SOL    HW213845   2.005   1.830   4.028
 4316SOL     OW13846   4.977   6.759   2.634
 4316SOL    HW113847   4.894   6.769   2.689
 4316SOL    HW213848   5.044   6.705   2.683
 4317SOL     OW13849   4.110   0.769   5.394
 4317SOL    HW113850   4.068   0.847   5.439
 4317SOL    HW213851   4.049   0.734   5.323
 4318SOL     OW13852   0.511   0.615   4.385
 4318SOL    HW113853   0.475   0.530   4.422
 4318SOL    HW213854   0.485   0.691   4.445
 4319SOL     OW13855   1.688   2.026   1.349
 4319SOL    HW113856   1.657   2.111   1.307
 4319SOL    HW213857   1.741   1.973   1.282
 4320SOL     OW13858   4.120   6.140   0.707
 4320SOL    HW113859   4.049   6.196   0.749
 4320SOL    HW213860   4.158   6.188   0.628
 4321SOL     OW13861   6.994   4.994   3.393
 4321SOL    HW113862   6.928   5.014   3.465
 4321SOL    HW213863   0.069   5.021   3.423
 4322SOL     OW13864   7.004   3.211   5.888
 4322SOL    HW113865   0.056   3.245   5.824
 4322SOL    HW213866   6.931   3.165   5.837
 4323SOL     OW13867   4.184   5.359   6.910
 4323SOL    HW113868   4.136   5.272   6.918
 4323SOL    HW213869   4.155   5.406   6.827
 4324SOL     OW13870   6.752   3.213   5.725
 4324SOL    HW113871   6.655   3.215   5.701
 4324SOL    HW213872   6.805   3.254   5.651
 4325SOL     OW13873   2.509   1.779   2.245
 4325SOL    HW113874   2.485   1.840   2.170
 4325SOL    HW213875   2.480   1.686   2.223
 4326SOL     OW13876   5.805   3.464   2.419
 4326SOL    HW113877   5.892   3.454   2.467
 4326SOL    HW213878   5.795   3.391   2.352
 4327SOL     OW13879   3.723   5.499   3.118
 4327SOL    HW113880   3.667   5.448   3.183
 4327SOL    HW213881   3.777   5.435   3.063
 4328SOL     OW13882   6.377   4.392   4.692
 4328SOL    HW113883   6.336   4.325   4.630
 4328SOL    HW213884   6.455   4.436   4.647
 4329SOL     OW13885   5.731   3.537   5.528
 4329SOL    HW113886   5.724   3.520   5.430
 4329SOL    HW213887   5.765   3.454   5.573
 4330SOL     OW13888   1.776   6.577   4.599
 4330SOL    HW113889   1.794   6.647   4.529
 4330SOL    HW213890   1.725   6.502   4.558
 4331SOL     OW13891   0.259   0.311   1.512
 4331SOL    HW113892   0.213   0.382   1.565
 4331SOL    HW213893   0.356   0.334   1.503
 4332SOL     OW13894   5.804   3.689   2.669
 4332SOL    HW113895   5.875   3.623   2.646
 4332SOL    HW213896   5.824   3.777   2.626
 4333SOL     OW13897   4.562   2.112   5.297
 4333SOL    HW113898   4.604   2.069   5.217
 4333SOL    HW213899   4.624   2.181   5.335
 4334SOL     OW13900   1.556   2.905   2.190
 4334SOL    HW113901   1.502   2.914   2.274
 4334SOL    HW213902   1.495   2.893   2.112
 4335SOL     OW13903   3.405   2.997   1.022
 4335SOL    HW113904   3.425   2.919   1.081
 4335SOL    HW213905   3.327   2.975   0.963
 4336SOL     OW13906   2.145   4.718   5.252
 4336SOL    HW113907   2.145   4.817   5.234
 4336SOL    HW213908   2.180   4.670   5.171
 4337SOL     OW13909   1.433   5.978   2.215
 4337SOL    HW113910   1.498   5.939   2.280
 4337SOL    HW213911   1.392   5.906   2.160
 4338SOL     OW13912   6.049   0.209   6.171
 4338SOL    HW113913   6.060   0.112   6.148
 4338SOL    HW213914   5.996   0.217   6.256
 4339SOL     OW13915   3.522   2.386   6.442
 4339SOL    HW113916   3.461   2.315   6.405
 4339SOL    HW213917   3.594   2.406   6.375
 4340SOL     OW13918   6.015   2.619   1.335
 4340SOL    HW113919   5.948   2.554   1.301
 4340SOL    HW213920   6.068   2.578   1.409
 4341SOL     OW13921   1.146   5.454   1.961
 4341SOL    HW113922   1.229   5.462   1.905
 4341SOL    HW213923   1.163   5.495   2.051
 4342SOL     OW13924   4.893   3.423   2.908
 4342SOL    HW113925   4.902   3.336   2.860
 4342SOL    HW213926   4.879   3.496   2.841
 4343SOL     OW13927   3.759   6.910   6.090
 4343SOL    HW113928   3.783   6.948   6.180
 4343SOL    HW213929   3.667   6.871   6.094
 4344SOL     OW13930   0.448   2.974   3.422
 4344SOL    HW113931   0.491   2.884   3.418
 4344SOL    HW213932   0.441   3.013   3.330
 4345SOL     OW13933   3.094   3.335   2.862
 4345SOL    HW113934   3.102   3.289   2.950
 4345SOL    HW213935   3.050   3.424   2.875
 4346SOL     OW13936   2.083   2.709   2.431
 4346SOL    HW113937   2.061   2.788   2.374
 4346SOL    HW213938   2.164   2.730   2.487
 4347SOL     OW13939   6.317   6.088   2.178
 4347SOL    HW113940   6.373   6.014   2.139
 4347SOL    HW213941   6.336   6.173   2.130
 4348SOL     OW13942   0.099   5.537   4.150
 4348SOL    HW113943   0.102   5.456   4.208
 4348SOL    HW213944   0.045   5.518   4.068
 4349SOL     OW13945   6.994   3.198   3.398
 4349SOL    HW113946   0.051   3.234   3.455
 4349SOL    HW213947   6.983   3.101   3.415
 4350SOL     OW13948   4.995   2.265   4.766
 4350SOL    HW113949   4.969   2.313   4.682
 4350SOL    HW213950   4.975   2.167   4.757
 4351SOL     OW13951   1.238   6.037   1.634
 4351SOL    HW113952   1.306   6.103   1.668
 4351SOL    HW213953   1.147   6.077   1.640
 4352SOL     OW13954   5.377   3.563   1.214
 4352SOL    HW113955   5.427   3.632   1.266
 4352SOL    HW213956   5.365   3.481   1.270
 4353SOL     OW13957   2.889   3.594   6.630
 4353SOL    HW113958   2.974   3.631   6.668
 4353SOL    HW213959   2.890   3.494   6.640
 4354SOL     OW13960   1.137   0.785   5.591
 4354SOL    HW113961   1.057   0.827   5.634
 4354SOL    HW213962   1.217   0.844   5.604
 4355SOL     OW13963   1.643   6.433   3.327
 4355SOL    HW113964   1.702   6.438   3.407
 4355SOL    HW213965   1.584   6.514   3.323
 4356SOL     OW13966   4.444   3.387   6.074
 4356SOL    HW113967   4.349   3.399   6.045
 4356SOL    HW213968   4.502   3.380   5.993
 4357SOL     OW13969   0.245   1.488   1.886
 4357SOL    HW113970   0.291   1.573   1.863
 4357SOL    HW213971   0.248   1.473   1.985
 4358SOL     OW13972   0.220   0.999   6.731
 4358SOL    HW113973   0.197   0.903   6.745
 4358SOL    HW213974   0.302   1.023   6.784
 4359SOL     OW13975   2.178   0.627   6.614
 4359SOL    HW113976   2.184   0.627   6.714
 4359SOL    HW213977   2.165   0.534   6.581
 4360SOL     OW13978   1.040   2.188   3.716
 4360SOL    HW113979   0.999   2.171   3.627
 4360SOL    HW213980   1.008   2.276   3.751
 4361SOL     OW13981   2.215   2.851   1.257
 4361SOL    HW113982   2.288   2.919   1.265
 4361SOL    HW213983   2.163   2.847   1.343
 4362SOL     OW13984   0.847   6.409   4.256
 4362SOL    HW113985   0.843   6.310   4.248
 4362SOL    HW213986   0.901   6.434   4.337
 4363SOL     OW13987   4.118   0.323   2.059
 4363SOL    HW113988   4.106   0.304   1.961
 4363SOL    HW213989   4.187   0.260   2.096
 4364SOL     OW13990   3.055   3.850   2.714
 4364SOL    HW113991   2.955   3.858   2.714
 4364SOL    HW213992   3.094   3.920   2.774
 4365SOL     OW13993   3.109   1.637   1.891
 4365SOL    HW113994   3.127   1.564   1.957
 4365SOL    HW213995   3.013   1.662   1.894
 4366SOL     OW13996   6.438   5.872   5.855
 4366SOL    HW113997   6.442   5.972   5.865
 4366SOL    HW213998   6.377   5.849   5.780
 4367SOL     OW13999   2.875   5.348   2.787
 4367SOL    HW114000   2.858   5.317   2.881
 4367SOL    HW214001   2.899   5.270   2.730
 4368SOL     OW14002   3.917   5.591   2.853
 4368SOL    HW114003   3.874   5.501   2.861
 4368SOL    HW214004   3.978   5.591   2.773
 4369SOL     OW14005   5.055   5.494   2.865
 4369SOL    HW114006   5.054   5.569   2.931
 4369SOL    HW214007   5.093   5.412   2.908
 4370SOL     OW14008   3.656   3.704   1.575
 4370SOL    HW114009   3.702   3.744   1.496
 4370SOL    HW214010   3.557   3.709   1.562
 4371SOL     OW14011   2.518   0.806   2.154
 4371SOL    HW114012   2.453   0.828   2.227
 4371SOL    HW214013   2.470   0.763   2.078
 4372SOL     OW14014   1.713   3.666   4.502
 4372SOL    HW114015   1.678   3.610   4.426
 4372SOL    HW214016   1.686   3.623   4.588
 4373SOL     OW14017   4.298   1.167   5.920
 4373SOL    HW114018   4.233   1.237   5.950
 4373SOL    HW214019   4.251   1.080   5.909
 4374SOL     OW14020   2.840   2.171   1.684
 4374SOL    HW114021   2.795   2.259   1.683
 4374SOL    HW214022   2.915   2.172   1.750
 4375SOL     OW14023   3.884   6.815   3.219
 4375SOL    HW114024   3.837   6.732   3.189
 4375SOL    HW214025   3.872   6.887   3.151
 4376SOL     OW14026   6.209   0.396   2.201
 4376SOL    HW114027   6.191   0.494   2.206
 4376SOL    HW214028   6.287   0.373   2.259
 4377SOL     OW14029   6.576   5.665   0.287
 4377SOL    HW114030   6.619   5.577   0.304
 4377SOL    HW214031   6.534   5.698   0.371
 4378SOL     OW14032   1.891   4.797   2.047
 4378SOL    HW114033   1.810   4.852   2.023
 4378SOL    HW214034   1.906   4.801   2.146
 4379SOL     OW14035   2.251   0.638   2.257
 4379SOL    HW114036   2.255   0.634   2.158
 4379SOL    HW214037   2.182   0.705   2.285
 4380SOL     OW14038   2.378   5.672   4.979
 4380SOL    HW114039   2.317   5.663   5.058
 4380SOL    HW214040   2.327   5.706   4.901
 4381SOL     OW14041   2.582   4.669   4.545
 4381SOL    HW114042   2.626   4.713   4.623
 4381SOL    HW214043   2.553   4.738   4.479
 4382SOL     OW14044   5.375   4.488   5.149
 4382SOL    HW114045   5.388   4.389   5.146
 4382SOL    HW214046   5.300   4.510   5.211
 4383SOL     OW14047   0.866   1.597   5.000
 4383SOL    HW114048   0.786   1.567   5.051
 4383SOL    HW214049   0.845   1.681   4.951
 4384SOL     OW14050   4.927   0.634   0.324
 4384SOL    HW114051   5.001   0.600   0.382
 4384SOL    HW214052   4.864   0.559   0.303
 4385SOL     OW14053   6.849   2.245   3.773
 4385SOL    HW114054   6.783   2.171   3.786
 4385SOL    HW214055   6.924   2.212   3.716
 4386SOL     OW14056   0.969   4.218   6.107
 4386SOL    HW114057   0.991   4.302   6.154
 4386SOL    HW214058   1.012   4.140   6.154
 4387SOL     OW14059   0.220   2.065   2.215
 4387SOL    HW114060   0.159   2.131   2.172
 4387SOL    HW214061   0.303   2.110   2.247
 4388SOL     OW14062   3.766   1.156   6.281
 4388SOL    HW114063   3.750   1.183   6.376
 4388SOL    HW214064   3.712   1.075   6.259
 4389SOL     OW14065   5.741   2.260   1.191
 4389SOL    HW114066   5.698   2.170   1.189
 4389SOL    HW214067   5.674   2.329   1.217
 4390SOL     OW14068   3.958   2.284   1.407
 4390SOL    HW114069   3.993   2.358   1.465
 4390SOL    HW214070   4.031   2.218   1.389
 4391SOL     OW14071   1.395   6.097   6.530
 4391SOL    HW114072   1.361   6.173   6.474
 4391SOL    HW214073   1.413   6.018   6.471
 4392SOL     OW14074   5.422   4.222   5.193
 4392SOL    HW114075   5.392   4.201   5.286
 4392SOL    HW214076   5.522   4.220   5.189
 4393SOL     OW14077   4.844   6.821   3.089
 4393SOL    HW114078   4.772   6.795   3.025
 4393SOL    HW214079   4.836   6.766   3.172
 4394SOL     OW14080   5.778   5.401   2.273
 4394SOL    HW114081   5.840   5.358   2.338
 4394SOL    HW214082   5.686   5.406   2.313
 4395SOL     OW14083   4.026   2.397   0.638
 4395SOL    HW114084   4.089   2.339   0.587
 4395SOL    HW214085   3.939   2.349   0.651
 4396SOL     OW14086   2.133   2.222   4.065
 4396SOL    HW114087   2.214   2.165   4.076
 4396SOL    HW214088   2.131   2.260   3.973
 4397SOL     OW14089   0.199   1.453   3.868
 4397SOL    HW114090   0.205   1.552   3.875
 4397SOL    HW214091   0.215   1.412   3.958
 4398SOL     OW14092   1.212   4.269   4.336
 4398SOL    HW114093   1.197   4.178   4.374
 4398SOL    HW214094   1.269   4.323   4.399
 4399SOL     OW14095   2.591   0.392   0.886
 4399SOL    HW114096   2.504   0.441   0.872
 4399SOL    HW214097   2.658   0.453   0.927
 4400SOL     OW14098   2.224   6.342   4.887
 4400SOL    HW114099   2.248   6.273   4.955
 4400SOL    HW214100   2.277   6.327   4.804
 4401SOL     OW14101   5.967   5.564   6.202
 4401SOL    HW114102   5.932   5.544   6.294
 4401SOL    HW214103   6.043   5.628   6.208
 4402SOL     OW14104   1.100   6.437   2.771
 4402SOL    HW114105   1.169   6.378   2.813
 4402SOL    HW214106   1.039   6.473   2.842
 4403SOL     OW14107   6.726   6.981   3.558
 4403SOL    HW114108   6.740   6.953   3.653
 4403SOL    HW214109   6.801   0.024   3.529
 4404SOL     OW14110   1.197   3.969   4.653
 4404SOL    HW114111   1.221   4.009   4.742
 4404SOL    HW214112   1.255   3.890   4.635
 4405SOL     OW14113   2.987   4.679   6.273
 4405SOL    HW114114   3.027   4.739   6.342
 4405SOL    HW214115   3.052   4.665   6.198
 4406SOL     OW14116   5.037   4.309   0.606
 4406SOL    HW114117   5.019   4.267   0.694
 4406SOL    HW214118   5.064   4.405   0.620
 4407SOL     OW14119   0.194   5.588   0.872
 4407SOL    HW114120   0.116   5.644   0.900
 4407SOL    HW214121   0.237   5.549   0.953
 4408SOL     OW14122   5.241   1.178   0.800
 4408SOL    HW114123   5.182   1.188   0.721
 4408SOL    HW214124   5.186   1.156   0.881
 4409SOL     OW14125   3.530   0.732   1.628
 4409SOL    HW114126   3.486   0.702   1.544
 4409SOL    HW214127   3.492   0.821   1.655
 4410SOL     OW14128   1.960   4.511   6.855
 4410SOL    HW114129   1.927   4.416   6.854
 4410SOL    HW214130   1.962   4.546   6.761
 4411SOL     OW14131   3.828   2.936   3.177
 4411SOL    HW114132   3.846   2.840   3.200
 4411SOL    HW214133   3.805   2.987   3.260
 4412SOL     OW14134   3.970   1.775   5.063
 4412SOL    HW114135   3.933   1.749   4.974
 4412SOL    HW214136   4.056   1.824   5.051
 4413SOL     OW14137   4.952   6.155   5.058
 4413SOL    HW114138   4.943   6.066   5.013
 4413SOL    HW214139   4.912   6.152   5.149
 4414SOL     OW14140   4.876   4.930   2.054
 4414SOL    HW114141   4.784   4.965   2.072
 4414SOL    HW214142   4.878   4.831   2.067
 4415SOL     OW14143   4.603   3.773   6.508
 4415SOL    HW114144   4.632   3.724   6.590
 4415SOL    HW214145   4.544   3.714   6.453
 4416SOL     OW14146   2.790   1.342   3.911
 4416SOL    HW114147   2.886   1.358   3.931
 4416SOL    HW214148   2.782   1.279   3.833
 4417SOL     OW14149   6.892   4.418   2.452
 4417SOL    HW114150   6.899   4.436   2.354
 4417SOL    HW214151   6.951   4.481   2.502
 4418SOL     OW14152   4.613   6.318   4.013
 4418SOL    HW114153   4.557   6.279   3.940
 4418SOL    HW214154   4.679   6.249   4.045
 4419SOL     OW14155   5.343   5.547   0.628
 4419SOL    HW114156   5.243   5.547   0.626
 4419SOL    HW214157   5.378   5.612   0.561
 4420SOL     OW14158   5.201   1.583   0.629
 4420SOL    HW114159   5.278   1.544   0.679
 4420SOL    HW214160   5.132   1.512   0.614
 4421SOL     OW14161   1.598   1.360   3.789
 4421SOL    HW114162   1.667   1.325   3.853
 4421SOL    HW214163   1.507   1.335   3.822
 4422SOL     OW14164   2.667   3.426   5.779
 4422SOL    HW114165   2.658   3.333   5.744
 4422SOL    HW214166   2.763   3.453   5.777
 4423SOL     OW14167   0.936   2.742   6.196
 4423SOL    HW114168   1.028   2.777   6.175
 4423SOL    HW214169   0.890   2.716   6.111
 4424SOL     OW14170   5.327   7.014   3.327
 4424SOL    HW114171   5.421   0.030   3.337
 4424SOL    HW214172   5.268   0.045   3.392
 4425SOL     OW14173   3.230   5.716   5.836
 4425SOL    HW114174   3.213   5.787   5.904
 4425SOL    HW214175   3.260   5.633   5.882
 4426SOL     OW14176   6.703   1.200   4.849
 4426SOL    HW114177   6.718   1.146   4.766
 4426SOL    HW214178   6.758   1.283   4.845
 4427SOL     OW14179   6.774   0.402   2.581
 4427SOL    HW114180   6.694   0.397   2.521
 4427SOL    HW214181   6.843   0.461   2.540
 4428SOL     OW14182   3.043   4.853   3.196
 4428SOL    HW114183   2.986   4.930   3.167
 4428SOL    HW214184   3.136   4.885   3.213
 4429SOL     OW14185   2.848   0.106   3.999
 4429SOL    HW114186   2.771   0.162   3.969
 4429SOL    HW214187   2.933   0.156   3.985
 4430SOL     OW14188   4.929   2.848   3.503
 4430SOL    HW114189   4.859   2.875   3.436
 4430SOL    HW214190   4.978   2.767   3.470
 4431SOL     OW14191   2.022   1.488   1.996
 4431SOL    HW114192   1.922   1.493   1.988
 4431SOL    HW214193   2.054   1.562   2.055
 4432SOL     OW14194   2.945   3.492   3.691
 4432SOL    HW114195   3.042   3.514   3.705
 4432SOL    HW214196   2.925   3.404   3.734
 4433SOL     OW14197   6.648   6.777   4.573
 4433SOL    HW114198   6.712   6.795   4.647
 4433SOL    HW214199   6.668   6.839   4.497
 4434SOL     OW14200   5.122   1.346   4.133
 4434SOL    HW114201   5.049   1.367   4.069
 4434SOL    HW214202   5.164   1.431   4.165
 4435SOL     OW14203   3.842   3.721   0.790
 4435SOL    HW114204   3.788   3.757   0.866
 4435SOL    HW214205   3.918   3.668   0.825
 4436SOL     OW14206   2.792   2.090   0.495
 4436SOL    HW114207   2.774   2.013   0.556
 4436SOL    HW214208   2.738   2.080   0.411
 4437SOL     OW14209   5.271   0.856   3.940
 4437SOL    HW114210   5.246   0.762   3.966
 4437SOL    HW214211   5.208   0.920   3.983
 4438SOL     OW14212   3.742   1.874   6.573
 4438SOL    HW114213   3.675   1.826   6.629
 4438SOL    HW214214   3.784   1.947   6.625
 4439SOL     OW14215   0.776   5.356   1.402
 4439SOL    HW114216   0.776   5.338   1.501
 4439SOL    HW214217   0.697   5.413   1.379
 4440SOL     OW14218   1.457   4.922   6.663
 4440SOL    HW114219   1.416   5.013   6.659
 4440SOL    HW214220   1.490   4.897   6.572
 4441SOL     OW14221   6.899   1.866   1.986
 4441SOL    HW114222   6.835   1.815   1.929
 4441SOL    HW214223   6.969   1.804   2.021
 4442SOL     OW14224   3.116   6.029   4.144
 4442SOL    HW114225   3.051   6.105   4.153
 4442SOL    HW214226   3.066   5.945   4.123
 4443SOL     OW14227   0.973   2.470   6.863
 4443SOL    HW114228   0.959   2.492   6.959
 4443SOL    HW214229   0.963   2.553   6.808
 4444SOL     OW14230   3.432   6.375   6.393
 4444SOL    HW114231   3.526   6.375   6.428
 4444SOL    HW214232   3.430   6.333   6.302
 4445SOL     OW14233   0.726   0.311   6.926
 4445SOL    HW114234   0.754   0.294   6.832
 4445SOL    HW214235   0.757   0.236   6.985
 4446SOL     OW14236   5.678   1.347   1.442
 4446SOL    HW114237   5.653   1.385   1.531
 4446SOL    HW214238   5.661   1.249   1.441
 4447SOL     OW14239   5.251   3.346   5.129
 4447SOL    HW114240   5.293   3.386   5.210
 4447SOL    HW214241   5.175   3.404   5.098
 4448SOL     OW14242   2.743   3.979   0.658
 4448SOL    HW114243   2.814   3.913   0.683
 4448SOL    HW214244   2.653   3.939   0.674
 4449SOL     OW14245   3.902   0.219   6.199
 4449SOL    HW114246   3.865   0.261   6.116
 4449SOL    HW214247   3.835   0.156   6.237
 4450SOL     OW14248   3.555   2.973   3.709
 4450SOL    HW114249   3.600   3.060   3.692
 4450SOL    HW214250   3.594   2.930   3.790
 4451SOL     OW14251   5.836   4.431   2.493
 4451SOL    HW114252   5.913   4.412   2.553
 4451SOL    HW214253   5.751   4.405   2.539
 4452SOL     OW14254   5.741   6.115   5.058
 4452SOL    HW114255   5.717   6.210   5.080
 4452SOL    HW214256   5.659   6.066   5.030
 4453SOL     OW14257   6.704   2.842   0.043
 4453SOL    HW114258   6.776   2.860   6.993
 4453SOL    HW214259   6.634   2.783   0.003
 4454SOL     OW14260   5.158   2.521   0.613
 4454SOL    HW114261   5.122   2.509   0.520
 4454SOL    HW214262   5.094   2.480   0.678
 4455SOL     OW14263   3.170   6.801   6.851
 4455SOL    HW114264   3.172   6.703   6.830
 4455SOL    HW214265   3.083   6.839   6.819
 4456SOL     OW14266   2.422   4.889   2.546
 4456SOL    HW114267   2.393   4.828   2.472
 4456SOL    HW214268   2.446   4.978   2.508
 4457SOL     OW14269   4.031   2.618   7.001
 4457SOL    HW114270   4.000   2.551   0.052
 4457SOL    HW214271   3.995   2.708   0.007
 4458SOL     OW14272   1.572   3.808   6.709
 4458SOL    HW114273   1.633   3.758   6.647
 4458SOL    HW214274   1.523   3.744   6.767
 4459SOL     OW14275   5.645   0.326   4.012
 4459SOL    HW114276   5.564   0.344   3.956
 4459SOL    HW214277   5.649   0.229   4.036
 4460SOL     OW14278   2.688   2.706   5.747
 4460SOL    HW114279   2.702   2.804   5.739
 4460SOL    HW214280   2.771   2.658   5.718
 4461SOL     OW14281   1.017   0.639   2.983
 4461SOL    HW114282   0.926   0.642   3.023
 4461SOL    HW214283   1.054   0.546   2.991
 4462SOL     OW14284   6.881   3.975   1.286
 4462SOL    HW114285   6.977   4.002   1.272
 4462SOL    HW214286   6.873   3.926   1.373
 4463SOL     OW14287   2.334   2.557   0.072
 4463SOL    HW114288   2.413   2.558   0.133
 4463SOL    HW214289   2.251   2.570   0.126
 4464SOL     OW14290   6.020   5.271   0.500
 4464SOL    HW114291   5.935   5.218   0.496
 4464SOL    HW214292   6.003   5.365   0.470
 4465SOL     OW14293   1.811   6.155   3.003
 4465SOL    HW114294   1.891   6.108   3.040
 4465SOL    HW214295   1.835   6.199   2.917
 4466SOL     OW14296   1.453   0.811   2.912
 4466SOL    HW114297   1.435   0.884   2.845
 4466SOL    HW214298   1.379   0.809   2.979
 4467SOL     OW14299   0.771   6.298   3.697
 4467SOL    HW114300   0.857   6.300   3.646
 4467SOL    HW214301   0.700   6.256   3.641
 4468SOL     OW14302   0.753   1.892   0.621
 4468SOL    HW114303   0.820   1.823   0.648
 4468SOL    HW214304   0.697   1.917   0.700
 4469SOL     OW14305   3.123   0.132   1.212
 4469SOL    HW114306   3.149   0.061   1.277
 4469SOL    HW214307   3.090   0.090   1.128
 4470SOL     OW14308   5.829   3.459   1.848
 4470SOL    HW114309   5.844   3.458   1.947
 4470SOL    HW214310   5.761   3.529   1.825
 4471SOL     OW14311   0.315   2.803   0.153
 4471SOL    HW114312   0.321   2.714   0.198
 4471SOL    HW214313   0.400   2.820   0.102
 4472SOL     OW14314   1.406   3.583   2.765
 4472SOL    HW114315   1.361   3.558   2.851
 4472SOL    HW214316   1.341   3.572   2.689
 4473SOL     OW14317   0.222   1.075   4.549
 4473SOL    HW114318   0.198   1.154   4.494
 4473SOL    HW214319   0.303   1.030   4.511
 4474SOL     OW14320   3.515   0.896   2.225
 4474SOL    HW114321   3.541   0.992   2.216
 4474SOL    HW214322   3.471   0.865   2.141
 4475SOL     OW14323   1.904   4.266   2.149
 4475SOL    HW114324   1.910   4.211   2.065
 4475SOL    HW214325   1.823   4.324   2.145
 4476SOL     OW14326   5.438   6.419   4.061
 4476SOL    HW114327   5.403   6.452   4.148
 4476SOL    HW214328   5.409   6.324   4.047
 4477SOL     OW14329   1.955   0.146   6.657
 4477SOL    HW114330   2.027   0.211   6.681
 4477SOL    HW214331   1.974   0.106   6.568
 4478SOL     OW14332   2.740   6.213   2.514
 4478SOL    HW114333   2.811   6.257   2.460
 4478SOL    HW214334   2.782   6.153   2.582
 4479SOL     OW14335   0.927   1.048   6.968
 4479SOL    HW114336   0.984   0.999   6.903
 4479SOL    HW214337   0.920   1.144   6.941
 4480SOL     OW14338   2.004   3.698   5.018
 4480SOL    HW114339   2.046   3.773   5.069
 4480SOL    HW214340   2.029   3.705   4.921
 4481SOL     OW14341   2.489   0.031   4.352
 4481SOL    HW114342   2.471   6.951   4.365
 4481SOL    HW214343   2.551   0.064   4.423
 4482SOL     OW14344   0.368   3.523   3.897
 4482SOL    HW114345   0.438   3.553   3.961
 4482SOL    HW214346   0.411   3.478   3.819
 4483SOL     OW14347   6.256   3.280   1.337
 4483SOL    HW114348   6.208   3.359   1.373
 4483SOL    HW214349   6.328   3.310   1.275
 4484SOL     OW14350   2.879   1.524   5.176
 4484SOL    HW114351   2.879   1.599   5.242
 4484SOL    HW214352   2.895   1.560   5.084
 4485SOL     OW14353   5.678   2.745   6.069
 4485SOL    HW114354   5.751   2.720   6.133
 4485SOL    HW214355   5.672   2.844   6.063
 4486SOL     OW14356   5.798   3.530   4.126
 4486SOL    HW114357   5.802   3.503   4.029
 4486SOL    HW214358   5.877   3.492   4.174
 4487SOL     OW14359   2.121   3.446   6.810
 4487SOL    HW114360   2.104   3.523   6.748
 4487SOL    HW214361   2.044   3.383   6.806
 4488SOL     OW14362   5.553   2.496   5.700
 4488SOL    HW114363   5.475   2.446   5.737
 4488SOL    HW214364   5.522   2.584   5.663
 4489SOL     OW14365   5.243   6.113   4.314
 4489SOL    HW114366   5.190   6.040   4.360
 4489SOL    HW214367   5.221   6.201   4.357
 4490SOL     OW14368   5.693   2.010   2.151
 4490SOL    HW114369   5.704   1.954   2.233
 4490SOL    HW214370   5.722   1.958   2.071
 4491SOL     OW14371   0.810   2.935   3.251
 4491SOL    HW114372   0.728   2.987   3.228
 4491SOL    HW214373   0.890   2.976   3.206
 4492SOL     OW14374   5.385   3.834   0.890
 4492SOL    HW114375   5.335   3.748   0.890
 4492SOL    HW214376   5.410   3.858   0.796
 4493SOL     OW14377   4.757   5.436   5.192
 4493SOL    HW114378   4.749   5.348   5.146
 4493SOL    HW214379   4.814   5.427   5.274
 4494SOL     OW14380   0.008   2.228   6.346
 4494SOL    HW114381   7.010   2.222   6.444
 4494SOL    HW214382   7.000   2.319   6.313
 4495SOL     OW14383   5.660   0.016   3.543
 4495SOL    HW114384   5.595   6.974   3.590
 4495SOL    HW214385   5.618   0.053   3.461
 4496SOL     OW14386   5.232   5.889   0.520
 4496SOL    HW114387   5.159   5.893   0.452
 4496SOL    HW214388   5.208   5.944   0.599
 4497SOL     OW14389   4.203   6.803   6.650
 4497SOL    HW114390   4.166   6.894   6.665
 4497SOL    HW214391   4.134   6.735   6.674
 4498SOL     OW14392   0.267   3.152   6.290
 4498SOL    HW114393   0.278   3.233   6.233
 4498SOL    HW214394   0.277   3.070   6.234
 4499SOL     OW14395   6.894   3.181   4.193
 4499SOL    HW114396   6.879   3.246   4.119
 4499SOL    HW214397   6.971   3.121   4.168
 4500SOL     OW14398   3.479   3.583   3.618
 4500SOL    HW114399   3.446   3.572   3.525
 4500SOL    HW214400   3.416   3.538   3.682
 4501SOL     OW14401   0.355   3.269   5.912
 4501SOL    HW114402   0.392   3.181   5.883
 4501SOL    HW214403   0.289   3.301   5.845
 4502SOL     OW14404   1.962   3.040   6.422
 4502SOL    HW114405   1.925   3.067   6.333
 4502SOL    HW214406   1.925   3.100   6.493
 4503SOL     OW14407   2.899   0.270   2.556
 4503SOL    HW114408   2.894   0.367   2.577
 4503SOL    HW214409   2.982   0.251   2.504
 4504SOL     OW14410   6.461   1.630   4.893
 4504SOL    HW114411   6.456   1.726   4.863
 4504SOL    HW214412   6.402   1.574   4.834
 4505SOL     OW14413   6.140   5.451   4.308
 4505SOL    HW114414   6.148   5.416   4.215
 4505SOL    HW214415   6.144   5.551   4.306
 4506SOL     OW14416   4.614   2.501   4.843
 4506SOL    HW114417   4.547   2.536   4.909
 4506SOL    HW214418   4.675   2.436   4.888
 4507SOL     OW14419   4.903   3.995   1.591
 4507SOL    HW114420   4.812   3.981   1.629
 4507SOL    HW214421   4.958   3.912   1.603
 4508SOL     OW14422   0.758   4.797   6.281
 4508SOL    HW114423   0.715   4.729   6.340
 4508SOL    HW214424   0.817   4.752   6.214
 4509SOL     OW14425   4.749   2.384   4.324
 4509SOL    HW114426   4.772   2.452   4.255
 4509SOL    HW214427   4.832   2.358   4.374
 4510SOL     OW14428   5.680   6.792   5.180
 4510SOL    HW114429   5.702   6.889   5.195
 4510SOL    HW214430   5.763   6.737   5.194
 4511SOL     OW14431   0.182   2.975   5.913
 4511SOL    HW114432   0.145   2.897   5.862
 4511SOL    HW214433   0.124   3.055   5.900
 4512SOL     OW14434   2.475   6.642   6.172
 4512SOL    HW114435   2.540   6.595   6.112
 4512SOL    HW214436   2.449   6.581   6.248
 4513SOL     OW14437   5.122   6.559   0.326
 4513SOL    HW114438   5.043   6.618   0.305
 4513SOL    HW214439   5.090   6.474   0.367
 4514SOL     OW14440   4.539   0.575   4.696
 4514SOL    HW114441   4.571   0.670   4.699
 4514SOL    HW214442   4.605   0.519   4.646
 4515SOL     OW14443   6.701   4.121   6.117
 4515SOL    HW114444   6.728   4.097   6.210
 4515SOL    HW214445   6.620   4.068   6.091
 4516SOL     OW14446   1.525   1.830   5.981
 4516SOL    HW114447   1.495   1.894   6.053
 4516SOL    HW214448   1.573   1.753   6.023
 4517SOL     OW14449   2.631   6.934   6.429
 4517SOL    HW114450   2.621   7.006   6.360
 4517SOL    HW214451   2.654   6.975   6.517
 4518SOL     OW14452   6.646   1.799   3.416
 4518SOL    HW114453   6.604   1.823   3.329
 4518SOL    HW214454   6.733   1.752   3.399
 4519SOL     OW14455   6.166   0.915   1.765
 4519SOL    HW114456   6.164   0.951   1.672
 4519SOL    HW214457   6.256   0.931   1.805
 4520SOL     OW14458   5.203   5.565   2.629
 4520SOL    HW114459   5.173   5.555   2.534
 4520SOL    HW214460   5.136   5.523   2.690
 4521SOL     OW14461   5.067   1.902   5.742
 4521SOL    HW114462   5.158   1.942   5.736
 4521SOL    HW214463   5.066   1.830   5.812
 4522SOL     OW14464   5.420   0.359   3.879
 4522SOL    HW114465   5.338   0.335   3.931
 4522SOL    HW214466   5.418   0.457   3.858
 4523SOL     OW14467   1.099   4.376   0.162
 4523SOL    HW114468   1.120   4.286   0.125
 4523SOL    HW214469   1.055   4.432   0.091
 4524SOL     OW14470   5.378   2.094   5.984
 4524SOL    HW114471   5.358   2.031   6.059
 4524SOL    HW214472   5.476   2.087   5.961
 4525SOL     OW14473   6.451   1.696   3.582
 4525SOL    HW114474   6.403   1.641   3.513
 4525SOL    HW214475   6.532   1.737   3.541
 4526SOL     OW14476   4.969   0.869   0.754
 4526SOL    HW114477   5.019   0.782   0.755
 4526SOL    HW214478   4.987   0.917   0.669
 4527SOL     OW14479   4.331   1.731   3.910
 4527SOL    HW114480   4.412   1.759   3.962
 4527SOL    HW214481   4.331   1.779   3.822
 4528SOL     OW14482   4.946   6.643   6.979
 4528SOL    HW114483   5.042   6.670   6.967
 4528SOL    HW214484   4.887   6.721   6.960
 4529SOL     OW14485   3.026   1.156   3.784
 4529SOL    HW114486   3.106   1.110   3.746
 4529SOL    HW214487   3.053   1.243   3.825
 4530SOL     OW14488   0.127   3.525   5.325
 4530SOL    HW114489   0.169   3.457   5.265
 4530SOL    HW214490   0.035   3.547   5.292
 4531SOL     OW14491   6.912   2.915   3.414
 4531SOL    HW114492   6.887   2.864   3.332
 4531SOL    HW214493   7.001   2.884   3.447
 4532SOL     OW14494   0.890   1.411   2.319
 4532SOL    HW114495   0.822   1.397   2.391
 4532SOL    HW214496   0.920   1.506   2.319
 4533SOL     OW14497   1.634   0.212   3.232
 4533SOL    HW114498   1.567   0.167   3.173
 4533SOL    HW214499   1.630   0.311   3.220
 4534SOL     OW14500   6.001   3.377   4.248
 4534SOL    HW114501   5.968   3.283   4.258
 4534SOL    HW214502   6.080   3.391   4.308
 4535SOL     OW14503   4.327   2.146   2.387
 4535SOL    HW114504   4.419   2.105   2.392
 4535SOL    HW214505   4.261   2.085   2.431
 4536SOL     OW14506   4.572   1.675   4.663
 4536SOL    HW114507   4.492   1.648   4.716
 4536SOL    HW214508   4.548   1.684   4.566
 4537SOL     OW14509   3.692   3.498   6.321
 4537SOL    HW114510   3.747   3.490   6.238
 4537SOL    HW214511   3.740   3.558   6.387
 4538SOL     OW14512   3.066   2.097   4.086
 4538SOL    HW114513   3.148   2.152   4.066
 4538SOL    HW214514   3.061   2.020   4.023
 4539SOL     OW14515   2.488   1.863   4.088
 4539SOL    HW114516   2.536   1.834   4.005
 4539SOL    HW214517   2.456   1.957   4.077
 4540SOL     OW14518   3.695   3.215   3.708
 4540SOL    HW114519   3.689   3.309   3.740
 4540SOL    HW214520   3.790   3.184   3.712
 4541SOL     OW14521   6.084   1.250   6.788
 4541SOL    HW114522   6.135   1.331   6.816
 4541SOL    HW214523   6.143   1.170   6.794
 4542SOL     OW14524   5.865   6.632   1.859
 4542SOL    HW114525   5.818   6.719   1.873
 4542SOL    HW214526   5.919   6.637   1.775
 4543SOL     OW14527   4.156   1.888   6.988
 4543SOL    HW114528   4.107   1.810   6.949
 4543SOL    HW214529   4.185   1.866   0.064
 4544SOL     OW14530   2.572   5.689   5.987
 4544SOL    HW114531   2.626   5.762   6.028
 4544SOL    HW214532   2.626   5.605   5.984
 4545SOL     OW14533   5.247   2.471   5.274
 4545SOL    HW114534   5.329   2.415   5.259
 4545SOL    HW214535   5.242   2.496   5.371
 4546SOL     OW14536   1.565   0.322   6.339
 4546SOL    HW114537   1.566   0.244   6.276
 4546SOL    HW214538   1.507   0.301   6.418
 4547SOL     OW14539   6.482   2.303   2.368
 4547SOL    HW114540   6.464   2.296   2.466
 4547SOL    HW214541   6.458   2.395   2.336
 4548SOL     OW14542   1.015   4.365   4.557
 4548SOL    HW114543   0.951   4.420   4.610
 4548SOL    HW214544   1.094   4.340   4.614
 4549SOL     OW14545   6.005   3.488   2.601
 4549SOL    HW114546   6.073   3.489   2.528
 4549SOL    HW214547   6.051   3.474   2.689
 4550SOL     OW14548   0.347   6.215   3.402
 4550SOL    HW114549   0.342   6.156   3.482
 4550SOL    HW214550   0.304   6.169   3.324
 4551SOL     OW14551   0.237   1.844   5.409
 4551SOL    HW114552   0.139   1.855   5.423
 4551SOL    HW214553   0.274   1.926   5.367
 4552SOL     OW14554   6.889   2.693   6.470
 4552SOL    HW114555   6.938   2.727   6.389
 4552SOL    HW214556   6.791   2.713   6.460
 4553SOL     OW14557   3.437   4.156   0.710
 4553SOL    HW114558   3.347   4.117   0.731
 4553SOL    HW214559   3.506   4.113   0.769
 4554SOL     OW14560   3.944   0.884   1.663
 4554SOL    HW114561   4.027   0.830   1.668
 4554SOL    HW214562   3.911   0.904   1.756
 4555SOL     OW14563   3.940   1.479   5.526
 4555SOL    HW114564   3.873   1.540   5.482
 4555SOL    HW214565   4.018   1.466   5.466
 4556SOL     OW14566   4.597   2.251   3.617
 4556SOL    HW114567   4.578   2.316   3.691
 4556SOL    HW214568   4.585   2.158   3.652
 4557SOL     OW14569   4.716   6.567   4.659
 4557SOL    HW114570   4.747   6.651   4.703
 4557SOL    HW214571   4.697   6.498   4.728
 4558SOL     OW14572   6.257   3.558   5.663
 4558SOL    HW114573   6.226   3.463   5.656
 4558SOL    HW214574   6.321   3.567   5.740
 4559SOL     OW14575   1.201   5.814   1.808
 4559SOL    HW114576   1.214   5.875   1.730
 4559SOL    HW214577   1.154   5.864   1.882
 4560SOL     OW14578   5.421   4.183   3.288
 4560SOL    HW114579   5.349   4.236   3.242
 4560SOL    HW214580   5.448   4.230   3.372
 4561SOL     OW14581   2.599   0.803   1.551
 4561SOL    HW114582   2.602   0.718   1.498
 4561SOL    HW214583   2.507   0.815   1.590
 4562SOL     OW14584   3.019   5.681   5.275
 4562SOL    HW114585   2.972   5.754   5.324
 4562SOL    HW214586   3.117   5.700   5.274
 4563SOL     OW14587   6.114   3.962   6.810
 4563SOL    HW114588   6.142   3.881   6.862
 4563SOL    HW214589   6.148   4.044   6.855
 4564SOL     OW14590   0.851   5.758   1.259
 4564SOL    HW114591   0.830   5.855   1.257
 4564SOL    HW214592   0.948   5.743   1.240
 4565SOL     OW14593   0.774   1.350   5.190
 4565SOL    HW114594   0.813   1.358   5.098
 4565SOL    HW214595   0.687   1.302   5.185
 4566SOL     OW14596   0.151   0.878   0.507
 4566SOL    HW114597   0.108   0.968   0.506
 4566SOL    HW214598   0.125   0.829   0.591
 4567SOL     OW14599   0.394   1.008   0.151
 4567SOL    HW114600   0.485   1.002   0.111
 4567SOL    HW214601   0.369   0.921   0.193
 4568SOL     OW14602   2.035   4.426   5.139
 4568SOL    HW114603   2.118   4.382   5.176
 4568SOL    HW214604   2.007   4.499   5.201
 4569SOL     OW14605   1.961   1.664   3.707
 4569SOL    HW114606   1.874   1.620   3.683
 4569SOL    HW214607   1.954   1.705   3.798
 4570SOL     OW14608   0.082   5.158   3.720
 4570SOL    HW114609   0.141   5.142   3.641
 4570SOL    HW214610   7.003   5.150   3.692
 4571SOL     OW14611   3.402   3.871   5.381
 4571SOL    HW114612   3.327   3.840   5.441
 4571SOL    HW214613   3.404   3.813   5.299
 4572SOL     OW14614   7.013   6.220   6.877
 4572SOL    HW114615   6.974   6.253   6.963
 4572SOL    HW214616   0.079   6.272   6.856
 4573SOL     OW14617   6.113   6.189   0.783
 4573SOL    HW114618   6.073   6.174   0.874
 4573SOL    HW214619   6.095   6.109   0.725
 4574SOL     OW14620   6.963   4.474   0.982
 4574SOL    HW114621   6.972   4.375   0.997
 4574SOL    HW214622   0.035   4.512   0.955
 4575SOL     OW14623   6.538   2.344   0.512
 4575SOL    HW114624   6.481   2.400   0.572
 4575SOL    HW214625   6.482   2.304   0.440
 4576SOL     OW14626   2.317   5.882   6.432
 4576SOL    HW114627   2.389   5.911   6.495
 4576SOL    HW214628   2.232   5.868   6.483
 4577SOL     OW14629   0.265   3.063   2.996
 4577SOL    HW114630   0.358   3.036   2.974
 4577SOL    HW214631   0.213   3.076   2.911
 4578SOL     OW14632   0.245   3.668   3.277
 4578SOL    HW114633   0.293   3.697   3.195
 4578SOL    HW214634   0.227   3.748   3.335
 4579SOL     OW14635   5.195   1.844   3.216
 4579SOL    HW114636   5.276   1.829   3.273
 4579SOL    HW214637   5.178   1.763   3.161
 4580SOL     OW14638   5.376   5.434   0.142
 4580SOL    HW114639   5.337   5.491   0.069
 4580SOL    HW214640   5.443   5.487   0.193
 4581SOL     OW14641   3.190   5.176   2.767
 4581SOL    HW114642   3.240   5.108   2.821
 4581SOL    HW214643   3.239   5.263   2.769
 4582SOL     OW14644   5.828   6.502   4.841
 4582SOL    HW114645   5.802   6.595   4.815
 4582SOL    HW214646   5.911   6.506   4.898
 4583SOL     OW14647   2.687   1.954   4.565
 4583SOL    HW114648   2.697   1.911   4.475
 4583SOL    HW214649   2.747   2.034   4.570
 4584SOL     OW14650   0.370   6.154   5.803
 4584SOL    HW114651   0.394   6.059   5.780
 4584SOL    HW214652   0.391   6.213   5.725
 4585SOL     OW14653   3.158   6.004   3.070
 4585SOL    HW114654   3.135   5.968   2.979
 4585SOL    HW214655   3.252   6.036   3.070
 4586SOL     OW14656   4.131   4.741   0.766
 4586SOL    HW114657   4.187   4.715   0.687
 4586SOL    HW214658   4.100   4.835   0.755
 4587SOL     OW14659   4.081   3.377   1.813
 4587SOL    HW114660   4.139   3.454   1.791
 4587SOL    HW214661   4.132   3.311   1.868
 4588SOL     OW14662   3.859   3.833   5.023
 4588SOL    HW114663   3.857   3.885   5.108
 4588SOL    HW214664   3.895   3.891   4.950
 4589SOL     OW14665   5.917   1.381   2.247
 4589SOL    HW114666   6.014   1.378   2.272
 4589SOL    HW214667   5.862   1.355   2.326
 4590SOL     OW14668   4.190   6.058   1.507
 4590SOL    HW114669   4.245   6.026   1.430
 4590SOL    HW214670   4.240   6.129   1.557
 4591SOL     OW14671   0.474   6.250   5.330
 4591SOL    HW114672   0.472   6.241   5.230
 4591SOL    HW214673   0.475   6.159   5.372
 4592SOL     OW14674   4.082   2.726   1.740
 4592SOL    HW114675   4.087   2.826   1.751
 4592SOL    HW214676   4.175   2.690   1.735
 4593SOL     OW14677   4.095   5.217   3.813
 4593SOL    HW114678   4.127   5.263   3.730
 4593SOL    HW214679   4.046   5.282   3.871
 4594SOL     OW14680   3.361   2.314   1.317
 4594SOL    HW114681   3.410   2.229   1.299
 4594SOL    HW214682   3.327   2.314   1.411
 4595SOL     OW14683   3.363   2.910   5.921
 4595SOL    HW114684   3.421   2.924   5.841
 4595SOL    HW214685   3.418   2.920   6.004
 4596SOL     OW14686   5.837   6.556   2.160
 4596SOL    HW114687   5.739   6.563   2.181
 4596SOL    HW214688   5.855   6.597   2.071
 4597SOL     OW14689   4.969   4.499   6.923
 4597SOL    HW114690   5.013   4.582   6.956
 4597SOL    HW214691   4.875   4.495   6.958
 4598SOL     OW14692   1.153   5.299   6.853
 4598SOL    HW114693   1.191   5.388   6.876
 4598SOL    HW214694   1.055   5.298   6.873
 4599SOL     OW14695   1.337   4.289   1.363
 4599SOL    HW114696   1.436   4.295   1.373
 4599SOL    HW214697   1.314   4.207   1.309
 4600SOL     OW14698   2.430   5.618   5.744
 4600SOL    HW114699   2.482   5.538   5.713
 4600SOL    HW214700   2.455   5.639   5.839
 4601SOL     OW14701   1.661   0.794   5.203
 4601SOL    HW114702   1.658   0.871   5.139
 4601SOL    HW214703   1.705   0.716   5.158
 4602SOL     OW14704   1.023   6.033   0.499
 4602SOL    HW114705   1.009   6.034   0.598
 4602SOL    HW214706   0.971   6.108   0.458
 4603SOL     OW14707   3.736   6.568   1.364
 4603SOL    HW114708   3.717   6.582   1.267
 4603SOL    HW214709   3.694   6.641   1.418
 4604SOL     OW14710   4.717   0.912   1.370
 4604SOL    HW114711   4.742   0.959   1.454
 4604SOL    HW214712   4.764   0.824   1.366
 4605SOL     OW14713   5.121   0.772   3.465
 4605SOL    HW114714   5.169   0.777   3.552
 4605SOL    HW214715   5.163   0.702   3.407
 4606SOL     OW14716   6.911   0.008   2.356
 4606SOL    HW114717   6.814   0.028   2.371
 4606SOL    HW214718   6.946   6.969   2.431
 4607SOL     OW14719   2.739   2.792   0.639
 4607SOL    HW114720   2.643   2.766   0.629
 4607SOL    HW214721   2.755   2.827   0.731
 4608SOL     OW14722   1.735   5.460   4.276
 4608SOL    HW114723   1.724   5.447   4.375
 4608SOL    HW214724   1.662   5.519   4.243
 4609SOL     OW14725   4.146   5.469   6.109
 4609SOL    HW114726   4.105   5.388   6.150
 4609SOL    HW214727   4.157   5.454   6.010
 4610SOL     OW14728   6.803   2.484   0.314
 4610SOL    HW114729   6.779   2.436   0.398
 4610SOL    HW214730   6.731   2.550   0.292
 4611SOL     OW14731   6.162   4.822   5.565
 4611SOL    HW114732   6.261   4.819   5.584
 4611SOL    HW214733   6.124   4.730   5.570
 4612SOL     OW14734   1.811   6.519   0.235
 4612SOL    HW114735   1.893   6.531   0.179
 4612SOL    HW214736   1.830   6.550   0.328
 4613SOL     OW14737   2.633   5.671   2.392
 4613SOL    HW114738   2.625   5.765   2.358
 4613SOL    HW214739   2.649   5.609   2.315
 4614SOL     OW14740   1.315   4.851   5.696
 4614SOL    HW114741   1.339   4.922   5.762
 4614SOL    HW214742   1.223   4.867   5.661
 4615SOL     OW14743   2.287   0.806   0.038
 4615SOL    HW114744   2.326   0.753   0.114
 4615SOL    HW214745   2.240   0.886   0.074
 4616SOL     OW14746   6.812   0.066   5.677
 4616SOL    HW114747   6.733   0.029   5.630
 4616SOL    HW214748   6.782   0.121   5.755
 4617SOL     OW14749   1.500   2.336   3.026
 4617SOL    HW114750   1.596   2.367   3.024
 4617SOL    HW214751   1.484   2.274   2.949
 4618SOL     OW14752   1.561   3.068   5.162
 4618SOL    HW114753   1.605   2.980   5.179
 4618SOL    HW214754   1.470   3.053   5.123
 4619SOL     OW14755   5.095   6.378   3.733
 4619SOL    HW114756   5.190   6.354   3.754
 4619SOL    HW214757   5.067   6.332   3.648
 4620SOL     OW14758   3.172   3.929   6.866
 4620SOL    HW114759   3.206   3.941   6.773
 4620SOL    HW214760   3.245   3.950   6.931
 4621SOL     OW14761   6.037   2.054   3.496
 4621SOL    HW114762   6.098   2.000   3.438
 4621SOL    HW214763   6.045   2.150   3.472
 4622SOL     OW14764   0.587   3.230   0.788
 4622SOL    HW114765   0.605   3.143   0.742
 4622SOL    HW214766   0.552   3.296   0.721
 4623SOL     OW14767   6.989   5.733   0.957
 4623SOL    HW114768   0.012   5.766   1.042
 4623SOL    HW214769   6.907   5.679   0.976
 4624SOL     OW14770   4.410   0.024   3.036
 4624SOL    HW114771   4.439   0.047   2.943
 4624SOL    HW214772   4.337   6.973   3.033
 4625SOL     OW14773   1.244   4.280   6.969
 4625SOL    HW114774   1.207   4.187   6.962
 4625SOL    HW214775   1.247   4.322   6.878
 4626SOL     OW14776   6.005   4.912   1.263
 4626SOL    HW114777   5.906   4.919   1.250
 4626SOL    HW214778   6.037   4.988   1.320
 4627SOL     OW14779   3.260   5.783   4.897
 4627SOL    HW114780   3.241   5.846   4.972
 4627SOL    HW214781   3.184   5.719   4.886
 4628SOL     OW14782   6.149   4.423   3.178
 4628SOL    HW114783   6.141   4.414   3.277
 4628SOL    HW214784   6.060   4.444   3.138
 4629SOL     OW14785   2.127   4.994   6.113
 4629SOL    HW114786   2.191   4.935   6.064
 4629SOL    HW214787   2.174   5.036   6.191
 4630SOL     OW14788   3.537   5.952   3.525
 4630SOL    HW114789   3.463   5.929   3.462
 4630SOL    HW214790   3.583   5.868   3.554
 4631SOL     OW14791   2.648   6.716   3.560
 4631SOL    HW114792   2.712   6.771   3.613
 4631SOL    HW214793   2.631   6.760   3.472
 4632SOL     OW14794   4.478   4.681   2.707
 4632SOL    HW114795   4.381   4.662   2.727
 4632SOL    HW214796   4.485   4.737   2.625
 4633SOL     OW14797   6.078   1.885   3.806
 4633SOL    HW114798   6.134   1.829   3.746
 4633SOL    HW214799   6.114   1.880   3.899
 4634SOL     OW14800   2.251   4.417   6.700
 4634SOL    HW114801   2.299   4.403   6.787
 4634SOL    HW214802   2.229   4.513   6.690
 4635SOL     OW14803   6.074   3.903   2.385
 4635SOL    HW114804   6.073   3.971   2.311
 4635SOL    HW214805   6.160   3.853   2.383
 4636SOL     OW14806   2.203   4.859   6.922
 4636SOL    HW114807   2.234   4.764   6.919
 4636SOL    HW214808   2.283   4.920   6.926
 4637SOL     OW14809   1.991   0.672   0.320
 4637SOL    HW114810   2.027   0.746   0.377
 4637SOL    HW214811   2.064   0.605   0.302
 4638SOL     OW14812   3.360   2.840   6.393
 4638SOL    HW114813   3.427   2.874   6.327
 4638SOL    HW214814   3.276   2.815   6.345
 4639SOL     OW14815   1.984   5.095   5.573
 4639SOL    HW114816   1.985   5.194   5.589
 4639SOL    HW214817   1.938   5.075   5.487
 4640SOL     OW14818   4.394   5.146   3.566
 4640SOL    HW114819   4.381   5.177   3.472
 4640SOL    HW214820   4.412   5.048   3.566
 4641SOL     OW14821   2.907   5.428   3.969
 4641SOL    HW114822   2.939   5.493   4.038
 4641SOL    HW214823   2.915   5.335   4.005
 4642SOL     OW14824   0.787   6.293   4.932
 4642SOL    HW114825   0.881   6.287   4.966
 4642SOL    HW214826   0.728   6.232   4.985
 4643SOL     OW14827   4.894   2.784   0.955
 4643SOL    HW114828   4.861   2.733   0.876
 4643SOL    HW214829   4.828   2.855   0.979
 4644SOL     OW14830   1.441   4.737   4.478
 4644SOL    HW114831   1.401   4.709   4.391
 4644SOL    HW214832   1.408   4.829   4.501
 4645SOL     OW14833   1.717   0.228   4.400
 4645SOL    HW114834   1.717   0.292   4.323
 4645SOL    HW214835   1.708   0.280   4.485
 4646SOL     OW14836   2.344   6.422   2.807
 4646SOL    HW114837   2.334   6.491   2.735
 4646SOL    HW214838   2.409   6.351   2.777
 4647SOL     OW14839   0.545   6.617   2.961
 4647SOL    HW114840   0.510   6.657   2.876
 4647SOL    HW214841   0.470   6.577   3.013
 4648SOL     OW14842   3.991   0.093   1.008
 4648SOL    HW114843   3.975   0.183   0.969
 4648SOL    HW214844   3.986   0.024   0.936
 4649SOL     OW14845   5.242   6.780   6.003
 4649SOL    HW114846   5.235   6.723   6.085
 4649SOL    HW214847   5.227   6.723   5.921
 4650SOL     OW14848   3.875   5.985   3.374
 4650SOL    HW114849   3.911   5.936   3.294
 4650SOL    HW214850   3.776   5.985   3.370
 4651SOL     OW14851   0.216   1.883   0.840
 4651SOL    HW114852   0.251   1.969   0.803
 4651SOL    HW214853   0.204   1.891   0.939
 4652SOL     OW14854   0.577   0.286   3.677
 4652SOL    HW114855   0.584   0.256   3.772
 4652SOL    HW214856   0.482   0.285   3.647
 4653SOL     OW14857   6.680   5.400   0.088
 4653SOL    HW114858   6.660   5.302   0.091
 4653SOL    HW214859   6.779   5.414   0.086
 4654SOL     OW14860   0.600   0.005   0.159
 4654SOL    HW114861   0.515   0.020   0.209
 4654SOL    HW214862   0.624   6.925   0.160
 4655SOL     OW14863   6.926   5.211   1.561
 4655SOL    HW114864   6.842   5.161   1.582
 4655SOL    HW214865   6.967   5.244   1.646
 4656SOL     OW14866   0.946   6.732   3.261
 4656SOL    HW114867   0.877   6.754   3.192
 4656SOL    HW214868   0.999   6.653   3.231
 4657SOL     OW14869   4.985   0.040   1.605
 4657SOL    HW114870   4.932   0.040   1.520
 4657SOL    HW214871   5.059   6.991   1.599
 4658SOL     OW14872   3.289   0.522   2.481
 4658SOL    HW114873   3.291   0.607   2.427
 4658SOL    HW214874   3.275   0.545   2.577
 4659SOL     OW14875   2.489   4.002   5.719
 4659SOL    HW114876   2.545   4.058   5.657
 4659SOL    HW214877   2.505   3.905   5.700
 4660SOL     OW14878   1.069   2.566   4.863
 4660SOL    HW114879   0.991   2.627   4.845
 4660SOL    HW214880   1.083   2.507   4.784
 4661SOL     OW14881   4.292   4.431   5.571
 4661SOL    HW114882   4.353   4.509   5.574
 4661SOL    HW214883   4.302   4.384   5.483
 4662SOL     OW14884   5.188   0.423   4.784
 4662SOL    HW114885   5.197   0.419   4.684
 4662SOL    HW214886   5.092   0.421   4.809
 4663SOL     OW14887   0.258   0.982   2.702
 4663SOL    HW114888   0.177   0.922   2.706
 4663SOL    HW214889   0.277   1.018   2.794
 4664SOL     OW14890   1.913   2.566   6.813
 4664SOL    HW114891   1.914   2.471   6.780
 4664SOL    HW214892   2.003   2.607   6.799
 4665SOL     OW14893   4.415   7.011   0.126
 4665SOL    HW114894   4.468   0.057   0.069
 4665SOL    HW214895   4.399   0.035   0.216
 4666SOL     OW14896   1.971   1.544   6.866
 4666SOL    HW114897   1.913   1.625   6.858
 4666SOL    HW214898   1.966   1.508   6.960
 4667SOL     OW14899   6.749   5.217   0.517
 4667SOL    HW114900   6.736   5.147   0.587
 4667SOL    HW214901   6.835   5.201   0.469
 4668SOL     OW14902   6.774   1.803   4.064
 4668SOL    HW114903   6.725   1.888   4.083
 4668SOL    HW214904   6.873   1.820   4.065
 4669SOL     OW14905   3.922   6.597   0.645
 4669SOL    HW114906   3.895   6.639   0.732
 4669SOL    HW214907   3.934   6.499   0.657
 4670SOL     OW14908   3.199   1.536   4.911
 4670SOL    HW114909   3.155   1.516   4.998
 4670SOL    HW214910   3.225   1.450   4.866
 4671SOL     OW14911   6.244   2.629   1.943
 4671SOL    HW114912   6.261   2.554   1.879
 4671SOL    HW214913   6.326   2.687   1.948
 4672SOL     OW14914   2.593   4.572   5.986
 4672SOL    HW114915   2.681   4.614   6.009
 4672SOL    HW214916   2.551   4.621   5.910
 4673SOL     OW14917   4.810   6.895   0.942
 4673SOL    HW114918   4.908   6.887   0.920
 4673SOL    HW214919   4.783   6.991   0.937
 4674SOL     OW14920   5.379   6.002   6.033
 4674SOL    HW114921   5.377   6.059   5.951
 4674SOL    HW214922   5.419   6.054   6.108
 4675SOL     OW14923   0.324   3.559   0.173
 4675SOL    HW114924   0.330   3.607   0.086
 4675SOL    HW214925   0.315   3.626   0.247
 4676SOL     OW14926   0.772   6.027   4.289
 4676SOL    HW114927   0.863   6.065   4.270
 4676SOL    HW214928   0.782   5.942   4.341
 4677SOL     OW14929   2.097   2.051   0.769
 4677SOL    HW114930   2.009   2.060   0.722
 4677SOL    HW214931   2.138   2.141   0.781
 4678SOL     OW14932   2.664   4.769   2.601
 4678SOL    HW114933   2.578   4.819   2.589
 4678SOL    HW214934   2.644   4.673   2.622
 4679SOL     OW14935   3.881   0.045   1.899
 4679SOL    HW114936   3.843   6.983   1.851
 4679SOL    HW214937   3.807   0.107   1.924
 4680SOL     OW14938   3.824   1.606   0.038
 4680SOL    HW114939   3.776   1.669   0.099
 4680SOL    HW214940   3.891   1.553   0.090
 4681SOL     OW14941   5.030   4.896   6.956
 4681SOL    HW114942   5.083   4.812   6.968
 4681SOL    HW214943   4.988   4.922   0.026
 4682SOL     OW14944   5.166   3.987   5.974
 4682SOL    HW114945   5.234   3.973   6.046
 4682SOL    HW214946   5.074   3.983   6.015
 4683SOL     OW14947   5.703   5.388   2.002
 4683SOL    HW114948   5.769   5.444   1.952
 4683SOL    HW214949   5.723   5.393   2.100
 4684SOL     OW14950   4.156   6.397   5.817
 4684SOL    HW114951   4.135   6.299   5.821
 4684SOL    HW214952   4.215   6.422   5.894
 4685SOL     OW14953   2.267   4.779   6.008
 4685SOL    HW114954   2.221   4.699   6.048
 4685SOL    HW214955   2.279   4.765   5.910
 4686SOL     OW14956   4.401   5.501   0.455
 4686SOL    HW114957   4.334   5.572   0.478
 4686SOL    HW214958   4.472   5.539   0.397
 4687SOL     OW14959   4.904   2.754   4.480
 4687SOL    HW114960   4.816   2.797   4.499
 4687SOL    HW214961   4.977   2.821   4.489
 4688SOL     OW14962   5.337   2.775   5.485
 4688SOL    HW114963   5.425   2.807   5.450
 4688SOL    HW214964   5.271   2.851   5.484
 4689SOL     OW14965   5.705   1.079   1.069
 4689SOL    HW114966   5.669   0.986   1.078
 4689SOL    HW214967   5.631   1.145   1.080
 4690SOL     OW14968   1.704   1.427   0.957
 4690SOL    HW114969   1.794   1.425   0.914
 4690SOL    HW214970   1.634   1.421   0.886
 4691SOL     OW14971   3.745   4.021   0.234
 4691SOL    HW114972   3.674   4.023   0.305
 4691SOL    HW214973   3.707   4.055   0.148
 4692SOL     OW14974   5.727   5.311   2.719
 4692SOL    HW114975   5.711   5.216   2.693
 4692SOL    HW214976   5.651   5.343   2.775
 4693SOL     OW14977   1.158   0.972   3.611
 4693SOL    HW114978   1.084   0.907   3.599
 4693SOL    HW214979   1.157   1.038   3.536
 4694SOL     OW14980   2.032   2.781   0.633
 4694SOL    HW114981   2.061   2.799   0.539
 4694SOL    HW214982   1.974   2.699   0.635
 4695SOL     OW14983   1.690   5.799   0.605
 4695SOL    HW114984   1.596   5.782   0.633
 4695SOL    HW214985   1.691   5.873   0.537
 4696SOL     OW14986   0.237   5.485   6.364
 4696SOL    HW114987   0.304   5.424   6.321
 4696SOL    HW214988   0.206   5.552   6.297
 4697SOL     OW14989   0.989   3.886   2.349
 4697SOL    HW114990   0.923   3.957   2.375
 4697SOL    HW214991   0.951   3.832   2.273
 4698SOL     OW14992   4.159   6.655   3.315
 4698SOL    HW114993   4.107   6.630   3.397
 4698SOL    HW214994   4.118   6.736   3.273
 4699SOL     OW14995   0.394   6.320   2.699
 4699SOL    HW114996   0.405   6.404   2.647
 4699SOL    HW214997   0.355   6.341   2.789
 4700SOL     OW14998   6.467   1.219   2.248
 4700SOL    HW114999   6.542   1.257   2.194
 4700SOL    HW215000   6.457   1.122   2.227
 4701SOL     OW15001   3.630   1.999   0.580
 4701SOL    HW115002   3.673   2.081   0.618
 4701SOL    HW215003   3.535   1.994   0.611
 4702SOL     OW15004   4.548   4.511   0.628
 4702SOL    HW115005   4.505   4.425   0.655
 4702SOL    HW215006   4.633   4.523   0.678
 4703SOL     OW15007   0.846   6.105   3.102
 4703SOL    HW115008   0.908   6.098   3.180
 4703SOL    HW215009   0.837   6.201   3.075
 4704SOL     OW15010   6.866   5.961   5.929
 4704SOL    HW115011   6.789   6.014   5.894
 4704SOL    HW215012   6.951   5.996   5.890
 4705SOL     OW15013   3.356   2.276   0.625
 4705SOL    HW115014   3.376   2.179   0.636
 4705SOL    HW215015   3.374   2.304   0.531
 4706SOL     OW15016   1.370   0.940   0.556
 4706SOL    HW115017   1.368   0.841   0.541
 4706SOL    HW215018   1.444   0.980   0.502
 4707SOL     OW15019   0.978   5.897   1.598
 4707SOL    HW115020   0.953   5.802   1.579
 4707SOL    HW215021   1.015   5.939   1.515
 4708SOL     OW15022   0.875   2.062   5.851
 4708SOL    HW115023   0.782   2.098   5.845
 4708SOL    HW215024   0.913   2.082   5.942
 4709SOL     OW15025   4.697   5.240   4.468
 4709SOL    HW115026   4.748   5.273   4.388
 4709SOL    HW215027   4.622   5.181   4.438
 4710SOL     OW15028   5.753   0.093   6.060
 4710SOL    HW115029   5.761   7.016   6.026
 4710SOL    HW215030   5.807   0.153   6.002
 4711SOL     OW15031   6.850   1.522   2.531
 4711SOL    HW115032   6.857   1.423   2.523
 4711SOL    HW215033   6.754   1.550   2.530
 4712SOL     OW15034   3.661   4.865   6.630
 4712SOL    HW115035   3.662   4.783   6.686
 4712SOL    HW215036   3.747   4.915   6.640
 4713SOL     OW15037   4.758   5.706   0.548
 4713SOL    HW115038   4.787   5.799   0.571
 4713SOL    HW215039   4.734   5.657   0.632
 4714SOL     OW15040   0.439   1.141   6.268
 4714SOL    HW115041   0.436   1.239   6.250
 4714SOL    HW215042   0.438   1.125   6.367
 4715SOL     OW15043   6.341   2.917   1.510
 4715SOL    HW115044   6.303   2.829   1.540
 4715SOL    HW215045   6.267   2.973   1.473
 4716SOL     OW15046   4.757   6.467   5.543
 4716SOL    HW115047   4.660   6.455   5.518
 4716SOL    HW215048   4.766   6.547   5.602
 4717SOL     OW15049   1.541   4.967   5.107
 4717SOL    HW115050   1.463   5.010   5.153
 4717SOL    HW215051   1.560   5.014   5.021
 4718SOL     OW15052   5.189   2.508   1.300
 4718SOL    HW115053   5.140   2.490   1.386
 4718SOL    HW215054   5.218   2.421   1.260
 4719SOL     OW15055   4.897   3.931   2.669
 4719SOL    HW115056   4.955   3.958   2.593
 4719SOL    HW215057   4.804   3.964   2.653
 4720SOL     OW15058   1.901   4.711   6.349
 4720SOL    HW115059   1.896   4.784   6.280
 4720SOL    HW215060   1.963   4.640   6.318
 4721SOL     OW15061   6.099   2.278   1.929
 4721SOL    HW115062   6.026   2.345   1.935
 4721SOL    HW215063   6.080   2.201   1.989
 4722SOL     OW15064   0.881   6.320   6.857
 4722SOL    HW115065   0.980   6.335   6.851
 4722SOL    HW215066   0.843   6.310   6.765
 4723SOL     OW15067   3.475   4.014   4.910
 4723SOL    HW115068   3.433   3.944   4.968
 4723SOL    HW215069   3.547   4.062   4.962
 4724SOL     OW15070   0.061   0.043   4.097
 4724SOL    HW115071   0.112   6.980   4.127
 4724SOL    HW215072   6.993   0.015   4.052
 4725SOL     OW15073   5.921   4.715   0.242
 4725SOL    HW115074   5.952   4.810   0.237
 4725SOL    HW215075   5.884   4.697   0.333
 4726SOL     OW15076   1.257   3.505   5.900
 4726SOL    HW115077   1.254   3.440   5.976
 4726SOL    HW215078   1.349   3.506   5.860
 4727SOL     OW15079   6.855   6.011   0.943
 4727SOL    HW115080   6.791   5.971   1.007
 4727SOL    HW215081   6.931   5.948   0.928
 4728SOL     OW15082   6.973   0.953   2.987
 4728SOL    HW115083   6.877   0.957   2.958
 4728SOL    HW215084   7.008   1.046   2.999
 4729SOL     OW15085   4.711   1.023   0.632
 4729SOL    HW115086   4.680   0.990   0.543
 4729SOL    HW215087   4.805   0.993   0.648
 4730SOL     OW15088   3.496   5.703   5.697
 4730SOL    HW115089   3.405   5.710   5.737
 4730SOL    HW215090   3.559   5.665   5.765
 4731SOL     OW15091   2.973   0.919   0.976
 4731SOL    HW115092   2.943   0.968   1.058
 4731SOL    HW215093   3.072   0.933   0.964
 4732SOL     OW15094   0.196   2.977   5.245
 4732SOL    HW115095   0.265   3.047   5.229
 4732SOL    HW215096   0.239   2.897   5.288
 4733SOL     OW15097   1.210   4.209   3.006
 4733SOL    HW115098   1.263   4.214   2.921
 4733SOL    HW215099   1.149   4.129   3.002
 4734SOL     OW15100   5.068   3.246   0.251
 4734SOL    HW115101   5.165   3.245   0.271
 4734SOL    HW215102   5.045   3.166   0.196
 4735SOL     OW15103   6.112   5.323   4.063
 4735SOL    HW115104   6.093   5.344   3.967
 4735SOL    HW215105   6.210   5.312   4.076
 4736SOL     OW15106   5.526   1.593   4.655
 4736SOL    HW115107   5.622   1.568   4.652
 4736SOL    HW215108   5.479   1.559   4.573
 4737SOL     OW15109   2.379   4.425   0.604
 4737SOL    HW115110   2.442   4.369   0.550
 4737SOL    HW215111   2.355   4.376   0.688
 4738SOL     OW15112   2.951   6.370   3.587
 4738SOL    HW115113   2.857   6.398   3.601
 4738SOL    HW215114   2.987   6.414   3.504
 4739SOL     OW15115   5.843   1.857   3.505
 4739SOL    HW115116   5.874   1.952   3.500
 4739SOL    HW215117   5.921   1.798   3.526
 4740SOL     OW15118   1.320   0.818   0.798
 4740SOL    HW115119   1.221   0.829   0.801
 4740SOL    HW215120   1.358   0.880   0.729
 4741SOL     OW15121   4.527   3.595   1.233
 4741SOL    HW115122   4.492   3.507   1.264
 4741SOL    HW215123   4.452   3.661   1.230
 4742SOL     OW15124   3.451   6.125   1.903
 4742SOL    HW115125   3.415   6.215   1.927
 4742SOL    HW215126   3.551   6.128   1.904
 4743SOL     OW15127   1.682   2.111   5.767
 4743SOL    HW115128   1.602   2.057   5.741
 4743SOL    HW215129   1.669   2.149   5.858
 4744SOL     OW15130   2.773   2.995   5.720
 4744SOL    HW115131   2.766   3.030   5.813
 4744SOL    HW215132   2.767   3.071   5.655
 4745SOL     OW15133   2.420   5.118   5.239
 4745SOL    HW115134   2.518   5.134   5.255
 4745SOL    HW215135   2.376   5.202   5.209
 4746SOL     OW15136   5.900   6.272   1.606
 4746SOL    HW115137   5.941   6.310   1.689
 4746SOL    HW215138   5.806   6.305   1.598
 4747SOL     OW15139   1.459   3.661   6.152
 4747SOL    HW115140   1.540   3.720   6.156
 4747SOL    HW215141   1.447   3.627   6.059
 4748SOL     OW15142   1.607   5.259   1.145
 4748SOL    HW115143   1.613   5.352   1.109
 4748SOL    HW215144   1.512   5.229   1.145
 4749SOL     OW15145   2.988   6.189   6.026
 4749SOL    HW115146   2.973   6.183   6.124
 4749SOL    HW215147   2.982   6.284   5.996
 4750SOL     OW15148   0.145   2.353   4.113
 4750SOL    HW115149   0.075   2.367   4.042
 4750SOL    HW215150   0.215   2.424   4.104
 4751SOL     OW15151   1.957   3.852   0.336
 4751SOL    HW115152   1.938   3.758   0.309
 4751SOL    HW215153   1.975   3.907   0.254
 4752SOL     OW15154   2.983   0.192   0.680
 4752SOL    HW115155   3.000   0.283   0.642
 4752SOL    HW215156   3.012   0.190   0.776
 4753SOL     OW15157   5.165   0.267   3.966
 4753SOL    HW115158   5.076   0.294   3.929
 4753SOL    HW215159   5.163   0.169   3.989
 4754SOL     OW15160   5.823   0.479   5.460
 4754SOL    HW115161   5.809   0.548   5.531
 4754SOL    HW215162   5.895   0.510   5.397
 4755SOL     OW15163   2.621   0.860   0.061
 4755SOL    HW115164   2.611   0.771   0.016
 4755SOL    HW215165   2.717   0.879   0.078
 4756SOL     OW15166   6.003   2.261   1.241
 4756SOL    HW115167   6.013   2.213   1.328
 4756SOL    HW215168   5.906   2.269   1.218
 4757SOL     OW15169   1.997   1.834   2.350
 4757SOL    HW115170   2.008   1.920   2.300
 4757SOL    HW215171   2.066   1.827   2.421
 4758SOL     OW15172   3.311   5.508   4.724
 4758SOL    HW115173   3.264   5.588   4.686
 4758SOL    HW215174   3.320   5.438   4.654
 4759SOL     OW15175   5.909   5.420   5.261
 4759SOL    HW115176   5.879   5.438   5.167
 4759SOL    HW215177   5.866   5.337   5.295
 4760SOL     OW15178   3.029   2.118   0.795
 4760SOL    HW115179   2.981   2.085   0.877
 4760SOL    HW215180   3.104   2.179   0.823
 4761SOL     OW15181   0.028   0.368   6.725
 4761SOL    HW115182   0.039   0.303   6.650
 4761SOL    HW215183   6.974   0.434   6.701
 4762SOL     OW15184   2.882   4.994   2.997
 4762SOL    HW115185   2.819   5.071   3.003
 4762SOL    HW215186   2.831   4.911   2.974
 4763SOL     OW15187   5.974   6.452   3.625
 4763SOL    HW115188   6.070   6.447   3.599
 4763SOL    HW215189   5.923   6.503   3.556
 4764SOL     OW15190   4.980   3.819   5.649
 4764SOL    HW115191   4.906   3.825   5.717
 4764SOL    HW215192   4.985   3.905   5.598
 4765SOL     OW15193   5.181   6.925   4.269
 4765SOL    HW115194   5.239   6.924   4.350
 4765SOL    HW215195   5.142   6.834   4.254
 4766SOL     OW15196   4.207   0.334   3.524
 4766SOL    HW115197   4.198   0.272   3.446
 4766SOL    HW215198   4.121   0.339   3.573
 4767SOL     OW15199   4.346   5.661   6.074
 4767SOL    HW115200   4.289   5.583   6.100
 4767SOL    HW215201   4.300   5.713   6.001
 4768SOL     OW15202   5.055   2.139   5.415
 4768SOL    HW115203   5.031   2.230   5.449
 4768SOL    HW215204   5.116   2.148   5.336
 4769SOL     OW15205   4.674   5.177   1.095
 4769SOL    HW115206   4.735   5.200   1.019
 4769SOL    HW215207   4.590   5.230   1.087
 4770SOL     OW15208   1.761   0.182   3.746
 4770SOL    HW115209   1.717   0.161   3.659
 4770SOL    HW215210   1.740   0.109   3.812
 4771SOL     OW15211   3.420   5.455   5.900
 4771SOL    HW115212   3.477   5.385   5.943
 4771SOL    HW215213   3.344   5.478   5.961
 4772SOL     OW15214   2.269   5.816   2.297
 4772SOL    HW115215   2.182   5.845   2.338
 4772SOL    HW215216   2.342   5.875   2.330
 4773SOL     OW15217   6.600   5.086   4.990
 4773SOL    HW115218   6.635   5.036   5.069
 4773SOL    HW215219   6.676   5.115   4.932
 4774SOL     OW15220   0.952   2.067   1.644
 4774SOL    HW115221   0.957   1.967   1.638
 4774SOL    HW215222   0.987   2.097   1.733
 4775SOL     OW15223   5.131   0.134   2.764
 4775SOL    HW115224   5.221   0.113   2.727
 4775SOL    HW215225   5.141   0.191   2.845
 4776SOL     OW15226   1.236   6.924   4.283
 4776SOL    HW115227   1.237   6.828   4.313
 4776SOL    HW215228   1.176   6.934   4.204
 4777SOL     OW15229   3.177   4.765   1.335
 4777SOL    HW115230   3.147   4.676   1.369
 4777SOL    HW215231   3.232   4.811   1.405
 4778SOL     OW15232   5.185   2.033   2.209
 4778SOL    HW115233   5.166   2.024   2.111
 4778SOL    HW215234   5.249   2.108   2.224
 4779SOL     OW15235   6.739   6.268   2.274
 4779SOL    HW115236   6.780   6.264   2.365
 4779SOL    HW215237   6.781   6.198   2.215
 4780SOL     OW15238   6.981   0.342   0.071
 4780SOL    HW115239   6.988   0.246   0.047
 4780SOL    HW215240   0.026   0.395   0.013
 4781SOL     OW15241   2.820   6.054   0.991
 4781SOL    HW115242   2.740   6.103   1.026
 4781SOL    HW215243   2.847   6.093   0.903
 4782SOL     OW15244   4.524   6.600   0.217
 4782SOL    HW115245   4.590   6.667   0.252
 4782SOL    HW215246   4.460   6.575   0.290
 4783SOL     OW15247   4.822   4.084   0.217
 4783SOL    HW115248   4.899   4.114   0.273
 4783SOL    HW215249   4.854   4.022   0.146
 4784SOL     OW15250   6.439   3.740   6.943
 4784SOL    HW115251   6.399   3.721   6.854
 4784SOL    HW215252   6.522   3.686   6.955
 4785SOL     OW15253   6.525   5.730   1.398
 4785SOL    HW115254   6.550   5.825   1.417
 4785SOL    HW215255   6.541   5.675   1.480
 4786SOL     OW15256   2.427   1.984   2.054
 4786SOL    HW115257   2.360   2.054   2.029
 4786SOL    HW215258   2.516   2.009   2.015
 4787SOL     OW15259   3.769   1.981   3.539
 4787SOL    HW115260   3.716   2.021   3.614
 4787SOL    HW215261   3.799   1.889   3.566
 4788SOL     OW15262   0.927   5.591   6.271
 4788SOL    HW115263   0.935   5.617   6.367
 4788SOL    HW215264   0.958   5.497   6.259
 4789SOL     OW15265   5.342   0.770   0.326
 4789SOL    HW115266   5.405   0.699   0.357
 4789SOL    HW215267   5.392   0.839   0.274
 4790SOL     OW15268   6.863   2.984   6.120
 4790SOL    HW115269   6.909   2.959   6.035
 4790SOL    HW215270   6.817   3.072   6.109
 4791SOL     OW15271   5.776   1.989   1.832
 4791SOL    HW115272   5.759   1.970   1.736
 4791SOL    HW215273   5.759   1.906   1.886
 4792SOL     OW15274   1.835   3.431   2.593
 4792SOL    HW115275   1.833   3.531   2.591
 4792SOL    HW215276   1.753   3.396   2.639
 4793SOL     OW15277   1.166   2.889   6.273
 4793SOL    HW115278   1.091   2.949   6.303
 4793SOL    HW215279   1.176   2.814   6.338
 4794SOL     OW15280   4.371   0.944   3.272
 4794SOL    HW115281   4.466   0.914   3.279
 4794SOL    HW215282   4.312   0.884   3.327
 4795SOL     OW15283   6.326   1.214   3.230
 4795SOL    HW115284   6.393   1.283   3.202
 4795SOL    HW215285   6.374   1.134   3.265
 4796SOL     OW15286   5.358   2.275   6.245
 4796SOL    HW115287   5.282   2.328   6.283
 4796SOL    HW215288   5.350   2.180   6.272
 4797SOL     OW15289   1.485   6.384   5.073
 4797SOL    HW115290   1.560   6.450   5.072
 4797SOL    HW215291   1.470   6.351   5.166
 4798SOL     OW15292   0.032   3.074   5.427
 4798SOL    HW115293   6.983   3.007   5.462
 4798SOL    HW215294   0.078   3.035   5.347
 4799SOL     OW15295   5.037   2.085   6.489
 4799SOL    HW115296   4.953   2.063   6.439
 4799SOL    HW215297   5.084   2.000   6.513
 4800SOL     OW15298   2.959   3.502   5.759
 4800SOL    HW115299   3.019   3.526   5.683
 4800SOL    HW215300   2.976   3.407   5.787
 4801SOL     OW15301   2.559   2.549   0.229
 4801SOL    HW115302   2.632   2.492   0.190
 4801SOL    HW215303   2.548   2.525   0.326
 4802SOL     OW15304   0.680   6.364   2.143
 4802SOL    HW115305   0.636   6.308   2.074
 4802SOL    HW215306   0.637   6.349   2.232
 4803SOL     OW15307   1.123   6.650   0.653
 4803SOL    HW115308   1.034   6.683   0.684
 4803SOL    HW215309   1.159   6.583   0.718
 4804SOL     OW15310   4.434   5.604   6.486
 4804SOL    HW115311   4.468   5.674   6.423
 4804SOL    HW215312   4.433   5.515   6.439
 4805SOL     OW15313   6.093   6.687   1.261
 4805SOL    HW115314   6.147   6.729   1.334
 4805SOL    HW215315   6.142   6.608   1.225
 4806SOL     OW15316   0.198   4.518   2.894
 4806SOL    HW115317   0.245   4.501   2.980
 4806SOL    HW215318   0.116   4.573   2.911
 4807SOL     OW15319   1.276   5.308   0.575
 4807SOL    HW115320   1.186   5.284   0.538
 4807SOL    HW215321   1.265   5.379   0.645
 4808SOL     OW15322   6.596   3.776   6.578
 4808SOL    HW115323   6.503   3.737   6.576
 4808SOL    HW215324   6.663   3.702   6.588
 4809SOL     OW15325   3.415   4.148   6.659
 4809SOL    HW115326   3.404   4.187   6.750
 4809SOL    HW215327   3.335   4.093   6.636
 4810SOL     OW15328   1.212   5.136   2.455
 4810SOL    HW115329   1.166   5.207   2.509
 4810SOL    HW215330   1.178   5.138   2.361
 4811SOL     OW15331   2.122   4.527   2.277
 4811SOL    HW115332   2.221   4.512   2.272
 4811SOL    HW215333   2.086   4.478   2.357
 4812SOL     OW15334   0.210   5.159   5.401
 4812SOL    HW115335   0.158   5.114   5.329
 4812SOL    HW215336   0.291   5.203   5.362
 4813SOL     OW15337   5.673   1.935   1.125
 4813SOL    HW115338   5.704   1.844   1.152
 4813SOL    HW215339   5.573   1.936   1.120
 4814SOL     OW15340   5.720   4.364   0.559
 4814SOL    HW115341   5.793   4.384   0.624
 4814SOL    HW215342   5.678   4.276   0.582
 4815SOL     OW15343   5.363   4.449   2.728
 4815SOL    HW115344   5.344   4.353   2.709
 4815SOL    HW215345   5.282   4.491   2.769
 4816SOL     OW15346   6.516   5.426   2.800
 4816SOL    HW115347   6.427   5.423   2.846
 4816SOL    HW215348   6.580   5.481   2.853
 4817SOL     OW15349   0.844   1.907   6.379
 4817SOL    HW115350   0.864   1.984   6.439
 4817SOL    HW215351   0.747   1.886   6.383
 4818SOL     OW15352   0.687   0.108   4.536
 4818SOL    HW115353   0.634   0.103   4.452
 4818SOL    HW215354   0.781   0.081   4.518
 4819SOL     OW15355   1.227   2.552   0.436
 4819SOL    HW115356   1.308   2.540   0.494
 4819SOL    HW215357   1.145   2.555   0.493
 4820SOL     OW15358   6.948   2.921   1.752
 4820SOL    HW115359   6.917   2.845   1.809
 4820SOL    HW215360   6.882   2.935   1.678
 4821SOL     OW15361   0.670   6.245   2.808
 4821SOL    HW115362   0.716   6.163   2.775
 4821SOL    HW215363   0.574   6.243   2.779
 4822SOL     OW15364   1.324   3.440   4.822
 4822SOL    HW115365   1.327   3.352   4.775
 4822SOL    HW215366   1.379   3.436   4.905
 4823SOL     OW15367   1.713   1.568   3.598
 4823SOL    HW115368   1.663   1.500   3.652
 4823SOL    HW215369   1.788   1.523   3.550
 4824SOL     OW15370   5.382   2.270   5.566
 4824SOL    HW115371   5.477   2.267   5.534
 4824SOL    HW215372   5.342   2.359   5.544
 4825SOL     OW15373   1.368   2.220   4.497
 4825SOL    HW115374   1.364   2.138   4.439
 4825SOL    HW215375   1.318   2.203   4.582
 4826SOL     OW15376   5.814   0.348   0.551
 4826SOL    HW115377   5.744   0.281   0.575
 4826SOL    HW215378   5.851   0.388   0.634
 4827SOL     OW15379   6.283   2.152   0.890
 4827SOL    HW115380   6.381   2.141   0.908
 4827SOL    HW215381   6.264   2.246   0.861
 4828SOL     OW15382   5.278   0.977   1.201
 4828SOL    HW115383   5.242   0.951   1.111
 4828SOL    HW215384   5.264   1.076   1.215
 4829SOL     OW15385   3.727   0.453   6.457
 4829SOL    HW115386   3.792   0.460   6.532
 4829SOL    HW215387   3.682   0.364   6.459
 4830SOL     OW15388   3.641   5.703   4.083
 4830SOL    HW115389   3.717   5.734   4.025
 4830SOL    HW215390   3.600   5.783   4.128
 4831SOL     OW15391   2.158   4.995   5.291
 4831SOL    HW115392   2.063   5.025   5.301
 4831SOL    HW215393   2.210   5.065   5.242
 4832SOL     OW15394   2.982   3.894   3.649
 4832SOL    HW115395   3.029   3.982   3.655
 4832SOL    HW215396   2.975   3.854   3.740
 4833SOL     OW15397   5.452   1.889   2.738
 4833SOL    HW115398   5.521   1.843   2.681
 4833SOL    HW215399   5.498   1.939   2.811
 4834SOL     OW15400   2.405   6.009   2.459
 4834SOL    HW115401   2.372   6.092   2.505
 4834SOL    HW215402   2.410   5.934   2.526
 4835SOL     OW15403   6.243   3.100   6.031
 4835SOL    HW115404   6.312   3.039   6.070
 4835SOL    HW215405   6.230   3.078   5.934
 4836SOL     OW15406   5.481   1.159   4.929
 4836SOL    HW115407   5.384   1.179   4.940
 4836SOL    HW215408   5.500   1.137   4.833
 4837SOL     OW15409   6.990   4.071   3.197
 4837SOL    HW115410   6.896   4.040   3.210
 4837SOL    HW215411   6.993   4.171   3.199
 4838SOL     OW15412   2.379   5.831   6.930
 4838SOL    HW115413   2.401   5.920   6.891
 4838SOL    HW215414   2.293   5.836   6.980
 4839SOL     OW15415   1.474   3.367   0.093
 4839SOL    HW115416   1.542   3.376   0.166
 4839SOL    HW215417   1.393   3.320   0.128
 4840SOL     OW15418   6.479   3.993   6.028
 4840SOL    HW115419   6.385   3.996   6.060
 4840SOL    HW215420   6.482   3.966   5.932
 4841SOL     OW15421   2.804   5.366   3.058
 4841SOL    HW115422   2.746   5.446   3.075
 4841SOL    HW215423   2.884   5.370   3.118
 4842SOL     OW15424   2.807   5.025   3.467
 4842SOL    HW115425   2.736   5.051   3.400
 4842SOL    HW215426   2.796   4.929   3.491
 4843SOL     OW15427   6.967   2.402   2.054
 4843SOL    HW115428   6.979   2.302   2.051
 4843SOL    HW215429   6.882   2.424   2.101
 4844SOL     OW15430   0.279   3.785   5.011
 4844SOL    HW115431   0.211   3.826   4.950
 4844SOL    HW215432   0.238   3.769   5.101
 4845SOL     OW15433   4.566   4.979   5.703
 4845SOL    HW115434   4.498   5.001   5.634
 4845SOL    HW215435   4.585   4.881   5.702
 4846SOL     OW15436   0.210   2.097   3.317
 4846SOL    HW115437   0.118   2.061   3.332
 4846SOL    HW215438   0.220   2.127   3.223
 4847SOL     OW15439   2.351   1.698   5.539
 4847SOL    HW115440   2.431   1.756   5.524
 4847SOL    HW215441   2.359   1.652   5.627
 4848SOL     OW15442   2.699   1.295   4.656
 4848SOL    HW115443   2.623   1.352   4.686
 4848SOL    HW215444   2.785   1.333   4.691
 4849SOL     OW15445   2.098   6.416   0.425
 4849SOL    HW115446   2.088   6.492   0.489
 4849SOL    HW215447   2.023   6.351   0.438
 4850SOL     OW15448   4.989   0.641   1.102
 4850SOL    HW115449   4.993   0.550   1.061
 4850SOL    HW215450   4.896   0.659   1.134
 4851SOL     OW15451   3.941   5.295   6.435
 4851SOL    HW115452   3.853   5.328   6.401
 4851SOL    HW215453   4.007   5.290   6.360
 4852SOL     OW15454   2.727   5.411   4.803
 4852SOL    HW115455   2.800   5.451   4.749
 4852SOL    HW215456   2.639   5.430   4.760
 4853SOL     OW15457   3.865   1.706   3.882
 4853SOL    HW115458   3.918   1.621   3.875
 4853SOL    HW215459   3.927   1.783   3.893
 4854SOL     OW15460   4.601   6.818   1.815
 4854SOL    HW115461   4.527   6.840   1.752
 4854SOL    HW215462   4.664   6.895   1.822
 4855SOL     OW15463   6.175   3.522   5.175
 4855SOL    HW115464   6.274   3.514   5.187
 4855SOL    HW215465   6.156   3.591   5.105
 4856SOL     OW15466   0.567   2.894   2.987
 4856SOL    HW115467   0.586   2.797   3.004
 4856SOL    HW215468   0.547   2.908   2.890
 4857SOL     OW15469   3.482   1.456   3.170
 4857SOL    HW115470   3.391   1.440   3.210
 4857SOL    HW215471   3.509   1.375   3.118
 4858SOL     OW15472   0.697   0.264   5.080
 4858SOL    HW115473   0.664   0.176   5.046
 4858SOL    HW215474   0.790   0.280   5.046
 4859SOL     OW15475   0.965   5.230   2.021
 4859SOL    HW115476   1.025   5.305   1.994
 4859SOL    HW215477   0.874   5.266   2.041
 4860SOL     OW15478   4.219   4.385   0.241
 4860SOL    HW115479   4.307   4.351   0.207
 4860SOL    HW215480   4.154   4.310   0.245
 4861SOL     OW15481   6.109   5.669   6.573
 4861SOL    HW115482   6.039   5.613   6.527
 4861SOL    HW215483   6.167   5.611   6.630
 4862SOL     OW15484   2.463   4.503   4.291
 4862SOL    HW115485   2.446   4.597   4.318
 4862SOL    HW215486   2.447   4.442   4.369
 4863SOL     OW15487   4.886   3.176   2.795
 4863SOL    HW115488   4.957   3.114   2.763
 4863SOL    HW215489   4.842   3.220   2.716
 4864SOL     OW15490   3.391   1.488   1.793
 4864SOL    HW115491   3.417   1.446   1.881
 4864SOL    HW215492   3.364   1.583   1.809
 4865SOL     OW15493   2.182   5.306   5.199
 4865SOL    HW115494   2.142   5.282   5.110
 4865SOL    HW215495   2.234   5.391   5.190
 4866SOL     OW15496   6.455   5.116   1.335
 4866SOL    HW115497   6.497   5.085   1.250
 4866SOL    HW215498   6.465   5.046   1.405
 4867SOL     OW15499   4.278   5.542   3.715
 4867SOL    HW115500   4.258   5.639   3.702
 4867SOL    HW215501   4.215   5.487   3.659
 4868SOL     OW15502   0.610   5.901   1.443
 4868SOL    HW115503   0.584   5.814   1.483
 4868SOL    HW215504   0.605   5.973   1.512
 4869SOL     OW15505   6.610   2.619   0.953
 4869SOL    HW115506   6.550   2.650   1.027
 4869SOL    HW215507   6.556   2.609   0.869
 4870SOL     OW15508   4.753   4.857   1.638
 4870SOL    HW115509   4.723   4.773   1.593
 4870SOL    HW215510   4.691   4.931   1.616
 4871SOL     OW15511   1.039   0.428   4.008
 4871SOL    HW115512   1.131   0.443   3.971
 4871SOL    HW215513   0.995   0.354   3.958
 4872SOL     OW15514   1.174   6.927   3.361
 4872SOL    HW115515   1.228   6.989   3.305
 4872SOL    HW215516   1.107   6.880   3.304
 4873SOL     OW15517   6.955   4.858   4.131
 4873SOL    HW115518   6.970   4.953   4.106
 4873SOL    HW215519   6.987   4.798   4.058
 4874SOL     OW15520   5.817   3.922   2.525
 4874SOL    HW115521   5.751   3.947   2.454
 4874SOL    HW215522   5.909   3.927   2.487
 4875SOL     OW15523   5.942   2.565   1.004
 4875SOL    HW115524   5.915   2.503   0.930
 4875SOL    HW215525   5.861   2.611   1.041
 4876SOL     OW15526   5.462   0.649   5.337
 4876SOL    HW115527   5.466   0.679   5.433
 4876SOL    HW215528   5.526   0.573   5.324
 4877SOL     OW15529   6.879   1.404   1.047
 4877SOL    HW115530   6.913   1.385   1.138
 4877SOL    HW215531   6.953   1.441   0.990
 4878SOL     OW15532   0.207   1.139   2.504
 4878SOL    HW115533   0.232   1.077   2.579
 4878SOL    HW215534   0.225   1.234   2.532
 4879SOL     OW15535   4.225   4.693   2.608
 4879SOL    HW115536   4.219   4.717   2.511
 4879SOL    HW215537   4.138   4.655   2.639
 4880SOL     OW15538   5.358   2.100   6.627
 4880SOL    HW115539   5.328   2.046   6.548
 4880SOL    HW215540   5.322   2.193   6.620
 4881SOL     OW15541   2.217   6.043   6.734
 4881SOL    HW115542   2.304   6.066   6.689
 4881SOL    HW215543   2.160   5.991   6.670
 4882SOL     OW15544   6.363   1.451   5.542
 4882SOL    HW115545   6.283   1.470   5.600
 4882SOL    HW215546   6.340   1.378   5.477
 4883SOL     OW15547   5.022   4.940   2.397
 4883SOL    HW115548   5.096   4.948   2.331
 4883SOL    HW215549   5.058   4.943   2.490
 4884SOL     OW15550   4.713   0.189   1.164
 4884SOL    HW115551   4.614   0.180   1.154
 4884SOL    HW215552   4.733   0.248   1.242
 4885SOL     OW15553   2.493   6.382   2.436
 4885SOL    HW115554   2.562   6.312   2.419
 4885SOL    HW215555   2.425   6.347   2.500
 4886SOL     OW15556   0.285   6.747   6.146
 4886SOL    HW115557   0.372   6.698   6.136
 4886SOL    HW215558   0.250   6.773   6.056
 4887SOL     OW15559   0.013   1.828   3.288
 4887SOL    HW115560   0.036   1.759   3.220
 4887SOL    HW215561   6.970   1.789   3.357
 4888SOL     OW15562   1.702   6.799   3.734
 4888SOL    HW115563   1.663   6.782   3.644
 4888SOL    HW215564   1.792   6.755   3.740
 4889SOL     OW15565   0.614   1.904   0.390
 4889SOL    HW115566   0.672   1.877   0.466
 4889SOL    HW215567   0.618   1.834   0.318
 4890SOL     OW15568   0.339   1.620   4.297
 4890SOL    HW115569   0.416   1.571   4.256
 4890SOL    HW215570   0.367   1.713   4.322
 4891SOL     OW15571   0.543   5.693   6.995
 4891SOL    HW115572   0.547   5.783   6.952
 4891SOL    HW215573   0.613   5.685   0.048
 4892SOL     OW15574   1.836   5.892   2.667
 4892SOL    HW115575   1.783   5.812   2.695
 4892SOL    HW215576   1.884   5.929   2.747
 4893SOL     OW15577   6.757   4.258   6.554
 4893SOL    HW115578   6.703   4.254   6.638
 4893SOL    HW215579   6.754   4.169   6.508
 4894SOL     OW15580   2.516   6.934   2.790
 4894SOL    HW115581   2.503   6.859   2.725
 4894SOL    HW215582   2.454   7.008   2.767
 4895SOL     OW15583   0.716   4.261   1.157
 4895SOL    HW115584   0.789   4.278   1.224
 4895SOL    HW215585   0.754   4.269   1.064
 4896SOL     OW15586   2.958   5.033   2.729
 4896SOL    HW115587   3.047   5.071   2.752
 4896SOL    HW215588   2.939   4.954   2.787
 4897SOL     OW15589   3.125   5.213   5.807
 4897SOL    HW115590   3.047   5.156   5.781
 4897SOL    HW215591   3.208   5.158   5.804
 4898SOL     OW15592   5.743   2.431   5.186
 4898SOL    HW115593   5.802   2.351   5.172
 4898SOL    HW215594   5.652   2.400   5.216
 4899SOL     OW15595   6.501   4.824   3.113
 4899SOL    HW115596   6.457   4.897   3.059
 4899SOL    HW215597   6.433   4.754   3.135
 4900SOL     OW15598   1.176   6.340   5.583
 4900SOL    HW115599   1.238   6.261   5.582
 4900SOL    HW215600   1.214   6.412   5.642
 4901SOL     OW15601   2.289   6.679   4.524
 4901SOL    HW115602   2.262   6.775   4.518
 4901SOL    HW215603   2.257   6.641   4.611
 4902SOL     OW15604   1.914   2.908   3.654
 4902SOL    HW115605   1.857   2.939   3.579
 4902SOL    HW215606   2.009   2.935   3.637
 4903SOL     OW15607   3.747   6.330   0.215
 4903SOL    HW115608   3.709   6.422   0.209
 4903SOL    HW215609   3.710   6.273   0.141
 4904SOL     OW15610   1.995   6.727   4.205
 4904SOL    HW115611   1.926   6.685   4.263
 4904SOL    HW215612   1.956   6.808   4.161
 4905SOL     OW15613   4.304   2.152   2.101
 4905SOL    HW115614   4.350   2.240   2.086
 4905SOL    HW215615   4.315   2.125   2.196
 4906SOL     OW15616   3.786   6.931   0.254
 4906SOL    HW115617   3.780   6.933   0.154
 4906SOL    HW215618   3.864   6.986   0.284
 4907SOL     OW15619   4.302   6.417   2.674
 4907SOL    HW115620   4.275   6.321   2.667
 4907SOL    HW215621   4.225   6.475   2.645
 4908SOL     OW15622   4.127   5.629   0.080
 4908SOL    HW115623   4.096   5.614   0.174
 4908SOL    HW215624   4.172   5.546   0.047
 4909SOL     OW15625   6.137   0.965   6.518
 4909SOL    HW115626   6.113   0.998   6.609
 4909SOL    HW215627   6.228   0.923   6.520
 4910SOL     OW15628   5.024   0.305   5.360
 4910SOL    HW115629   4.925   0.292   5.359
 4910SOL    HW215630   5.045   0.403   5.351
 4911SOL     OW15631   6.972   1.846   5.410
 4911SOL    HW115632   6.962   1.918   5.480
 4911SOL    HW215633   6.882   1.821   5.375
 4912SOL     OW15634   5.411   1.444   1.741
 4912SOL    HW115635   5.392   1.499   1.823
 4912SOL    HW215636   5.457   1.501   1.673
 4913SOL     OW15637   3.695   3.777   3.894
 4913SOL    HW115638   3.790   3.748   3.900
 4913SOL    HW215639   3.665   3.812   3.983
 4914SOL     OW15640   2.922   0.852   4.762
 4914SOL    HW115641   2.850   0.921   4.759
 4914SOL    HW215642   2.890   0.768   4.717
 4915SOL     OW15643   4.373   6.815   4.427
 4915SOL    HW115644   4.365   6.905   4.383
 4915SOL    HW215645   4.450   6.815   4.490
 4916SOL     OW15646   2.538   1.542   2.958
 4916SOL    HW115647   2.516   1.592   3.042
 4916SOL    HW215648   2.629   1.502   2.966
 4917SOL     OW15649   1.532   3.976   0.680
 4917SOL    HW115650   1.530   3.998   0.777
 4917SOL    HW215651   1.601   3.905   0.663
 4918SOL     OW15652   3.299   0.083   2.846
 4918SOL    HW115653   3.299   0.128   2.935
 4918SOL    HW215654   3.385   0.035   2.832
 4919SOL     OW15655   2.003   2.256   2.862
 4919SOL    HW115656   2.093   2.283   2.897
 4919SOL    HW215657   2.009   2.167   2.818
 4920SOL     OW15658   4.318   0.472   6.795
 4920SOL    HW115659   4.238   0.527   6.773
 4920SOL    HW215660   4.290   0.379   6.818
 4921SOL     OW15661   2.228   4.102   1.618
 4921SOL    HW115662   2.304   4.059   1.666
 4921SOL    HW215663   2.188   4.173   1.675
 4922SOL     OW15664   1.154   3.684   5.033
 4922SOL    HW115665   1.076   3.684   4.971
 4922SOL    HW215666   1.237   3.712   4.983
 4923SOL     OW15667   4.824   0.348   1.517
 4923SOL    HW115668   4.794   0.321   1.608
 4923SOL    HW215669   4.919   0.379   1.520
 4924SOL     OW15670   2.196   3.249   5.144
 4924SOL    HW115671   2.206   3.306   5.225
 4924SOL    HW215672   2.269   3.180   5.143
 4925SOL     OW15673   5.761   6.155   0.831
 4925SOL    HW115674   5.738   6.070   0.784
 4925SOL    HW215675   5.851   6.146   0.874
 4926SOL     OW15676   4.702   2.696   1.520
 4926SOL    HW115677   4.709   2.597   1.535
 4926SOL    HW215678   4.678   2.740   1.606
 4927SOL     OW15679   3.931   3.402   3.282
 4927SOL    HW115680   3.883   3.445   3.357
 4927SOL    HW215681   3.866   3.360   3.219
 4928SOL     OW15682   0.154   0.252   6.220
 4928SOL    HW115683   0.202   0.167   6.197
 4928SOL    HW215684   0.219   0.317   6.260
 4929SOL     OW15685   0.830   4.036   5.247
 4929SOL    HW115686   0.741   4.035   5.293
 4929SOL    HW215687   0.900   4.069   5.310
 4930SOL     OW15688   0.656   0.988   0.019
 4930SOL    HW115689   0.637   0.900   0.062
 4930SOL    HW215690   0.754   0.998   0.005
 4931SOL     OW15691   0.830   0.088   0.041
 4931SOL    HW115692   0.755   0.071   0.104
 4931SOL    HW215693   0.825   0.025   6.981
 4932SOL     OW15694   1.982   3.442   1.864
 4932SOL    HW115695   2.066   3.445   1.917
 4932SOL    HW215696   1.917   3.509   1.901
 4933SOL     OW15697   2.024   0.647   4.022
 4933SOL    HW115698   2.031   0.568   4.083
 4933SOL    HW215699   2.070   0.726   4.063
 4934SOL     OW15700   1.195   5.063   4.166
 4934SOL    HW115701   1.285   5.053   4.210
 4934SOL    HW215702   1.198   5.140   4.102
 4935SOL     OW15703   2.064   0.932   6.866
 4935SOL    HW115704   2.101   0.852   6.914
 4935SOL    HW215705   1.967   0.940   6.885
 4936SOL     OW15706   2.368   6.178   1.815
 4936SOL    HW115707   2.443   6.113   1.823
 4936SOL    HW215708   2.398   6.268   1.846
 4937SOL     OW15709   0.673   3.896   5.952
 4937SOL    HW115710   0.748   3.937   6.003
 4937SOL    HW215711   0.707   3.818   5.900
 4938SOL     OW15712   3.288   4.850   1.844
 4938SOL    HW115713   3.362   4.788   1.872
 4938SOL    HW215714   3.207   4.831   1.899
 4939SOL     OW15715   1.010   2.591   2.304
 4939SOL    HW115716   0.949   2.512   2.308
 4939SOL    HW215717   1.105   2.560   2.298
 4940SOL     OW15718   0.203   1.704   5.162
 4940SOL    HW115719   0.198   1.750   5.250
 4940SOL    HW215720   0.291   1.724   5.118
 4941SOL     OW15721   4.023   2.850   5.321
 4941SOL    HW115722   3.978   2.904   5.250
 4941SOL    HW215723   4.039   2.757   5.288
 4942SOL     OW15724   5.391   3.352   3.290
 4942SOL    HW115725   5.351   3.344   3.381
 4942SOL    HW215726   5.468   3.290   3.282
 4943SOL     OW15727   5.336   3.972   6.423
 4943SOL    HW115728   5.408   3.940   6.485
 4943SOL    HW215729   5.330   3.909   6.345
 4944SOL     OW15730   2.425   4.740   0.943
 4944SOL    HW115731   2.521   4.768   0.937
 4944SOL    HW215732   2.404   4.711   1.036
 4945SOL     OW15733   1.632   0.918   4.604
 4945SOL    HW115734   1.545   0.945   4.562
 4945SOL    HW215735   1.697   0.995   4.597
 4946SOL     OW15736   0.889   5.216   6.900
 4946SOL    HW115737   0.946   5.165   6.964
 4946SOL    HW215738   0.796   5.223   6.938
 4947SOL     OW15739   2.772   0.898   2.204
 4947SOL    HW115740   2.781   0.996   2.223
 4947SOL    HW215741   2.677   0.879   2.177
 4948SOL     OW15742   1.657   2.618   3.014
 4948SOL    HW115743   1.574   2.619   3.071
 4948SOL    HW215744   1.630   2.621   2.917
 4949SOL     OW15745   6.390   3.588   5.925
 4949SOL    HW115746   6.442   3.666   5.890
 4949SOL    HW215747   6.452   3.514   5.950
 4950SOL     OW15748   1.969   3.979   5.384
 4950SOL    HW115749   2.015   3.984   5.473
 4950SOL    HW215750   1.938   4.070   5.356
 4951SOL     OW15751   6.101   6.473   4.674
 4951SOL    HW115752   6.132   6.505   4.764
 4951SOL    HW215753   6.110   6.374   4.668
 4952SOL     OW15754   0.150   0.497   6.058
 4952SOL    HW115755   0.131   0.557   6.135
 4952SOL    HW215756   0.132   0.402   6.085
 4953SOL     OW15757   2.208   1.101   4.098
 4953SOL    HW115758   2.140   1.164   4.137
 4953SOL    HW215759   2.297   1.146   4.095
 4954SOL     OW15760   2.160   3.942   6.345
 4954SOL    HW115761   2.156   3.977   6.252
 4954SOL    HW215762   2.232   3.989   6.396
 4955SOL     OW15763   3.515   5.856   6.987
 4955SOL    HW115764   3.485   5.860   6.892
 4955SOL    HW215765   3.505   5.763   0.005
 4956SOL     OW15766   2.749   0.367   5.773
 4956SOL    HW115767   2.770   0.457   5.734
 4956SOL    HW215768   2.747   0.299   5.700
 4957SOL     OW15769   6.050   3.356   0.209
 4957SOL    HW115770   5.977   3.304   0.252
 4957SOL    HW215771   6.077   3.312   0.123
 4958SOL     OW15772   2.065   6.117   5.691
 4958SOL    HW115773   2.002   6.071   5.628
 4958SOL    HW215774   2.071   6.064   5.775
 4959SOL     OW15775   6.354   1.592   1.497
 4959SOL    HW115776   6.327   1.499   1.471
 4959SOL    HW215777   6.282   1.656   1.472
 4960SOL     OW15778   4.232   4.670   3.475
 4960SOL    HW115779   4.203   4.751   3.425
 4960SOL    HW215780   4.303   4.623   3.424
 4961SOL     OW15781   3.254   0.660   6.388
 4961SOL    HW115782   3.164   0.690   6.418
 4961SOL    HW215783   3.245   0.596   6.311
 4962SOL     OW15784   5.731   2.811   1.031
 4962SOL    HW115785   5.649   2.832   0.978
 4962SOL    HW215786   5.707   2.794   1.126
 4963SOL     OW15787   1.638   5.255   1.420
 4963SOL    HW115788   1.641   5.251   1.320
 4963SOL    HW215789   1.730   5.272   1.455
 4964SOL     OW15790   2.191   6.613   4.776
 4964SOL    HW115791   2.094   6.624   4.799
 4964SOL    HW215792   2.227   6.533   4.824
 4965SOL     OW15793   0.873   6.667   2.687
 4965SOL    HW115794   0.864   6.583   2.740
 4965SOL    HW215795   0.895   6.743   2.748
 4966SOL     OW15796   2.065   6.389   4.537
 4966SOL    HW115797   2.060   6.417   4.442
 4966SOL    HW215798   2.001   6.443   4.592
 4967SOL     OW15799   2.982   5.325   6.022
 4967SOL    HW115800   2.965   5.272   6.104
 4967SOL    HW215801   3.037   5.272   5.958
 4968SOL     OW15802   6.994   1.320   3.610
 4968SOL    HW115803   7.008   1.377   3.691
 4968SOL    HW215804   0.018   1.365   3.531
 4969SOL     OW15805   0.559   5.922   2.788
 4969SOL    HW115806   0.636   5.983   2.770
 4969SOL    HW215807   0.558   5.849   2.719
 4970SOL     OW15808   2.337   0.777   1.003
 4970SOL    HW115809   2.407   0.827   1.054
 4970SOL    HW215810   2.303   0.701   1.058
 4971SOL     OW15811   6.524   5.977   3.245
 4971SOL    HW115812   6.472   6.047   3.196
 4971SOL    HW215813   6.525   5.998   3.343
 4972SOL     OW15814   1.065   4.152   0.763
 4972SOL    HW115815   1.021   4.236   0.731
 4972SOL    HW215816   1.143   4.132   0.703
 4973SOL     OW15817   0.334   0.381   1.826
 4973SOL    HW115818   0.261   0.423   1.772
 4973SOL    HW215819   0.294   0.334   1.905
 4974SOL     OW15820   6.000   4.835   0.974
 4974SOL    HW115821   5.937   4.882   1.037
 4974SOL    HW215822   5.964   4.744   0.953
 4975SOL     OW15823   5.602   4.055   0.485
 4975SOL    HW115824   5.568   4.015   0.400
 4975SOL    HW215825   5.700   4.072   0.477
 4976SOL     OW15826   1.494   0.371   4.768
 4976SOL    HW115827   1.426   0.364   4.840
 4976SOL    HW215828   1.462   0.324   4.686
 4977SOL     OW15829   3.471   4.459   6.605
 4977SOL    HW115830   3.412   4.506   6.538
 4977SOL    HW215831   3.512   4.378   6.562
 4978SOL     OW15832   5.604   4.752   4.255
 4978SOL    HW115833   5.658   4.831   4.283
 4978SOL    HW215834   5.576   4.701   4.337
 4979SOL     OW15835   6.850   6.637   6.546
 4979SOL    HW115836   6.788   6.561   6.526
 4979SOL    HW215837   6.937   6.622   6.499
 4980SOL     OW15838   5.564   5.387   2.419
 4980SOL    HW115839   5.492   5.320   2.401
 4980SOL    HW215840   5.537   5.445   2.496
 4981SOL     OW15841   3.748   5.868   1.951
 4981SOL    HW115842   3.806   5.946   1.928
 4981SOL    HW215843   3.797   5.783   1.932
 4982SOL     OW15844   3.215   1.884   5.732
 4982SOL    HW115845   3.221   1.961   5.795
 4982SOL    HW215846   3.195   1.919   5.640
 4983SOL     OW15847   5.947   4.637   4.572
 4983SOL    HW115848   6.024   4.694   4.600
 4983SOL    HW215849   5.862   4.689   4.580
 4984SOL     OW15850   4.717   4.258   2.952
 4984SOL    HW115851   4.801   4.311   2.944
 4984SOL    HW215852   4.668   4.260   2.865
 4985SOL     OW15853   5.464   6.136   2.951
 4985SOL    HW115854   5.502   6.091   2.871
 4985SOL    HW215855   5.374   6.097   2.972
 4986SOL     OW15856   6.049   4.993   0.240
 4986SOL    HW115857   6.093   4.965   0.154
 4986SOL    HW215858   5.980   5.063   0.220
 4987SOL     OW15859   1.239   6.440   2.219
 4987SOL    HW115860   1.257   6.481   2.130
 4987SOL    HW215861   1.319   6.387   2.248
 4988SOL     OW15862   6.088   0.959   3.517
 4988SOL    HW115863   6.188   0.967   3.515
 4988SOL    HW215864   6.058   0.944   3.611
 4989SOL     OW15865   5.017   0.279   1.749
 4989SOL    HW115866   4.982   0.200   1.699
 4989SOL    HW215867   5.114   0.265   1.769
 4990SOL     OW15868   3.118   2.309   6.457
 4990SOL    HW115869   3.077   2.376   6.395
 4990SOL    HW215870   3.206   2.278   6.420
 4991SOL     OW15871   6.675   4.959   3.937
 4991SOL    HW115872   6.635   5.022   3.869
 4991SOL    HW215873   6.770   4.940   3.913
 4992SOL     OW15874   5.512   0.731   2.573
 4992SOL    HW115875   5.605   0.757   2.546
 4992SOL    HW215876   5.497   0.758   2.668
 4993SOL     OW15877   3.972   5.900   5.071
 4993SOL    HW115878   3.974   5.893   5.171
 4993SOL    HW215879   4.007   5.815   5.031
 4994SOL     OW15880   2.667   5.637   5.003
 4994SOL    HW115881   2.717   5.576   4.941
 4994SOL    HW215882   2.569   5.620   4.994
 4995SOL     OW15883   1.359   0.909   5.263
 4995SOL    HW115884   1.405   0.907   5.352
 4995SOL    HW215885   1.423   0.939   5.192
 4996SOL     OW15886   0.015   0.799   3.387
 4996SOL    HW115887   0.059   0.809   3.298
 4996SOL    HW215888   0.022   0.885   3.437
 4997SOL     OW15889   4.059   2.264   1.076
 4997SOL    HW115890   3.978   2.219   1.039
 4997SOL    HW215891   4.097   2.208   1.150
 4998SOL     OW15892   1.976   3.622   4.525
 4998SOL    HW115893   1.879   3.631   4.548
 4998SOL    HW215894   2.001   3.525   4.521
 4999SOL     OW15895   6.778   3.056   4.394
 4999SOL    HW115896   6.738   3.129   4.450
 4999SOL    HW215897   6.820   3.096   4.313
 5000SOL     OW15898   3.411   6.749   2.991
 5000SOL    HW115899   3.499   6.782   2.956
 5000SOL    HW215900   3.343   6.751   2.917
 5001SOL     OW15901   0.926   5.913   2.345
 5001SOL    HW115902   0.885   6.001   2.371
 5001SOL    HW215903   1.023   5.913   2.370
 5002SOL     OW15904   0.428   5.195   1.969
 5002SOL    HW115905   0.459   5.132   2.040
 5002SOL    HW215906   0.392   5.278   2.011
 5003SOL     OW15907   4.458   6.326   3.095
 5003SOL    HW115908   4.533   6.373   3.141
 5003SOL    HW215909   4.468   6.227   3.106
 5004SOL     OW15910   2.432   4.459   5.690
 5004SOL    HW115911   2.357   4.516   5.723
 5004SOL    HW215912   2.477   4.505   5.614
 5005SOL     OW15913   2.996   2.773   6.480
 5005SOL    HW115914   2.900   2.797   6.496
 5005SOL    HW215915   3.041   2.756   6.568
 5006SOL     OW15916   5.557   0.645   1.671
 5006SOL    HW115917   5.584   0.739   1.690
 5006SOL    HW215918   5.578   0.587   1.750
 5007SOL     OW15919   6.761   0.298   1.224
 5007SOL    HW115920   6.849   0.335   1.195
 5007SOL    HW215921   6.703   0.373   1.258
 5008SOL     OW15922   5.811   5.903   1.621
 5008SOL    HW115923   5.888   5.879   1.680
 5008SOL    HW215924   5.771   5.819   1.583
 5009SOL     OW15925   0.496   2.308   0.163
 5009SOL    HW115926   0.541   2.227   0.127
 5009SOL    HW215927   0.497   2.305   0.263
 5010SOL     OW15928   4.552   2.591   0.905
 5010SOL    HW115929   4.648   2.606   0.884
 5010SOL    HW215930   4.496   2.618   0.826
 5011SOL     OW15931   1.782   4.530   1.435
 5011SOL    HW115932   1.735   4.616   1.421
 5011SOL    HW215933   1.824   4.529   1.526
 5012SOL     OW15934   6.030   2.370   5.065
 5012SOL    HW115935   6.006   2.464   5.042
 5012SOL    HW215936   6.113   2.370   5.121
 5013SOL     OW15937   5.290   1.038   6.701
 5013SOL    HW115938   5.349   1.115   6.676
 5013SOL    HW215939   5.299   1.020   6.799
 5014SOL     OW15940   6.248   4.045   0.325
 5014SOL    HW115941   6.326   3.990   0.355
 5014SOL    HW215942   6.269   4.142   0.339
 5015SOL     OW15943   4.603   0.839   4.662
 5015SOL    HW115944   4.514   0.877   4.685
 5015SOL    HW215945   4.654   0.905   4.606
 5016SOL     OW15946   1.217   2.791   5.305
 5016SOL    HW115947   1.234   2.868   5.244
 5016SOL    HW215948   1.240   2.705   5.259
 5017SOL     OW15949   1.516   2.403   1.122
 5017SOL    HW115950   1.431   2.368   1.161
 5017SOL    HW215951   1.538   2.492   1.163
 5018SOL     OW15952   1.419   5.155   2.985
 5018SOL    HW115953   1.432   5.081   3.051
 5018SOL    HW215954   1.426   5.118   2.892
 5019SOL     OW15955   2.225   6.433   6.074
 5019SOL    HW115956   2.304   6.372   6.066
 5019SOL    HW215957   2.222   6.492   5.993
 5020SOL     OW15958   6.784   0.101   6.155
 5020SOL    HW115959   6.760   0.198   6.151
 5020SOL    HW215960   6.708   0.049   6.195
 5021SOL     OW15961   1.192   1.204   1.265
 5021SOL    HW115962   1.274   1.243   1.307
 5021SOL    HW215963   1.113   1.261   1.288
 5022SOL     OW15964   1.233   2.383   1.989
 5022SOL    HW115965   1.218   2.478   1.961
 5022SOL    HW215966   1.324   2.353   1.959
 5023SOL     OW15967   0.385   3.980   1.722
 5023SOL    HW115968   0.482   4.004   1.716
 5023SOL    HW215969   0.334   4.030   1.652
 5024SOL     OW15970   5.959   5.422   1.280
 5024SOL    HW115971   5.937   5.468   1.194
 5024SOL    HW215972   5.991   5.490   1.346
 5025SOL     OW15973   4.556   2.275   4.100
 5025SOL    HW115974   4.629   2.289   4.166
 5025SOL    HW215975   4.489   2.211   4.137
 5026SOL     OW15976   6.751   5.482   5.713
 5026SOL    HW115977   6.850   5.487   5.724
 5026SOL    HW215978   6.708   5.558   5.762
 5027SOL     OW15979   6.166   0.038   1.654
 5027SOL    HW115980   6.102   6.980   1.636
 5027SOL    HW215981   6.145   0.114   1.593
 5028SOL     OW15982   6.857   1.469   2.921
 5028SOL    HW115983   6.792   1.528   2.873
 5028SOL    HW215984   6.812   1.426   2.999
 5029SOL     OW15985   6.003   1.879   2.679
 5029SOL    HW115986   5.999   1.897   2.580
 5029SOL    HW215987   5.969   1.959   2.728
 5030SOL     OW15988   6.874   6.284   0.083
 5030SOL    HW115989   6.962   6.308   0.125
 5030SOL    HW215990   6.828   6.368   0.054
 5031SOL     OW15991   6.896   1.230   5.939
 5031SOL    HW115992   6.878   1.314   5.990
 5031SOL    HW215993   6.855   1.152   5.986
 5032SOL     OW15994   2.803   1.539   6.070
 5032SOL    HW115995   2.854   1.527   5.985
 5032SOL    HW215996   2.755   1.626   6.068
 5033SOL     OW15997   2.339   0.101   6.641
 5033SOL    HW115998   2.402   0.138   6.709
 5033SOL    HW215999   2.327   0.003   6.657
 5034SOL     OW16000   5.976   0.292   3.670
 5034SOL    HW116001   6.007   0.277   3.764
 5034SOL    HW216002   6.013   0.379   3.636
 5035SOL     OW16003   7.013   3.727   5.472
 5035SOL    HW116004   0.042   3.758   5.555
 5035SOL    HW216005   0.056   3.665   5.422
 5036SOL     OW16006   0.122   4.740   6.942
 5036SOL    HW116007   0.158   4.684   6.868
 5036SOL    HW216008   0.119   4.685   0.009
 5037SOL     OW16009   5.478   4.580   1.922
 5037SOL    HW116010   5.412   4.580   1.847
 5037SOL    HW216011   5.570   4.598   1.887
 5038SOL     OW16012   3.406   3.448   5.137
 5038SOL    HW116013   3.331   3.452   5.071
 5038SOL    HW216014   3.481   3.395   5.097
 5039SOL     OW16015   2.100   3.257   5.538
 5039SOL    HW116016   2.024   3.207   5.497
 5039SOL    HW216017   2.067   3.346   5.570
 5040SOL     OW16018   1.040   6.500   6.243
 5040SOL    HW116019   1.118   6.551   6.206
 5040SOL    HW216020   1.070   6.447   6.323
 5041SOL     OW16021   1.650   1.713   1.944
 5041SOL    HW116022   1.699   1.627   1.958
 5041SOL    HW216023   1.632   1.725   1.846
 5042SOL     OW16024   6.408   3.393   0.567
 5042SOL    HW116025   6.320   3.416   0.608
 5042SOL    HW216026   6.446   3.312   0.612
 5043SOL     OW16027   4.041   0.446   0.004
 5043SOL    HW116028   3.954   0.485   0.033
 5043SOL    HW216029   4.078   0.500   6.945
 5044SOL     OW16030   0.447   6.269   0.901
 5044SOL    HW116031   0.391   6.340   0.944
 5044SOL    HW216032   0.388   6.201   0.856
 5045SOL     OW16033   5.762   6.261   6.625
 5045SOL    HW116034   5.701   6.182   6.619
 5045SOL    HW216035   5.773   6.302   6.535
 5046SOL     OW16036   3.552   4.183   2.918
 5046SOL    HW116037   3.588   4.276   2.909
 5046SOL    HW216038   3.534   4.146   2.827
 5047SOL     OW16039   1.563   4.193   2.993
 5047SOL    HW116040   1.496   4.183   2.919
 5047SOL    HW216041   1.630   4.119   2.987
 5048SOL     OW16042   1.152   1.077   2.972
 5048SOL    HW116043   1.062   1.068   3.015
 5048SOL    HW216044   1.173   0.995   2.920
 5049SOL     OW16045   4.972   1.914   0.078
 5049SOL    HW116046   5.030   1.989   0.045
 5049SOL    HW216047   4.943   1.933   0.172
 5050SOL     OW16048   1.389   0.715   0.335
 5050SOL    HW116049   1.447   0.708   0.254
 5050SOL    HW216050   1.406   0.638   0.396
 5051SOL     OW16051   4.596   4.071   1.309
 5051SOL    HW116052   4.639   4.159   1.327
 5051SOL    HW216053   4.586   4.020   1.395
 5052SOL     OW16054   2.527   1.362   5.453
 5052SOL    HW116055   2.439   1.333   5.491
 5052SOL    HW216056   2.511   1.423   5.375
 5053SOL     OW16057   1.456   4.259   3.636
 5053SOL    HW116058   1.470   4.170   3.680
 5053SOL    HW216059   1.446   4.247   3.538
 5054SOL     OW16060   2.889   5.033   4.605
 5054SOL    HW116061   2.815   5.032   4.537
 5054SOL    HW216062   2.977   5.029   4.558
 5055SOL     OW16063   0.960   2.358   6.019
 5055SOL    HW116064   1.035   2.378   6.082
 5055SOL    HW216065   0.895   2.295   6.062
 5056SOL     OW16066   5.763   4.304   6.353
 5056SOL    HW116067   5.731   4.282   6.445
 5056SOL    HW216068   5.700   4.265   6.285
 5057SOL     OW16069   0.531   0.002   3.417
 5057SOL    HW116070   0.622   6.979   3.416
 5057SOL    HW216071   0.501   0.015   3.511
 5058SOL     OW16072   3.426   4.168   5.374
 5058SOL    HW116073   3.428   4.069   5.357
 5058SOL    HW216074   3.391   4.186   5.466
 5059SOL     OW16075   6.000   0.789   3.295
 5059SOL    HW116076   6.036   0.838   3.375
 5059SOL    HW216077   5.961   0.702   3.324
 5060SOL     OW16078   0.477   2.268   6.329
 5060SOL    HW116079   0.412   2.196   6.354
 5060SOL    HW216080   0.485   2.333   6.405
 5061SOL     OW16081   4.835   3.064   0.931
 5061SOL    HW116082   4.772   3.059   1.008
 5061SOL    HW216083   4.787   3.036   0.847
 5062SOL     OW16084   6.214   6.786   3.133
 5062SOL    HW116085   6.201   6.869   3.079
 5062SOL    HW216086   6.302   6.791   3.181
 5063SOL     OW16087   0.647   0.178   2.732
 5063SOL    HW116088   0.707   0.255   2.755
 5063SOL    HW216089   0.579   0.207   2.665
 5064SOL     OW16090   5.072   3.688   0.738
 5064SOL    HW116091   5.146   3.682   0.671
 5064SOL    HW216092   5.000   3.624   0.714
 5065SOL     OW16093   2.813   0.659   5.678
 5065SOL    HW116094   2.788   0.649   5.582
 5065SOL    HW216095   2.892   0.720   5.685
 5066SOL     OW16096   5.511   4.552   2.408
 5066SOL    HW116097   5.510   4.501   2.322
 5066SOL    HW216098   5.551   4.495   2.480
 5067SOL     OW16099   4.670   1.157   1.711
 5067SOL    HW116100   4.657   1.244   1.663
 5067SOL    HW216101   4.670   1.174   1.810
 5068SOL     OW16102   2.739   4.414   0.875
 5068SOL    HW116103   2.829   4.443   0.908
 5068SOL    HW216104   2.673   4.423   0.949
 5069SOL     OW16105   1.291   3.776   4.334
 5069SOL    HW116106   1.307   3.709   4.407
 5069SOL    HW216107   1.258   3.861   4.375
 5070SOL     OW16108   5.143   3.958   4.131
 5070SOL    HW116109   5.178   3.867   4.108
 5070SOL    HW216110   5.109   3.957   4.225
 5071SOL     OW16111   4.653   2.049   5.033
 5071SOL    HW116112   4.718   1.973   5.031
 5071SOL    HW216113   4.625   2.071   4.940
 5072SOL     OW16114   0.663   6.372   0.306
 5072SOL    HW116115   0.613   6.442   0.255
 5072SOL    HW216116   0.761   6.380   0.287
 5073SOL     OW16117   0.055   6.919   3.044
 5073SOL    HW116118   0.155   6.909   3.038
 5073SOL    HW216119   0.028   6.932   3.139
 5074SOL     OW16120   3.193   3.494   6.974
 5074SOL    HW116121   3.157   3.547   6.897
 5074SOL    HW216122   3.259   3.427   6.940
 5075SOL     OW16123   1.085   1.805   6.391
 5075SOL    HW116124   1.102   1.786   6.488
 5075SOL    HW216125   0.991   1.839   6.380
 5076SOL     OW16126   3.551   0.707   1.126
 5076SOL    HW116127   3.541   0.800   1.091
 5076SOL    HW216128   3.649   0.684   1.132
 5077SOL     OW16129   0.415   2.762   4.978
 5077SOL    HW116130   0.331   2.784   4.929
 5077SOL    HW216131   0.443   2.668   4.955
 5078SOL     OW16132   0.898   1.763   3.424
 5078SOL    HW116133   0.826   1.793   3.360
 5078SOL    HW216134   0.899   1.663   3.427
 5079SOL     OW16135   2.569   4.850   5.741
 5079SOL    HW116136   2.594   4.834   5.645
 5079SOL    HW216137   2.478   4.812   5.758
 5080SOL     OW16138   6.229   6.412   5.832
 5080SOL    HW116139   6.214   6.327   5.881
 5080SOL    HW216140   6.316   6.408   5.783
 5081SOL     OW16141   3.840   3.005   4.583
 5081SOL    HW116142   3.907   2.971   4.649
 5081SOL    HW216143   3.886   3.026   4.497
 5082SOL     OW16144   6.026   5.656   5.529
 5082SOL    HW116145   5.937   5.657   5.576
 5082SOL    HW216146   6.072   5.569   5.547
 5083SOL     OW16147   2.259   6.607   3.005
 5083SOL    HW116148   2.355   6.625   3.028
 5083SOL    HW216149   2.252   6.518   2.962
 5084SOL     OW16150   0.878   5.019   4.434
 5084SOL    HW116151   0.922   5.092   4.382
 5084SOL    HW216152   0.942   4.945   4.449
 5085SOL     OW16153   5.334   2.649   6.662
 5085SOL    HW116154   5.413   2.610   6.614
 5085SOL    HW216155   5.250   2.620   6.617
 5086SOL     OW16156   6.678   5.529   3.476
 5086SOL    HW116157   6.659   5.622   3.444
 5086SOL    HW216158   6.593   5.477   3.480
 5087SOL     OW16159   6.408   5.663   3.741
 5087SOL    HW116160   6.435   5.745   3.791
 5087SOL    HW216161   6.329   5.621   3.786
 5088SOL     OW16162   5.325   1.540   4.854
 5088SOL    HW116163   5.284   1.473   4.791
 5088SOL    HW216164   5.395   1.592   4.806
 5089SOL     OW16165   5.935   2.788   3.389
 5089SOL    HW116166   6.033   2.775   3.405
 5089SOL    HW216167   5.917   2.884   3.372
 5090SOL     OW16168   1.794   3.641   3.081
 5090SOL    HW116169   1.893   3.653   3.082
 5090SOL    HW216170   1.749   3.725   3.113
 5091SOL     OW16171   1.675   6.533   2.525
 5091SOL    HW116172   1.680   6.458   2.459
 5091SOL    HW216173   1.587   6.531   2.572
 5092SOL     OW16174   2.944   3.121   1.190
 5092SOL    HW116175   2.893   3.190   1.241
 5092SOL    HW216176   3.039   3.150   1.179
 5093SOL     OW16177   3.009   1.222   1.564
 5093SOL    HW116178   3.101   1.233   1.527
 5093SOL    HW216179   2.964   1.311   1.567
 5094SOL     OW16180   0.964   6.416   4.513
 5094SOL    HW116181   0.873   6.443   4.544
 5094SOL    HW216182   1.023   6.400   4.593
 5095SOL     OW16183   0.462   1.843   4.364
 5095SOL    HW116184   0.466   1.889   4.452
 5095SOL    HW216185   0.475   1.909   4.290
 5096SOL     OW16186   4.252   3.805   0.258
 5096SOL    HW116187   4.286   3.730   0.200
 5096SOL    HW216188   4.193   3.767   0.329
 5097SOL     OW16189   1.887   0.261   0.010
 5097SOL    HW116190   1.872   0.348   6.979
 5097SOL    HW216191   1.869   0.185   6.966
 5098SOL     OW16192   0.730   0.745   1.201
 5098SOL    HW116193   0.684   0.709   1.282
 5098SOL    HW216194   0.801   0.681   1.172
 5099SOL     OW16195   0.501   0.141   6.318
 5099SOL    HW116196   0.539   0.228   6.287
 5099SOL    HW216197   0.497   0.140   6.418
 5100SOL     OW16198   4.341   6.731   5.289
 5100SOL    HW116199   4.333   6.831   5.283
 5100SOL    HW216200   4.256   6.693   5.327
 5101SOL     OW16201   4.680   6.811   0.269
 5101SOL    HW116202   4.702   6.875   0.342
 5101SOL    HW216203   4.649   6.861   0.188
 5102SOL     OW16204   5.654   0.482   5.833
 5102SOL    HW116205   5.667   0.454   5.928
 5102SOL    HW216206   5.621   0.405   5.779
 5103SOL     OW16207   0.612   0.907   3.911
 5103SOL    HW116208   0.607   1.007   3.909
 5103SOL    HW216209   0.522   0.869   3.928
 5104SOL     OW16210   2.273   6.139   2.154
 5104SOL    HW116211   2.362   6.095   2.166
 5104SOL    HW216212   2.281   6.236   2.175
 5105SOL     OW16213   4.176   3.386   6.968
 5105SOL    HW116214   4.127   3.470   6.944
 5105SOL    HW216215   4.111   3.310   6.976
 5106SOL     OW16216   3.745   0.268   1.411
 5106SOL    HW116217   3.700   0.180   1.430
 5106SOL    HW216218   3.684   0.343   1.437
 5107SOL     OW16219   3.814   1.321   0.436
 5107SOL    HW116220   3.733   1.327   0.378
 5107SOL    HW216221   3.832   1.410   0.477
 5108SOL     OW16222   3.101   3.286   3.413
 5108SOL    HW116223   3.179   3.343   3.439
 5108SOL    HW216224   3.035   3.341   3.361
 5109SOL     OW16225   0.989   1.279   1.057
 5109SOL    HW116226   0.921   1.313   0.992
 5109SOL    HW216227   1.057   1.225   1.007
 5110SOL     OW16228   0.570   0.230   6.581
 5110SOL    HW116229   0.549   0.144   6.627
 5110SOL    HW216230   0.660   0.263   6.610
 5111SOL     OW16231   1.010   1.000   5.901
 5111SOL    HW116232   0.911   1.013   5.898
 5111SOL    HW216233   1.054   1.084   5.933
 5112SOL     OW16234   0.424   0.405   2.691
 5112SOL    HW116235   0.463   0.414   2.783
 5112SOL    HW216236   0.469   0.468   2.629
 5113SOL     OW16237   1.840   6.422   1.270
 5113SOL    HW116238   1.865   6.511   1.233
 5113SOL    HW216239   1.899   6.352   1.230
 5114SOL     OW16240   3.650   2.824   0.610
 5114SOL    HW116241   3.680   2.797   0.702
 5114SOL    HW216242   3.587   2.901   0.617
 5115SOL     OW16243   2.272   4.636   5.468
 5115SOL    HW116244   2.227   4.671   5.386
 5115SOL    HW216245   2.368   4.618   5.448
 5116SOL     OW16246   5.727   6.442   6.140
 5116SOL    HW116247   5.684   6.483   6.059
 5116SOL    HW216248   5.813   6.399   6.113
 5117SOL     OW16249   1.895   4.931   4.098
 5117SOL    HW116250   1.906   4.993   4.020
 5117SOL    HW216251   1.826   4.967   4.160
 5118SOL     OW16252   4.683   6.209   0.826
 5118SOL    HW116253   4.677   6.216   0.727
 5118SOL    HW216254   4.750   6.138   0.850
 5119SOL     OW16255   5.376   0.273   1.561
 5119SOL    HW116256   5.338   0.346   1.504
 5119SOL    HW216257   5.325   0.268   1.647
 5120SOL     OW16258   5.415   1.353   3.338
 5120SOL    HW116259   5.498   1.306   3.307
 5120SOL    HW216260   5.354   1.367   3.260
 5121SOL     OW16261   2.055   2.299   6.910
 5121SOL    HW116262   1.965   2.293   6.867
 5121SOL    HW216263   2.067   2.390   6.951
 5122SOL     OW16264   3.139   0.608   4.363
 5122SOL    HW116265   3.209   0.637   4.297
 5122SOL    HW216266   3.049   0.612   4.320
 5123SOL     OW16267   6.049   3.250   4.678
 5123SOL    HW116268   5.951   3.270   4.682
 5123SOL    HW216269   6.100   3.326   4.717
 5124SOL     OW16270   2.376   5.383   5.988
 5124SOL    HW116271   2.372   5.351   6.082
 5124SOL    HW216272   2.461   5.434   5.973
 5125SOL     OW16273   6.561   3.315   4.771
 5125SOL    HW116274   6.490   3.270   4.717
 5125SOL    HW216275   6.566   3.274   4.862
 5126SOL     OW16276   6.337   4.628   5.865
 5126SOL    HW116277   6.246   4.588   5.870
 5126SOL    HW216278   6.382   4.601   5.780
 5127SOL     OW16279   5.968   3.669   0.034
 5127SOL    HW116280   6.044   3.729   0.061
 5127SOL    HW216281   5.981   3.640   6.956
 5128SOL     OW16282   0.857   0.497   0.353
 5128SOL    HW116283   0.794   0.529   0.282
 5128SOL    HW216284   0.932   0.561   0.362
 5129SOL     OW16285   4.715   0.771   2.388
 5129SOL    HW116286   4.727   0.679   2.349
 5129SOL    HW216287   4.775   0.835   2.341
 5130SOL     OW16288   1.623   5.782   4.457
 5130SOL    HW116289   1.562   5.778   4.535
 5130SOL    HW216290   1.570   5.800   4.374
 5131SOL     OW16291   2.836   4.718   3.483
 5131SOL    HW116292   2.748   4.693   3.443
 5131SOL    HW216293   2.905   4.723   3.412
 5132SOL     OW16294   3.233   1.047   6.080
 5132SOL    HW116295   3.289   1.075   6.158
 5132SOL    HW216296   3.146   1.096   6.082
 5133SOL     OW16297   2.956   5.836   6.425
 5133SOL    HW116298   3.033   5.813   6.366
 5133SOL    HW216299   2.915   5.922   6.395
 5134SOL     OW16300   6.847   6.887   2.839
 5134SOL    HW116301   6.869   6.965   2.781
 5134SOL    HW216302   6.908   6.885   2.918
 5135SOL     OW16303   6.374   4.038   2.901
 5135SOL    HW116304   6.376   3.982   2.984
 5135SOL    HW216305   6.436   4.115   2.912
 5136SOL     OW16306   6.578   1.554   6.102
 5136SOL    HW116307   6.648   1.551   6.031
 5136SOL    HW216308   6.497   1.502   6.071
 5137SOL     OW16309   4.953   3.147   5.423
 5137SOL    HW116310   4.984   3.174   5.514
 5137SOL    HW216311   4.909   3.225   5.378
 5138SOL     OW16312   3.795   4.084   3.910
 5138SOL    HW116313   3.880   4.041   3.942
 5138SOL    HW216314   3.797   4.094   3.811
 5139SOL     OW16315   1.109   0.127   4.691
 5139SOL    HW116316   1.144   0.204   4.744
 5139SOL    HW216317   1.139   0.042   4.734
 5140SOL     OW16318   3.791   2.041   5.936
 5140SOL    HW116319   3.799   1.943   5.957
 5140SOL    HW216320   3.830   2.059   5.846
 5141SOL     OW16321   6.495   2.968   1.762
 5141SOL    HW116322   6.507   3.065   1.780
 5141SOL    HW216323   6.442   2.955   1.679
 5142SOL     OW16324   5.714   0.024   5.495
 5142SOL    HW116325   5.616   0.019   5.515
 5142SOL    HW216326   5.728   0.038   5.397
 5143SOL     OW16327   1.260   4.145   5.338
 5143SOL    HW116328   1.257   4.079   5.414
 5143SOL    HW216329   1.325   4.113   5.269
 5144SOL     OW16330   1.747   3.593   6.067
 5144SOL    HW116331   1.675   3.570   6.002
 5144SOL    HW216332   1.776   3.688   6.052
 5145SOL     OW16333   3.678   6.318   6.514
 5145SOL    HW116334   3.659   6.351   6.607
 5145SOL    HW216335   3.634   6.229   6.501
 5146SOL     OW16336   3.704   4.142   5.053
 5146SOL    HW116337   3.754   4.192   5.123
 5146SOL    HW216338   3.716   4.186   4.964
 5147SOL     OW16339   5.851   5.041   3.434
 5147SOL    HW116340   5.760   4.999   3.443
 5147SOL    HW216341   5.918   4.971   3.408
 5148SOL     OW16342   0.861   0.582   2.444
 5148SOL    HW116343   0.921   0.534   2.380
 5148SOL    HW216344   0.830   0.667   2.403
 5149SOL     OW16345   5.745   5.020   4.271
 5149SOL    HW116346   5.730   5.016   4.370
 5149SOL    HW216347   5.677   5.081   4.230
 5150SOL     OW16348   2.389   4.502   3.881
 5150SOL    HW116349   2.420   4.439   3.810
 5150SOL    HW216350   2.456   4.575   3.892
 5151SOL     OW16351   5.869   3.858   1.955
 5151SOL    HW116352   5.924   3.779   1.983
 5151SOL    HW216353   5.899   3.939   2.004
 5152SOL     OW16354   1.166   6.070   6.716
 5152SOL    HW116355   1.194   6.161   6.747
 5152SOL    HW216356   1.221   6.044   6.636
 5153SOL     OW16357   1.279   1.452   1.098
 5153SOL    HW116358   1.245   1.363   1.127
 5153SOL    HW216359   1.254   1.521   1.167
 5154SOL     OW16360   1.456   3.143   6.691
 5154SOL    HW116361   1.409   3.214   6.744
 5154SOL    HW216362   1.417   3.139   6.599
 5155SOL     OW16363   3.453   1.388   1.001
 5155SOL    HW116364   3.511   1.336   0.938
 5155SOL    HW216365   3.511   1.445   1.059
 5156SOL     OW16366   5.357   4.497   4.443
 5156SOL    HW116367   5.268   4.467   4.478
 5156SOL    HW216368   5.391   4.573   4.499
 5157SOL     OW16369   3.244   1.835   2.135
 5157SOL    HW116370   3.305   1.858   2.059
 5157SOL    HW216371   3.157   1.882   2.123
 5158SOL     OW16372   3.093   2.249   1.114
 5158SOL    HW116373   3.138   2.180   1.057
 5158SOL    HW216374   3.149   2.267   1.194
 5159SOL     OW16375   6.146   3.959   6.356
 5159SOL    HW116376   6.089   4.040   6.340
 5159SOL    HW216377   6.096   3.894   6.414
 5160SOL     OW16378   6.504   5.978   3.527
 5160SOL    HW116379   6.579   6.023   3.575
 5160SOL    HW216380   6.424   5.975   3.586
 5161SOL     OW16381   1.262   3.204   0.151
 5161SOL    HW116382   1.213   3.219   0.065
 5161SOL    HW216383   1.232   3.118   0.192
 5162SOL     OW16384   0.618   5.840   2.431
 5162SOL    HW116385   0.623   5.936   2.405
 5162SOL    HW216386   0.709   5.809   2.460
 5163SOL     OW16387   3.789   6.989   0.830
 5163SOL    HW116388   3.842   0.014   0.757
 5163SOL    HW216389   3.719   0.037   0.861
 5164SOL     OW16390   2.522   3.140   6.909
 5164SOL    HW116391   2.498   3.046   6.884
 5164SOL    HW216392   2.614   3.161   6.877
 5165SOL     OW16393   1.044   4.083   6.489
 5165SOL    HW116394   0.972   4.146   6.520
 5165SOL    HW216395   1.106   4.131   6.428
 5166SOL     OW16396   1.698   4.699   2.517
 5166SOL    HW116397   1.625   4.655   2.569
 5166SOL    HW216398   1.765   4.630   2.489
 5167SOL     OW16399   6.422   4.182   5.120
 5167SOL    HW116400   6.356   4.256   5.103
 5167SOL    HW216401   6.513   4.221   5.134
 5168SOL     OW16402   4.778   2.354   2.376
 5168SOL    HW116403   4.772   2.453   2.361
 5168SOL    HW216404   4.706   2.308   2.325
 5169SOL     OW16405   4.917   2.277   3.859
 5169SOL    HW116406   4.955   2.259   3.768
 5169SOL    HW216407   4.839   2.339   3.850
 5170SOL     OW16408   1.224   3.568   5.548
 5170SOL    HW116409   1.264   3.476   5.547
 5170SOL    HW216410   1.270   3.625   5.481
 5171SOL     OW16411   0.501   4.905   5.075
 5171SOL    HW116412   0.537   4.816   5.103
 5171SOL    HW216413   0.534   4.976   5.138
 5172SOL     OW16414   1.532   4.804   3.382
 5172SOL    HW116415   1.557   4.804   3.478
 5172SOL    HW216416   1.615   4.796   3.326
 5173SOL     OW16417   4.391   4.012   6.602
 5173SOL    HW116418   4.349   4.047   6.519
 5173SOL    HW216419   4.362   3.917   6.616
 5174SOL     OW16420   2.098   6.517   3.957
 5174SOL    HW116421   2.159   6.455   4.005
 5174SOL    HW216422   2.146   6.602   3.936
 5175SOL     OW16423   2.073   3.875   6.711
 5175SOL    HW116424   2.100   3.857   6.806
 5175SOL    HW216425   2.066   3.974   6.697
 5176SOL     OW16426   5.242   5.079   6.523
 5176SOL    HW116427   5.228   5.070   6.425
 5176SOL    HW216428   5.175   5.024   6.572
 5177SOL     OW16429   5.117   6.434   1.281
 5177SOL    HW116430   5.090   6.526   1.311
 5177SOL    HW216431   5.113   6.372   1.360
 5178SOL     OW16432   0.768   4.689   1.790
 5178SOL    HW116433   0.752   4.747   1.710
 5178SOL    HW216434   0.866   4.675   1.802
 5179SOL     OW16435   4.906   4.302   3.225
 5179SOL    HW116436   4.949   4.377   3.274
 5179SOL    HW216437   4.931   4.306   3.129
 5180SOL     OW16438   3.741   0.344   1.136
 5180SOL    HW116439   3.719   0.336   1.233
 5180SOL    HW216440   3.711   0.263   1.088
 5181SOL     OW16441   0.373   0.429   0.174
 5181SOL    HW116442   0.361   0.353   0.109
 5181SOL    HW216443   0.285   0.451   0.216
 5182SOL     OW16444   4.405   4.492   1.843
 5182SOL    HW116445   4.496   4.524   1.870
 5182SOL    HW216446   4.407   4.392   1.830
 5183SOL     OW16447   3.767   1.595   2.900
 5183SOL    HW116448   3.795   1.499   2.904
 5183SOL    HW216449   3.731   1.623   2.989
 5184SOL     OW16450   2.234   2.190   3.216
 5184SOL    HW116451   2.243   2.249   3.296
 5184SOL    HW216452   2.138   2.191   3.186
 5185SOL     OW16453   4.751   0.377   2.772
 5185SOL    HW116454   4.796   0.287   2.771
 5185SOL    HW216455   4.760   0.419   2.682
 5186SOL     OW16456   5.952   2.871   5.292
 5186SOL    HW116457   6.000   2.785   5.313
 5186SOL    HW216458   5.864   2.872   5.341
 5187SOL     OW16459   1.818   5.346   4.781
 5187SOL    HW116460   1.803   5.399   4.865
 5187SOL    HW216461   1.819   5.408   4.703
 5188SOL     OW16462   6.579   6.257   1.602
 5188SOL    HW116463   6.567   6.327   1.673
 5188SOL    HW216464   6.511   6.271   1.530
 5189SOL     OW16465   5.165   5.988   6.836
 5189SOL    HW116466   5.238   5.932   6.798
 5189SOL    HW216467   5.138   6.058   6.769
 5190SOL     OW16468   1.652   3.107   2.639
 5190SOL    HW116469   1.737   3.054   2.629
 5190SOL    HW216470   1.594   3.064   2.709
 5191SOL     OW16471   3.095   5.698   3.118
 5191SOL    HW116472   3.076   5.756   3.197
 5191SOL    HW216473   3.122   5.754   3.040
 5192SOL     OW16474   1.906   5.938   1.589
 5192SOL    HW116475   1.813   5.932   1.625
 5192SOL    HW216476   1.961   5.865   1.629
 5193SOL     OW16477   4.335   6.410   6.028
 5193SOL    HW116478   4.310   6.435   6.122
 5193SOL    HW216479   4.434   6.421   6.016
 5194SOL     OW16480   2.669   2.009   6.766
 5194SOL    HW116481   2.663   1.913   6.737
 5194SOL    HW216482   2.712   2.063   6.693
 5195SOL     OW16483   0.445   0.240   3.950
 5195SOL    HW116484   0.377   0.207   4.016
 5195SOL    HW216485   0.400   0.296   3.881
 5196SOL     OW16486   4.248   6.595   2.198
 5196SOL    HW116487   4.312   6.645   2.140
 5196SOL    HW216488   4.224   6.651   2.278
 5197SOL     OW16489   1.436   4.038   6.759
 5197SOL    HW116490   1.508   3.976   6.729
 5197SOL    HW216491   1.439   4.047   6.859
 5198SOL     OW16492   4.319   5.510   3.202
 5198SOL    HW116493   4.361   5.486   3.290
 5198SOL    HW216494   4.388   5.507   3.131
 5199SOL     OW16495   0.157   5.503   0.636
 5199SOL    HW116496   0.066   5.462   0.625
 5199SOL    HW216497   0.173   5.520   0.733
 5200SOL     OW16498   6.758   3.132   5.369
 5200SOL    HW116499   6.792   3.054   5.420
 5200SOL    HW216500   6.798   3.216   5.405
 5201SOL     OW16501   0.785   6.747   3.033
 5201SOL    HW116502   0.743   6.831   3.067
 5201SOL    HW216503   0.714   6.681   3.009
 5202SOL     OW16504   6.225   2.664   6.265
 5202SOL    HW116505   6.159   2.589   6.274
 5202SOL    HW216506   6.312   2.636   6.305
 5203SOL     OW16507   2.158   2.634   6.783
 5203SOL    HW116508   2.211   2.667   6.705
 5203SOL    HW216509   2.213   2.569   6.835
 5204SOL     OW16510   3.753   5.261   0.463
 5204SOL    HW116511   3.726   5.357   0.456
 5204SOL    HW216512   3.850   5.256   0.489
 5205SOL     OW16513   1.806   6.908   0.546
 5205SOL    HW116514   1.851   6.992   0.517
 5205SOL    HW216515   1.816   6.898   0.645
 5206SOL     OW16516   0.424   3.480   6.406
 5206SOL    HW116517   0.449   3.576   6.415
 5206SOL    HW216518   0.434   3.451   6.311
 5207SOL     OW16519   1.210   5.246   3.964
 5207SOL    HW116520   1.286   5.307   3.984
 5207SOL    HW216521   1.183   5.257   3.868
 5208SOL     OW16522   3.346   1.203   0.421
 5208SOL    HW116523   3.389   1.188   0.332
 5208SOL    HW216524   3.410   1.251   0.481
 5209SOL     OW16525   5.849   5.728   4.055
 5209SOL    HW116526   5.809   5.676   3.979
 5209SOL    HW216527   5.949   5.724   4.050
 5210SOL     OW16528   5.804   2.867   5.626
 5210SOL    HW116529   5.878   2.806   5.655
 5210SOL    HW216530   5.751   2.895   5.706
 5211SOL     OW16531   3.935   3.276   4.697
 5211SOL    HW116532   3.905   3.352   4.640
 5211SOL    HW216533   4.010   3.227   4.651
 5212SOL     OW16534   6.766   2.190   1.062
 5212SOL    HW116535   6.832   2.121   1.090
 5212SOL    HW216536   6.754   2.257   1.136
 5213SOL     OW16537   5.015   2.797   6.913
 5213SOL    HW116538   5.024   2.875   6.850
 5213SOL    HW216539   5.052   2.822   7.002
 5214SOL     OW16540   5.520   1.265   6.628
 5214SOL    HW116541   5.589   1.211   6.581
 5214SOL    HW216542   5.484   1.335   6.566
 5215SOL     OW16543   5.028   5.372   3.235
 5215SOL    HW116544   5.092   5.342   3.306
 5215SOL    HW216545   4.989   5.291   3.190
 5216SOL     OW16546   4.556   6.023   1.504
 5216SOL    HW116547   4.563   6.089   1.578
 5216SOL    HW216548   4.648   5.993   1.478
 5217SOL     OW16549   3.363   4.887   4.024
 5217SOL    HW116550   3.303   4.879   3.944
 5217SOL    HW216551   3.345   4.811   4.086
 5218SOL     OW16552   1.629   0.522   3.143
 5218SOL    HW116553   1.634   0.528   3.043
 5218SOL    HW216554   1.706   0.572   3.183
 5219SOL     OW16555   3.733   0.716   6.764
 5219SOL    HW116556   3.780   0.684   6.682
 5219SOL    HW216557   3.771   0.671   6.845
 5220SOL     OW16558   1.558   5.385   3.027
 5220SOL    HW116559   1.492   5.309   3.031
 5220SOL    HW216560   1.633   5.361   2.966
 5221SOL     OW16561   5.747   2.441   4.491
 5221SOL    HW116562   5.659   2.487   4.477
 5221SOL    HW216563   5.800   2.491   4.560
 5222SOL     OW16564   2.355   0.441   3.758
 5222SOL    HW116565   2.296   0.476   3.685
 5222SOL    HW216566   2.443   0.488   3.757
 5223SOL     OW16567   5.167   0.462   1.429
 5223SOL    HW116568   5.116   0.482   1.512
 5223SOL    HW216569   5.191   0.547   1.382
 5224SOL     OW16570   0.443   1.474   3.144
 5224SOL    HW116571   0.355   1.512   3.172
 5224SOL    HW216572   0.492   1.441   3.224
 5225SOL     OW16573   6.324   0.631   3.240
 5225SOL    HW116574   6.294   0.691   3.314
 5225SOL    HW216575   6.361   0.686   3.165
 5226SOL     OW16576   0.389   6.011   5.480
 5226SOL    HW116577   0.433   5.969   5.559
 5226SOL    HW216578   0.292   6.025   5.500
 5227SOL     OW16579   1.916   4.300   4.015
 5227SOL    HW116580   1.981   4.334   4.083
 5227SOL    HW216581   1.845   4.369   4.000
 5228SOL     OW16582   6.556   3.146   1.468
 5228SOL    HW116583   6.630   3.185   1.414
 5228SOL    HW216584   6.481   3.212   1.476
 5229SOL     OW16585   1.219   4.348   6.676
 5229SOL    HW116586   1.242   4.295   6.593
 5229SOL    HW216587   1.282   4.426   6.684
 5230SOL     OW16588   0.172   0.051   0.878
 5230SOL    HW116589   0.118   6.984   0.880
 5230SOL    HW216590   0.208   0.066   0.786
 5231SOL     OW16591   2.978   3.839   4.172
 5231SOL    HW116592   2.993   3.889   4.258
 5231SOL    HW216593   2.916   3.763   4.189
 5232SOL     OW16594   2.834   2.169   6.151
 5232SOL    HW116595   2.848   2.144   6.056
 5232SOL    HW216596   2.920   2.158   6.201
 5233SOL     OW16597   6.417   0.248   1.641
 5233SOL    HW116598   6.502   0.197   1.651
 5233SOL    HW216599   6.356   0.200   1.578
 5234SOL     OW16600   2.942   0.450   6.472
 5234SOL    HW116601   2.845   0.434   6.488
 5234SOL    HW216602   2.958   0.461   6.373
 5235SOL     OW16603   1.399   2.881   1.396
 5235SOL    HW116604   1.483   2.929   1.373
 5235SOL    HW216605   1.421   2.805   1.457
 5236SOL     OW16606   5.789   3.218   2.184
 5236SOL    HW116607   5.844   3.138   2.163
 5236SOL    HW216608   5.839   3.301   2.159
 5237SOL     OW16609   2.843   1.164   5.199
 5237SOL    HW116610   2.849   1.246   5.142
 5237SOL    HW216611   2.786   1.096   5.153
 5238SOL     OW16612   1.847   5.363   0.623
 5238SOL    HW116613   1.873   5.331   0.715
 5238SOL    HW216614   1.878   5.297   0.555
 5239SOL     OW16615   3.941   3.666   3.959
 5239SOL    HW116616   4.007   3.633   3.891
 5239SOL    HW216617   3.969   3.637   4.050
 5240SOL     OW16618   2.887   1.817   5.466
 5240SOL    HW116619   2.956   1.749   5.439
 5240SOL    HW216620   2.931   1.886   5.524
 5241SOL     OW16621   1.125   5.833   6.446
 5241SOL    HW116622   1.031   5.866   6.443
 5241SOL    HW216623   1.180   5.882   6.378
 5242SOL     OW16624   6.669   6.264   5.723
 5242SOL    HW116625   6.678   6.321   5.642
 5242SOL    HW216626   6.671   6.167   5.696
 5243SOL     OW16627   1.450   6.252   1.678
 5243SOL    HW116628   1.454   6.349   1.653
 5243SOL    HW216629   1.506   6.199   1.613
 5244SOL     OW16630   3.932   3.875   6.500
 5244SOL    HW116631   3.979   3.792   6.531
 5244SOL    HW216632   3.990   3.926   6.438
 5245SOL     OW16633   4.451   4.562   0.104
 5245SOL    HW116634   4.369   4.608   0.069
 5245SOL    HW216635   4.530   4.588   0.048
 5246SOL     OW16636   5.741   4.537   2.810
 5246SOL    HW116637   5.691   4.477   2.748
 5246SOL    HW216638   5.694   4.540   2.898
 5247SOL     OW16639   1.538   6.015   0.419
 5247SOL    HW116640   1.441   6.003   0.442
 5247SOL    HW216641   1.578   6.086   0.476
 5248SOL     OW16642   5.786   0.650   5.652
 5248SOL    HW116643   5.741   0.588   5.716
 5248SOL    HW216644   5.725   0.727   5.632
 5249SOL     OW16645   0.421   5.290   5.303
 5249SOL    HW116646   0.479   5.367   5.330
 5249SOL    HW216647   0.379   5.309   5.214
 5250SOL     OW16648   0.292   1.370   5.736
 5250SOL    HW116649   0.328   1.392   5.827
 5250SOL    HW216650   0.192   1.373   5.737
 5251SOL     OW16651   0.499   2.907   1.552
 5251SOL    HW116652   0.523   2.885   1.646
 5251SOL    HW216653   0.400   2.925   1.546
 5252SOL     OW16654   1.908   5.772   0.786
 5252SOL    HW116655   1.890   5.683   0.827
 5252SOL    HW216656   1.838   5.791   0.717
 5253SOL     OW16657   5.222   3.644   5.745
 5253SOL    HW116658   5.123   3.651   5.738
 5253SOL    HW216659   5.247   3.628   5.841
 5254SOL     OW16660   5.793   1.573   3.650
 5254SOL    HW116661   5.772   1.643   3.719
 5254SOL    HW216662   5.707   1.539   3.612
 5255SOL     OW16663   4.585   0.355   5.458
 5255SOL    HW116664   4.516   0.403   5.403
 5255SOL    HW216665   4.674   0.362   5.413
 5256SOL     OW16666   4.644   1.518   2.853
 5256SOL    HW116667   4.586   1.506   2.933
 5256SOL    HW216668   4.598   1.577   2.787
 5257SOL     OW16669   4.161   0.616   2.107
 5257SOL    HW116670   4.071   0.574   2.094
 5257SOL    HW216671   4.185   0.612   2.204
 5258SOL     OW16672   5.036   3.876   1.869
 5258SOL    HW116673   5.082   3.788   1.859
 5258SOL    HW216674   5.033   3.902   1.965
 5259SOL     OW16675   4.361   6.300   1.143
 5259SOL    HW116676   4.372   6.212   1.190
 5259SOL    HW216677   4.439   6.359   1.165
 5260SOL     OW16678   5.745   3.133   1.079
 5260SOL    HW116679   5.732   3.051   1.134
 5260SOL    HW216680   5.694   3.209   1.120
 5261SOL     OW16681   1.325   2.978   6.072
 5261SOL    HW116682   1.272   2.922   6.009
 5261SOL    HW216683   1.293   2.963   6.165
 5262SOL     OW16684   3.113   6.847   2.380
 5262SOL    HW116685   3.194   6.809   2.336
 5262SOL    HW216686   3.076   6.921   2.324
 5263SOL     OW16687   1.051   0.639   5.902
 5263SOL    HW116688   0.968   0.682   5.865
 5263SOL    HW216689   1.132   0.687   5.868
 5264SOL     OW16690   5.636   0.350   1.653
 5264SOL    HW116691   5.549   0.323   1.612
 5264SOL    HW216692   5.620   0.407   1.733
 5265SOL     OW16693   4.964   4.332   2.726
 5265SOL    HW116694   4.891   4.326   2.658
 5265SOL    HW216695   5.047   4.288   2.691
 5266SOL     OW16696   2.362   0.040   1.668
 5266SOL    HW116697   2.461   0.047   1.680
 5266SOL    HW216698   2.317   0.042   1.758
 5267SOL     OW16699   4.670   4.809   5.978
 5267SOL    HW116700   4.763   4.809   6.015
 5267SOL    HW216701   4.604   4.807   6.053
 5268SOL     OW16702   6.481   5.670   6.388
 5268SOL    HW116703   6.475   5.764   6.355
 5268SOL    HW216704   6.414   5.657   6.461
 5269SOL     OW16705   2.933   6.247   4.141
 5269SOL    HW116706   2.853   6.258   4.081
 5269SOL    HW216707   2.902   6.226   4.234
 5270SOL     OW16708   4.392   2.042   1.649
 5270SOL    HW116709   4.305   2.068   1.691
 5270SOL    HW216710   4.456   2.013   1.720
 5271SOL     OW16711   4.566   5.372   4.658
 5271SOL    HW116712   4.636   5.321   4.607
 5271SOL    HW216713   4.492   5.398   4.597
 5272SOL     OW16714   1.960   5.392   3.410
 5272SOL    HW116715   1.904   5.426   3.335
 5272SOL    HW216716   1.941   5.446   3.492
 5273SOL     OW16717   0.518   3.683   3.039
 5273SOL    HW116718   0.598   3.689   2.980
 5273SOL    HW216719   0.447   3.628   2.994
 5274SOL     OW16720   6.112   4.863   2.488
 5274SOL    HW116721   6.192   4.848   2.429
 5274SOL    HW216722   6.044   4.917   2.438
 5275SOL     OW16723   3.623   1.561   6.273
 5275SOL    HW116724   3.553   1.621   6.312
 5275SOL    HW216725   3.652   1.495   6.343
 5276SOL     OW16726   1.004   5.992   0.778
 5276SOL    HW116727   1.042   6.050   0.851
 5276SOL    HW216728   0.906   5.981   0.792
 5277SOL     OW16729   1.219   2.340   3.169
 5277SOL    HW116730   1.314   2.333   3.137
 5277SOL    HW216731   1.216   2.327   3.268
 5278SOL     OW16732   5.076   6.627   4.822
 5278SOL    HW116733   5.098   6.567   4.898
 5278SOL    HW216734   5.130   6.601   4.742
 5279SOL     OW16735   1.348   6.351   0.088
 5279SOL    HW116736   1.350   6.254   0.064
 5279SOL    HW216737   1.435   6.393   0.063
 5280SOL     OW16738   3.076   5.456   5.399
 5280SOL    HW116739   3.049   5.534   5.342
 5280SOL    HW216740   3.125   5.390   5.342
 5281SOL     OW16741   1.625   1.166   3.566
 5281SOL    HW116742   1.706   1.178   3.509
 5281SOL    HW216743   1.651   1.175   3.662
 5282SOL     OW16744   1.762   0.522   1.936
 5282SOL    HW116745   1.678   0.473   1.911
 5282SOL    HW216746   1.761   0.541   2.035
 5283SOL     OW16747   2.354   0.253   2.871
 5283SOL    HW116748   2.371   0.349   2.849
 5283SOL    HW216749   2.262   0.243   2.908
 5284SOL     OW16750   4.848   3.135   3.344
 5284SOL    HW116751   4.794   3.074   3.286
 5284SOL    HW216752   4.849   3.227   3.303
 5285SOL     OW16753   0.576   3.621   4.298
 5285SOL    HW116754   0.608   3.531   4.326
 5285SOL    HW216755   0.567   3.680   4.379
 5286SOL     OW16756   6.658   3.685   1.420
 5286SOL    HW116757   6.562   3.663   1.400
 5286SOL    HW216758   6.715   3.655   1.343
 5287SOL     OW16759   2.773   5.713   1.321
 5287SOL    HW116760   2.857   5.753   1.285
 5287SOL    HW216761   2.743   5.763   1.402
 5288SOL     OW16762   3.859   0.965   2.725
 5288SOL    HW116763   3.943   0.911   2.713
 5288SOL    HW216764   3.879   1.061   2.707
 5289SOL     OW16765   1.677   6.032   5.520
 5289SOL    HW116766   1.684   6.058   5.617
 5289SOL    HW216767   1.764   5.995   5.490
 5290SOL     OW16768   1.261   3.969   5.930
 5290SOL    HW116769   1.281   3.881   5.887
 5290SOL    HW216770   1.264   4.041   5.860
 5291SOL     OW16771   2.996   4.796   6.550
 5291SOL    HW116772   3.058   4.872   6.531
 5291SOL    HW216773   2.902   4.829   6.547
 5292SOL     OW16774   5.769   4.825   6.401
 5292SOL    HW116775   5.711   4.783   6.332
 5292SOL    HW216776   5.801   4.914   6.368
 5293SOL     OW16777   1.922   6.713   4.762
 5293SOL    HW116778   1.932   6.802   4.717
 5293SOL    HW216779   1.876   6.649   4.701
 5294SOL     OW16780   5.783   2.419   5.551
 5294SOL    HW116781   5.699   2.461   5.583
 5294SOL    HW216782   5.765   2.367   5.467
 5295SOL     OW16783   4.235   1.249   2.819
 5295SOL    HW116784   4.270   1.192   2.894
 5295SOL    HW216785   4.227   1.344   2.850
 5296SOL     OW16786   3.180   5.001   6.532
 5296SOL    HW116787   3.131   5.072   6.583
 5296SOL    HW216788   3.261   5.042   6.489
 5297SOL     OW16789   1.606   3.602   0.730
 5297SOL    HW116790   1.629   3.512   0.694
 5297SOL    HW216791   1.609   3.600   0.830
 5298SOL     OW16792   0.812   6.074   6.950
 5298SOL    HW116793   0.899   6.029   6.970
 5298SOL    HW216794   0.829   6.170   6.928
 5299SOL     OW16795   2.439   3.144   0.791
 5299SOL    HW116796   2.514   3.174   0.849
 5299SOL    HW216797   2.365   3.106   0.847
 5300SOL     OW16798   0.641   5.627   1.142
 5300SOL    HW116799   0.579   5.706   1.139
 5300SOL    HW216800   0.733   5.658   1.165
 5301SOL     OW16801   3.502   1.805   6.261
 5301SOL    HW116802   3.507   1.777   6.166
 5301SOL    HW216803   3.529   1.901   6.269
 5302SOL     OW16804   5.893   5.505   3.633
 5302SOL    HW116805   5.852   5.414   3.639
 5302SOL    HW216806   5.887   5.538   3.539
 5303SOL     OW16807   6.920   5.035   4.641
 5303SOL    HW116808   7.012   5.012   4.673
 5303SOL    HW216809   6.868   4.951   4.624
 5304SOL     OW16810   5.623   1.011   0.721
 5304SOL    HW116811   5.574   1.097   0.739
 5304SOL    HW216812   5.715   1.017   0.760
 5305SOL     OW16813   0.653   4.407   3.462
 5305SOL    HW116814   0.674   4.480   3.527
 5305SOL    HW216815   0.614   4.329   3.511
 5306SOL     OW16816   0.880   4.477   4.763
 5306SOL    HW116817   0.908   4.441   4.852
 5306SOL    HW216818   0.874   4.577   4.767
 5307SOL     OW16819   4.262   1.855   0.224
 5307SOL    HW116820   4.217   1.914   0.291
 5307SOL    HW216821   4.352   1.893   0.202
 5308SOL     OW16822   1.078   4.532   3.275
 5308SOL    HW116823   1.154   4.591   3.302
 5308SOL    HW216824   1.086   4.444   3.322
 5309SOL     OW16825   3.994   4.728   1.801
 5309SOL    HW116826   3.905   4.715   1.757
 5309SOL    HW216827   4.067   4.716   1.733
 5310SOL     OW16828   5.965   3.395   2.125
 5310SOL    HW116829   5.985   3.489   2.095
 5310SOL    HW216830   6.049   3.353   2.160
 5311SOL     OW16831   6.314   6.450   6.667
 5311SOL    HW116832   6.344   6.524   6.728
 5311SOL    HW216833   6.306   6.365   6.719
 5312SOL     OW16834   0.532   5.639   1.521
 5312SOL    HW116835   0.452   5.675   1.568
 5312SOL    HW216836   0.510   5.622   1.425
 5313SOL     OW16837   1.487   2.999   5.632
 5313SOL    HW116838   1.500   2.936   5.708
 5313SOL    HW216839   1.541   3.082   5.646
 5314SOL     OW16840   3.467   6.836   0.217
 5314SOL    HW116841   3.441   6.911   0.157
 5314SOL    HW216842   3.398   6.825   0.289
 5315SOL     OW16843   4.686   3.414   1.665
 5315SOL    HW116844   4.719   3.428   1.572
 5315SOL    HW216845   4.591   3.382   1.663
 5316SOL     OW16846   0.855   3.524   5.201
 5316SOL    HW116847   0.835   3.614   5.160
 5316SOL    HW216848   0.817   3.520   5.293
 5317SOL     OW16849   5.786   0.682   5.161
 5317SOL    HW116850   5.731   0.732   5.094
 5317SOL    HW216851   5.879   0.670   5.126
 5318SOL     OW16852   0.728   3.115   6.908
 5318SOL    HW116853   0.776   3.140   6.992
 5318SOL    HW216854   0.631   3.140   6.917
 5319SOL     OW16855   3.426   6.389   0.320
 5319SOL    HW116856   3.443   6.476   0.366
 5319SOL    HW216857   3.439   6.314   0.385
 5320SOL     OW16858   4.971   4.976   0.514
 5320SOL    HW116859   4.950   4.905   0.447
 5320SOL    HW216860   5.070   4.977   0.533
 5321SOL     OW16861   2.007   4.860   4.359
 5321SOL    HW116862   2.105   4.871   4.376
 5321SOL    HW216863   1.984   4.900   4.270
 5322SOL     OW16864   5.653   6.373   6.379
 5322SOL    HW116865   5.604   6.287   6.365
 5322SOL    HW216866   5.707   6.394   6.297
 5323SOL     OW16867   3.995   2.157   0.014
 5323SOL    HW116868   4.035   2.084   6.976
 5323SOL    HW216869   4.023   2.147   0.109
 5324SOL     OW16870   3.376   2.022   0.699
 5324SOL    HW116871   3.345   2.074   0.779
 5324SOL    HW216872   3.297   1.978   0.656
 5325SOL     OW16873   4.415   0.629   4.326
 5325SOL    HW116874   4.402   0.543   4.276
 5325SOL    HW216875   4.347   0.696   4.295
 5326SOL     OW16876   6.353   5.015   2.966
 5326SOL    HW116877   6.287   5.089   2.952
 5326SOL    HW216878   6.386   4.984   2.877
 5327SOL     OW16879   5.597   2.849   5.449
 5327SOL    HW116880   5.627   2.880   5.359
 5327SOL    HW216881   5.675   2.849   5.512
 5328SOL     OW16882   3.913   3.007   5.118
 5328SOL    HW116883   3.892   3.033   5.024
 5328SOL    HW216884   3.917   3.090   5.175
 5329SOL     OW16885   0.208   4.624   0.179
 5329SOL    HW116886   0.197   4.525   0.188
 5329SOL    HW216887   0.305   4.646   0.168
 5330SOL     OW16888   4.059   4.288   5.941
 5330SOL    HW116889   4.048   4.386   5.955
 5330SOL    HW216890   3.971   4.242   5.956
 5331SOL     OW16891   5.685   1.364   0.646
 5331SOL    HW116892   5.635   1.349   0.561
 5331SOL    HW216893   5.640   1.315   0.721
 5332SOL     OW16894   0.787   3.177   1.203
 5332SOL    HW116895   0.791   3.257   1.263
 5332SOL    HW216896   0.708   3.121   1.229
 5333SOL     OW16897   0.653   0.319   3.184
 5333SOL    HW116898   0.574   0.315   3.123
 5333SOL    HW216899   0.731   0.359   3.136
 5334SOL     OW16900   3.528   0.394   4.403
 5334SOL    HW116901   3.435   0.358   4.388
 5334SOL    HW216902   3.522   0.488   4.438
 5335SOL     OW16903   6.818   6.070   2.074
 5335SOL    HW116904   6.812   5.971   2.087
 5335SOL    HW216905   6.802   6.092   1.978
 5336SOL     OW16906   1.980   2.313   3.292
 5336SOL    HW116907   1.998   2.404   3.254
 5336SOL    HW216908   1.965   2.321   3.391
 5337SOL     OW16909   4.959   4.325   1.656
 5337SOL    HW116910   4.874   4.285   1.622
 5337SOL    HW216911   5.034   4.303   1.593
 5338SOL     OW16912   6.192   2.129   6.779
 5338SOL    HW116913   6.209   2.202   6.845
 5338SOL    HW216914   6.114   2.075   6.809
 5339SOL     OW16915   6.875   2.335   4.226
 5339SOL    HW116916   6.949   2.369   4.168
 5339SOL    HW216917   6.792   2.388   4.207
 5340SOL     OW16918   4.971   3.504   0.995
 5340SOL    HW116919   4.884   3.508   1.044
 5340SOL    HW216920   4.960   3.546   0.905
 5341SOL     OW16921   3.301   3.041   6.557
 5341SOL    HW116922   3.208   3.077   6.545
 5341SOL    HW216923   3.314   2.963   6.497
 5342SOL     OW16924   3.096   0.226   4.000
 5342SOL    HW116925   3.177   0.256   3.950
 5342SOL    HW216926   3.124   0.185   4.087
 5343SOL     OW16927   3.545   3.600   4.323
 5343SOL    HW116928   3.497   3.626   4.239
 5343SOL    HW216929   3.525   3.504   4.344
 5344SOL     OW16930   2.336   2.793   2.546
 5344SOL    HW116931   2.373   2.769   2.636
 5344SOL    HW216932   2.279   2.875   2.555
 5345SOL     OW16933   3.368   6.729   1.369
 5345SOL    HW116934   3.379   6.705   1.466
 5345SOL    HW216935   3.333   6.649   1.320
 5346SOL     OW16936   3.594   6.104   4.475
 5346SOL    HW116937   3.528   6.046   4.523
 5346SOL    HW216938   3.656   6.146   4.541
 5347SOL     OW16939   0.895   2.585   1.896
 5347SOL    HW116940   0.848   2.667   1.865
 5347SOL    HW216941   0.843   2.542   1.970
 5348SOL     OW16942   0.076   2.455   0.850
 5348SOL    HW116943   6.997   2.462   0.875
 5348SOL    HW216944   0.089   2.378   0.788
 5349SOL     OW16945   2.023   3.045   0.243
 5349SOL    HW116946   2.019   3.065   0.145
 5349SOL    HW216947   2.108   3.081   0.281
 5350SOL     OW16948   2.236   6.978   5.478
 5350SOL    HW116949   2.189   7.010   5.560
 5350SOL    HW216950   2.176   6.986   5.399
 5351SOL     OW16951   6.488   5.511   2.521
 5351SOL    HW116952   6.488   5.490   2.619
 5351SOL    HW216953   6.582   5.524   2.490
 5352SOL     OW16954   2.596   4.732   3.348
 5352SOL    HW116955   2.544   4.781   3.279
 5352SOL    HW216956   2.537   4.667   3.395
 5353SOL     OW16957   4.106   4.937   3.341
 5353SOL    HW116958   4.138   5.027   3.312
 5353SOL    HW216959   4.103   4.876   3.261
 5354SOL     OW16960   2.683   5.520   2.181
 5354SOL    HW116961   2.709   5.430   2.216
 5354SOL    HW216962   2.615   5.509   2.108
 5355SOL     OW16963   6.470   3.972   3.813
 5355SOL    HW116964   6.468   3.930   3.904
 5355SOL    HW216965   6.511   3.909   3.747
 5356SOL     OW16966   5.769   4.435   1.653
 5356SOL    HW116967   5.720   4.439   1.565
 5356SOL    HW216968   5.742   4.514   1.709
 5357SOL     OW16969   4.446   6.816   1.088
 5357SOL    HW116970   4.419   6.793   1.181
 5357SOL    HW216971   4.438   6.914   1.074
 5358SOL     OW16972   4.645   1.855   0.074
 5358SOL    HW116973   4.636   1.871   6.992
 5358SOL    HW216974   4.693   1.769   0.089
 5359SOL     OW16975   1.328   1.554   5.989
 5359SOL    HW116976   1.310   1.621   6.061
 5359SOL    HW216977   1.241   1.516   5.956
 5360SOL     OW16978   3.986   6.353   5.460
 5360SOL    HW116979   3.902   6.299   5.460
 5360SOL    HW216980   4.049   6.317   5.529
 5361SOL     OW16981   2.615   0.991   5.169
 5361SOL    HW116982   2.523   0.998   5.208
 5361SOL    HW216983   2.621   1.049   5.087
 5362SOL     OW16984   6.532   5.210   3.152
 5362SOL    HW116985   6.480   5.294   3.160
 5362SOL    HW216986   6.518   5.170   3.061
 5363SOL     OW16987   0.497   0.409   6.847
 5363SOL    HW116988   0.585   0.366   6.871
 5363SOL    HW216989   0.423   0.345   6.868
 5364SOL     OW16990   6.434   6.774   2.027
 5364SOL    HW116991   6.379   6.858   2.033
 5364SOL    HW216992   6.396   6.706   2.090
 5365SOL     OW16993   3.517   3.745   6.850
 5365SOL    HW116994   3.501   3.657   6.894
 5365SOL    HW216995   3.475   3.744   6.759
 5366SOL     OW16996   4.976   6.201   2.120
 5366SOL    HW116997   5.001   6.291   2.156
 5366SOL    HW216998   4.990   6.200   2.021
 5367SOL     OW16999   0.843   6.549   0.554
 5367SOL    HW117000   0.831   6.450   0.542
 5367SOL    HW217001   0.831   6.595   0.467
 5368SOL     OW17002   5.167   0.270   3.002
 5368SOL    HW117003   5.126   0.334   3.067
 5368SOL    HW217004   5.206   0.192   3.050
 5369SOL     OW17005   3.041   6.410   2.080
 5369SOL    HW117006   3.128   6.454   2.101
 5369SOL    HW217007   3.058   6.317   2.045
 5370SOL     OW17008   4.335   3.081   1.735
 5370SOL    HW117009   4.334   3.039   1.645
 5370SOL    HW217010   4.415   3.050   1.786
 5371SOL     OW17011   1.203   4.017   4.937
 5371SOL    HW117012   1.230   3.921   4.926
 5371SOL    HW217013   1.275   4.066   4.986
 5372SOL     OW17014   2.644   6.121   4.187
 5372SOL    HW117015   2.737   6.087   4.201
 5372SOL    HW217016   2.631   6.204   4.242
 5373SOL     OW17017   3.713   7.006   4.303
 5373SOL    HW117018   3.768   6.977   4.381
 5373SOL    HW217019   3.631   6.950   4.297
 5374SOL     OW17020   1.268   4.012   0.189
 5374SOL    HW117021   1.282   4.067   0.272
 5374SOL    HW217022   1.176   4.030   0.153
 5375SOL     OW17023   1.766   4.956   4.704
 5375SOL    HW117024   1.692   4.889   4.705
 5375SOL    HW217025   1.854   4.909   4.691
 5376SOL     OW17026   1.188   2.974   1.027
 5376SOL    HW117027   1.249   2.950   0.951
 5376SOL    HW217028   1.178   2.894   1.088
 5377SOL     OW17029   0.465   0.125   2.481
 5377SOL    HW117030   0.406   0.197   2.444
 5377SOL    HW217031   0.531   0.096   2.411
 5378SOL     OW17032   6.908   0.691   1.652
 5378SOL    HW117033   6.810   0.673   1.648
 5378SOL    HW217034   6.943   0.709   1.560
 5379SOL     OW17035   1.367   4.641   5.010
 5379SOL    HW117036   1.337   4.576   5.079
 5379SOL    HW217037   1.416   4.716   5.055
 5380SOL     OW17038   2.239   1.959   2.967
 5380SOL    HW117039   2.333   1.974   2.938
 5380SOL    HW217040   2.228   1.989   3.062
 5381SOL     OW17041   6.544   4.166   1.721
 5381SOL    HW117042   6.498   4.083   1.688
 5381SOL    HW217043   6.640   4.147   1.738
 5382SOL     OW17044   3.058   0.781   1.971
 5382SOL    HW117045   2.996   0.826   1.908
 5382SOL    HW217046   3.069   0.837   2.053
 5383SOL     OW17047   2.377   2.327   5.521
 5383SOL    HW117048   2.310   2.398   5.506
 5383SOL    HW217049   2.332   2.244   5.555
 5384SOL     OW17050   6.266   0.000   5.145
 5384SOL    HW117051   6.199   6.965   5.092
 5384SOL    HW217052   6.219   0.067   5.202
 5385SOL     OW17053   3.064   3.336   4.069
 5385SOL    HW117054   3.046   3.340   3.971
 5385SOL    HW217055   3.136   3.400   4.093
 5386SOL     OW17056   4.665   0.145   4.223
 5386SOL    HW117057   4.667   0.088   4.141
 5386SOL    HW217058   4.590   0.115   4.283
 5387SOL     OW17059   2.348   6.606   3.423
 5387SOL    HW117060   2.421   6.670   3.401
 5387SOL    HW217061   2.267   6.656   3.452
 5388SOL     OW17062   6.921   0.610   4.243
 5388SOL    HW117063   6.890   0.602   4.338
 5388SOL    HW217064   6.999   0.672   4.239
 5389SOL     OW17065   4.536   1.157   2.496
 5389SOL    HW117066   4.439   1.147   2.519
 5389SOL    HW217067   4.545   1.186   2.401
 5390SOL     OW17068   4.539   4.446   3.053
 5390SOL    HW117069   4.569   4.352   3.034
 5390SOL    HW217070   4.617   4.501   3.080
 5391SOL     OW17071   1.943   2.567   1.051
 5391SOL    HW117072   1.946   2.468   1.067
 5391SOL    HW217073   1.998   2.589   0.970
 5392SOL     OW17074   5.588   3.088   1.581
 5392SOL    HW117075   5.656   3.088   1.507
 5392SOL    HW217076   5.497   3.076   1.543
 5393SOL     OW17077   5.060   6.800   6.332
 5393SOL    HW117078   5.126   6.840   6.396
 5393SOL    HW217079   4.985   6.759   6.384
 5394SOL     OW17080   6.937   4.777   6.656
 5394SOL    HW117081   0.009   4.734   6.642
 5394SOL    HW217082   6.869   4.732   6.598
 5395SOL     OW17083   5.253   0.932   1.698
 5395SOL    HW117084   5.271   1.030   1.701
 5395SOL    HW217085   5.168   0.915   1.649
 5396SOL     OW17086   4.486   4.715   2.089
 5396SOL    HW117087   4.549   4.766   2.030
 5396SOL    HW217088   4.404   4.692   2.038
 5397SOL     OW17089   0.260   2.194   1.376
 5397SOL    HW117090   0.258   2.143   1.463
 5397SOL    HW217091   0.189   2.158   1.315
 5398SOL     OW17092   3.512   1.984   3.367
 5398SOL    HW117093   3.453   1.903   3.376
 5398SOL    HW217094   3.577   1.986   3.443
 5399SOL     OW17095   2.626   5.791   0.384
 5399SOL    HW117096   2.650   5.784   0.287
 5399SOL    HW217097   2.696   5.747   0.439
 5400SOL     OW17098   2.474   3.952   0.765
 5400SOL    HW117099   2.403   3.895   0.724
 5400SOL    HW217100   2.485   3.929   0.861
 5401SOL     OW17101   5.654   3.365   1.181
 5401SOL    HW117102   5.561   3.328   1.181
 5401SOL    HW217103   5.674   3.402   1.272
 5402SOL     OW17104   2.526   5.152   1.584
 5402SOL    HW117105   2.591   5.189   1.651
 5402SOL    HW217106   2.515   5.054   1.599
 5403SOL     OW17107   5.933   2.606   6.151
 5403SOL    HW117108   5.978   2.630   6.065
 5403SOL    HW217109   5.954   2.511   6.174
 5404SOL     OW17110   0.540   0.883   2.236
 5404SOL    HW117111   0.546   0.934   2.150
 5404SOL    HW217112   0.494   0.796   2.219
 5405SOL     OW17113   5.807   6.128   0.485
 5405SOL    HW117114   5.864   6.189   0.541
 5405SOL    HW217115   5.865   6.082   0.418
 5406SOL     OW17116   2.748   0.133   6.599
 5406SOL    HW117117   2.657   0.168   6.621
 5406SOL    HW217118   2.801   0.126   6.684
 5407SOL     OW17119   4.703   2.735   1.264
 5407SOL    HW117120   4.685   2.717   1.361
 5407SOL    HW217121   4.777   2.676   1.232
 5408SOL     OW17122   3.468   1.402   5.960
 5408SOL    HW117123   3.374   1.398   5.925
 5408SOL    HW217124   3.466   1.408   6.060
 5409SOL     OW17125   6.079   1.298   4.323
 5409SOL    HW117126   6.021   1.222   4.352
 5409SOL    HW217127   6.069   1.374   4.387
 5410SOL     OW17128   1.647   3.002   1.334
 5410SOL    HW117129   1.670   2.988   1.238
 5410SOL    HW217130   1.686   3.088   1.366
 5411SOL     OW17131   6.721   4.593   5.921
 5411SOL    HW117132   6.655   4.664   5.896
 5411SOL    HW217133   6.695   4.553   6.008
 5412SOL     OW17134   4.179   0.804   6.647
 5412SOL    HW117135   4.193   0.863   6.726
 5412SOL    HW217136   4.241   0.832   6.573
 5413SOL     OW17137   1.531   0.065   0.861
 5413SOL    HW117138   1.480   6.999   0.840
 5413SOL    HW217139   1.474   0.125   0.917
 5414SOL     OW17140   6.282   3.085   4.754
 5414SOL    HW117141   6.212   3.153   4.732
 5414SOL    HW217142   6.362   3.099   4.694
 5415SOL     OW17143   1.170   6.374   1.462
 5415SOL    HW117144   1.132   6.410   1.547
 5415SOL    HW217145   1.270   6.373   1.467
 5416SOL     OW17146   3.720   4.734   6.373
 5416SOL    HW117147   3.728   4.760   6.470
 5416SOL    HW217148   3.776   4.795   6.318
 5417SOL     OW17149   3.890   6.583   5.181
 5417SOL    HW117150   3.861   6.679   5.184
 5417SOL    HW217151   3.809   6.524   5.187
 5418SOL     OW17152   4.071   6.699   4.484
 5418SOL    HW117153   4.059   6.721   4.388
 5418SOL    HW217154   4.112   6.608   4.493
 5419SOL     OW17155   3.321   5.469   0.308
 5419SOL    HW117156   3.355   5.377   0.329
 5419SOL    HW217157   3.312   5.521   0.393
 5420SOL     OW17158   1.517   2.356   1.948
 5420SOL    HW117159   1.565   2.295   1.886
 5420SOL    HW217160   1.583   2.412   1.999
 5421SOL     OW17161   2.160   3.925   2.532
 5421SOL    HW117162   2.081   3.931   2.593
 5421SOL    HW217163   2.172   3.830   2.503
 5422SOL     OW17164   0.595   6.224   5.969
 5422SOL    HW117165   0.518   6.205   5.907
 5422SOL    HW217166   0.560   6.240   6.061
 5423SOL     OW17167   5.367   2.872   6.861
 5423SOL    HW117168   5.335   2.782   6.832
 5423SOL    HW217169   5.316   2.943   6.812
 5424SOL     OW17170   5.342   2.823   4.309
 5424SOL    HW117171   5.369   2.919   4.313
 5424SOL    HW217172   5.245   2.814   4.333
 5425SOL     OW17173   4.607   2.064   4.351
 5425SOL    HW117174   4.576   2.012   4.431
 5425SOL    HW217175   4.532   2.120   4.316
 5426SOL     OW17176   6.600   5.294   3.991
 5426SOL    HW117177   6.583   5.393   3.991
 5426SOL    HW217178   6.695   5.276   4.014
 5427SOL     OW17179   5.295   5.136   1.038
 5427SOL    HW117180   5.247   5.049   1.033
 5427SOL    HW217181   5.251   5.196   1.105
 5428SOL     OW17182   6.961   0.441   1.853
 5428SOL    HW117183   6.957   0.513   1.922
 5428SOL    HW217184   6.899   0.463   1.778
 5429SOL     OW17185   1.026   1.585   5.959
 5429SOL    HW117186   1.045   1.628   5.870
 5429SOL    HW217187   0.933   1.608   5.988
 5430SOL     OW17188   0.732   3.087   5.323
 5430SOL    HW117189   0.642   3.114   5.291
 5430SOL    HW217190   0.799   3.156   5.298
 5431SOL     OW17191   3.417   5.784   6.529
 5431SOL    HW117192   3.417   5.857   6.598
 5431SOL    HW217193   3.428   5.824   6.438
 5432SOL     OW17194   3.933   6.424   6.510
 5432SOL    HW117195   3.953   6.521   6.495
 5432SOL    HW217196   3.835   6.413   6.527
 5433SOL     OW17197   0.333   1.369   3.602
 5433SOL    HW117198   0.409   1.433   3.610
 5433SOL    HW217199   0.278   1.372   3.685
 5434SOL     OW17200   3.988   1.243   4.389
 5434SOL    HW117201   3.923   1.287   4.326
 5434SOL    HW217202   3.993   1.296   4.474
 5435SOL     OW17203   5.811   1.677   1.549
 5435SOL    HW117204   5.899   1.680   1.501
 5435SOL    HW217205   5.825   1.639   1.640
 5436SOL     OW17206   5.112   4.404   4.271
 5436SOL    HW117207   5.102   4.439   4.365
 5436SOL    HW217208   5.167   4.321   4.272
 5437SOL     OW17209   2.604   5.132   5.797
 5437SOL    HW117210   2.615   5.130   5.897
 5437SOL    HW217211   2.559   5.048   5.767
 5438SOL     OW17212   5.524   3.811   2.892
 5438SOL    HW117213   5.520   3.741   2.820
 5438SOL    HW217214   5.613   3.856   2.890
 5439SOL     OW17215   0.561   2.442   0.791
 5439SOL    HW117216   0.571   2.491   0.877
 5439SOL    HW217217   0.505   2.495   0.728
 5440SOL     OW17218   0.680   0.233   1.898
 5440SOL    HW117219   0.649   0.253   1.806
 5440SOL    HW217220   0.718   0.316   1.939
 5441SOL     OW17221   5.065   2.805   3.225
 5441SOL    HW117222   5.075   2.904   3.219
 5441SOL    HW217223   5.150   2.761   3.196
 5442SOL     OW17224   3.585   6.249   3.508
 5442SOL    HW117225   3.571   6.150   3.499
 5442SOL    HW217226   3.518   6.286   3.572
 5443SOL     OW17227   2.563   0.609   3.460
 5443SOL    HW117228   2.545   0.550   3.381
 5443SOL    HW217229   2.602   0.695   3.429
 5444SOL     OW17230   1.507   0.792   3.899
 5444SOL    HW117231   1.440   0.788   3.825
 5444SOL    HW217232   1.540   0.886   3.908
 5445SOL     OW17233   5.860   4.194   4.035
 5445SOL    HW117234   5.924   4.120   4.015
 5445SOL    HW217235   5.865   4.218   4.132
 5446SOL     OW17236   6.342   5.208   5.386
 5446SOL    HW117237   6.387   5.178   5.470
 5446SOL    HW217238   6.322   5.129   5.328
 5447SOL     OW17239   1.611   2.097   6.922
 5447SOL    HW117240   1.636   2.007   6.956
 5447SOL    HW217241   1.567   2.150   6.995
 5448SOL     OW17242   5.544   3.219   4.715
 5448SOL    HW117243   5.464   3.265   4.676
 5448SOL    HW217244   5.529   3.121   4.717
 5449SOL     OW17245   1.804   2.293   6.770
 5449SOL    HW117246   1.753   2.226   6.824
 5449SOL    HW217247   1.807   2.264   6.675
 5450SOL     OW17248   2.004   0.283   2.202
 5450SOL    HW117249   1.923   0.225   2.200
 5450SOL    HW217250   2.084   0.228   2.228
 5451SOL     OW17251   1.199   5.648   3.859
 5451SOL    HW117252   1.146   5.581   3.912
 5451SOL    HW217253   1.232   5.720   3.920
 5452SOL     OW17254   1.965   4.606   0.088
 5452SOL    HW117255   1.911   4.573   0.010
 5452SOL    HW217256   2.018   4.530   0.125
 5453SOL     OW17257   5.298   4.291   1.791
 5453SOL    HW117258   5.278   4.262   1.698
 5453SOL    HW217259   5.232   4.251   1.854
 5454SOL     OW17260   6.485   3.982   5.745
 5454SOL    HW117261   6.385   3.977   5.749
 5454SOL    HW217262   6.520   3.896   5.707
 5455SOL     OW17263   5.989   2.947   1.669
 5455SOL    HW117264   6.016   2.985   1.580
 5455SOL    HW217265   5.977   3.021   1.735
 5456SOL     OW17266   2.611   0.591   6.759
 5456SOL    HW117267   2.571   0.675   6.721
 5456SOL    HW217268   2.698   0.612   6.802
 5457SOL     OW17269   6.705   2.717   0.592
 5457SOL    HW117270   6.611   2.683   0.596
 5457SOL    HW217271   6.760   2.667   0.659
 5458SOL     OW17272   0.499   4.009   0.596
 5458SOL    HW117273   0.539   4.100   0.605
 5458SOL    HW217274   0.429   3.996   0.667
 5459SOL     OW17275   1.875   4.260   6.710
 5459SOL    HW117276   1.826   4.318   6.645
 5459SOL    HW217277   1.949   4.212   6.662
 5460SOL     OW17278   3.995   0.363   3.136
 5460SOL    HW117279   4.051   0.281   3.126
 5460SOL    HW217280   4.053   0.441   3.156
 5461SOL     OW17281   6.278   0.147   5.668
 5461SOL    HW117282   6.370   0.166   5.701
 5461SOL    HW217283   6.255   0.051   5.687
 5462SOL     OW17284   0.241   0.120   0.634
 5462SOL    HW117285   0.157   0.155   0.592
 5462SOL    HW217286   0.308   0.194   0.642
 5463SOL     OW17287   6.781   1.709   0.656
 5463SOL    HW117288   6.877   1.702   0.682
 5463SOL    HW217289   6.737   1.780   0.709
 5464SOL     OW17290   0.821   0.973   4.654
 5464SOL    HW117291   0.741   0.916   4.675
 5464SOL    HW217292   0.905   0.922   4.674
 5465SOL     OW17293   4.136   0.068   3.722
 5465SOL    HW117294   4.055   0.104   3.677
 5465SOL    HW217295   4.123   0.069   3.822
 5466SOL     OW17296   5.239   2.806   4.778
 5466SOL    HW117297   5.316   2.822   4.839
 5466SOL    HW217298   5.220   2.708   4.773
 5467SOL     OW17299   5.159   3.536   3.340
 5467SOL    HW117300   5.139   3.471   3.267
 5467SOL    HW217301   5.098   3.520   3.417
 5468SOL     OW17302   5.917   2.906   3.913
 5468SOL    HW117303   5.897   2.956   3.829
 5468SOL    HW217304   5.888   2.811   3.902
 5469SOL     OW17305   3.111   6.234   6.449
 5469SOL    HW117306   3.064   6.224   6.536
 5469SOL    HW217307   3.083   6.319   6.405
 5470SOL     OW17308   3.382   5.688   3.133
 5470SOL    HW117309   3.433   5.665   3.216
 5470SOL    HW217310   3.285   5.665   3.147
 5471SOL     OW17311   5.258   6.997   3.068
 5471SOL    HW117312   5.279   6.985   3.165
 5471SOL    HW217313   5.342   7.015   3.018
 5472SOL     OW17314   4.108   3.810   5.970
 5472SOL    HW117315   4.030   3.858   5.927
 5472SOL    HW217316   4.130   3.854   6.057
 5473SOL     OW17317   0.151   3.037   2.263
 5473SOL    HW117318   0.251   3.032   2.262
 5473SOL    HW217319   0.117   3.036   2.168
 5474SOL     OW17320   0.910   4.996   3.965
 5474SOL    HW117321   0.987   4.987   4.029
 5474SOL    HW217322   0.942   5.041   3.882
 5475SOL     OW17323   2.263   2.981   1.716
 5475SOL    HW117324   2.319   3.063   1.732
 5475SOL    HW217325   2.173   3.009   1.683
 5476SOL     OW17326   2.321   4.743   5.732
 5476SOL    HW117327   2.310   4.694   5.645
 5476SOL    HW217328   2.266   4.827   5.730
 5477SOL     OW17329   2.578   4.640   2.914
 5477SOL    HW117330   2.643   4.667   2.985
 5477SOL    HW217331   2.556   4.719   2.857
 5478SOL     OW17332   3.624   5.160   4.914
 5478SOL    HW117333   3.546   5.206   4.957
 5478SOL    HW217334   3.640   5.072   4.959
 5479SOL     OW17335   5.469   1.406   6.412
 5479SOL    HW117336   5.422   1.389   6.325
 5479SOL    HW217337   5.563   1.373   6.406
 5480SOL     OW17338   6.264   4.606   2.606
 5480SOL    HW117339   6.201   4.528   2.601
 5480SOL    HW217340   6.260   4.646   2.698
 5481SOL     OW17341   4.424   1.679   4.403
 5481SOL    HW117342   4.388   1.586   4.393
 5481SOL    HW217343   4.508   1.689   4.349
 5482SOL     OW17344   3.341   4.588   1.634
 5482SOL    HW117345   3.413   4.595   1.703
 5482SOL    HW217346   3.285   4.507   1.653
 5483SOL     OW17347   0.730   1.827   5.780
 5483SOL    HW117348   0.699   1.864   5.692
 5483SOL    HW217349   0.794   1.891   5.822
 5484SOL     OW17350   4.074   1.521   4.270
 5484SOL    HW117351   4.110   1.613   4.257
 5484SOL    HW217352   4.141   1.466   4.321
 5485SOL     OW17353   3.668   6.828   5.433
 5485SOL    HW117354   3.670   6.772   5.350
 5485SOL    HW217355   3.593   6.895   5.426
 5486SOL     OW17356   2.693   5.751   5.383
 5486SOL    HW117357   2.737   5.661   5.389
 5486SOL    HW217358   2.657   5.776   5.473
 5487SOL     OW17359   4.234   3.027   6.957
 5487SOL    HW117360   4.171   3.074   0.000
 5487SOL    HW217361   4.184   2.961   6.901
 5488SOL     OW17362   6.366   0.076   1.069
 5488SOL    HW117363   6.268   0.080   1.087
 5488SOL    HW217364   6.415   0.057   1.154
 5489SOL     OW17365   0.531   4.568   1.901
 5489SOL    HW117366   0.626   4.589   1.878
 5489SOL    HW217367   0.528   4.491   1.965
 5490SOL     OW17368   3.207   0.507   2.758
 5490SOL    HW117369   3.290   0.522   2.812
 5490SOL    HW217370   3.165   0.420   2.785
 5491SOL     OW17371   0.850   3.202   0.103
 5491SOL    HW117372   0.852   3.148   0.187
 5491SOL    HW217373   0.873   3.297   0.122
 5492SOL     OW17374   0.719   3.962   6.600
 5492SOL    HW117375   0.691   3.911   6.518
 5492SOL    HW217376   0.740   4.056   6.575
 5493SOL     OW17377   2.942   3.256   3.847
 5493SOL    HW117378   2.871   3.185   3.845
 5493SOL    HW217379   3.014   3.232   3.783
 5494SOL     OW17380   0.176   3.327   5.707
 5494SOL    HW117381   0.248   3.274   5.660
 5494SOL    HW217382   0.191   3.424   5.691
 5495SOL     OW17383   6.221   1.041   0.805
 5495SOL    HW117384   6.182   1.122   0.760
 5495SOL    HW217385   6.308   1.018   0.762
 5496SOL     OW17386   3.843   0.381   3.361
 5496SOL    HW117387   3.890   0.388   3.273
 5496SOL    HW217388   3.905   0.341   3.428
 5497SOL     OW17389   1.027   0.894   4.983
 5497SOL    HW117390   0.997   0.985   4.953
 5497SOL    HW217391   1.071   0.847   4.907
 5498SOL     OW17392   6.928   5.381   2.005
 5498SOL    HW117393   6.958   5.471   2.036
 5498SOL    HW217394   6.959   5.367   1.911
 5499SOL     OW17395   1.399   0.671   4.777
 5499SOL    HW117396   1.360   0.623   4.699
 5499SOL    HW217397   1.347   0.648   4.860
 5500SOL     OW17398   1.074   0.816   0.095
 5500SOL    HW117399   1.017   0.880   0.043
 5500SOL    HW217400   1.098   0.738   0.038
 5501SOL     OW17401   3.709   2.248   0.037
 5501SOL    HW117402   3.797   2.206   0.017
 5501SOL    HW217403   3.716   2.347   0.025
 5502SOL     OW17404   5.367   3.937   6.769
 5502SOL    HW117405   5.316   4.020   6.744
 5502SOL    HW217406   5.392   3.942   6.866
 5503SOL     OW17407   6.760   4.862   0.919
 5503SOL    HW117408   6.830   4.901   0.978
 5503SOL    HW217409   6.744   4.766   0.944
 5504SOL     OW17410   4.502   1.052   5.072
 5504SOL    HW117411   4.411   1.014   5.058
 5504SOL    HW217412   4.543   1.013   5.154
 5505SOL     OW17413   2.129   4.551   3.733
 5505SOL    HW117414   2.216   4.544   3.783
 5505SOL    HW217415   2.060   4.496   3.779
 5506SOL     OW17416   0.071   3.454   1.164
 5506SOL    HW117417   0.152   3.405   1.197
 5506SOL    HW217418   0.094   3.501   1.079
 5507SOL     OW17419   4.051   0.892   4.664
 5507SOL    HW117420   4.024   0.796   4.672
 5507SOL    HW217421   3.970   0.947   4.641
 5508SOL     OW17422   1.083   1.783   0.298
 5508SOL    HW117423   1.123   1.872   0.322
 5508SOL    HW217424   1.070   1.729   0.381
 5509SOL     OW17425   0.588   5.928   6.896
 5509SOL    HW117426   0.647   5.972   6.964
 5509SOL    HW217427   0.601   5.972   6.807
 5510SOL     OW17428   4.118   5.471   6.660
 5510SOL    HW117429   4.091   5.386   6.615
 5510SOL    HW217430   4.117   5.546   6.593
 5511SOL     OW17431   1.406   0.924   4.378
 5511SOL    HW117432   1.459   1.009   4.371
 5511SOL    HW217433   1.453   0.851   4.329
 5512SOL     OW17434   4.503   2.131   0.718
 5512SOL    HW117435   4.466   2.144   0.810
 5512SOL    HW217436   4.553   2.044   0.714
 5513SOL     OW17437   3.802   5.165   5.841
 5513SOL    HW117438   3.858   5.219   5.779
 5513SOL    HW217439   3.740   5.226   5.891
 5514SOL     OW17440   3.437   0.845   4.646
 5514SOL    HW117441   3.429   0.942   4.626
 5514SOL    HW217442   3.346   0.808   4.669
 5515SOL     OW17443   0.712   5.530   2.043
 5515SOL    HW117444   0.772   5.550   2.121
 5515SOL    HW217445   0.734   5.591   1.967
 5516SOL     OW17446   1.764   2.504   4.467
 5516SOL    HW117447   1.772   2.604   4.463
 5516SOL    HW217448   1.839   2.467   4.522
 5517SOL     OW17449   2.033   3.508   2.168
 5517SOL    HW117450   1.993   3.445   2.234
 5517SOL    HW217451   2.123   3.473   2.140
 5518SOL     OW17452   5.832   5.275   6.586
 5518SOL    HW117453   5.737   5.254   6.608
 5518SOL    HW217454   5.889   5.195   6.603
 5519SOL     OW17455   5.596   2.835   3.143
 5519SOL    HW117456   5.528   2.860   3.212
 5519SOL    HW217457   5.640   2.917   3.108
 5520SOL     OW17458   5.380   6.946   2.473
 5520SOL    HW117459   5.429   6.997   2.403
 5520SOL    HW217460   5.283   6.970   2.469
 5521SOL     OW17461   5.083   6.483   1.906
 5521SOL    HW117462   4.992   6.467   1.944
 5521SOL    HW217463   5.148   6.500   1.981
 5522SOL     OW17464   6.584   5.360   1.042
 5522SOL    HW117465   6.619   5.278   1.088
 5522SOL    HW217466   6.579   5.435   1.107
 5523SOL     OW17467   4.342   0.674   1.871
 5523SOL    HW117468   4.292   0.719   1.797
 5523SOL    HW217469   4.281   0.657   1.948
 5524SOL     OW17470   3.680   6.933   4.952
 5524SOL    HW117471   3.605   6.911   4.891
 5524SOL    HW217472   3.705   0.013   4.941
 5525SOL     OW17473   1.260   2.519   0.145
 5525SOL    HW117474   1.232   2.601   0.095
 5525SOL    HW217475   1.272   2.540   0.241
 5526SOL     OW17476   4.840   4.675   2.781
 5526SOL    HW117477   4.781   4.625   2.717
 5526SOL    HW217478   4.834   4.773   2.761
 5527SOL     OW17479   4.926   3.670   3.801
 5527SOL    HW117480   4.951   3.581   3.838
 5527SOL    HW217481   4.903   3.732   3.876
 5528SOL     OW17482   1.560   1.020   1.003
 5528SOL    HW117483   1.574   0.926   0.974
 5528SOL    HW217484   1.470   1.028   1.047
 5529SOL     OW17485   3.220   6.904   4.637
 5529SOL    HW117486   3.317   6.909   4.660
 5529SOL    HW217487   3.176   6.833   4.693
 5530SOL     OW17488   6.561   2.007   1.229
 5530SOL    HW117489   6.627   1.987   1.301
 5530SOL    HW217490   6.488   1.940   1.231
 5531SOL     OW17491   3.673   3.429   1.260
 5531SOL    HW117492   3.702   3.432   1.356
 5531SOL    HW217493   3.656   3.334   1.233
 5532SOL     OW17494   1.182   3.257   1.038
 5532SOL    HW117495   1.134   3.170   1.042
 5532SOL    HW217496   1.211   3.276   0.944
 5533SOL     OW17497   4.602   1.462   3.694
 5533SOL    HW117498   4.546   1.449   3.612
 5533SOL    HW217499   4.692   1.421   3.679
 5534SOL     OW17500   1.077   1.742   0.017
 5534SOL    HW117501   1.060   1.754   0.115
 5534SOL    HW217502   1.018   1.804   6.982
 5535SOL     OW17503   1.296   1.498   2.851
 5535SOL    HW117504   1.387   1.503   2.810
 5535SOL    HW217505   1.294   1.552   2.935
 5536SOL     OW17506   3.925   0.329   3.855
 5536SOL    HW117507   3.835   0.297   3.885
 5536SOL    HW217508   3.915   0.416   3.806
 5537SOL     OW17509   3.361   1.310   2.030
 5537SOL    HW117510   3.285   1.326   2.092
 5537SOL    HW217511   3.447   1.317   2.080
 5538SOL     OW17512   4.093   5.485   5.334
 5538SOL    HW117513   3.995   5.488   5.356
 5538SOL    HW217514   4.105   5.481   5.235
 5539SOL     OW17515   1.208   3.939   1.829
 5539SOL    HW117516   1.228   3.924   1.732
 5539SOL    HW217517   1.120   3.985   1.838
 5540SOL     OW17518   4.507   4.779   3.874
 5540SOL    HW117519   4.561   4.717   3.930
 5540SOL    HW217520   4.559   4.863   3.858
 5541SOL     OW17521   5.060   0.157   6.484
 5541SOL    HW117522   5.009   0.148   6.570
 5541SOL    HW217523   5.126   0.083   6.476
 5542SOL     OW17524   4.239   3.618   6.339
 5542SOL    HW117525   4.245   3.527   6.382
 5542SOL    HW217526   4.170   3.616   6.266
 5543SOL     OW17527   4.797   4.022   6.557
 5543SOL    HW117528   4.717   3.975   6.519
 5543SOL    HW217529   4.866   3.955   6.584
 5544SOL     OW17530   4.891   5.910   6.377
 5544SOL    HW117531   4.841   5.843   6.432
 5544SOL    HW217532   4.961   5.862   6.323
 5545SOL     OW17533   4.856   1.203   2.969
 5545SOL    HW117534   4.822   1.126   3.023
 5545SOL    HW217535   4.807   1.205   2.881
 5546SOL     OW17536   0.761   4.878   4.901
 5546SOL    HW117537   0.696   4.954   4.907
 5546SOL    HW217538   0.711   4.793   4.884
 5547SOL     OW17539   2.541   6.570   5.503
 5547SOL    HW117540   2.534   6.649   5.443
 5547SOL    HW217541   2.470   6.504   5.480
 5548SOL     OW17542   6.111   3.772   5.547
 5548SOL    HW117543   6.055   3.746   5.468
 5548SOL    HW217544   6.141   3.689   5.594
 5549SOL     OW17545   3.833   4.975   0.227
 5549SOL    HW117546   3.851   4.930   0.140
 5549SOL    HW217547   3.738   5.007   0.228
 5550SOL     OW17548   2.869   5.657   1.805
 5550SOL    HW117549   2.860   5.699   1.895
 5550SOL    HW217550   2.932   5.711   1.749
 5551SOL     OW17551   1.829   0.858   2.908
 5551SOL    HW117552   1.776   0.929   2.954
 5551SOL    HW217553   1.904   0.828   2.967
 5552SOL     OW17554   0.036   1.839   0.126
 5552SOL    HW117555   6.995   1.838   0.207
 5552SOL    HW217556   0.131   1.831   0.153
 5553SOL     OW17557   3.552   6.605   0.423
 5553SOL    HW117558   3.603   6.566   0.500
 5553SOL    HW217559   3.564   6.705   0.423
 5554SOL     OW17560   2.660   1.926   5.744
 5554SOL    HW117561   2.599   1.847   5.747
 5554SOL    HW217562   2.632   1.988   5.671
 5555SOL     OW17563   0.782   5.964   3.681
 5555SOL    HW117564   0.782   5.866   3.699
 5555SOL    HW217565   0.725   6.011   3.749
 5556SOL     OW17566   0.198   2.303   4.662
 5556SOL    HW117567   0.172   2.392   4.699
 5556SOL    HW217568   0.237   2.315   4.571
 5557SOL     OW17569   2.883   5.819   4.348
 5557SOL    HW117570   2.791   5.816   4.310
 5557SOL    HW217571   2.946   5.768   4.289
 5558SOL     OW17572   4.816   3.337   5.250
 5558SOL    HW117573   4.793   3.426   5.209
 5558SOL    HW217574   4.848   3.275   5.178
 5559SOL     OW17575   2.403   6.845   1.845
 5559SOL    HW117576   2.420   6.754   1.883
 5559SOL    HW217577   2.455   6.913   1.898
 5560SOL     OW17578   6.807   6.777   3.335
 5560SOL    HW117579   6.743   6.704   3.360
 5560SOL    HW217580   6.771   6.827   3.256
 5561SOL     OW17581   1.309   2.564   4.340
 5561SOL    HW117582   1.402   2.526   4.333
 5561SOL    HW217583   1.257   2.540   4.258
 5562SOL     OW17584   1.687   2.180   6.469
 5562SOL    HW117585   1.716   2.109   6.405
 5562SOL    HW217586   1.602   2.151   6.514
 5563SOL     OW17587   4.894   6.496   2.137
 5563SOL    HW117588   4.949   6.579   2.140
 5563SOL    HW217589   4.866   6.470   2.229
 5564SOL     OW17590   4.963   2.830   1.505
 5564SOL    HW117591   4.992   2.832   1.600
 5564SOL    HW217592   4.869   2.796   1.499
 5565SOL     OW17593   4.371   2.715   5.954
 5565SOL    HW117594   4.426   2.657   5.894
 5565SOL    HW217595   4.293   2.662   5.988
 5566SOL     OW17596   1.423   5.631   1.172
 5566SOL    HW117597   1.427   5.594   1.265
 5566SOL    HW217598   1.502   5.600   1.120
 5567SOL     OW17599   1.362   5.225   1.078
 5567SOL    HW117600   1.265   5.202   1.065
 5567SOL    HW217601   1.416   5.182   1.005
 5568SOL     OW17602   4.458   2.666   1.142
 5568SOL    HW117603   4.524   2.708   1.205
 5568SOL    HW217604   4.506   2.637   1.059
 5569SOL     OW17605   4.327   1.595   1.768
 5569SOL    HW117606   4.263   1.640   1.830
 5569SOL    HW217607   4.277   1.538   1.703
 5570SOL     OW17608   6.256   4.551   4.872
 5570SOL    HW117609   6.313   4.505   4.804
 5570SOL    HW217610   6.187   4.606   4.825
 5571SOL     OW17611   0.266   6.076   0.814
 5571SOL    HW117612   0.249   6.139   0.738
 5571SOL    HW217613   0.183   6.024   0.833
 5572SOL     OW17614   3.799   2.136   6.650
 5572SOL    HW117615   3.735   2.194   6.699
 5572SOL    HW217616   3.883   2.126   6.704
 5573SOL     OW17617   1.408   3.271   0.446
 5573SOL    HW117618   1.498   3.280   0.402
 5573SOL    HW217619   1.336   3.277   0.377
 5574SOL     OW17620   0.231   0.048   4.649
 5574SOL    HW117621   0.262   0.070   4.557
 5574SOL    HW217622   0.138   0.013   4.646
 5575SOL     OW17623   1.634   0.772   1.326
 5575SOL    HW117624   1.679   0.773   1.236
 5575SOL    HW217625   1.536   0.760   1.314
 5576SOL     OW17626   6.283   5.325   1.391
 5576SOL    HW117627   6.363   5.265   1.388
 5576SOL    HW217628   6.300   5.406   1.335
 5577SOL     OW17629   2.258   3.409   5.354
 5577SOL    HW117630   2.313   3.343   5.405
 5577SOL    HW217631   2.319   3.477   5.313
 5578SOL     OW17632   2.999   2.656   0.205
 5578SOL    HW117633   3.027   2.649   0.110
 5578SOL    HW217634   2.965   2.567   0.236
 5579SOL     OW17635   5.026   3.845   6.630
 5579SOL    HW117636   5.000   3.775   6.696
 5579SOL    HW217637   5.069   3.801   6.550
 5580SOL     OW17638   4.810   2.264   0.486
 5580SOL    HW117639   4.809   2.256   0.386
 5580SOL    HW217640   4.746   2.197   0.525
 5581SOL     OW17641   2.397   0.422   6.753
 5581SOL    HW117642   2.477   0.482   6.750
 5581SOL    HW217643   2.327   0.463   6.811
 5582SOL     OW17644   3.282   3.817   3.930
 5582SOL    HW117645   3.318   3.851   3.843
 5582SOL    HW217646   3.217   3.883   3.967
 5583SOL     OW17647   3.729   6.270   2.542
 5583SOL    HW117648   3.698   6.183   2.582
 5583SOL    HW217649   3.649   6.320   2.507
 5584SOL     OW17650   5.650   4.122   3.130
 5584SOL    HW117651   5.609   4.101   3.041
 5584SOL    HW217652   5.578   4.151   3.193
 5585SOL     OW17653   5.750   0.820   3.787
 5585SOL    HW117654   5.764   0.752   3.715
 5585SOL    HW217655   5.711   0.903   3.748
 5586SOL     OW17656   1.703   1.615   6.070
 5586SOL    HW117657   1.798   1.635   6.048
 5586SOL    HW217658   1.694   1.519   6.097
 5587SOL     OW17659   3.294   0.626   3.463
 5587SOL    HW117660   3.330   0.719   3.476
 5587SOL    HW217661   3.291   0.578   3.551
 5588SOL     OW17662   2.541   6.724   5.204
 5588SOL    HW117663   2.521   6.784   5.127
 5588SOL    HW217664   2.473   6.737   5.276
 5589SOL     OW17665   4.984   2.716   5.904
 5589SOL    HW117666   4.972   2.768   5.989
 5589SOL    HW217667   5.050   2.643   5.919
 5590SOL     OW17668   6.306   5.683   4.106
 5590SOL    HW117669   6.262   5.614   4.048
 5590SOL    HW217670   6.254   5.694   4.190
 5591SOL     OW17671   5.809   0.592   0.436
 5591SOL    HW117672   5.881   0.620   0.373
 5591SOL    HW217673   5.827   0.499   0.469
 5592SOL     OW17674   1.763   3.927   4.090
 5592SOL    HW117675   1.760   3.880   4.002
 5592SOL    HW217676   1.771   3.859   4.163
 5593SOL     OW17677   0.485   2.580   5.925
 5593SOL    HW117678   0.571   2.562   5.876
 5593SOL    HW217679   0.503   2.581   6.023
 5594SOL     OW17680   2.266   0.824   0.364
 5594SOL    HW117681   2.269   0.905   0.305
 5594SOL    HW217682   2.352   0.774   0.356
 5595SOL     OW17683   6.313   0.940   5.922
 5595SOL    HW117684   6.275   0.976   5.838
 5595SOL    HW217685   6.240   0.898   5.977
 5596SOL     OW17686   5.738   0.381   2.562
 5596SOL    HW117687   5.773   0.443   2.491
 5596SOL    HW217688   5.807   0.371   2.634
 5597SOL     OW17689   5.629   1.864   6.452
 5597SOL    HW117690   5.720   1.879   6.415
 5597SOL    HW217691   5.633   1.860   6.552
 5598SOL     OW17692   5.366   1.642   4.071
 5598SOL    HW117693   5.354   1.675   4.165
 5598SOL    HW217694   5.320   1.703   4.007
 5599SOL     OW17695   5.652   3.926   1.456
 5599SOL    HW117696   5.675   3.829   1.453
 5599SOL    HW217697   5.650   3.957   1.551
 5600SOL     OW17698   2.081   0.592   3.047
 5600SOL    HW117699   2.160   0.593   3.108
 5600SOL    HW217700   1.997   0.599   3.101
 5601SOL     OW17701   5.561   3.368   5.701
 5601SOL    HW117702   5.520   3.442   5.647
 5601SOL    HW217703   5.606   3.407   5.781
 5602SOL     OW17704   0.514   2.221   2.904
 5602SOL    HW117705   0.611   2.245   2.906
 5602SOL    HW217706   0.503   2.129   2.869
 5603SOL     OW17707   4.498   3.045   5.369
 5603SOL    HW117708   4.551   3.030   5.286
 5603SOL    HW217709   4.404   3.016   5.354
 5604SOL     OW17710   1.463   0.074   4.294
 5604SOL    HW117711   1.529   0.043   4.361
 5604SOL    HW217712   1.392   0.004   4.281
 5605SOL     OW17713   1.562   6.803   4.309
 5605SOL    HW117714   1.525   6.839   4.224
 5605SOL    HW217715   1.520   6.714   4.329
 5606SOL     OW17716   5.331   1.602   0.367
 5606SOL    HW117717   5.296   1.603   0.460
 5606SOL    HW217718   5.301   1.519   0.321
 5607SOL     OW17719   6.130   2.288   3.411
 5607SOL    HW117720   6.218   2.239   3.412
 5607SOL    HW217721   6.143   2.377   3.368
 5608SOL     OW17722   5.450   0.618   3.777
 5608SOL    HW117723   5.533   0.597   3.726
 5608SOL    HW217724   5.400   0.692   3.731
 5609SOL     OW17725   5.301   6.631   0.149
 5609SOL    HW117726   5.376   6.585   0.102
 5609SOL    HW217727   5.267   6.573   0.223
 5610SOL     OW17728   5.259   3.663   6.910
 5610SOL    HW117729   5.273   3.705   6.820
 5610SOL    HW217730   5.306   3.575   6.914
 5611SOL     OW17731   0.756   4.875   1.581
 5611SOL    HW117732   0.750   4.881   1.481
 5611SOL    HW217733   0.671   4.908   1.622
 5612SOL     OW17734   2.440   2.110   0.369
 5612SOL    HW117735   2.361   2.085   0.314
 5612SOL    HW217736   2.409   2.147   0.457
 5613SOL     OW17737   6.942   5.296   4.913
 5613SOL    HW117738   0.014   5.324   4.875
 5613SOL    HW217739   6.874   5.365   4.893
 5614SOL     OW17740   5.614   1.971   5.086
 5614SOL    HW117741   5.567   2.040   5.032
 5614SOL    HW217742   5.701   1.947   5.042
 5615SOL     OW17743   0.600   2.584   2.416
 5615SOL    HW117744   0.509   2.590   2.376
 5615SOL    HW217745   0.632   2.675   2.441
 5616SOL     OW17746   1.586   2.819   4.209
 5616SOL    HW117747   1.560   2.732   4.168
 5616SOL    HW217748   1.572   2.892   4.143
 5617SOL     OW17749   1.711   4.915   5.964
 5617SOL    HW117750   1.749   4.936   5.874
 5617SOL    HW217751   1.612   4.931   5.963
 5618SOL     OW17752   6.594   5.020   4.325
 5618SOL    HW117753   6.592   5.021   4.225
 5618SOL    HW217754   6.666   5.082   4.357
 5619SOL     OW17755   3.281   2.968   3.573
 5619SOL    HW117756   3.285   2.925   3.483
 5619SOL    HW217757   3.361   2.940   3.627
 5620SOL     OW17758   4.320   4.077   6.307
 5620SOL    HW117759   4.292   4.173   6.315
 5620SOL    HW217760   4.397   4.071   6.244
 5621SOL     OW17761   1.863   2.933   5.712
 5621SOL    HW117762   1.918   2.870   5.658
 5621SOL    HW217763   1.874   2.912   5.809
 5622SOL     OW17764   4.515   5.602   4.814
 5622SOL    HW117765   4.553   5.527   4.760
 5622SOL    HW217766   4.501   5.681   4.755
 5623SOL     OW17767   4.966   6.122   4.101
 5623SOL    HW117768   4.952   6.099   4.004
 5623SOL    HW217769   5.010   6.045   4.147
 5624SOL     OW17770   6.944   5.461   3.937
 5624SOL    HW117771   6.915   5.439   3.844
 5624SOL    HW217772   6.894   5.404   4.002
 5625SOL     OW17773   1.833   5.247   4.483
 5625SOL    HW117774   1.738   5.278   4.484
 5625SOL    HW217775   1.838   5.157   4.526
 5626SOL     OW17776   2.049   4.363   4.235
 5626SOL    HW117777   1.967   4.420   4.243
 5626SOL    HW217778   2.130   4.421   4.248
 5627SOL     OW17779   0.911   5.989   6.696
 5627SOL    HW117780   1.004   6.027   6.688
 5627SOL    HW217781   0.877   6.004   6.789
 5628SOL     OW17782   2.958   3.236   0.605
 5628SOL    HW117783   2.988   3.310   0.665
 5628SOL    HW217784   2.859   3.238   0.596
 5629SOL     OW17785   4.090   3.892   1.051
 5629SOL    HW117786   4.165   3.882   1.116
 5629SOL    HW217787   4.074   3.805   1.005
 5630SOL     OW17788   1.432   4.191   6.485
 5630SOL    HW117789   1.439   4.136   6.568
 5630SOL    HW217790   1.524   4.219   6.456
 5631SOL     OW17791   5.014   0.819   1.620
 5631SOL    HW117792   4.998   0.720   1.616
 5631SOL    HW217793   4.933   0.865   1.655
 5632SOL     OW17794   5.253   0.627   6.237
 5632SOL    HW117795   5.249   0.631   6.137
 5632SOL    HW217796   5.345   0.649   6.267
 5633SOL     OW17797   0.420   4.694   5.274
 5633SOL    HW117798   0.499   4.679   5.215
 5633SOL    HW217799   0.398   4.791   5.278
 5634SOL     OW17800   2.950   5.566   5.805
 5634SOL    HW117801   2.941   5.476   5.847
 5634SOL    HW217802   3.046   5.596   5.812
 5635SOL     OW17803   2.892   0.162   6.829
 5635SOL    HW117804   2.976   0.199   6.868
 5635SOL    HW217805   2.818   0.169   6.896
 5636SOL     OW17806   6.313   1.067   5.668
 5636SOL    HW117807   6.232   1.125   5.679
 5636SOL    HW217808   6.374   1.108   5.600
 5637SOL     OW17809   5.691   5.704   4.872
 5637SOL    HW117810   5.702   5.730   4.776
 5637SOL    HW217811   5.593   5.700   4.893
 5638SOL     OW17812   5.217   5.597   1.271
 5638SOL    HW117813   5.296   5.539   1.292
 5638SOL    HW217814   5.247   5.690   1.252
 5639SOL     OW17815   1.689   0.247   1.693
 5639SOL    HW117816   1.655   0.167   1.644
 5639SOL    HW217817   1.788   0.241   1.704
 5640SOL     OW17818   2.531   6.626   3.022
 5640SOL    HW117819   2.568   6.533   3.021
 5640SOL    HW217820   2.575   6.681   2.952
 5641SOL     OW17821   1.327   4.437   5.372
 5641SOL    HW117822   1.399   4.433   5.303
 5641SOL    HW217823   1.289   4.345   5.386
 5642SOL     OW17824   0.822   4.884   5.893
 5642SOL    HW117825   0.739   4.901   5.945
 5642SOL    HW217826   0.902   4.888   5.953
 5643SOL     OW17827   3.606   1.950   4.744
 5643SOL    HW117828   3.697   1.952   4.703
 5643SOL    HW217829   3.549   2.020   4.702
 5644SOL     OW17830   5.063   1.629   4.628
 5644SOL    HW117831   5.044   1.562   4.699
 5644SOL    HW217832   5.030   1.594   4.540
 5645SOL     OW17833   5.259   4.713   2.565
 5645SOL    HW117834   5.322   4.642   2.534
 5645SOL    HW217835   5.299   4.803   2.547
 5646SOL     OW17836   0.762   5.701   3.720
 5646SOL    HW117837   0.820   5.625   3.750
 5646SOL    HW217838   0.667   5.682   3.742
 5647SOL     OW17839   0.070   5.948   6.829
 5647SOL    HW117840   0.167   5.938   6.852
 5647SOL    HW217841   0.036   6.036   6.862
 5648SOL     OW17842   1.898   1.237   3.437
 5648SOL    HW117843   1.887   1.163   3.370
 5648SOL    HW217844   1.887   1.325   3.391
 5649SOL     OW17845   2.078   0.479   4.931
 5649SOL    HW117846   2.051   0.527   5.014
 5649SOL    HW217847   2.008   0.493   4.860
 5650SOL     OW17848   0.185   4.910   0.946
 5650SOL    HW117849   0.237   4.965   1.011
 5650SOL    HW217850   0.228   4.916   0.856
 5651SOL     OW17851   0.663   2.214   1.614
 5651SOL    HW117852   0.717   2.185   1.535
 5651SOL    HW217853   0.719   2.209   1.697
 5652SOL     OW17854   5.105   5.969   1.961
 5652SOL    HW117855   5.176   6.006   1.902
 5652SOL    HW217856   5.033   5.927   1.906
 5653SOL     OW17857   6.933   6.308   5.990
 5653SOL    HW117858   7.008   6.250   5.959
 5653SOL    HW217859   6.904   6.368   5.916
 5654SOL     OW17860   0.358   0.229   5.962
 5654SOL    HW117861   0.278   0.178   5.930
 5654SOL    HW217862   0.424   0.237   5.887
 5655SOL     OW17863   0.977   2.908   4.376
 5655SOL    HW117864   0.999   2.933   4.281
 5655SOL    HW217865   1.057   2.866   4.418
 5656SOL     OW17866   2.784   4.138   0.860
 5656SOL    HW117867   2.763   4.085   0.777
 5656SOL    HW217868   2.700   4.172   0.901
 5657SOL     OW17869   5.149   6.241   1.493
 5657SOL    HW117870   5.203   6.157   1.484
 5657SOL    HW217871   5.112   6.248   1.585
 5658SOL     OW17872   3.156   6.976   5.924
 5658SOL    HW117873   3.108   0.038   5.885
 5658SOL    HW217874   3.100   6.933   5.994
 5659SOL     OW17875   3.095   3.033   2.747
 5659SOL    HW117876   3.109   3.038   2.649
 5659SOL    HW217877   3.083   3.125   2.784
 5660SOL     OW17878   5.247   0.310   0.330
 5660SOL    HW117879   5.346   0.301   0.342
 5660SOL    HW217880   5.227   0.331   0.235
 5661SOL     OW17881   0.140   5.754   5.438
 5661SOL    HW117882   0.090   5.708   5.365
 5661SOL    HW217883   0.232   5.716   5.446
 5662SOL     OW17884   2.680   5.090   4.405
 5662SOL    HW117885   2.691   5.120   4.311
 5662SOL    HW217886   2.669   5.169   4.465
 5663SOL     OW17887   0.753   4.182   0.546
 5663SOL    HW117888   0.787   4.089   0.530
 5663SOL    HW217889   0.723   4.222   0.460
 5664SOL     OW17890   0.478   4.208   3.486
 5664SOL    HW117891   0.408   4.220   3.557
 5664SOL    HW217892   0.438   4.160   3.408
 5665SOL     OW17893   1.602   1.788   6.611
 5665SOL    HW117894   1.549   1.863   6.651
 5665SOL    HW217895   1.545   1.735   6.549
 5666SOL     OW17896   4.974   5.733   0.853
 5666SOL    HW117897   4.882   5.695   0.861
 5666SOL    HW217898   5.029   5.702   0.931
 5667SOL     OW17899   0.857   4.687   3.234
 5667SOL    HW117900   0.782   4.632   3.199
 5667SOL    HW217901   0.941   4.632   3.235
 5668SOL     OW17902   5.872   1.642   6.765
 5668SOL    HW117903   5.922   1.592   6.694
 5668SOL    HW217904   5.892   1.603   6.855
 5669SOL     OW17905   0.154   4.680   6.062
 5669SOL    HW117906   0.123   4.725   5.978
 5669SOL    HW217907   0.098   4.710   6.139
 5670SOL     OW17908   6.684   3.103   3.890
 5670SOL    HW117909   6.705   3.174   3.957
 5670SOL    HW217910   6.598   3.058   3.915
 5671SOL     OW17911   1.292   6.992   6.462
 5671SOL    HW117912   1.208   6.972   6.412
 5671SOL    HW217913   1.269   0.012   6.552
 5672SOL     OW17914   4.507   4.134   6.051
 5672SOL    HW117915   4.553   4.065   5.995
 5672SOL    HW217916   4.442   4.185   5.995
 5673SOL     OW17917   0.254   6.930   2.074
 5673SOL    HW117918   0.235   6.843   2.027
 5673SOL    HW217919   0.321   6.982   2.021
 5674SOL     OW17920   6.933   4.183   2.065
 5674SOL    HW117921   6.861   4.245   2.097
 5674SOL    HW217922   6.934   4.101   2.121
 5675SOL     OW17923   4.258   2.643   5.560
 5675SOL    HW117924   4.345   2.636   5.611
 5675SOL    HW217925   4.202   2.715   5.600
 5676SOL     OW17926   2.385   1.154   1.164
 5676SOL    HW117927   2.321   1.163   1.240
 5676SOL    HW217928   2.334   1.134   1.080
 5677SOL     OW17929   0.220   1.617   3.209
 5677SOL    HW117930   0.264   1.703   3.235
 5677SOL    HW217931   0.148   1.635   3.143
 5678SOL     OW17932   3.331   5.926   3.355
 5678SOL    HW117933   3.275   6.007   3.336
 5678SOL    HW217934   3.275   5.843   3.344
 5679SOL     OW17935   1.816   6.203   4.676
 5679SOL    HW117936   1.911   6.180   4.694
 5679SOL    HW217937   1.804   6.221   4.578
 5680SOL     OW17938   1.499   5.851   0.093
 5680SOL    HW117939   1.558   5.889   0.164
 5680SOL    HW217940   1.495   5.752   0.102
 5681SOL     OW17941   1.226   3.366   6.545
 5681SOL    HW117942   1.262   3.407   6.629
 5681SOL    HW217943   1.139   3.409   6.522
 5682SOL     OW17944   2.024   3.519   5.638
 5682SOL    HW117945   2.033   3.575   5.555
 5682SOL    HW217946   2.088   3.552   5.707
 5683SOL     OW17947   4.105   2.580   6.030
 5683SOL    HW117948   4.041   2.642   6.074
 5683SOL    HW217949   4.056   2.499   5.997
 5684SOL     OW17950   4.165   3.506   4.596
 5684SOL    HW117951   4.148   3.573   4.668
 5684SOL    HW217952   4.206   3.425   4.636
 5685SOL     OW17953   0.813   4.852   2.070
 5685SOL    HW117954   0.805   4.762   2.028
 5685SOL    HW217955   0.904   4.889   2.052
 5686SOL     OW17956   3.259   0.723   0.363
 5686SOL    HW117957   3.193   0.731   0.438
 5686SOL    HW217958   3.352   0.722   0.400
 5687SOL     OW17959   6.312   4.122   4.640
 5687SOL    HW117960   6.227   4.134   4.590
 5687SOL    HW217961   6.378   4.074   4.582
 5688SOL     OW17962   6.700   1.912   0.820
 5688SOL    HW117963   6.664   1.986   0.763
 5688SOL    HW217964   6.624   1.859   0.858
 5689SOL     OW17965   3.898   1.519   0.586
 5689SOL    HW117966   3.935   1.600   0.541
 5689SOL    HW217967   3.965   1.484   0.652
 5690SOL     OW17968   3.323   5.907   0.771
 5690SOL    HW117969   3.382   5.854   0.710
 5690SOL    HW217970   3.284   5.984   0.720
 5691SOL     OW17971   3.004   6.131   2.016
 5691SOL    HW117972   3.063   6.089   1.947
 5691SOL    HW217973   3.038   6.108   2.108
 5692SOL     OW17974   6.707   2.188   6.550
 5692SOL    HW117975   6.795   2.230   6.570
 5692SOL    HW217976   6.690   2.113   6.613
 5693SOL     OW17977   5.043   2.621   2.149
 5693SOL    HW117978   4.991   2.699   2.116
 5693SOL    HW217979   5.007   2.537   2.108
 5694SOL     OW17980   0.809   1.584   3.711
 5694SOL    HW117981   0.827   1.573   3.613
 5694SOL    HW217982   0.890   1.555   3.762
 5695SOL     OW17983   1.171   2.251   3.423
 5695SOL    HW117984   1.241   2.198   3.470
 5695SOL    HW217985   1.082   2.207   3.434
 5696SOL     OW17986   2.679   0.885   4.372
 5696SOL    HW117987   2.663   0.875   4.273
 5696SOL    HW217988   2.650   0.802   4.419
 5697SOL     OW17989   6.665   2.142   1.676
 5697SOL    HW117990   6.604   2.217   1.653
 5697SOL    HW217991   6.633   2.095   1.758
 5698SOL     OW17992   0.382   2.318   2.298
 5698SOL    HW117993   0.373   2.284   2.391
 5698SOL    HW217994   0.373   2.418   2.298
 5699SOL     OW17995   6.036   1.404   3.909
 5699SOL    HW117996   6.057   1.484   3.852
 5699SOL    HW217997   5.984   1.433   3.989
 5700SOL     OW17998   6.970   5.891   4.761
 5700SOL    HW117999   0.030   5.889   4.698
 5700SOL    HW218000   6.992   5.952   4.838
 5701SOL     OW18001   1.052   5.589   3.187
 5701SOL    HW118002   0.967   5.642   3.191
 5701SOL    HW218003   1.048   5.527   3.109
 5702SOL     OW18004   2.044   0.208   5.930
 5702SOL    HW118005   1.994   0.155   5.999
 5702SOL    HW218006   2.140   0.180   5.929
 5703SOL     OW18007   4.826   4.780   0.380
 5703SOL    HW118008   4.764   4.830   0.440
 5703SOL    HW218009   4.776   4.706   0.335
 5704SOL     OW18010   4.253   5.702   2.517
 5704SOL    HW118011   4.241   5.796   2.484
 5704SOL    HW218012   4.302   5.703   2.604
 5705SOL     OW18013   6.083   1.313   0.443
 5705SOL    HW118014   6.065   1.292   0.539
 5705SOL    HW218015   5.996   1.326   0.395
 5706SOL     OW18016   1.666   1.714   0.268
 5706SOL    HW118017   1.723   1.754   0.340
 5706SOL    HW218018   1.572   1.703   0.302
 5707SOL     OW18019   1.140   6.942   0.047
 5707SOL    HW118020   1.138   6.860   7.007
 5707SOL    HW218021   1.102   0.002   7.012
 5708SOL     OW18022   5.392   0.067   2.045
 5708SOL    HW118023   5.353   0.069   1.953
 5708SOL    HW218024   5.319   0.070   2.112
 5709SOL     OW18025   0.696   6.018   3.429
 5709SOL    HW118026   0.653   5.950   3.371
 5709SOL    HW218027   0.724   5.976   3.516
 5710SOL     OW18028   2.571   3.479   5.343
 5710SOL    HW118029   2.671   3.480   5.344
 5710SOL    HW218030   2.536   3.572   5.356
 5711SOL     OW18031   4.813   0.387   3.054
 5711SOL    HW118032   4.848   0.296   3.073
 5711SOL    HW218033   4.809   0.403   2.955
 5712SOL     OW18034   1.092   6.831   5.370
 5712SOL    HW118035   1.015   6.815   5.308
 5712SOL    HW218036   1.129   6.923   5.353
 5713SOL     OW18037   0.878   2.423   1.250
 5713SOL    HW118038   0.805   2.398   1.187
 5713SOL    HW218039   0.876   2.361   1.329
 5714SOL     OW18040   1.384   6.654   6.855
 5714SOL    HW118041   1.403   6.567   6.809
 5714SOL    HW218042   1.441   6.662   6.936
 5715SOL     OW18043   0.819   5.756   3.164
 5715SOL    HW118044   0.724   5.758   3.196
 5715SOL    HW218045   0.822   5.770   3.066
 5716SOL     OW18046   0.551   4.037   5.307
 5716SOL    HW118047   0.538   3.985   5.222
 5716SOL    HW218048   0.462   4.066   5.342
 5717SOL     OW18049   1.851   5.219   0.070
 5717SOL    HW118050   1.876   5.129   0.034
 5717SOL    HW218051   1.778   5.258   0.016
 5718SOL     OW18052   1.665   4.480   6.584
 5718SOL    HW118053   1.658   4.394   6.532
 5718SOL    HW218054   1.662   4.557   6.521
 5719SOL     OW18055   2.931   0.948   5.686
 5719SOL    HW118056   3.014   0.906   5.723
 5719SOL    HW218057   2.916   1.036   5.730
 5720SOL     OW18058   0.293   5.121   4.733
 5720SOL    HW118059   0.283   5.081   4.824
 5720SOL    HW218060   0.377   5.175   4.729
 5721SOL     OW18061   0.604   3.771   0.255
 5721SOL    HW118062   0.619   3.705   0.182
 5721SOL    HW218063   0.552   3.728   0.329
 5722SOL     OW18064   5.279   1.539   5.114
 5722SOL    HW118065   5.272   1.529   5.015
 5722SOL    HW218066   5.219   1.614   5.144
 5723SOL     OW18067   4.430   4.191   0.523
 5723SOL    HW118068   4.371   4.266   0.553
 5723SOL    HW218069   4.525   4.223   0.517
 5724SOL     OW18070   3.888   2.439   5.328
 5724SOL    HW118071   3.949   2.511   5.294
 5724SOL    HW218072   3.800   2.479   5.353
 5725SOL     OW18073   5.051   5.756   3.532
 5725SOL    HW118074   5.012   5.684   3.591
 5725SOL    HW218075   4.988   5.834   3.529
 5726SOL     OW18076   6.193   3.210   3.866
 5726SOL    HW118077   6.196   3.125   3.917
 5726SOL    HW218078   6.273   3.265   3.888
 5727SOL     OW18079   5.900   3.344   3.018
 5727SOL    HW118080   5.805   3.324   2.998
 5727SOL    HW218081   5.910   3.367   3.115
 5728SOL     OW18082   5.018   1.601   6.585
 5728SOL    HW118083   5.068   1.578   6.668
 5728SOL    HW218084   5.077   1.588   6.505
 5729SOL     OW18085   1.236   1.567   1.345
 5729SOL    HW118086   1.286   1.481   1.355
 5729SOL    HW218087   1.143   1.555   1.379
 5730SOL     OW18088   4.468   5.469   5.252
 5730SOL    HW118089   4.568   5.472   5.247
 5730SOL    HW218090   4.439   5.486   5.346
 5731SOL     OW18091   1.885   6.684   3.465
 5731SOL    HW118092   1.857   6.611   3.528
 5731SOL    HW218093   1.985   6.691   3.464
 5732SOL     OW18094   5.895   5.102   5.078
 5732SOL    HW118095   5.858   5.128   5.167
 5732SOL    HW218096   5.900   5.002   5.072
 5733SOL     OW18097   3.648   1.240   5.625
 5733SOL    HW118098   3.644   1.162   5.687
 5733SOL    HW218099   3.559   1.286   5.623
 5734SOL     OW18100   0.861   6.619   5.784
 5734SOL    HW118101   0.918   6.678   5.727
 5734SOL    HW218102   0.773   6.664   5.801
 5735SOL     OW18103   4.170   0.928   2.042
 5735SOL    HW118104   4.255   0.960   2.085
 5735SOL    HW218105   4.175   0.829   2.030
 5736SOL     OW18106   5.447   4.261   6.913
 5736SOL    HW118107   5.436   4.172   6.958
 5736SOL    HW218108   5.544   4.287   6.914
 5737SOL     OW18109   5.355   6.119   1.122
 5737SOL    HW118110   5.381   6.189   1.188
 5737SOL    HW218111   5.383   6.147   1.030
 5738SOL     OW18112   3.691   1.463   6.538
 5738SOL    HW118113   3.683   1.364   6.548
 5738SOL    HW218114   3.678   1.506   6.627
 5739SOL     OW18115   1.692   6.810   5.531
 5739SOL    HW118116   1.746   6.871   5.473
 5739SOL    HW218117   1.672   6.726   5.481
 5740SOL     OW18118   4.248   3.414   1.026
 5740SOL    HW118119   4.222   3.410   1.122
 5740SOL    HW218120   4.231   3.325   0.983
 5741SOL     OW18121   6.822   3.592   3.869
 5741SOL    HW118122   6.737   3.601   3.921
 5741SOL    HW218123   6.895   3.641   3.916
 5742SOL     OW18124   4.146   6.942   3.087
 5742SOL    HW118125   4.125   6.901   2.998
 5742SOL    HW218126   4.061   6.968   3.132
 5743SOL     OW18127   3.450   5.334   5.600
 5743SOL    HW118128   3.403   5.392   5.667
 5743SOL    HW218129   3.455   5.240   5.635
 5744SOL     OW18130   5.556   1.083   2.738
 5744SOL    HW118131   5.551   1.100   2.640
 5744SOL    HW218132   5.541   0.985   2.755
 5745SOL     OW18133   2.556   1.488   4.205
 5745SOL    HW118134   2.573   1.391   4.220
 5745SOL    HW218135   2.641   1.539   4.216
 5746SOL     OW18136   4.677   6.963   2.685
 5746SOL    HW118137   4.738   0.018   2.721
 5746SOL    HW218138   4.713   6.931   2.598
 5747SOL     OW18139   0.059   6.274   1.526
 5747SOL    HW118140   0.150   6.292   1.563
 5747SOL    HW218141   0.000   6.353   1.543
 5748SOL     OW18142   1.091   0.242   1.190
 5748SOL    HW118143   1.086   0.304   1.112
 5748SOL    HW218144   0.998   0.221   1.222
 5749SOL     OW18145   1.472   5.923   4.704
 5749SOL    HW118146   1.418   5.857   4.757
 5749SOL    HW218147   1.542   5.963   4.762
 5750SOL     OW18148   6.039   5.354   5.635
 5750SOL    HW118149   6.097   5.287   5.681
 5750SOL    HW218150   6.035   5.333   5.537
 5751SOL     OW18151   1.443   3.812   4.586
 5751SOL    HW118152   1.491   3.887   4.540
 5751SOL    HW218153   1.451   3.729   4.532
 5752SOL     OW18154   5.796   0.054   1.056
 5752SOL    HW118155   5.851   6.992   1.086
 5752SOL    HW218156   5.699   0.032   1.062
 5753SOL     OW18157   3.220   3.423   4.705
 5753SOL    HW118158   3.141   3.369   4.676
 5753SOL    HW218159   3.303   3.368   4.694
 5754SOL     OW18160   0.801   5.661   1.779
 5754SOL    HW118161   0.789   5.761   1.779
 5754SOL    HW218162   0.844   5.633   1.694
 5755SOL     OW18163   1.743   2.277   5.570
 5755SOL    HW118164   1.685   2.241   5.497
 5755SOL    HW218165   1.723   2.229   5.656
 5756SOL     OW18166   6.629   0.259   3.355
 5756SOL    HW118167   6.602   0.228   3.447
 5756SOL    HW218168   6.681   0.343   3.362
 5757SOL     OW18169   0.507   5.612   3.794
 5757SOL    HW118170   0.485   5.538   3.730
 5757SOL    HW218171   0.433   5.620   3.861
 5758SOL     OW18172   2.577   0.833   3.226
 5758SOL    HW118173   2.570   0.928   3.197
 5758SOL    HW218174   2.642   0.784   3.168
 5759SOL     OW18175   4.645   0.505   0.718
 5759SOL    HW118176   4.722   0.455   0.678
 5759SOL    HW218177   4.592   0.445   0.777
 5760SOL     OW18178   6.569   2.514   2.048
 5760SOL    HW118179   6.596   2.526   2.144
 5760SOL    HW218180   6.548   2.604   2.009
 5761SOL     OW18181   5.545   5.272   5.412
 5761SOL    HW118182   5.609   5.347   5.424
 5761SOL    HW218183   5.526   5.258   5.315
 5762SOL     OW18184   4.689   4.271   0.483
 5762SOL    HW118185   4.713   4.174   0.483
 5762SOL    HW218186   4.716   4.312   0.396
 5763SOL     OW18187   5.783   6.437   0.825
 5763SOL    HW118188   5.690   6.440   0.790
 5763SOL    HW218189   5.797   6.353   0.877
 5764SOL     OW18190   4.414   5.604   4.187
 5764SOL    HW118191   4.347   5.545   4.142
 5764SOL    HW218192   4.497   5.551   4.207
 5765SOL     OW18193   6.512   3.678   0.759
 5765SOL    HW118194   6.554   3.666   0.849
 5765SOL    HW218195   6.512   3.590   0.710
 5766SOL     OW18196   2.093   1.578   4.939
 5766SOL    HW118197   2.086   1.555   4.842
 5766SOL    HW218198   2.117   1.675   4.948
 5767SOL     OW18199   2.524   0.342   0.073
 5767SOL    HW118200   2.531   0.245   0.050
 5767SOL    HW218201   2.477   0.352   0.161
 5768SOL     OW18202   0.797   6.928   3.423
 5768SOL    HW118203   0.854   6.865   3.370
 5768SOL    HW218204   0.781   6.889   3.514
 5769SOL     OW18205   3.019   5.922   5.038
 5769SOL    HW118206   2.921   5.934   5.056
 5769SOL    HW218207   3.041   5.824   5.037
 5770SOL     OW18208   6.914   6.615   6.809
 5770SOL    HW118209   6.871   6.588   6.722
 5770SOL    HW218210   6.961   6.703   6.796
 5771SOL     OW18211   2.181   0.062   4.109
 5771SOL    HW118212   2.228   6.992   4.095
 5771SOL    HW218213   2.175   0.111   4.022
 5772SOL     OW18214   5.229   1.215   1.666
 5772SOL    HW118215   5.143   1.212   1.717
 5772SOL    HW218216   5.266   1.308   1.669
 5773SOL     OW18217   3.855   0.945   3.004
 5773SOL    HW118218   3.844   0.963   2.906
 5773SOL    HW218219   3.914   1.014   3.044
 5774SOL     OW18220   2.334   0.163   4.574
 5774SOL    HW118221   2.419   0.167   4.520
 5774SOL    HW218222   2.291   0.073   4.561
 5775SOL     OW18223   1.212   6.623   2.595
 5775SOL    HW118224   1.183   6.599   2.502
 5775SOL    HW218225   1.177   6.555   2.659
 5776SOL     OW18226   1.428   0.126   3.573
 5776SOL    HW118227   1.408   0.032   3.602
 5776SOL    HW218228   1.515   0.127   3.523
 5777SOL     OW18229   1.013   6.664   3.797
 5777SOL    HW118230   0.931   6.632   3.749
 5777SOL    HW218231   1.077   6.703   3.732
 5778SOL     OW18232   1.434   0.499   0.513
 5778SOL    HW118233   1.481   0.448   0.585
 5778SOL    HW218234   1.381   0.436   0.458
 5779SOL     OW18235   4.053   2.648   0.379
 5779SOL    HW118236   3.980   2.613   0.320
 5779SOL    HW218237   4.026   2.637   0.475
 5780SOL     OW18238   6.025   6.128   4.575
 5780SOL    HW118239   6.009   6.031   4.591
 5780SOL    HW218240   6.045   6.144   4.478
 5781SOL     OW18241   6.537   4.600   4.577
 5781SOL    HW118242   6.527   4.685   4.628
 5781SOL    HW218243   6.471   4.599   4.502
 5782SOL     OW18244   1.830   1.807   0.497
 5782SOL    HW118245   1.752   1.870   0.507
 5782SOL    HW218246   1.822   1.734   0.564
 5783SOL     OW18247   0.891   0.850   1.981
 5783SOL    HW118248   0.987   0.872   1.993
 5783SOL    HW218249   0.853   0.813   2.066
 5784SOL     OW18250   0.853   6.648   5.316
 5784SOL    HW118251   0.795   6.726   5.339
 5784SOL    HW218252   0.796   6.567   5.303
 5785SOL     OW18253   1.790   2.810   0.373
 5785SOL    HW118254   1.808   2.908   0.372
 5785SOL    HW218255   1.804   2.774   0.465
 5786SOL     OW18256   6.764   3.965   0.548
 5786SOL    HW118257   6.787   3.959   0.645
 5786SOL    HW218258   6.753   4.061   0.522
 5787SOL     OW18259   2.325   2.534   4.921
 5787SOL    HW118260   2.308   2.444   4.960
 5787SOL    HW218261   2.359   2.596   4.992
 5788SOL     OW18262   2.801   1.186   2.180
 5788SOL    HW118263   2.773   1.274   2.217
 5788SOL    HW218264   2.886   1.197   2.128
 5789SOL     OW18265   3.714   4.679   0.295
 5789SOL    HW118266   3.668   4.708   0.212
 5789SOL    HW218267   3.813   4.673   0.279
 5790SOL     OW18268   1.730   4.448   4.600
 5790SOL    HW118269   1.699   4.419   4.509
 5790SOL    HW218270   1.663   4.420   4.668
 5791SOL     OW18271   4.476   0.979   1.960
 5791SOL    HW118272   4.466   0.898   1.902
 5791SOL    HW218273   4.480   0.952   2.056
 5792SOL     OW18274   6.791   2.742   2.747
 5792SOL    HW118275   6.786   2.838   2.719
 5792SOL    HW218276   6.736   2.687   2.685
 5793SOL     OW18277   4.986   0.603   3.850
 5793SOL    HW118278   5.078   0.612   3.889
 5793SOL    HW218279   4.970   0.507   3.827
 5794SOL     OW18280   3.635   1.825   0.172
 5794SOL    HW118281   3.603   1.785   0.086
 5794SOL    HW218282   3.579   1.791   0.247
 5795SOL     OW18283   6.425   6.534   0.064
 5795SOL    HW118284   6.354   6.593   0.102
 5795SOL    HW218285   6.453   6.466   0.132
 5796SOL     OW18286   3.870   1.153   0.033
 5796SOL    HW118287   3.788   1.097   0.042
 5796SOL    HW218288   3.915   1.163   0.122
 5797SOL     OW18289   4.783   1.904   5.835
 5797SOL    HW118290   4.792   1.992   5.789
 5797SOL    HW218291   4.874   1.867   5.853
 5798SOL     OW18292   0.887   4.545   5.243
 5798SOL    HW118293   0.895   4.461   5.190
 5798SOL    HW218294   0.873   4.523   5.339
 5799SOL     OW18295   5.697   1.235   3.267
 5799SOL    HW118296   5.771   1.207   3.328
 5799SOL    HW218297   5.668   1.157   3.212
 5800SOL     OW18298   5.773   6.376   1.171
 5800SOL    HW118299   5.785   6.287   1.215
 5800SOL    HW218300   5.732   6.440   1.236
 5801SOL     OW18301   2.040   2.207   3.805
 5801SOL    HW118302   2.053   2.115   3.768
 5801SOL    HW218303   1.955   2.211   3.858
 5802SOL     OW18304   1.474   4.653   1.100
 5802SOL    HW118305   1.413   4.633   1.177
 5802SOL    HW218306   1.523   4.570   1.073
 5803SOL     OW18307   1.861   5.011   2.292
 5803SOL    HW118308   1.958   5.036   2.292
 5803SOL    HW218309   1.852   4.913   2.311
 5804SOL     OW18310   0.278   5.232   4.098
 5804SOL    HW118311   0.222   5.269   4.172
 5804SOL    HW218312   0.374   5.231   4.126
 5805SOL     OW18313   2.564   3.771   6.042
 5805SOL    HW118314   2.477   3.820   6.040
 5805SOL    HW218315   2.563   3.705   6.117
 5806SOL     OW18316   0.145   6.081   5.587
 5806SOL    HW118317   0.107   6.049   5.674
 5806SOL    HW218318   0.120   6.177   5.574
 5807SOL     OW18319   0.700   3.734   1.946
 5807SOL    HW118320   0.653   3.822   1.944
 5807SOL    HW218321   0.728   3.710   1.853
 5808SOL     OW18322   5.675   5.020   4.551
 5808SOL    HW118323   5.735   4.996   4.628
 5808SOL    HW218324   5.585   4.979   4.566
 5809SOL     OW18325   6.173   1.873   4.636
 5809SOL    HW118326   6.252   1.815   4.620
 5809SOL    HW218327   6.152   1.924   4.552
 5810SOL     OW18328   3.616   1.774   4.067
 5810SOL    HW118329   3.630   1.714   4.145
 5810SOL    HW218330   3.607   1.719   3.983
 5811SOL     OW18331   2.985   0.231   5.815
 5811SOL    HW118332   2.989   0.165   5.739
 5811SOL    HW218333   2.896   0.276   5.815
 5812SOL     OW18334   6.421   1.899   3.814
 5812SOL    HW118335   6.411   1.930   3.908
 5812SOL    HW218336   6.481   1.818   3.812
 5813SOL     OW18337   1.826   1.832   0.956
 5813SOL    HW118338   1.924   1.848   0.956
 5813SOL    HW218339   1.805   1.756   1.018
 5814SOL     OW18340   6.245   4.513   1.157
 5814SOL    HW118341   6.174   4.443   1.160
 5814SOL    HW218342   6.318   4.484   1.095
 5815SOL     OW18343   4.322   2.336   3.927
 5815SOL    HW118344   4.415   2.302   3.941
 5815SOL    HW218345   4.278   2.350   4.016
 5816SOL     OW18346   4.394   6.137   0.173
 5816SOL    HW118347   4.309   6.173   0.135
 5816SOL    HW218348   4.384   6.039   0.191
 5817SOL     OW18349   5.441   3.934   6.053
 5817SOL    HW118350   5.374   3.907   6.122
 5817SOL    HW218351   5.487   3.852   6.018
 5818SOL     OW18352   6.724   5.452   4.886
 5818SOL    HW118353   6.764   5.544   4.876
 5818SOL    HW218354   6.636   5.449   4.840
 5819SOL     OW18355   3.999   6.422   0.211
 5819SOL    HW118356   3.909   6.386   0.234
 5819SOL    HW218357   4.030   6.484   0.283
 5820SOL     OW18358   4.166   5.775   4.298
 5820SOL    HW118359   4.138   5.784   4.203
 5820SOL    HW218360   4.236   5.705   4.306
 5821SOL     OW18361   0.138   0.089   2.225
 5821SOL    HW118362   0.041   0.078   2.248
 5821SOL    HW218363   0.170   0.006   2.179
 5822SOL     OW18364   0.855   2.805   2.304
 5822SOL    HW118365   0.896   2.888   2.265
 5822SOL    HW218366   0.925   2.734   2.310
 5823SOL     OW18367   1.262   1.339   5.409
 5823SOL    HW118368   1.349   1.323   5.456
 5823SOL    HW218369   1.187   1.333   5.476
 5824SOL     OW18370   6.224   5.093   2.699
 5824SOL    HW118371   6.227   5.026   2.625
 5824SOL    HW218372   6.192   5.181   2.664
 5825SOL     OW18373   2.304   2.149   5.085
 5825SOL    HW118374   2.239   2.193   5.147
 5825SOL    HW218375   2.295   2.190   4.994
 5826SOL     OW18376   0.207   5.265   5.661
 5826SOL    HW118377   0.129   5.243   5.720
 5826SOL    HW218378   0.181   5.254   5.565
 5827SOL     OW18379   2.008   4.360   4.616
 5827SOL    HW118380   2.028   4.276   4.565
 5827SOL    HW218381   1.909   4.375   4.617
 5828SOL     OW18382   6.951   2.992   2.009
 5828SOL    HW118383   6.881   2.933   2.050
 5828SOL    HW218384   6.970   2.962   1.916
 5829SOL     OW18385   2.252   1.209   3.146
 5829SOL    HW118386   2.320   1.219   3.074
 5829SOL    HW218387   2.166   1.176   3.107
 5830SOL     OW18388   4.705   6.947   5.194
 5830SOL    HW118389   4.707   6.847   5.193
 5830SOL    HW218390   4.783   6.982   5.142
 5831SOL     OW18391   0.166   0.575   4.502
 5831SOL    HW118392   0.094   0.507   4.513
 5831SOL    HW218393   0.256   0.531   4.510
 5832SOL     OW18394   4.058   4.561   5.962
 5832SOL    HW118395   3.987   4.554   6.033
 5832SOL    HW218396   4.067   4.656   5.933
 5833SOL     OW18397   4.263   3.522   5.226
 5833SOL    HW118398   4.343   3.485   5.273
 5833SOL    HW218399   4.245   3.468   5.143
 5834SOL     OW18400   6.388   3.122   0.203
 5834SOL    HW118401   6.399   3.217   0.233
 5834SOL    HW218402   6.386   3.119   0.103
 5835SOL     OW18403   4.848   3.438   4.116
 5835SOL    HW118404   4.830   3.535   4.132
 5835SOL    HW218405   4.919   3.428   4.047
 5836SOL     OW18406   3.189   6.196   2.563
 5836SOL    HW118407   3.202   6.265   2.492
 5836SOL    HW218408   3.258   6.124   2.552
 5837SOL     OW18409   4.200   4.844   6.117
 5837SOL    HW118410   4.179   4.788   6.196
 5837SOL    HW218411   4.119   4.899   6.093
 5838SOL     OW18412   2.846   2.064   6.526
 5838SOL    HW118413   2.789   2.098   6.451
 5838SOL    HW218414   2.894   2.140   6.569
 5839SOL     OW18415   0.045   2.147   2.643
 5839SOL    HW118416   0.057   2.246   2.650
 5839SOL    HW218417   0.134   2.102   2.657
 5840SOL     OW18418   0.825   5.844   6.443
 5840SOL    HW118419   0.734   5.807   6.423
 5840SOL    HW218420   0.829   5.872   6.539
 5841SOL     OW18421   4.817   1.824   2.369
 5841SOL    HW118422   4.834   1.881   2.449
 5841SOL    HW218423   4.754   1.750   2.392
 5842SOL     OW18424   4.488   3.034   0.902
 5842SOL    HW118425   4.421   3.030   0.976
 5842SOL    HW218426   4.476   3.119   0.850
 5843SOL     OW18427   2.083   3.652   2.719
 5843SOL    HW118428   2.081   3.620   2.624
 5843SOL    HW218429   2.073   3.574   2.781
 5844SOL     OW18430   0.997   6.913   5.975
 5844SOL    HW118431   0.957   6.998   5.940
 5844SOL    HW218432   0.931   6.868   6.035
 5845SOL     OW18433   0.991   0.476   2.678
 5845SOL    HW118434   0.936   0.504   2.599
 5845SOL    HW218435   1.086   0.502   2.664
 5846SOL     OW18436   0.169   2.678   3.396
 5846SOL    HW118437   0.102   2.633   3.455
 5846SOL    HW218438   0.217   2.749   3.448
 5847SOL     OW18439   2.240   2.159   1.963
 5847SOL    HW118440   2.197   2.248   1.948
 5847SOL    HW218441   2.172   2.095   2.000
 5848SOL     OW18442   2.438   5.192   2.762
 5848SOL    HW118443   2.380   5.254   2.814
 5848SOL    HW218444   2.509   5.244   2.715
 5849SOL     OW18445   0.154   6.857   6.549
 5849SOL    HW118446   0.170   6.934   6.487
 5849SOL    HW218447   0.139   6.774   6.495
 5850SOL     OW18448   0.096   4.088   2.432
 5850SOL    HW118449   0.167   4.021   2.409
 5850SOL    HW218450   0.119   4.176   2.392
 5851SOL     OW18451   6.084   3.848   2.996
 5851SOL    HW118452   6.168   3.879   3.041
 5851SOL    HW218453   6.016   3.828   3.066
 5852SOL     OW18454   5.923   6.470   3.178
 5852SOL    HW118455   5.909   6.478   3.079
 5852SOL    HW218456   5.942   6.375   3.201
 5853SOL     OW18457   3.588   5.471   4.240
 5853SOL    HW118458   3.588   5.523   4.155
 5853SOL    HW218459   3.676   5.423   4.250
 5854SOL     OW18460   6.024   4.590   5.615
 5854SOL    HW118461   5.928   4.568   5.602
 5854SOL    HW218462   6.078   4.552   5.539
 5855SOL     OW18463   0.708   0.848   4.924
 5855SOL    HW118464   0.729   0.946   4.917
 5855SOL    HW218465   0.706   0.822   5.020
 5856SOL     OW18466   2.203   5.945   4.068
 5856SOL    HW118467   2.220   5.963   3.971
 5856SOL    HW218468   2.150   5.861   4.077
 5857SOL     OW18469   6.400   2.487   5.697
 5857SOL    HW118470   6.447   2.480   5.609
 5857SOL    HW218471   6.434   2.416   5.759
 5858SOL     OW18472   2.277   2.507   1.872
 5858SOL    HW118473   2.292   2.587   1.813
 5858SOL    HW218474   2.361   2.486   1.922
 5859SOL     OW18475   5.640   6.403   1.651
 5859SOL    HW118476   5.637   6.496   1.686
 5859SOL    HW218477   5.622   6.338   1.725
 5860SOL     OW18478   1.735   3.826   2.304
 5860SOL    HW118479   1.831   3.813   2.282
 5860SOL    HW218480   1.678   3.787   2.232
 5861SOL     OW18481   4.908   1.283   4.532
 5861SOL    HW118482   5.005   1.261   4.519
 5861SOL    HW218483   4.882   1.357   4.470
 5862SOL     OW18484   4.658   5.131   2.570
 5862SOL    HW118485   4.626   5.217   2.611
 5862SOL    HW218486   4.580   5.084   2.529
 5863SOL     OW18487   2.681   0.514   4.787
 5863SOL    HW118488   2.689   0.601   4.836
 5863SOL    HW218489   2.585   0.485   4.787
 5864SOL     OW18490   3.679   3.425   1.539
 5864SOL    HW118491   3.703   3.518   1.568
 5864SOL    HW218492   3.746   3.361   1.575
 5865SOL     OW18493   5.857   0.281   5.656
 5865SOL    HW118494   5.841   0.364   5.603
 5865SOL    HW218495   5.778   0.221   5.648
 5866SOL     OW18496   4.353   5.251   0.509
 5866SOL    HW118497   4.363   5.351   0.506
 5866SOL    HW218498   4.356   5.215   0.416
 5867SOL     OW18499   0.533   4.093   1.288
 5867SOL    HW118500   0.579   4.165   1.236
 5867SOL    HW218501   0.464   4.050   1.230
 5868SOL     OW18502   0.115   0.859   5.367
 5868SOL    HW118503   0.052   0.875   5.291
 5868SOL    HW218504   0.094   0.922   5.441
 5869SOL     OW18505   3.107   6.175   3.667
 5869SOL    HW118506   3.044   6.242   3.627
 5869SOL    HW218507   3.183   6.223   3.711
 5870SOL     OW18508   5.123   6.051   4.700
 5870SOL    HW118509   5.110   6.146   4.729
 5870SOL    HW218510   5.219   6.027   4.707
 5871SOL     OW18511   4.218   3.178   0.445
 5871SOL    HW118512   4.188   3.093   0.487
 5871SOL    HW218513   4.151   3.209   0.379
 5872SOL     OW18514   4.330   4.977   0.686
 5872SOL    HW118515   4.256   5.043   0.672
 5872SOL    HW218516   4.417   5.019   0.664
 5873SOL     OW18517   2.427   2.563   1.431
 5873SOL    HW118518   2.337   2.541   1.469
 5873SOL    HW218519   2.421   2.564   1.331
 5874SOL     OW18520   2.842   3.628   0.435
 5874SOL    HW118521   2.816   3.685   0.357
 5874SOL    HW218522   2.843   3.684   0.518
 5875SOL     OW18523   3.987   1.451   0.265
 5875SOL    HW118524   3.951   1.373   0.316
 5875SOL    HW218525   4.009   1.525   0.329
 5876SOL     OW18526   2.884   3.354   6.882
 5876SOL    HW118527   2.862   3.374   6.787
 5876SOL    HW218528   2.862   3.258   6.902
 5877SOL     OW18529   0.637   6.661   0.935
 5877SOL    HW118530   0.727   6.664   0.892
 5877SOL    HW218531   0.567   6.643   0.866
 5878SOL     OW18532   5.236   4.973   3.165
 5878SOL    HW118533   5.197   5.019   3.085
 5878SOL    HW218534   5.163   4.938   3.223
 5879SOL     OW18535   2.032   3.298   6.147
 5879SOL    HW118536   1.942   3.263   6.174
 5879SOL    HW218537   2.023   3.395   6.123
 5880SOL     OW18538   4.658   4.419   6.732
 5880SOL    HW118539   4.616   4.385   6.649
 5880SOL    HW218540   4.710   4.345   6.776
 5881SOL     OW18541   0.983   7.004   1.638
 5881SOL    HW118542   1.043   0.067   1.627
 5881SOL    HW218543   0.942   7.006   1.729
 5882SOL     OW18544   1.268   6.934   6.126
 5882SOL    HW118545   1.326   7.015   6.136
 5882SOL    HW218546   1.179   6.951   6.168
 5883SOL     OW18547   0.699   1.515   0.662
 5883SOL    HW118548   0.723   1.460   0.582
 5883SOL    HW218549   0.600   1.527   0.666
 5884SOL     OW18550   5.367   0.848   4.925
 5884SOL    HW118551   5.357   0.798   4.839
 5884SOL    HW218552   5.379   0.945   4.906
 5885SOL     OW18553   0.291   5.655   1.951
 5885SOL    HW118554   0.391   5.654   1.941
 5885SOL    HW218555   0.265   5.593   2.025
 5886SOL     OW18556   1.289   2.456   3.849
 5886SOL    HW118557   1.360   2.451   3.778
 5886SOL    HW218558   1.205   2.492   3.809
 5887SOL     OW18559   2.676   2.198   2.039
 5887SOL    HW118560   2.673   2.146   1.954
 5887SOL    HW218561   2.768   2.234   2.053
 5888SOL     OW18562   1.999   6.541   1.572
 5888SOL    HW118563   1.925   6.557   1.638
 5888SOL    HW218564   1.982   6.456   1.523
 5889SOL     OW18565   6.534   1.314   0.005
 5889SOL    HW118566   6.494   1.347   0.090
 5889SOL    HW218567   6.633   1.313   0.013
 5890SOL     OW18568   1.977   6.961   2.827
 5890SOL    HW118569   1.944   0.018   2.884
 5890SOL    HW218570   2.068   6.932   2.859
 5891SOL     OW18571   2.150   4.487   0.497
 5891SOL    HW118572   2.132   4.419   0.426
 5891SOL    HW218573   2.236   4.465   0.543
 5892SOL     OW18574   6.623   5.188   2.193
 5892SOL    HW118575   6.679   5.208   2.274
 5892SOL    HW218576   6.637   5.259   2.124
 5893SOL     OW18577   2.570   4.860   1.609
 5893SOL    HW118578   2.594   4.818   1.521
 5893SOL    HW218579   2.631   4.824   1.680
 5894SOL     OW18580   0.988   5.779   5.621
 5894SOL    HW118581   1.074   5.794   5.670
 5894SOL    HW218582   0.914   5.765   5.686
 5895SOL     OW18583   5.886   3.804   3.294
 5895SOL    HW118584   5.892   3.717   3.343
 5895SOL    HW218585   5.806   3.802   3.234
 5896SOL     OW18586   5.303   1.848   0.624
 5896SOL    HW118587   5.290   1.749   0.634
 5896SOL    HW218588   5.361   1.866   0.544
 5897SOL     OW18589   3.843   1.137   1.586
 5897SOL    HW118590   3.898   1.054   1.581
 5897SOL    HW218591   3.866   1.188   1.668
 5898SOL     OW18592   2.030   1.471   5.418
 5898SOL    HW118593   1.962   1.398   5.409
 5898SOL    HW218594   2.028   1.507   5.512
 5899SOL     OW18595   6.456   5.962   6.542
 5899SOL    HW118596   6.408   6.037   6.587
 5899SOL    HW218597   6.433   5.876   6.586
 5900SOL     OW18598   6.994   5.286   2.520
 5900SOL    HW118599   0.044   5.344   2.567
 5900SOL    HW218600   0.022   5.234   2.447
 5901SOL     OW18601   2.742   1.486   0.638
 5901SOL    HW118602   2.820   1.517   0.691
 5901SOL    HW218603   2.741   1.532   0.549
 5902SOL     OW18604   5.588   3.585   5.120
 5902SOL    HW118605   5.541   3.522   5.058
 5902SOL    HW218606   5.592   3.676   5.078
 5903SOL     OW18607   4.993   3.501   6.589
 5903SOL    HW118608   4.966   3.543   6.675
 5903SOL    HW218609   5.016   3.405   6.606
 5904SOL     OW18610   0.958   4.476   1.271
 5904SOL    HW118611   0.980   4.448   1.364
 5904SOL    HW218612   0.866   4.514   1.267
 5905SOL     OW18613   5.928   1.058   4.361
 5905SOL    HW118614   5.843   1.079   4.313
 5905SOL    HW218615   5.948   0.961   4.350
 5906SOL     OW18616   4.967   1.930   5.288
 5906SOL    HW118617   4.954   1.961   5.194
 5906SOL    HW218618   5.018   1.999   5.339
 5907SOL     OW18619   1.583   6.901   0.313
 5907SOL    HW118620   1.676   6.920   0.282
 5907SOL    HW218621   1.574   6.803   0.334
 5908SOL     OW18622   6.243   4.175   6.943
 5908SOL    HW118623   6.260   4.259   6.993
 5908SOL    HW218624   6.299   4.174   6.860
 5909SOL     OW18625   6.943   5.445   6.547
 5909SOL    HW118626   6.999   5.377   6.499
 5909SOL    HW218627   6.854   5.453   6.501
 5910SOL     OW18628   0.610   5.044   0.320
 5910SOL    HW118629   0.654   4.955   0.310
 5910SOL    HW218630   0.513   5.031   0.341
 5911SOL     OW18631   6.894   5.487   5.983
 5911SOL    HW118632   6.807   5.507   6.028
 5911SOL    HW218633   6.964   5.471   6.053
 5912SOL     OW18634   6.001   3.283   6.709
 5912SOL    HW118635   6.021   3.187   6.687
 5912SOL    HW218636   5.973   3.331   6.626
 5913SOL     OW18637   2.694   2.734   6.035
 5913SOL    HW118638   2.675   2.727   5.937
 5913SOL    HW218639   2.659   2.820   6.070
 5914SOL     OW18640   2.373   5.631   6.530
 5914SOL    HW118641   2.457   5.673   6.563
 5914SOL    HW218642   2.326   5.695   6.469
 5915SOL     OW18643   6.286   3.955   1.821
 5915SOL    HW118644   6.340   3.940   1.738
 5915SOL    HW218645   6.302   4.048   1.854
 5916SOL     OW18646   4.600   6.808   5.832
 5916SOL    HW118647   4.552   6.895   5.842
 5916SOL    HW218648   4.588   6.753   5.915
 5917SOL     OW18649   4.000   3.480   4.370
 5917SOL    HW118650   3.910   3.459   4.409
 5917SOL    HW218651   4.061   3.511   4.443
 5918SOL     OW18652   2.411   3.695   5.304
 5918SOL    HW118653   2.320   3.696   5.346
 5918SOL    HW218654   2.428   3.784   5.261
 5919SOL     OW18655   2.919   2.421   0.300
 5919SOL    HW118656   2.831   2.409   0.254
 5919SOL    HW218657   2.960   2.332   0.318
 5920SOL     OW18658   3.560   0.102   0.055
 5920SOL    HW118659   3.635   0.036   0.062
 5920SOL    HW218660   3.473   0.054   0.064
 5921SOL     OW18661   3.745   5.300   5.217
 5921SOL    HW118662   3.707   5.354   5.142
 5921SOL    HW218663   3.763   5.360   5.295
 5922SOL     OW18664   5.944   4.935   4.101
 5922SOL    HW118665   5.886   4.955   4.180
 5922SOL    HW218666   6.040   4.935   4.129
 5923SOL     OW18667   5.465   0.634   2.095
 5923SOL    HW118668   5.455   0.565   2.168
 5923SOL    HW218669   5.382   0.689   2.091
 5924SOL     OW18670   6.283   2.174   5.431
 5924SOL    HW118671   6.355   2.211   5.489
 5924SOL    HW218672   6.194   2.207   5.463
 5925SOL     OW18673   3.824   5.829   2.915
 5925SOL    HW118674   3.896   5.892   2.945
 5925SOL    HW218675   3.866   5.750   2.870
 5926SOL     OW18676   3.899   5.325   1.954
 5926SOL    HW118677   3.826   5.306   2.019
 5926SOL    HW218678   3.942   5.239   1.927
 5927SOL     OW18679   1.705   4.481   3.239
 5927SOL    HW118680   1.783   4.515   3.291
 5927SOL    HW218681   1.629   4.545   3.247
 5928SOL     OW18682   3.290   0.239   1.630
 5928SOL    HW118683   3.373   0.294   1.636
 5928SOL    HW218684   3.251   0.247   1.538
 5929SOL     OW18685   0.823   0.037   5.532
 5929SOL    HW118686   0.868   6.986   5.590
 5929SOL    HW218687   0.772   7.007   5.459
 5930SOL     OW18688   6.804   1.025   3.295
 5930SOL    HW118689   6.893   1.065   3.317
 5930SOL    HW218690   6.766   0.981   3.377
 5931SOL     OW18691   5.605   5.083   2.934
 5931SOL    HW118692   5.671   5.047   2.867
 5931SOL    HW218693   5.525   5.118   2.886
 5932SOL     OW18694   2.556   6.362   0.820
 5932SOL    HW118695   2.469   6.345   0.773
 5932SOL    HW218696   2.632   6.340   0.759
 5933SOL     OW18697   0.402   4.969   3.230
 5933SOL    HW118698   0.386   4.870   3.228
 5933SOL    HW218699   0.321   5.017   3.196
 5934SOL     OW18700   3.993   3.927   4.045
 5934SOL    HW118701   3.987   3.837   4.002
 5934SOL    HW218702   4.034   3.919   4.136
 5935SOL     OW18703   4.089   3.724   4.784
 5935SOL    HW118704   4.118   3.819   4.796
 5935SOL    HW218705   4.089   3.677   4.872
 5936SOL     OW18706   3.884   3.409   0.083
 5936SOL    HW118707   3.847   3.375   0.169
 5936SOL    HW218708   3.861   3.506   0.073
 5937SOL     OW18709   0.899   4.512   2.084
 5937SOL    HW118710   0.970   4.540   2.149
 5937SOL    HW218711   0.854   4.429   2.117
 5938SOL     OW18712   1.506   5.631   4.195
 5938SOL    HW118713   1.578   5.664   4.134
 5938SOL    HW218714   1.436   5.701   4.206
 5939SOL     OW18715   3.261   0.557   3.717
 5939SOL    HW118716   3.275   0.465   3.754
 5939SOL    HW218717   3.166   0.584   3.731
 5940SOL     OW18718   4.534   6.252   2.478
 5940SOL    HW118719   4.532   6.168   2.532
 5940SOL    HW218720   4.488   6.325   2.528
 5941SOL     OW18721   6.586   3.792   2.274
 5941SOL    HW118722   6.593   3.692   2.275
 5941SOL    HW218723   6.632   3.827   2.192
 5942SOL     OW18724   4.563   2.559   7.004
 5942SOL    HW118725   4.544   2.586   0.081
 5942SOL    HW218726   4.647   2.604   6.973
 5943SOL     OW18727   4.070   4.988   0.999
 5943SOL    HW118728   4.083   4.979   1.098
 5943SOL    HW218729   4.150   4.952   0.951
 5944SOL     OW18730   5.399   1.805   1.482
 5944SOL    HW118731   5.349   1.811   1.395
 5944SOL    HW218732   5.414   1.897   1.518
 5945SOL     OW18733   6.868   5.530   5.418
 5945SOL    HW118734   6.854   5.451   5.478
 5945SOL    HW218735   6.825   5.514   5.330
 5946SOL     OW18736   3.455   3.134   5.461
 5946SOL    HW118737   3.472   3.037   5.445
 5946SOL    HW218738   3.541   3.184   5.457
 5947SOL     OW18739   4.063   3.014   1.799
 5947SOL    HW118740   4.006   3.071   1.858
 5947SOL    HW218741   4.156   3.052   1.795
 5948SOL     OW18742   3.830   5.152   3.569
 5948SOL    HW118743   3.901   5.170   3.637
 5948SOL    HW218744   3.840   5.059   3.535
 5949SOL     OW18745   3.776   3.683   1.288
 5949SOL    HW118746   3.872   3.655   1.285
 5949SOL    HW218747   3.717   3.603   1.280
 5950SOL     OW18748   5.353   3.086   5.179
 5950SOL    HW118749   5.292   3.153   5.136
 5950SOL    HW218750   5.321   3.068   5.272
 5951SOL     OW18751   0.746   5.703   4.696
 5951SOL    HW118752   0.669   5.730   4.755
 5951SOL    HW218753   0.832   5.715   4.746
 5952SOL     OW18754   5.325   5.434   3.979
 5952SOL    HW118755   5.395   5.428   3.908
 5952SOL    HW218756   5.235   5.424   3.937
 5953SOL     OW18757   0.054   2.678   5.490
 5953SOL    HW118758   7.003   2.752   5.490
 5953SOL    HW218759   0.141   2.713   5.525
 5954SOL     OW18760   6.952   4.901   5.931
 5954SOL    HW118761   7.008   4.980   5.959
 5954SOL    HW218762   6.902   4.867   6.010
 5955SOL     OW18763   5.500   5.960   2.476
 5955SOL    HW118764   5.591   6.001   2.467
 5955SOL    HW218765   5.505   5.863   2.456
 5956SOL     OW18766   3.613   2.060   0.327
 5956SOL    HW118767   3.621   2.031   0.422
 5956SOL    HW218768   3.622   1.980   0.267
 5957SOL     OW18769   4.906   0.512   5.127
 5957SOL    HW118770   4.955   0.582   5.178
 5957SOL    HW218771   4.929   0.518   5.030
 5958SOL     OW18772   6.227   6.679   2.864
 5958SOL    HW118773   6.148   6.673   2.804
 5958SOL    HW218774   6.200   6.722   2.951
 5959SOL     OW18775   3.754   1.359   5.253
 5959SOL    HW118776   3.665   1.398   5.277
 5959SOL    HW218777   3.768   1.274   5.303
 5960SOL     OW18778   3.711   6.333   4.856
 5960SOL    HW118779   3.756   6.419   4.834
 5960SOL    HW218780   3.758   6.289   4.932
 5961SOL     OW18781   4.815   0.774   4.003
 5961SOL    HW118782   4.876   0.701   3.972
 5961SOL    HW218783   4.729   0.736   4.036
 5962SOL     OW18784   4.847   5.813   2.148
 5962SOL    HW118785   4.818   5.739   2.209
 5962SOL    HW218786   4.873   5.775   2.060
 5963SOL     OW18787   3.246   2.935   5.106
 5963SOL    HW118788   3.345   2.944   5.102
 5963SOL    HW218789   3.222   2.840   5.126
 5964SOL     OW18790   0.587   4.921   6.041
 5964SOL    HW118791   0.516   4.984   6.009
 5964SOL    HW218792   0.597   4.929   6.140
 5965SOL     OW18793   1.888   1.835   5.927
 5965SOL    HW118794   1.923   1.922   5.963
 5965SOL    HW218795   1.791   1.845   5.904
 5966SOL     OW18796   3.326   5.620   5.173
 5966SOL    HW118797   3.309   5.718   5.185
 5966SOL    HW218798   3.385   5.587   5.247
 5967SOL     OW18799   4.297   6.255   1.653
 5967SOL    HW118800   4.237   6.333   1.669
 5967SOL    HW218801   4.388   6.276   1.689
 5968SOL     OW18802   4.932   1.475   2.863
 5968SOL    HW118803   4.836   1.503   2.867
 5968SOL    HW218804   4.941   1.380   2.894
 5969SOL     OW18805   0.026   1.338   5.716
 5969SOL    HW118806   6.991   1.375   5.640
 5969SOL    HW218807   6.981   1.299   5.784
 5970SOL     OW18808   0.445   4.867   2.604
 5970SOL    HW118809   0.421   4.880   2.700
 5970SOL    HW218810   0.539   4.835   2.596
 5971SOL     OW18811   2.336   0.686   3.209
 5971SOL    HW118812   2.405   0.756   3.192
 5971SOL    HW218813   2.373   0.617   3.270
 5972SOL     OW18814   4.701   6.326   0.320
 5972SOL    HW118815   4.719   6.325   0.222
 5972SOL    HW218816   4.786   6.316   0.371
 5973SOL     OW18817   2.058   5.143   2.529
 5973SOL    HW118818   2.044   5.241   2.535
 5973SOL    HW218819   2.053   5.115   2.433
 5974SOL     OW18820   5.749   4.490   6.636
 5974SOL    HW118821   5.783   4.400   6.610
 5974SOL    HW218822   5.717   4.488   6.731
 5975SOL     OW18823   3.032   2.200   0.409
 5975SOL    HW118824   3.109   2.137   0.413
 5975SOL    HW218825   2.949   2.153   0.440
 5976SOL     OW18826   2.904   3.729   4.468
 5976SOL    HW118827   2.857   3.678   4.396
 5976SOL    HW218828   2.877   3.692   4.557
 5977SOL     OW18829   1.798   5.034   1.728
 5977SOL    HW118830   1.851   5.049   1.812
 5977SOL    HW218831   1.852   5.062   1.649
 5978SOL     OW18832   4.858   4.871   3.205
 5978SOL    HW118833   4.862   4.957   3.256
 5978SOL    HW218834   4.899   4.798   3.259
 5979SOL     OW18835   6.234   0.381   3.104
 5979SOL    HW118836   6.266   0.431   3.184
 5979SOL    HW218837   6.300   0.308   3.082
 5980SOL     OW18838   3.807   3.657   0.055
 5980SOL    HW118839   3.811   3.731   7.005
 5980SOL    HW218840   3.770   3.692   0.141
 5981SOL     OW18841   6.141   0.683   2.367
 5981SOL    HW118842   6.047   0.682   2.332
 5981SOL    HW218843   6.205   0.692   2.291
 5982SOL     OW18844   6.639   2.687   0.271
 5982SOL    HW118845   6.658   2.732   0.184
 5982SOL    HW218846   6.627   2.756   0.342
 5983SOL     OW18847   2.005   1.471   4.707
 5983SOL    HW118848   2.066   1.394   4.692
 5983SOL    HW218849   2.004   1.530   4.627
 5984SOL     OW18850   6.657   6.691   5.095
 5984SOL    HW118851   6.669   6.640   5.010
 5984SOL    HW218852   6.579   6.754   5.085
 5985SOL     OW18853   5.526   3.218   3.783
 5985SOL    HW118854   5.467   3.173   3.849
 5985SOL    HW218855   5.613   3.242   3.826
 5986SOL     OW18856   2.935   3.396   3.223
 5986SOL    HW118857   2.888   3.309   3.234
 5986SOL    HW218858   2.989   3.395   3.139
 5987SOL     OW18859   4.185   1.362   4.652
 5987SOL    HW118860   4.170   1.440   4.712
 5987SOL    HW218861   4.229   1.288   4.703
 5988SOL     OW18862   4.379   6.275   5.226
 5988SOL    HW118863   4.414   6.225   5.147
 5988SOL    HW218864   4.377   6.373   5.204
 5989SOL     OW18865   2.679   5.755   6.561
 5989SOL    HW118866   2.760   5.766   6.504
 5989SOL    HW218867   2.699   5.691   6.636
 5990SOL     OW18868   3.954   4.282   0.746
 5990SOL    HW118869   3.987   4.369   0.711
 5990SOL    HW218870   3.912   4.229   0.672
 5991SOL     OW18871   4.561   4.940   5.370
 5991SOL    HW118872   4.471   4.906   5.343
 5991SOL    HW218873   4.551   5.014   5.437
 5992SOL     OW18874   3.743   0.737   3.956
 5992SOL    HW118875   3.739   0.836   3.969
 5992SOL    HW218876   3.662   0.707   3.905
 5993SOL     OW18877   3.333   6.685   6.080
 5993SOL    HW118878   3.419   6.637   6.095
 5993SOL    HW218879   3.339   6.739   5.995
 5994SOL     OW18880   6.424   1.633   2.020
 5994SOL    HW118881   6.503   1.577   2.043
 5994SOL    HW218882   6.340   1.583   2.042
 5995SOL     OW18883   6.395   4.125   2.456
 5995SOL    HW118884   6.452   4.204   2.477
 5995SOL    HW218885   6.386   4.067   2.537
 5996SOL     OW18886   1.004   5.718   0.573
 5996SOL    HW118887   0.934   5.743   0.506
 5996SOL    HW218888   1.040   5.800   0.616
 5997SOL     OW18889   0.655   6.598   2.509
 5997SOL    HW118890   0.739   6.635   2.549
 5997SOL    HW218891   0.593   6.674   2.487
 5998SOL     OW18892   5.732   2.792   1.782
 5998SOL    HW118893   5.813   2.737   1.801
 5998SOL    HW218894   5.754   2.862   1.714
 5999SOL     OW18895   1.080   2.122   2.336
 5999SOL    HW118896   1.047   2.217   2.334
 5999SOL    HW218897   1.085   2.087   2.242
 6000SOL     OW18898   4.045   6.550   1.685
 6000SOL    HW118899   3.989   6.468   1.678
 6000SOL    HW218900   4.053   6.593   1.594
 6001SOL     OW18901   0.452   3.828   6.132
 6001SOL    HW118902   0.431   3.748   6.076
 6001SOL    HW218903   0.520   3.884   6.084
 6002SOL     OW18904   0.241   6.945   1.116
 6002SOL    HW118905   0.234   7.009   1.039
 6002SOL    HW218906   0.152   6.937   1.160
 6003SOL     OW18907   6.593   1.918   4.517
 6003SOL    HW118908   6.686   1.879   4.518
 6003SOL    HW218909   6.595   2.009   4.558
 6004SOL     OW18910   6.989   4.713   2.858
 6004SOL    HW118911   6.918   4.660   2.904
 6004SOL    HW218912   6.966   4.810   2.862
 6005SOL     OW18913   4.574   4.896   4.808
 6005SOL    HW118914   4.497   4.899   4.872
 6005SOL    HW218915   4.615   4.987   4.801
 6006SOL     OW18916   3.317   7.003   0.035
 6006SOL    HW118917   3.268   0.054   6.997
 6006SOL    HW218918   3.279   6.912   0.018
 6007SOL     OW18919   4.963   3.612   4.400
 6007SOL    HW118920   4.982   3.514   4.392
 6007SOL    HW218921   5.005   3.647   4.484
 6008SOL     OW18922   1.799   5.628   6.202
 6008SOL    HW118923   1.884   5.580   6.178
 6008SOL    HW218924   1.818   5.726   6.212
 6009SOL     OW18925   3.036   1.236   4.639
 6009SOL    HW118926   3.063   1.166   4.572
 6009SOL    HW218927   2.996   1.192   4.719
 6010SOL     OW18928   1.567   4.067   2.229
 6010SOL    HW118929   1.631   4.135   2.194
 6010SOL    HW218930   1.618   3.990   2.268
 6011SOL     OW18931   4.539   2.524   2.912
 6011SOL    HW118932   4.525   2.499   2.817
 6011SOL    HW218933   4.591   2.610   2.917
 6012SOL     OW18934   6.439   1.869   0.502
 6012SOL    HW118935   6.441   1.882   0.602
 6012SOL    HW218936   6.343   1.865   0.472
 6013SOL     OW18937   4.880   2.052   2.866
 6013SOL    HW118938   4.847   1.961   2.889
 6013SOL    HW218939   4.937   2.087   2.941
 6014SOL     OW18940   4.395   1.790   0.513
 6014SOL    HW118941   4.482   1.775   0.466
 6014SOL    HW218942   4.410   1.786   0.612
 6015SOL     OW18943   5.660   2.107   5.944
 6015SOL    HW118944   5.678   2.134   6.039
 6015SOL    HW218945   5.702   2.174   5.882
 6016SOL     OW18946   0.204   1.479   0.156
 6016SOL    HW118947   0.228   1.478   0.060
 6016SOL    HW218948   0.225   1.569   0.195
 6017SOL     OW18949   6.549   4.834   2.783
 6017SOL    HW118950   6.566   4.780   2.700
 6017SOL    HW218951   6.468   4.800   2.829
 6018SOL     OW18952   3.500   2.071   7.001
 6018SOL    HW118953   3.559   2.144   0.019
 6018SOL    HW218954   3.470   2.014   0.060
 6019SOL     OW18955   5.268   1.474   4.328
 6019SOL    HW118956   5.304   1.567   4.335
 6019SOL    HW218957   5.342   1.409   4.347
 6020SOL     OW18958   1.706   6.274   2.051
 6020SOL    HW118959   1.769   6.333   2.001
 6020SOL    HW218960   1.701   6.185   2.007
 6021SOL     OW18961   3.800   0.255   2.345
 6021SOL    HW118962   3.862   0.183   2.312
 6021SOL    HW218963   3.830   0.344   2.309
 6022SOL     OW18964   4.339   0.909   4.715
 6022SOL    HW118965   4.337   0.998   4.761
 6022SOL    HW218966   4.247   0.889   4.680
 6023SOL     OW18967   6.385   1.302   2.638
 6023SOL    HW118968   6.348   1.360   2.566
 6023SOL    HW218969   6.309   1.255   2.684
 6024SOL     OW18970   0.541   4.151   2.998
 6024SOL    HW118971   0.450   4.125   3.030
 6024SOL    HW218972   0.549   4.134   2.900
 6025SOL     OW18973   3.713   0.712   2.306
 6025SOL    HW118974   3.652   0.790   2.291
 6025SOL    HW218975   3.670   0.649   2.371
 6026SOL     OW18976   6.981   3.767   4.057
 6026SOL    HW118977   6.906   3.832   4.060
 6026SOL    HW218978   6.998   3.732   4.150
 6027SOL     OW18979   2.141   4.000   5.604
 6027SOL    HW118980   2.161   4.085   5.653
 6027SOL    HW218981   2.225   3.968   5.559
 6028SOL     OW18982   1.125   3.590   0.226
 6028SOL    HW118983   1.126   3.591   0.326
 6028SOL    HW218984   1.181   3.666   0.191
 6029SOL     OW18985   2.495   6.060   6.001
 6029SOL    HW118986   2.462   6.092   6.089
 6029SOL    HW218987   2.583   6.013   6.013
 6030SOL     OW18988   3.333   6.788   2.653
 6030SOL    HW118989   3.244   6.832   2.661
 6030SOL    HW218990   3.387   6.835   2.583
 6031SOL     OW18991   4.069   4.896   4.136
 6031SOL    HW118992   3.971   4.912   4.126
 6031SOL    HW218993   4.116   4.921   4.051
 6032SOL     OW18994   1.764   3.335   3.125
 6032SOL    HW118995   1.729   3.428   3.139
 6032SOL    HW218996   1.725   3.274   3.194
 6033SOL     OW18997   2.663   2.391   2.519
 6033SOL    HW118998   2.750   2.378   2.472
 6033SOL    HW218999   2.610   2.462   2.474
 6034SOL     OW19000   1.558   5.794   4.949
 6034SOL    HW119001   1.629   5.861   4.928
 6034SOL    HW219002   1.468   5.838   4.942
 6035SOL     OW19003   5.925   1.306   3.679
 6035SOL    HW119004   5.962   1.325   3.770
 6035SOL    HW219005   5.856   1.374   3.655
 6036SOL     OW19006   0.137   6.050   4.353
 6036SOL    HW119007   0.207   6.036   4.282
 6036SOL    HW219008   0.066   6.111   4.319
 6037SOL     OW19009   4.305   5.028   6.309
 6037SOL    HW119010   4.312   4.973   6.392
 6037SOL    HW219011   4.348   4.979   6.233
 6038SOL     OW19012   0.998   3.583   6.250
 6038SOL    HW119013   1.088   3.625   6.237
 6038SOL    HW219014   0.939   3.605   6.173
 6039SOL     OW19015   3.370   3.286   3.156
 6039SOL    HW119016   3.275   3.265   3.131
 6039SOL    HW219017   3.399   3.369   3.109
 6040SOL     OW19018   0.506   1.875   6.661
 6040SOL    HW119019   0.409   1.871   6.686
 6040SOL    HW219020   0.546   1.960   6.697
 6041SOL     OW19021   2.144   1.748   5.272
 6041SOL    HW119022   2.110   1.654   5.273
 6041SOL    HW219023   2.234   1.751   5.317
 6042SOL     OW19024   5.230   5.258   1.699
 6042SOL    HW119025   5.204   5.313   1.779
 6042SOL    HW219026   5.246   5.164   1.728
 6043SOL     OW19027   1.102   4.893   5.357
 6043SOL    HW119028   1.185   4.838   5.345
 6043SOL    HW219029   1.042   4.878   5.279
 6044SOL     OW19030   1.084   2.222   1.216
 6044SOL    HW119031   1.047   2.306   1.177
 6044SOL    HW219032   1.029   2.194   1.295
 6045SOL     OW19033   5.802   6.118   1.277
 6045SOL    HW119034   5.756   6.144   1.363
 6045SOL    HW219035   5.807   6.018   1.271
 6046SOL     OW19036   2.942   1.978   1.009
 6046SOL    HW119037   2.871   1.914   0.981
 6046SOL    HW219038   2.990   1.941   1.090
 6047SOL     OW19039   6.564   1.093   2.594
 6047SOL    HW119040   6.500   1.168   2.611
 6047SOL    HW219041   6.513   1.012   2.568
 6048SOL     OW19042   4.835   6.373   3.539
 6048SOL    HW119043   4.818   6.327   3.626
 6048SOL    HW219044   4.799   6.466   3.543
 6049SOL     OW19045   5.246   3.960   5.689
 6049SOL    HW119046   5.216   3.979   5.782
 6049SOL    HW219047   5.194   3.884   5.652
 6050SOL     OW19048   3.627   4.206   5.736
 6050SOL    HW119049   3.647   4.117   5.695
 6050SOL    HW219050   3.609   4.273   5.664
 6051SOL     OW19051   2.764   1.932   3.707
 6051SOL    HW119052   2.773   2.022   3.751
 6051SOL    HW219053   2.854   1.900   3.678
 6052SOL     OW19054   6.363   6.636   6.839
 6052SOL    HW119055   6.403   6.602   6.923
 6052SOL    HW219056   6.263   6.640   6.848
 6053SOL     OW19057   3.662   0.977   0.030
 6053SOL    HW119058   3.699   0.912   0.096
 6053SOL    HW219059   3.574   0.944   7.012
 6054SOL     OW19060   2.494   4.160   0.577
 6054SOL    HW119061   2.477   4.125   0.484
 6054SOL    HW219062   2.514   4.083   0.638
 6055SOL     OW19063   5.546   1.280   6.009
 6055SOL    HW119064   5.581   1.352   5.950
 6055SOL    HW219065   5.622   1.233   6.054
 6056SOL     OW19066   5.141   3.156   4.686
 6056SOL    HW119067   5.131   3.254   4.704
 6056SOL    HW219068   5.208   3.117   4.749
 6057SOL     OW19069   5.489   2.922   4.651
 6057SOL    HW119070   5.418   2.869   4.696
 6057SOL    HW219071   5.456   2.954   4.562
 6058SOL     OW19072   5.362   2.811   2.467
 6058SOL    HW119073   5.270   2.794   2.432
 6058SOL    HW219074   5.391   2.732   2.522
 6059SOL     OW19075   4.526   6.017   5.629
 6059SOL    HW119076   4.505   6.076   5.707
 6059SOL    HW219077   4.515   6.068   5.544
 6060SOL     OW19078   2.685   4.211   6.025
 6060SOL    HW119079   2.728   4.250   6.107
 6060SOL    HW219080   2.696   4.112   6.025
 6061SOL     OW19081   4.364   2.380   0.089
 6061SOL    HW119082   4.418   2.449   0.041
 6061SOL    HW219083   4.273   2.374   0.048
 6062SOL     OW19084   2.257   0.620   4.335
 6062SOL    HW119085   2.348   0.598   4.298
 6062SOL    HW219086   2.224   0.704   4.293
 6063SOL     OW19087   3.953   1.336   6.626
 6063SOL    HW119088   3.904   1.270   6.570
 6063SOL    HW219089   3.995   1.290   6.704
 6064SOL     OW19090   2.688   5.976   2.040
 6064SOL    HW119091   2.731   6.065   2.023
 6064SOL    HW219092   2.625   5.955   1.965
 6065SOL     OW19093   5.515   0.213   2.545
 6065SOL    HW119094   5.594   0.266   2.575
 6065SOL    HW219095   5.527   0.186   2.450
 6066SOL     OW19096   4.552   1.599   0.339
 6066SOL    HW119097   4.471   1.579   0.283
 6066SOL    HW219098   4.632   1.555   0.297
 6067SOL     OW19099   5.515   2.245   6.809
 6067SOL    HW119100   5.439   2.188   6.778
 6067SOL    HW219101   5.584   2.188   6.854
 6068SOL     OW19102   5.876   2.646   4.711
 6068SOL    HW119103   5.843   2.617   4.800
 6068SOL    HW219104   5.935   2.726   4.721
 6069SOL     OW19105   0.395   3.506   5.452
 6069SOL    HW119106   0.385   3.547   5.543
 6069SOL    HW219107   0.325   3.542   5.391
 6070SOL     OW19108   2.223   1.576   6.042
 6070SOL    HW119109   2.299   1.543   6.098
 6070SOL    HW219110   2.255   1.650   5.983
 6071SOL     OW19111   4.850   5.909   5.003
 6071SOL    HW119112   4.820   5.967   5.079
 6071SOL    HW219113   4.841   5.813   5.030
 6072SOL     OW19114   0.242   0.834   1.881
 6072SOL    HW119115   0.227   0.818   1.784
 6072SOL    HW219116   0.284   0.924   1.894
 6073SOL     OW19117   6.491   4.004   0.499
 6073SOL    HW119118   6.589   3.987   0.510
 6073SOL    HW219119   6.440   3.931   0.544
 6074SOL     OW19120   0.967   6.750   4.313
 6074SOL    HW119121   1.013   6.755   4.402
 6074SOL    HW219122   0.994   6.667   4.266
 6075SOL     OW19123   0.254   2.368   6.526
 6075SOL    HW119124   0.160   2.403   6.516
 6075SOL    HW219125   0.318   2.438   6.495
 6076SOL     OW19126   2.795   6.309   5.245
 6076SOL    HW119127   2.858   6.304   5.322
 6076SOL    HW219128   2.824   6.247   5.173
 6077SOL     OW19129   5.009   5.472   1.869
 6077SOL    HW119130   5.072   5.442   1.940
 6077SOL    HW219131   4.945   5.398   1.848
 6078SOL     OW19132   3.889   4.988   1.855
 6078SOL    HW119133   3.852   4.981   1.947
 6078SOL    HW219134   3.926   4.900   1.827
 6079SOL     OW19135   3.289   3.479   5.925
 6079SOL    HW119136   3.200   3.495   5.968
 6079SOL    HW219137   3.275   3.445   5.832
 6080SOL     OW19138   0.257   1.370   2.189
 6080SOL    HW119139   0.189   1.297   2.195
 6080SOL    HW219140   0.335   1.347   2.246
 6081SOL     OW19141   6.030   3.733   4.648
 6081SOL    HW119142   6.097   3.772   4.711
 6081SOL    HW219143   6.073   3.660   4.594
 6082SOL     OW19144   3.610   1.648   3.831
 6082SOL    HW119145   3.704   1.679   3.842
 6082SOL    HW219146   3.561   1.711   3.771
 6083SOL     OW19147   0.910   6.111   6.359
 6083SOL    HW119148   0.822   6.159   6.360
 6083SOL    HW219149   0.897   6.017   6.391
 6084SOL     OW19150   0.334   5.613   4.006
 6084SOL    HW119151   0.354   5.683   4.075
 6084SOL    HW219152   0.236   5.595   4.004
 6085SOL     OW19153   6.992   4.155   0.296
 6085SOL    HW119154   6.903   4.196   0.275
 6085SOL    HW219155   7.009   4.079   0.234
 6086SOL     OW19156   2.964   1.365   5.402
 6086SOL    HW119157   2.901   1.360   5.324
 6086SOL    HW219158   2.972   1.274   5.444
 6087SOL     OW19159   5.136   6.497   6.720
 6087SOL    HW119160   5.197   6.573   6.738
 6087SOL    HW219161   5.068   6.524   6.652
 6088SOL     OW19162   6.353   5.714   4.539
 6088SOL    HW119163   6.381   5.802   4.577
 6088SOL    HW219164   6.406   5.641   4.582
 6089SOL     OW19165   0.522   3.660   1.482
 6089SOL    HW119166   0.570   3.591   1.427
 6089SOL    HW219167   0.586   3.701   1.547
 6090SOL     OW19168   1.589   6.354   5.876
 6090SOL    HW119169   1.601   6.434   5.816
 6090SOL    HW219170   1.494   6.349   5.906
 6091SOL     OW19171   1.516   1.838   2.483
 6091SOL    HW119172   1.548   1.851   2.577
 6091SOL    HW219173   1.541   1.917   2.428
 6092SOL     OW19174   3.023   7.015   2.929
 6092SOL    HW119175   2.926   7.007   2.905
 6092SOL    HW219176   3.077   6.955   2.870
 6093SOL     OW19177   1.527   2.395   2.611
 6093SOL    HW119178   1.558   2.320   2.669
 6093SOL    HW219179   1.455   2.446   2.658
 6094SOL     OW19180   3.677   1.216   0.891
 6094SOL    HW119181   3.728   1.275   0.953
 6094SOL    HW219182   3.687   1.121   0.919
 6095SOL     OW19183   4.788   2.664   6.924
 6095SOL    HW119184   4.861   2.732   6.928
 6095SOL    HW219185   4.744   2.668   6.834
 6096SOL     OW19186   5.961   0.380   4.278
 6096SOL    HW119187   6.002   0.424   4.358
 6096SOL    HW219188   5.940   0.449   4.209
 6097SOL     OW19189   1.458   0.495   2.186
 6097SOL    HW119190   1.520   0.471   2.261
 6097SOL    HW219191   1.446   0.416   2.127
 6098SOL     OW19192   1.346   2.319   5.935
 6098SOL    HW119193   1.333   2.415   5.909
 6098SOL    HW219194   1.269   2.289   5.991
 6099SOL     OW19195   6.339   5.846   7.012
 6099SOL    HW119196   6.420   5.792   6.991
 6099SOL    HW219197   6.277   5.845   6.934
 6100SOL     OW19198   5.819   2.867   6.714
 6100SOL    HW119199   5.845   2.771   6.705
 6100SOL    HW219200   5.759   2.878   6.793
 6101SOL     OW19201   6.486   1.621   5.360
 6101SOL    HW119202   6.417   1.692   5.345
 6101SOL    HW219203   6.452   1.556   5.429
 6102SOL     OW19204   4.364   0.887   3.761
 6102SOL    HW119205   4.338   0.983   3.769
 6102SOL    HW219206   4.283   0.829   3.771
 6103SOL     OW19207   0.066   1.054   3.468
 6103SOL    HW119208   0.135   1.098   3.410
 6103SOL    HW219209   0.038   1.118   3.540
 6104SOL     OW19210   6.737   2.418   6.222
 6104SOL    HW119211   6.766   2.470   6.142
 6104SOL    HW219212   6.641   2.393   6.212
 6105SOL     OW19213   2.950   6.901   6.113
 6105SOL    HW119214   2.851   6.905   6.103
 6105SOL    HW219215   2.979   6.959   6.189
 6106SOL     OW19216   1.501   4.672   5.911
 6106SOL    HW119217   1.451   4.620   5.981
 6106SOL    HW219218   1.507   4.768   5.939
 6107SOL     OW19219   2.530   5.342   4.472
 6107SOL    HW119220   2.492   5.391   4.550
 6107SOL    HW219221   2.590   5.403   4.420
 6108SOL     OW19222   0.591   2.472   3.289
 6108SOL    HW119223   0.518   2.408   3.311
 6108SOL    HW219224   0.678   2.423   3.285
 6109SOL     OW19225   5.343   2.879   6.507
 6109SOL    HW119226   5.441   2.877   6.486
 6109SOL    HW219227   5.321   2.804   6.569
 6110SOL     OW19228   3.371   3.290   6.969
 6110SOL    HW119229   3.405   3.228   6.899
 6110SOL    HW219230   3.421   3.377   6.963
 6111SOL     OW19231   2.017   4.791   2.585
 6111SOL    HW119232   1.981   4.713   2.636
 6111SOL    HW219233   2.117   4.781   2.576
 6112SOL     OW19234   3.435   1.182   3.143
 6112SOL    HW119235   3.467   1.201   3.236
 6112SOL    HW219236   3.360   1.115   3.147
 6113SOL     OW19237   0.077   0.701   5.721
 6113SOL    HW119238   0.077   0.618   5.777
 6113SOL    HW219239   0.172   0.726   5.700
 6114SOL     OW19240   5.122   4.301   1.265
 6114SOL    HW119241   5.086   4.216   1.227
 6114SOL    HW219242   5.092   4.378   1.208
 6115SOL     OW19243   5.445   5.935   2.732
 6115SOL    HW119244   5.392   5.851   2.726
 6115SOL    HW219245   5.484   5.957   2.643
 6116SOL     OW19246   2.797   1.404   1.535
 6116SOL    HW119247   2.746   1.403   1.448
 6116SOL    HW219248   2.765   1.481   1.591
 6117SOL     OW19249   0.317   0.430   5.594
 6117SOL    HW119250   0.273   0.357   5.542
 6117SOL    HW219251   0.258   0.458   5.669
 6118SOL     OW19252   6.875   1.340   1.787
 6118SOL    HW119253   6.818   1.336   1.705
 6118SOL    HW219254   6.818   1.330   1.868
 6119SOL     OW19255   0.327   3.708   4.160
 6119SOL    HW119256   0.245   3.653   4.176
 6119SOL    HW219257   0.408   3.656   4.190
 6120SOL     OW19258   3.521   6.971   3.298
 6120SOL    HW119259   3.475   6.984   3.385
 6120SOL    HW219260   3.535   6.874   3.282
 6121SOL     OW19261   0.036   2.708   4.196
 6121SOL    HW119262   0.025   2.659   4.282
 6121SOL    HW219263   0.131   2.699   4.165
 6122SOL     OW19264   3.367   6.446   1.508
 6122SOL    HW119265   3.342   6.417   1.601
 6122SOL    HW219266   3.327   6.382   1.442
 6123SOL     OW19267   6.444   0.413   0.258
 6123SOL    HW119268   6.514   0.480   0.282
 6123SOL    HW219269   6.487   0.338   0.207
 6124SOL     OW19270   3.655   0.312   5.421
 6124SOL    HW119271   3.621   0.248   5.490
 6124SOL    HW219272   3.577   0.357   5.376
 6125SOL     OW19273   2.461   5.863   0.827
 6125SOL    HW119274   2.374   5.814   0.835
 6125SOL    HW219275   2.461   5.919   0.744
 6126SOL     OW19276   5.818   6.396   4.333
 6126SOL    HW119277   5.916   6.418   4.335
 6126SOL    HW219278   5.785   6.400   4.238
 6127SOL     OW19279   2.042   6.972   2.187
 6127SOL    HW119280   2.128   7.005   2.226
 6127SOL    HW219281   1.966   0.010   2.222
 6128SOL     OW19282   6.715   3.395   0.623
 6128SOL    HW119283   6.625   3.380   0.583
 6128SOL    HW219284   6.773   3.444   0.557
 6129SOL     OW19285   6.114   4.426   3.458
 6129SOL    HW119286   6.169   4.460   3.534
 6129SOL    HW219287   6.112   4.326   3.461
 6130SOL     OW19288   5.964   2.134   3.732
 6130SOL    HW119289   5.978   2.108   3.636
 6130SOL    HW219290   6.022   2.078   3.790
 6131SOL     OW19291   0.348   1.627   5.536
 6131SOL    HW119292   0.339   1.704   5.474
 6131SOL    HW219293   0.302   1.547   5.497
 6132SOL     OW19294   4.513   1.082   0.799
 6132SOL    HW119295   4.576   1.062   0.725
 6132SOL    HW219296   4.432   1.024   0.791
 6133SOL     OW19297   0.923   3.015   2.607
 6133SOL    HW119298   0.920   3.098   2.663
 6133SOL    HW219299   0.933   2.935   2.666
 6134SOL     OW19300   3.659   4.128   7.003
 6134SOL    HW119301   3.566   4.090   7.008
 6134SOL    HW219302   3.713   4.075   6.939
 6135SOL     OW19303   6.936   6.693   2.320
 6135SOL    HW119304   6.933   6.759   2.245
 6135SOL    HW219305   6.985   6.732   2.397
 6136SOL     OW19306   0.549   2.163   2.170
 6136SOL    HW119307   0.491   2.231   2.216
 6136SOL    HW219308   0.616   2.210   2.113
 6137SOL     OW19309   4.492   1.370   5.255
 6137SOL    HW119310   4.431   1.293   5.270
 6137SOL    HW219311   4.578   1.355   5.305
 6138SOL     OW19312   3.797   6.527   2.620
 6138SOL    HW119313   3.770   6.431   2.610
 6138SOL    HW219314   3.725   6.586   2.585
 6139SOL     OW19315   2.080   3.130   4.810
 6139SOL    HW119316   2.136   3.213   4.816
 6139SOL    HW219317   2.139   3.050   4.800
 6140SOL     OW19318   0.591   6.317   1.449
 6140SOL    HW119319   0.573   6.346   1.355
 6140SOL    HW219320   0.684   6.280   1.456
 6141SOL     OW19321   5.931   6.356   5.216
 6141SOL    HW119322   5.841   6.397   5.199
 6141SOL    HW219323   5.927   6.258   5.195
 6142SOL     OW19324   6.917   5.230   0.948
 6142SOL    HW119325   6.831   5.181   0.957
 6142SOL    HW219326   6.936   5.280   1.033
 6143SOL     OW19327   6.134   5.009   6.760
 6143SOL    HW119328   6.037   5.011   6.735
 6143SOL    HW219329   6.186   4.966   6.686
 6144SOL     OW19330   6.577   4.847   2.443
 6144SOL    HW119331   6.480   4.867   2.432
 6144SOL    HW219332   6.592   4.807   2.534
 6145SOL     OW19333   4.924   6.098   3.838
 6145SOL    HW119334   5.016   6.101   3.798
 6145SOL    HW219335   4.857   6.120   3.767
 6146SOL     OW19336   4.089   1.090   3.340
 6146SOL    HW119337   4.188   1.082   3.348
 6146SOL    HW219338   4.045   1.024   3.401
 6147SOL     OW19339   1.722   4.110   3.848
 6147SOL    HW119340   1.658   4.186   3.854
 6147SOL    HW219341   1.728   4.064   3.937
 6148SOL     OW19342   6.905   0.095   4.946
 6148SOL    HW119343   6.891   0.191   4.970
 6148SOL    HW219344   7.003   0.076   4.937
 6149SOL     OW19345   3.514   4.896   2.985
 6149SOL    HW119346   3.468   4.876   2.899
 6149SOL    HW219347   3.452   4.877   3.062
 6150SOL     OW19348   4.138   5.028   6.873
 6150SOL    HW119349   4.122   4.938   6.913
 6150SOL    HW219350   4.231   5.033   6.837
 6151SOL     OW19351   6.114   4.159   4.479
 6151SOL    HW119352   6.014   4.147   4.481
 6151SOL    HW219353   6.153   4.104   4.405
 6152SOL     OW19354   5.765   4.795   5.344
 6152SOL    HW119355   5.751   4.852   5.425
 6152SOL    HW219356   5.686   4.735   5.332
 6153SOL     OW19357   4.430   3.770   1.609
 6153SOL    HW119358   4.496   3.768   1.534
 6153SOL    HW219359   4.459   3.838   1.677
 6154SOL     OW19360   5.135   1.508   2.234
 6154SOL    HW119361   5.092   1.528   2.146
 6154SOL    HW219362   5.192   1.586   2.261
 6155SOL     OW19363   1.536   2.397   4.375
 6155SOL    HW119364   1.496   2.325   4.431
 6155SOL    HW219365   1.590   2.458   4.433
 6156SOL     OW19366   4.396   5.123   2.433
 6156SOL    HW119367   4.437   5.146   2.345
 6156SOL    HW219368   4.375   5.025   2.436
 6157SOL     OW19369   0.914   1.603   4.124
 6157SOL    HW119370   0.825   1.611   4.167
 6157SOL    HW219371   0.904   1.567   4.031
 6158SOL     OW19372   4.325   0.639   6.353
 6158SOL    HW119373   4.248   0.680   6.401
 6158SOL    HW219374   4.411   0.678   6.387
 6159SOL     OW19375   4.485   2.346   0.522
 6159SOL    HW119376   4.454   2.287   0.597
 6159SOL    HW219377   4.441   2.319   0.437
 6160SOL     OW19378   5.499   5.910   0.781
 6160SOL    HW119379   5.431   5.857   0.730
 6160SOL    HW219380   5.588   5.902   0.737
 6161SOL     OW19381   6.067   1.731   6.234
 6161SOL    HW119382   6.028   1.773   6.151
 6161SOL    HW219383   6.149   1.680   6.209
 6162SOL     OW19384   1.011   5.234   4.308
 6162SOL    HW119385   1.019   5.332   4.326
 6162SOL    HW219386   1.102   5.195   4.292
 6163SOL     OW19387   5.369   5.818   1.750
 6163SOL    HW119388   5.330   5.728   1.733
 6163SOL    HW219389   5.400   5.823   1.845
 6164SOL     OW19390   1.870   3.406   1.588
 6164SOL    HW119391   1.925   3.426   1.669
 6164SOL    HW219392   1.859   3.489   1.533
 6165SOL     OW19393   3.538   6.979   6.437
 6165SOL    HW119394   3.475   6.920   6.387
 6165SOL    HW219395   3.505   6.992   6.530
 6166SOL     OW19396   3.689   1.029   5.009
 6166SOL    HW119397   3.642   1.066   5.089
 6166SOL    HW219398   3.782   1.001   5.034
 6167SOL     OW19399   6.895   4.538   2.219
 6167SOL    HW119400   6.822   4.477   2.191
 6167SOL    HW219401   6.867   4.633   2.205
 6168SOL     OW19402   0.382   3.958   1.104
 6168SOL    HW119403   0.402   4.027   1.034
 6168SOL    HW219404   0.323   3.887   1.065
 6169SOL     OW19405   0.874   3.525   2.603
 6169SOL    HW119406   0.778   3.539   2.627
 6169SOL    HW219407   0.933   3.558   2.677
 6170SOL     OW19408   0.673   3.305   5.026
 6170SOL    HW119409   0.731   3.386   5.034
 6170SOL    HW219410   0.730   3.223   5.024
 6171SOL     OW19411   0.570   1.728   0.152
 6171SOL    HW119412   0.563   1.720   0.052
 6171SOL    HW219413   0.663   1.705   0.181
 6172SOL     OW19414   1.455   2.767   2.421
 6172SOL    HW119415   1.458   2.702   2.345
 6172SOL    HW219416   1.546   2.779   2.459
 6173SOL     OW19417   6.400   5.529   3.504
 6173SOL    HW119418   6.311   5.484   3.491
 6173SOL    HW219419   6.397   5.584   3.588
 6174SOL     OW19420   4.400   5.434   3.923
 6174SOL    HW119421   4.327   5.465   3.862
 6174SOL    HW219422   4.488   5.439   3.874
 6175SOL     OW19423   3.372   0.956   4.379
 6175SOL    HW119424   3.449   1.015   4.405
 6175SOL    HW219425   3.380   0.868   4.426
 6176SOL     OW19426   4.538   3.855   5.372
 6176SOL    HW119427   4.594   3.811   5.302
 6176SOL    HW219428   4.441   3.838   5.353
 6177SOL     OW19429   4.880   2.237   1.555
 6177SOL    HW119430   4.977   2.212   1.550
 6177SOL    HW219431   4.831   2.196   1.478
 6178SOL     OW19432   4.815   3.632   1.809
 6178SOL    HW119433   4.846   3.604   1.900
 6178SOL    HW219434   4.771   3.554   1.764
 6179SOL     OW19435   6.553   4.931   1.871
 6179SOL    HW119436   6.541   4.908   1.775
 6179SOL    HW219437   6.582   4.850   1.921
 6180SOL     OW19438   3.646   4.807   0.766
 6180SOL    HW119439   3.639   4.831   0.670
 6180SOL    HW219440   3.718   4.861   0.809
 6181SOL     OW19441   4.461   6.176   5.831
 6181SOL    HW119442   4.507   6.211   5.913
 6181SOL    HW219443   4.454   6.249   5.763
 6182SOL     OW19444   4.850   2.512   6.482
 6182SOL    HW119445   4.808   2.579   6.543
 6182SOL    HW219446   4.810   2.521   6.391
 6183SOL     OW19447   2.330   2.021   1.735
 6183SOL    HW119448   2.257   1.977   1.788
 6183SOL    HW219449   2.330   2.119   1.754
 6184SOL     OW19450   3.014   0.318   6.070
 6184SOL    HW119451   2.999   0.289   5.975
 6184SOL    HW219452   2.928   0.355   6.107
 6185SOL     OW19453   2.107   4.422   5.721
 6185SOL    HW119454   2.066   4.402   5.632
 6185SOL    HW219455   2.143   4.337   5.761
 6186SOL     OW19456   6.837   1.016   1.768
 6186SOL    HW119457   6.750   1.017   1.817
 6186SOL    HW219458   6.912   1.008   1.833
 6187SOL     OW19459   4.863   3.088   5.028
 6187SOL    HW119460   4.772   3.051   5.045
 6187SOL    HW219461   4.873   3.109   4.930
 6188SOL     OW19462   1.688   1.831   5.424
 6188SOL    HW119463   1.743   1.873   5.496
 6188SOL    HW219464   1.727   1.853   5.334
 6189SOL     OW19465   3.648   5.466   2.577
 6189SOL    HW119466   3.713   5.423   2.514
 6189SOL    HW219467   3.555   5.448   2.545
 6190SOL     OW19468   6.028   2.589   5.405
 6190SOL    HW119469   5.931   2.565   5.399
 6190SOL    HW219470   6.071   2.534   5.476
 6191SOL     OW19471   2.336   3.135   5.606
 6191SOL    HW119472   2.240   3.157   5.585
 6191SOL    HW219473   2.395   3.169   5.533
 6192SOL     OW19474   2.646   2.149   6.337
 6192SOL    HW119475   2.719   2.127   6.273
 6192SOL    HW219476   2.573   2.197   6.289
 6193SOL     OW19477   4.892   6.015   0.866
 6193SOL    HW119478   4.956   6.075   0.913
 6193SOL    HW219479   4.928   5.921   0.866
 6194SOL     OW19480   6.454   0.285   6.268
 6194SOL    HW119481   6.527   0.352   6.284
 6194SOL    HW219482   6.412   0.260   6.356
 6195SOL     OW19483   5.677   6.397   5.080
 6195SOL    HW119484   5.580   6.420   5.082
 6195SOL    HW219485   5.717   6.428   4.993
 6196SOL     OW19486   4.752   4.568   2.519
 6196SOL    HW119487   4.758   4.662   2.485
 6196SOL    HW219488   4.656   4.541   2.526
 6197SOL     OW19489   2.674   5.338   2.557
 6197SOL    HW119490   2.740   5.376   2.622
 6197SOL    HW219491   2.677   5.391   2.472
 6198SOL     OW19492   5.027   6.256   0.137
 6198SOL    HW119493   4.968   6.335   0.123
 6198SOL    HW219494   5.080   6.238   0.053
 6199SOL     OW19495   0.140   1.344   0.395
 6199SOL    HW119496   0.220   1.284   0.403
 6199SOL    HW219497   0.145   1.394   0.309
 6200SOL     OW19498   0.841   1.474   3.417
 6200SOL    HW119499   0.869   1.379   3.399
 6200SOL    HW219500   0.742   1.482   3.404
 6201SOL     OW19501   0.635   3.838   3.724
 6201SOL    HW119502   0.724   3.816   3.763
 6201SOL    HW219503   0.577   3.879   3.794
 6202SOL     OW19504   5.863   1.367   2.693
 6202SOL    HW119505   5.855   1.341   2.789
 6202SOL    HW219506   5.861   1.466   2.685
 6203SOL     OW19507   5.910   5.520   1.884
 6203SOL    HW119508   5.944   5.460   1.811
 6203SOL    HW219509   5.952   5.493   1.971
 6204SOL     OW19510   1.040   6.325   5.089
 6204SOL    HW119511   1.076   6.350   5.179
 6204SOL    HW219512   1.081   6.384   5.019
 6205SOL     OW19513   5.310   4.552   1.692
 6205SOL    HW119514   5.324   4.464   1.738
 6205SOL    HW219515   5.334   4.543   1.595
 6206SOL     OW19516   5.528   1.686   3.353
 6206SOL    HW119517   5.598   1.623   3.317
 6206SOL    HW219518   5.525   1.679   3.452
 6207SOL     OW19519   1.934   5.880   5.035
 6207SOL    HW119520   1.894   5.855   5.123
 6207SOL    HW219521   1.879   5.952   4.993
 6208SOL     OW19522   3.303   2.242   5.666
 6208SOL    HW119523   3.329   2.233   5.570
 6208SOL    HW219524   3.370   2.300   5.713
 6209SOL     OW19525   3.230   5.120   0.711
 6209SOL    HW119526   3.151   5.058   0.713
 6209SOL    HW219527   3.293   5.091   0.639
 6210SOL     OW19528   5.251   3.798   2.803
 6210SOL    HW119529   5.226   3.703   2.819
 6210SOL    HW219530   5.334   3.820   2.855
 6211SOL     OW19531   4.263   6.112   6.033
 6211SOL    HW119532   4.264   6.168   6.116
 6211SOL    HW219533   4.329   6.148   5.968
 6212SOL     OW19534   2.512   4.874   4.369
 6212SOL    HW119535   2.571   4.954   4.382
 6212SOL    HW219536   2.422   4.892   4.410
 6213SOL     OW19537   4.915   6.714   0.224
 6213SOL    HW119538   4.821   6.735   0.249
 6213SOL    HW219539   4.919   6.691   0.126
 6214SOL     OW19540   5.560   5.737   5.814
 6214SOL    HW119541   5.533   5.821   5.767
 6214SOL    HW219542   5.636   5.756   5.876
 6215SOL     OW19543   4.377   3.203   6.505
 6215SOL    HW119544   4.386   3.115   6.458
 6215SOL    HW219545   4.461   3.255   6.494
 6216SOL     OW19546   6.137   2.566   3.306
 6216SOL    HW119547   6.071   2.521   3.246
 6216SOL    HW219548   6.202   2.618   3.251
 6217SOL     OW19549   1.047   5.093   2.232
 6217SOL    HW119550   1.041   5.145   2.146
 6217SOL    HW219551   1.058   4.996   2.212
 6218SOL     OW19552   4.087   6.588   0.407
 6218SOL    HW119553   4.185   6.581   0.425
 6218SOL    HW219554   4.038   6.598   0.494
 6219SOL     OW19555   1.832   0.570   5.407
 6219SOL    HW119556   1.849   0.639   5.477
 6219SOL    HW219557   1.919   0.544   5.364
 6220SOL     OW19558   3.294   1.232   6.911
 6220SOL    HW119559   3.260   1.152   6.863
 6220SOL    HW219560   3.219   1.278   6.957
 6221SOL     OW19561   6.113   6.609   6.900
 6221SOL    HW119562   6.044   6.571   6.839
 6221SOL    HW219563   6.070   6.665   6.971
 6222SOL     OW19564   5.814   0.466   2.160
 6222SOL    HW119565   5.726   0.422   2.180
 6222SOL    HW219566   5.887   0.416   2.205
 6223SOL     OW19567   0.920   5.472   3.745
 6223SOL    HW119568   0.856   5.410   3.699
 6223SOL    HW219569   0.987   5.420   3.797
 6224SOL     OW19570   4.169   1.242   5.597
 6224SOL    HW119571   4.235   1.170   5.578
 6224SOL    HW219572   4.203   1.301   5.670
 6225SOL     OW19573   4.134   1.784   6.329
 6225SOL    HW119574   4.139   1.819   6.422
 6225SOL    HW219575   4.045   1.805   6.289
 6226SOL     OW19576   1.280   1.737   3.946
 6226SOL    HW119577   1.232   1.729   4.033
 6226SOL    HW219578   1.231   1.803   3.888
 6227SOL     OW19579   3.141   4.597   5.309
 6227SOL    HW119580   3.074   4.575   5.239
 6227SOL    HW219581   3.217   4.532   5.306
 6228SOL     OW19582   0.749   2.403   4.347
 6228SOL    HW119583   0.685   2.472   4.380
 6228SOL    HW219584   0.793   2.358   4.426
 6229SOL     OW19585   6.995   2.632   5.228
 6229SOL    HW119586   0.058   2.618   5.170
 6229SOL    HW219587   0.007   2.641   5.324
 6230SOL     OW19588   0.954   2.089   3.463
 6230SOL    HW119589   0.858   2.104   3.439
 6230SOL    HW219590   0.967   1.995   3.494
 6231SOL     OW19591   5.266   5.192   0.440
 6231SOL    HW119592   5.271   5.154   0.347
 6231SOL    HW219593   5.217   5.279   0.437
 6232SOL     OW19594   6.013   1.244   0.695
 6232SOL    HW119595   5.971   1.307   0.760
 6232SOL    HW219596   5.983   1.151   0.714
 6233SOL     OW19597   0.211   3.383   2.062
 6233SOL    HW119598   0.233   3.475   2.029
 6233SOL    HW219599   0.295   3.337   2.092
 6234SOL     OW19600   0.521   0.164   5.415
 6234SOL    HW119601   0.491   0.173   5.510
 6234SOL    HW219602   0.542   0.254   5.378
 6235SOL     OW19603   6.967   0.744   1.898
 6235SOL    HW119604   6.941   0.732   1.802
 6235SOL    HW219605   0.001   0.829   1.909
 6236SOL     OW19606   6.841   4.355   0.703
 6236SOL    HW119607   6.783   4.323   0.628
 6236SOL    HW219608   6.856   4.279   0.767
 6237SOL     OW19609   3.737   6.966   0.526
 6237SOL    HW119610   3.664   0.017   0.515
 6237SOL    HW219611   3.748   6.916   0.440
 6238SOL     OW19612   3.613   6.705   3.339
 6238SOL    HW119613   3.684   6.668   3.279
 6238SOL    HW219614   3.626   6.671   3.432
 6239SOL     OW19615   3.579   0.038   1.597
 6239SOL    HW119616   3.615   0.100   1.667
 6239SOL    HW219617   3.492   7.017   1.627
 6240SOL     OW19618   3.160   4.106   4.639
 6240SOL    HW119619   3.077   4.158   4.620
 6240SOL    HW219620   3.146   4.047   4.719
 6241SOL     OW19621   3.941   0.182   3.588
 6241SOL    HW119622   3.865   0.202   3.650
 6241SOL    HW219623   3.914   0.109   3.525
 6242SOL     OW19624   2.192   1.565   3.639
 6242SOL    HW119625   2.110   1.577   3.694
 6242SOL    HW219626   2.267   1.533   3.697
 6243SOL     OW19627   6.739   0.842   5.660
 6243SOL    HW119628   6.640   0.851   5.655
 6243SOL    HW219629   6.763   0.745   5.669
 6244SOL     OW19630   5.078   4.024   2.829
 6244SOL    HW119631   5.153   3.959   2.819
 6244SOL    HW219632   4.993   3.984   2.793
 6245SOL     OW19633   0.689   5.139   1.884
 6245SOL    HW119634   0.733   5.066   1.936
 6245SOL    HW219635   0.634   5.195   1.945
 6246SOL     OW19636   0.938   0.066   4.444
 6246SOL    HW119637   1.014   0.075   4.508
 6246SOL    HW219638   0.969   0.092   4.352
 6247SOL     OW19639   1.485   5.600   3.184
 6247SOL    HW119640   1.566   5.632   3.232
 6247SOL    HW219641   1.506   5.513   3.138
 6248SOL     OW19642   3.548   3.516   7.000
 6248SOL    HW119643   3.504   3.543   0.068
 6248SOL    HW219644   3.646   3.505   7.015
 6249SOL     OW19645   0.127   2.627   1.681
 6249SOL    HW119646   0.073   2.567   1.620
 6249SOL    HW219647   0.214   2.648   1.637
 6250SOL     OW19648   0.207   6.485   0.783
 6250SOL    HW119649   0.182   6.573   0.743
 6250SOL    HW219650   0.210   6.415   0.712
 6251SOL     OW19651   3.786   5.838   4.507
 6251SOL    HW119652   3.764   5.919   4.452
 6251SOL    HW219653   3.829   5.866   4.593
 6252SOL     OW19654   2.771   5.004   0.101
 6252SOL    HW119655   2.672   5.002   0.117
 6252SOL    HW219656   2.810   5.086   0.142
 6253SOL     OW19657   2.504   4.900   4.859
 6253SOL    HW119658   2.467   4.889   4.952
 6253SOL    HW219659   2.430   4.894   4.793
 6254SOL     OW19660   1.045   6.015   1.372
 6254SOL    HW119661   1.069   5.941   1.308
 6254SOL    HW219662   1.102   6.095   1.353
 6255SOL     OW19663   1.628   2.766   0.625
 6255SOL    HW119664   1.624   2.853   0.575
 6255SOL    HW219665   1.608   2.784   0.722
 6256SOL     OW19666   4.692   5.430   2.493
 6256SOL    HW119667   4.656   5.443   2.585
 6256SOL    HW219668   4.775   5.374   2.497
 6257SOL     OW19669   4.042   3.388   0.328
 6257SOL    HW119670   3.990   3.304   0.344
 6257SOL    HW219671   3.995   3.465   0.371
 6258SOL     OW19672   3.420   7.005   5.359
 6258SOL    HW119673   3.416   0.054   5.434
 6258SOL    HW219674   3.421   0.038   5.272
 6259SOL     OW19675   1.722   1.625   5.585
 6259SOL    HW119676   1.709   1.695   5.516
 6259SOL    HW219677   1.645   1.626   5.649
 6260SOL     OW19678   1.852   0.483   0.734
 6260SOL    HW119679   1.764   0.510   0.774
 6260SOL    HW219680   1.837   0.411   0.667
 6261SOL     OW19681   5.170   6.997   1.193
 6261SOL    HW119682   5.131   6.984   1.102
 6261SOL    HW219683   5.173   0.077   1.214
 6262SOL     OW19684   0.400   6.494   3.186
 6262SOL    HW119685   0.312   6.532   3.217
 6262SOL    HW219686   0.472   6.561   3.204
 6263SOL     OW19687   0.003   6.545   4.533
 6263SOL    HW119688   6.941   6.484   4.537
 6263SOL    HW219689   0.074   6.511   4.594
 6264SOL     OW19690   0.845   6.928   1.403
 6264SOL    HW119691   0.897   6.963   1.481
 6264SOL    HW219692   0.773   6.867   1.435
 6265SOL     OW19693   3.980   2.677   0.637
 6265SOL    HW119694   3.997   2.594   0.690
 6265SOL    HW219695   3.939   2.746   0.697
 6266SOL     OW19696   3.761   6.581   3.150
 6266SOL    HW119697   3.769   6.561   3.052
 6266SOL    HW219698   3.767   6.496   3.202
 6267SOL     OW19699   1.058   6.577   4.823
 6267SOL    HW119700   0.958   6.579   4.831
 6267SOL    HW219701   1.099   6.600   4.911
 6268SOL     OW19702   3.530   0.114   2.082
 6268SOL    HW119703   3.528   0.018   2.055
 6268SOL    HW219704   3.535   0.121   2.181
 6269SOL     OW19705   5.599   6.211   1.447
 6269SOL    HW119706   5.569   6.267   1.371
 6269SOL    HW219707   5.606   6.267   1.530
 6270SOL     OW19708   0.505   6.524   0.110
 6270SOL    HW119709   0.522   6.451   0.043
 6270SOL    HW219710   0.410   6.520   0.140
 6271SOL     OW19711   5.704   2.565   6.317
 6271SOL    HW119712   5.800   2.580   6.291
 6271SOL    HW219713   5.661   2.506   6.249
 6272SOL     OW19714   0.258   0.137   6.563
 6272SOL    HW119715   0.264   0.081   6.646
 6272SOL    HW219716   0.345   0.182   6.547
 6273SOL     OW19717   0.578   6.100   3.163
 6273SOL    HW119718   0.666   6.085   3.119
 6273SOL    HW219719   0.576   6.191   3.203
 6274SOL     OW19720   2.788   6.542   4.549
 6274SOL    HW119721   2.792   6.547   4.449
 6274SOL    HW219722   2.693   6.548   4.580
 6275SOL     OW19723   2.726   6.178   0.481
 6275SOL    HW119724   2.699   6.274   0.476
 6275SOL    HW219725   2.730   6.140   0.388
 6276SOL     OW19726   3.787   5.912   3.742
 6276SOL    HW119727   3.844   5.833   3.765
 6276SOL    HW219728   3.708   5.882   3.688
 6277SOL     OW19729   5.173   2.050   1.623
 6277SOL    HW119730   5.121   1.991   1.685
 6277SOL    HW219731   5.233   2.110   1.677
 6278SOL     OW19732   3.539   0.114   5.589
 6278SOL    HW119733   3.467   0.148   5.650
 6278SOL    HW219734   3.602   0.057   5.641
 6279SOL     OW19735   3.531   5.772   0.337
 6279SOL    HW119736   3.469   5.747   0.262
 6279SOL    HW219737   3.609   5.822   0.300
 6280SOL     OW19738   0.148   1.270   6.680
 6280SOL    HW119739   0.169   1.173   6.687
 6280SOL    HW219740   0.067   1.282   6.623
 6281SOL     OW19741   5.637   4.518   3.761
 6281SOL    HW119742   5.683   4.431   3.780
 6281SOL    HW219743   5.691   4.593   3.800
 6282SOL     OW19744   5.901   3.231   4.943
 6282SOL    HW119745   5.881   3.209   4.848
 6282SOL    HW219746   5.902   3.331   4.955
 6283SOL     OW19747   0.872   5.361   4.750
 6283SOL    HW119748   0.795   5.370   4.688
 6283SOL    HW219749   0.844   5.388   4.842
 6284SOL     OW19750   0.900   5.244   6.616
 6284SOL    HW119751   0.932   5.161   6.572
 6284SOL    HW219752   0.889   5.228   6.714
 6285SOL     OW19753   1.718   3.739   3.882
 6285SOL    HW119754   1.628   3.778   3.862
 6285SOL    HW219755   1.707   3.647   3.920
 6286SOL     OW19756   6.836   3.458   4.891
 6286SOL    HW119757   6.867   3.531   4.951
 6286SOL    HW219758   6.756   3.488   4.840
 6287SOL     OW19759   4.112   4.692   5.475
 6287SOL    HW119760   4.164   4.633   5.538
 6287SOL    HW219761   4.022   4.711   5.514
 6288SOL     OW19762   4.036   3.699   0.413
 6288SOL    HW119763   3.993   3.772   0.465
 6288SOL    HW219764   4.056   3.622   0.474
 6289SOL     OW19765   2.335   4.064   6.999
 6289SOL    HW119766   2.351   4.006   0.062
 6289SOL    HW219767   2.386   4.028   6.921
 6290SOL     OW19768   6.606   4.915   6.705
 6290SOL    HW119769   6.588   4.844   6.638
 6290SOL    HW219770   6.688   4.966   6.679
 6291SOL     OW19771   3.658   2.964   2.946
 6291SOL    HW119772   3.719   3.025   2.896
 6291SOL    HW219773   3.697   2.943   3.035
 6292SOL     OW19774   1.934   2.623   4.991
 6292SOL    HW119775   1.974   2.633   4.899
 6292SOL    HW219776   1.850   2.676   4.996
 6293SOL     OW19777   4.652   1.901   0.445
 6293SOL    HW119778   4.677   1.975   0.507
 6293SOL    HW219779   4.690   1.815   0.479
 6294SOL     OW19780   3.581   0.393   3.286
 6294SOL    HW119781   3.672   0.390   3.327
 6294SOL    HW219782   3.546   0.487   3.288
 6295SOL     OW19783   5.400   4.982   4.398
 6295SOL    HW119784   5.391   4.949   4.492
 6295SOL    HW219785   5.366   4.912   4.335
 6296SOL     OW19786   0.519   3.986   5.739
 6296SOL    HW119787   0.553   3.940   5.821
 6296SOL    HW219788   0.584   3.972   5.664
 6297SOL     OW19789   6.051   0.073   5.329
 6297SOL    HW119790   5.973   0.074   5.266
 6297SOL    HW219791   6.051   0.157   5.383
 6298SOL     OW19792   6.408   4.585   6.679
 6298SOL    HW119793   6.379   4.505   6.625
 6298SOL    HW219794   6.506   4.578   6.696
 6299SOL     OW19795   5.371   2.569   2.638
 6299SOL    HW119796   5.314   2.520   2.572
 6299SOL    HW219797   5.461   2.526   2.644
 6300SOL     OW19798   4.234   1.219   6.235
 6300SOL    HW119799   4.204   1.227   6.330
 6300SOL    HW219800   4.158   1.245   6.175
 6301SOL     OW19801   3.344   6.804   6.338
 6301SOL    HW119802   3.352   6.761   6.248
 6301SOL    HW219803   3.307   6.738   6.403
 6302SOL     OW19804   2.393   1.877   4.974
 6302SOL    HW119805   2.451   1.801   5.000
 6302SOL    HW219806   2.405   1.953   5.038
 6303SOL     OW19807   1.359   6.546   5.694
 6303SOL    HW119808   1.355   6.604   5.612
 6303SOL    HW219809   1.285   6.572   5.756
 6304SOL     OW19810   4.195   1.965   3.561
 6304SOL    HW119811   4.219   1.901   3.488
 6304SOL    HW219812   4.096   1.963   3.576
 6305SOL     OW19813   6.156   5.837   6.802
 6305SOL    HW119814   6.143   5.926   6.757
 6305SOL    HW219815   6.069   5.789   6.808
 6306SOL     OW19816   0.503   3.368   3.709
 6306SOL    HW119817   0.506   3.459   3.667
 6306SOL    HW219818   0.518   3.299   3.638
 6307SOL     OW19819   3.807   3.270   4.087
 6307SOL    HW119820   3.718   3.307   4.060
 6307SOL    HW219821   3.850   3.330   4.155
 6308SOL     OW19822   0.540   1.876   6.023
 6308SOL    HW119823   0.502   1.926   5.946
 6308SOL    HW219824   0.562   1.940   6.097
 6309SOL     OW19825   0.692   6.841   4.270
 6309SOL    HW119826   0.670   6.748   4.240
 6309SOL    HW219827   0.791   6.849   4.284
 6310SOL     OW19828   1.705   6.933   3.072
 6310SOL    HW119829   1.699   6.878   2.989
 6310SOL    HW219830   1.764   7.013   3.056
 6311SOL     OW19831   4.957   1.149   6.664
 6311SOL    HW119832   4.880   1.208   6.639
 6311SOL    HW219833   4.988   1.099   6.584
 6312SOL     OW19834   2.164   6.810   6.317
 6312SOL    HW119835   2.161   6.783   6.413
 6312SOL    HW219836   2.129   6.735   6.261
 6313SOL     OW19837   5.507   6.880   3.704
 6313SOL    HW119838   5.534   6.846   3.795
 6313SOL    HW219839   5.418   6.924   3.711
 6314SOL     OW19840   3.474   6.907   1.179
 6314SOL    HW119841   3.454   6.831   1.241
 6314SOL    HW219842   3.550   6.960   1.216
 6315SOL     OW19843   2.027   2.728   4.762
 6315SOL    HW119844   2.116   2.768   4.784
 6315SOL    HW219845   2.016   2.722   4.663
 6316SOL     OW19846   5.022   2.189   5.959
 6316SOL    HW119847   5.049   2.102   6.001
 6316SOL    HW219848   4.981   2.171   5.869
 6317SOL     OW19849   5.468   4.100   2.930
 6317SOL    HW119850   5.419   4.048   3.000
 6317SOL    HW219851   5.481   4.043   2.849
 6318SOL     OW19852   6.064   0.468   6.786
 6318SOL    HW119853   6.051   0.461   6.687
 6318SOL    HW219854   5.997   0.533   6.823
 6319SOL     OW19855   5.148   2.280   4.993
 6319SOL    HW119856   5.130   2.266   4.895
 6319SOL    HW219857   5.117   2.371   5.019
 6320SOL     OW19858   0.008   0.425   3.840
 6320SOL    HW119859   6.942   0.369   3.834
 6320SOL    HW219860   0.002   0.498   3.771
 6321SOL     OW19861   5.270   3.708   0.564
 6321SOL    HW119862   5.257   3.773   0.489
 6321SOL    HW219863   5.359   3.724   0.607
 6322SOL     OW19864   2.540   1.688   0.771
 6322SOL    HW119865   2.621   1.736   0.739
 6322SOL    HW219866   2.560   1.590   0.778
 6323SOL     OW19867   2.005   3.213   1.334
 6323SOL    HW119868   1.960   3.209   1.244
 6323SOL    HW219869   2.049   3.303   1.345
 6324SOL     OW19870   4.434   1.778   0.799
 6324SOL    HW119871   4.487   1.693   0.808
 6324SOL    HW219872   4.459   1.840   0.874
 6325SOL     OW19873   1.668   2.653   2.561
 6325SOL    HW119874   1.652   2.686   2.654
 6325SOL    HW219875   1.627   2.562   2.551
 6326SOL     OW19876   4.793   5.447   5.550
 6326SOL    HW119877   4.873   5.418   5.498
 6326SOL    HW219878   4.761   5.370   5.606
 6327SOL     OW19879   0.346   1.848   3.302
 6327SOL    HW119880   0.273   1.914   3.318
 6327SOL    HW219881   0.413   1.888   3.239
 6328SOL     OW19882   5.071   3.935   0.008
 6328SOL    HW119883   5.055   3.981   6.938
 6328SOL    HW219884   5.143   3.867   7.014
 6329SOL     OW19885   1.282   2.747   4.781
 6329SOL    HW119886   1.186   2.748   4.809
 6329SOL    HW219887   1.314   2.652   4.772
 6330SOL     OW19888   5.576   0.517   3.217
 6330SOL    HW119889   5.584   0.555   3.125
 6330SOL    HW219890   5.489   0.468   3.225
 6331SOL     OW19891   6.598   2.746   4.720
 6331SOL    HW119892   6.646   2.700   4.795
 6331SOL    HW219893   6.500   2.752   4.741
 6332SOL     OW19894   1.512   1.961   1.704
 6332SOL    HW119895   1.538   2.044   1.655
 6332SOL    HW219896   1.506   1.885   1.640
 6333SOL     OW19897   4.576   0.185   0.055
 6333SOL    HW119898   4.676   0.177   0.054
 6333SOL    HW219899   4.541   0.171   6.980
 6334SOL     OW19900   2.454   1.532   1.851
 6334SOL    HW119901   2.492   1.553   1.761
 6334SOL    HW219902   2.369   1.480   1.841
 6335SOL     OW19903   4.831   1.445   0.923
 6335SOL    HW119904   4.793   1.358   0.953
 6335SOL    HW219905   4.919   1.429   0.877
 6336SOL     OW19906   0.098   4.384   6.408
 6336SOL    HW119907   0.108   4.389   6.507
 6336SOL    HW219908   0.004   4.404   6.382
 6337SOL     OW19909   4.259   5.373   5.115
 6337SOL    HW119910   4.241   5.418   5.027
 6337SOL    HW219911   4.331   5.423   5.163
 6338SOL     OW19912   2.968   1.703   4.537
 6338SOL    HW119913   3.056   1.707   4.585
 6338SOL    HW219914   2.971   1.765   4.458
 6339SOL     OW19915   1.155   3.398   2.885
 6339SOL    HW119916   1.157   3.403   2.985
 6339SOL    HW219917   1.179   3.306   2.856
 6340SOL     OW19918   2.328   3.741   1.525
 6340SOL    HW119919   2.270   3.708   1.601
 6340SOL    HW219920   2.270   3.772   1.450
 6341SOL     OW19921   0.794   3.390   3.289
 6341SOL    HW119922   0.856   3.347   3.224
 6341SOL    HW219923   0.783   3.331   3.369
 6342SOL     OW19924   3.399   1.364   1.524
 6342SOL    HW119925   3.405   1.409   1.613
 6342SOL    HW219926   3.363   1.271   1.537
 6343SOL     OW19927   3.723   6.646   6.733
 6343SOL    HW119928   3.721   6.680   6.827
 6343SOL    HW219929   3.802   6.685   6.686
 6344SOL     OW19930   6.257   2.535   3.583
 6344SOL    HW119931   6.175   2.583   3.614
 6344SOL    HW219932   6.268   2.549   3.484
 6345SOL     OW19933   4.667   3.165   1.297
 6345SOL    HW119934   4.660   3.090   1.231
 6345SOL    HW219935   4.643   3.131   1.388
 6346SOL     OW19936   7.014   4.253   5.288
 6346SOL    HW119937   0.082   4.263   5.236
 6346SOL    HW219938   6.962   4.176   5.251
 6347SOL     OW19939   2.724   2.057   2.348
 6347SOL    HW119940   2.678   2.080   2.434
 6347SOL    HW219941   2.684   1.975   2.309
 6348SOL     OW19942   0.815   1.742   6.130
 6348SOL    HW119943   0.894   1.790   6.170
 6348SOL    HW219944   0.749   1.721   6.202
 6349SOL     OW19945   1.363   0.278   0.335
 6349SOL    HW119946   1.310   0.261   0.251
 6349SOL    HW219947   1.345   0.205   0.401
 6350SOL     OW19948   0.828   5.447   2.702
 6350SOL    HW119949   0.835   5.376   2.632
 6350SOL    HW219950   0.910   5.445   2.759
 6351SOL     OW19951   6.452   4.713   3.641
 6351SOL    HW119952   6.503   4.655   3.703
 6351SOL    HW219953   6.411   4.789   3.692
 6352SOL     OW19954   2.875   0.983   4.058
 6352SOL    HW119955   2.786   1.017   4.089
 6352SOL    HW219956   2.933   1.060   4.031
 6353SOL     OW19957   2.498   4.971   0.135
 6353SOL    HW119958   2.496   4.880   0.175
 6353SOL    HW219959   2.471   4.965   0.039
 6354SOL     OW19960   4.560   5.398   2.728
 6354SOL    HW119961   4.608   5.391   2.815
 6354SOL    HW219962   4.462   5.410   2.745
 6355SOL     OW19963   3.299   5.644   0.536
 6355SOL    HW119964   3.356   5.706   0.590
 6355SOL    HW219965   3.247   5.585   0.598
 6356SOL     OW19966   5.431   4.817   0.279
 6356SOL    HW119967   5.361   4.745   0.281
 6356SOL    HW219968   5.434   4.857   0.188
 6357SOL     OW19969   5.803   2.770   1.500
 6357SOL    HW119970   5.871   2.821   1.447
 6357SOL    HW219971   5.841   2.681   1.524
 6358SOL     OW19972   1.140   2.040   6.857
 6358SOL    HW119973   1.045   2.010   6.865
 6358SOL    HW219974   1.188   2.023   6.943
 6359SOL     OW19975   5.712   6.845   0.520
 6359SOL    HW119976   5.808   6.833   0.494
 6359SOL    HW219977   5.698   6.811   0.613
 6360SOL     OW19978   0.058   3.076   3.753
 6360SOL    HW119979   0.041   3.097   3.850
 6360SOL    HW219980   0.061   3.162   3.701
 6361SOL     OW19981   0.742   1.011   0.844
 6361SOL    HW119982   0.673   1.071   0.884
 6361SOL    HW219983   0.738   1.016   0.744
 6362SOL     OW19984   1.408   6.413   6.699
 6362SOL    HW119985   1.419   6.321   6.736
 6362SOL    HW219986   1.454   6.420   6.611
 6363SOL     OW19987   2.470   4.747   3.712
 6363SOL    HW119988   2.532   4.756   3.790
 6363SOL    HW219989   2.376   4.755   3.744
 6364SOL     OW19990   2.169   2.261   4.864
 6364SOL    HW119991   2.173   2.320   4.783
 6364SOL    HW219992   2.187   2.167   4.838
 6365SOL     OW19993   6.169   5.412   5.287
 6365SOL    HW119994   6.205   5.338   5.343
 6365SOL    HW219995   6.070   5.402   5.278
 6366SOL     OW19996   6.463   6.573   4.601
 6366SOL    HW119997   6.538   6.639   4.598
 6366SOL    HW219998   6.444   6.539   4.509
 6367SOL     OW19999   3.026   1.820   2.739
 6367SOL    HW120000   3.062   1.861   2.822
 6367SOL    HW220001   3.062   1.869   2.659
 6368SOL     OW20002   4.587   4.445   4.476
 6368SOL    HW120003   4.495   4.481   4.462
 6368SOL    HW220004   4.590   4.395   4.563
 6369SOL     OW20005   2.256   6.279   5.687
 6369SOL    HW120006   2.169   6.230   5.688
 6369SOL    HW220007   2.323   6.228   5.741
 6370SOL     OW20008   4.872   3.887   3.451
 6370SOL    HW120009   4.855   3.963   3.388
 6370SOL    HW220010   4.805   3.814   3.433
 6371SOL     OW20011   5.544   3.587   1.893
 6371SOL    HW120012   5.486   3.666   1.873
 6371SOL    HW220013   5.588   3.600   1.982
 6372SOL     OW20014   0.493   0.789   2.644
 6372SOL    HW120015   0.431   0.770   2.720
 6372SOL    HW220016   0.458   0.865   2.590
 6373SOL     OW20017   6.008   4.034   2.104
 6373SOL    HW120018   6.102   4.056   2.078
 6373SOL    HW220019   5.980   4.094   2.179
 6374SOL     OW20020   4.538   3.204   0.312
 6374SOL    HW120021   4.516   3.224   0.217
 6374SOL    HW220022   4.454   3.190   0.364
 6375SOL     OW20023   1.033   3.148   2.175
 6375SOL    HW120024   1.107   3.136   2.109
 6375SOL    HW220025   1.040   3.077   2.246
 6376SOL     OW20026   4.467   1.416   5.887
 6376SOL    HW120027   4.408   1.438   5.809
 6376SOL    HW220028   4.451   1.322   5.915
 6377SOL     OW20029   6.985   0.936   5.842
 6377SOL    HW120030   0.002   0.863   5.783
 6377SOL    HW220031   6.928   0.998   5.788
 6378SOL     OW20032   4.744   5.835   3.292
 6378SOL    HW120033   4.744   5.919   3.238
 6378SOL    HW220034   4.818   5.776   3.263
 6379SOL     OW20035   1.318   4.708   5.287
 6379SOL    HW120036   1.277   4.626   5.327
 6379SOL    HW220037   1.387   4.744   5.350
 6380SOL     OW20038   0.957   2.800   4.785
 6380SOL    HW120039   0.947   2.870   4.713
 6380SOL    HW220040   0.892   2.819   4.858
 6381SOL     OW20041   4.081   2.995   0.617
 6381SOL    HW120042   4.011   2.967   0.552
 6381SOL    HW220043   4.067   2.947   0.704
 6382SOL     OW20044   2.490   1.528   1.578
 6382SOL    HW120045   2.421   1.477   1.526
 6382SOL    HW220046   2.473   1.626   1.569
 6383SOL     OW20047   1.467   2.557   2.250
 6383SOL    HW120048   1.553   2.571   2.202
 6383SOL    HW220049   1.451   2.459   2.262
 6384SOL     OW20050   5.990   2.021   2.407
 6384SOL    HW120051   6.031   2.043   2.319
 6384SOL    HW220052   5.984   2.104   2.462
 6385SOL     OW20053   0.083   4.124   1.277
 6385SOL    HW120054   0.013   4.194   1.293
 6385SOL    HW220055   0.160   4.164   1.228
 6386SOL     OW20056   1.693   4.221   0.572
 6386SOL    HW120057   1.623   4.169   0.522
 6386SOL    HW220058   1.752   4.268   0.506
 6387SOL     OW20059   6.368   1.498   0.694
 6387SOL    HW120060   6.429   1.577   0.697
 6387SOL    HW220061   6.275   1.526   0.717
 6388SOL     OW20062   6.728   5.087   2.771
 6388SOL    HW120063   6.698   4.996   2.798
 6388SOL    HW220064   6.659   5.128   2.711
 6389SOL     OW20065   1.901   6.664   0.474
 6389SOL    HW120066   1.994   6.700   0.471
 6389SOL    HW220067   1.837   6.739   0.487
 6390SOL     OW20068   6.353   0.433   6.720
 6390SOL    HW120069   6.415   0.418   6.798
 6390SOL    HW220070   6.265   0.465   6.754
 6391SOL     OW20071   1.564   1.560   5.829
 6391SOL    HW120072   1.622   1.597   5.902
 6391SOL    HW220073   1.474   1.538   5.866
 6392SOL     OW20074   3.369   5.990   3.956
 6392SOL    HW120075   3.460   5.959   3.926
 6392SOL    HW220076   3.376   6.083   3.991
 6393SOL     OW20077   5.561   6.661   1.721
 6393SOL    HW120078   5.500   6.683   1.644
 6393SOL    HW220079   5.510   6.612   1.791
 6394SOL     OW20080   1.163   4.821   1.111
 6394SOL    HW120081   1.064   4.827   1.101
 6394SOL    HW220082   1.189   4.724   1.117
 6395SOL     OW20083   0.072   3.691   2.598
 6395SOL    HW120084   0.113   3.660   2.684
 6395SOL    HW220085   7.016   3.756   2.618
 6396SOL     OW20086   6.575   3.362   6.270
 6396SOL    HW120087   6.663   3.318   6.252
 6396SOL    HW220088   6.502   3.295   6.264
 6397SOL     OW20089   6.082   1.112   2.316
 6397SOL    HW120090   6.080   1.042   2.388
 6397SOL    HW220091   6.011   1.093   2.249
 6398SOL     OW20092   1.462   6.410   1.422
 6398SOL    HW120093   1.492   6.462   1.343
 6398SOL    HW220094   1.477   6.463   1.505
 6399SOL     OW20095   1.602   0.343   0.019
 6399SOL    HW120096   1.582   0.375   0.112
 6399SOL    HW220097   1.661   0.262   0.024
 6400SOL     OW20098   1.983   5.496   2.871
 6400SOL    HW120099   2.053   5.447   2.820
 6400SOL    HW220100   2.016   5.588   2.895
 6401SOL     OW20101   4.423   4.667   2.980
 6401SOL    HW120102   4.461   4.697   2.892
 6401SOL    HW220103   4.460   4.577   3.004
 6402SOL     OW20104   1.267   3.093   3.289
 6402SOL    HW120105   1.219   3.048   3.365
 6402SOL    HW220106   1.284   3.189   3.313
 6403SOL     OW20107   5.529   5.973   4.966
 6403SOL    HW120108   5.555   6.009   4.876
 6403SOL    HW220109   5.466   5.897   4.954
 6404SOL     OW20110   3.590   1.322   2.447
 6404SOL    HW120111   3.684   1.330   2.482
 6404SOL    HW220112   3.528   1.303   2.522
 6405SOL     OW20113   4.724   1.646   3.904
 6405SOL    HW120114   4.784   1.726   3.905
 6405SOL    HW220115   4.695   1.628   3.810
 6406SOL     OW20116   1.068   2.978   2.373
 6406SOL    HW120117   1.026   3.004   2.460
 6406SOL    HW220118   1.148   2.921   2.391
 6407SOL     OW20119   2.027   6.287   3.423
 6407SOL    HW120120   2.005   6.318   3.330
 6407SOL    HW220121   2.068   6.196   3.418
 6408SOL     OW20122   6.818   0.612   1.196
 6408SOL    HW120123   6.731   0.634   1.240
 6408SOL    HW220124   6.802   0.552   1.117
 6409SOL     OW20125   6.374   5.110   3.621
 6409SOL    HW120126   6.367   5.092   3.523
 6409SOL    HW220127   6.352   5.027   3.672
 6410SOL     OW20128   2.484   1.303   6.048
 6410SOL    HW120129   2.538   1.355   5.982
 6410SOL    HW220130   2.393   1.285   6.010
 6411SOL     OW20131   0.056   3.188   1.814
 6411SOL    HW120132   0.037   3.181   1.912
 6411SOL    HW220133   7.008   3.132   1.764
 6412SOL     OW20134   3.044   0.980   6.604
 6412SOL    HW120135   2.974   1.034   6.559
 6412SOL    HW220136   3.032   0.883   6.579
 6413SOL     OW20137   4.097   4.801   4.404
 6413SOL    HW120138   4.018   4.826   4.461
 6413SOL    HW220139   4.073   4.811   4.308
 6414SOL     OW20140   0.374   6.567   6.611
 6414SOL    HW120141   0.323   6.644   6.573
 6414SOL    HW220142   0.448   6.601   6.669
 6415SOL     OW20143   1.249   3.418   3.168
 6415SOL    HW120144   1.221   3.487   3.235
 6415SOL    HW220145   1.331   3.448   3.120
 6416SOL     OW20146   3.198   0.047   6.583
 6416SOL    HW120147   3.229   0.073   6.492
 6416SOL    HW220148   3.128   6.993   6.576
 6417SOL     OW20149   5.403   2.343   1.123
 6417SOL    HW120150   5.440   2.423   1.170
 6417SOL    HW220151   5.390   2.269   1.188
 6418SOL     OW20152   5.114   4.613   2.332
 6418SOL    HW120153   5.113   4.647   2.426
 6418SOL    HW220154   5.027   4.634   2.288
 6419SOL     OW20155   0.703   6.425   5.228
 6419SOL    HW120156   0.725   6.401   5.133
 6419SOL    HW220157   0.632   6.364   5.262
 6420SOL     OW20158   1.368   2.306   4.076
 6420SOL    HW120159   1.311   2.352   4.009
 6420SOL    HW220160   1.445   2.262   4.030
 6421SOL     OW20161   5.481   0.475   0.887
 6421SOL    HW120162   5.489   0.435   0.796
 6421SOL    HW220163   5.443   0.567   0.879
 6422SOL     OW20164   0.166   1.745   5.722
 6422SOL    HW120165   0.236   1.733   5.651
 6422SOL    HW220166   0.084   1.694   5.695
 6423SOL     OW20167   3.783   6.134   4.656
 6423SOL    HW120168   3.744   6.121   4.747
 6423SOL    HW220169   3.849   6.209   4.658
 6424SOL     OW20170   0.802   3.085   4.926
 6424SOL    HW120171   0.770   3.101   4.833
 6424SOL    HW220172   0.899   3.105   4.932
 6425SOL     OW20173   0.278   5.221   2.865
 6425SOL    HW120174   0.351   5.267   2.816
 6425SOL    HW220175   0.216   5.176   2.800
 6426SOL     OW20176   5.363   5.368   4.236
 6426SOL    HW120177   5.389   5.435   4.305
 6426SOL    HW220178   5.358   5.412   4.146
 6427SOL     OW20179   3.204   4.070   3.025
 6427SOL    HW120180   3.285   4.076   3.083
 6427SOL    HW220181   3.229   4.087   2.930
 6428SOL     OW20182   5.343   2.714   0.063
 6428SOL    HW120183   5.347   2.781   7.005
 6428SOL    HW220184   5.346   2.762   0.150
 6429SOL     OW20185   1.537   0.551   5.392
 6429SOL    HW120186   1.596   0.584   5.319
 6429SOL    HW220187   1.449   0.599   5.388
 6430SOL     OW20188   6.821   0.552   5.370
 6430SOL    HW120189   6.918   0.572   5.383
 6430SOL    HW220190   6.784   0.611   5.298
 6431SOL     OW20191   4.302   5.459   2.790
 6431SOL    HW120192   4.279   5.475   2.693
 6431SOL    HW220193   4.252   5.379   2.822
 6432SOL     OW20194   3.636   4.056   6.230
 6432SOL    HW120195   3.735   4.065   6.222
 6432SOL    HW220196   3.596   4.042   6.139
 6433SOL     OW20197   2.948   5.388   0.065
 6433SOL    HW120198   2.973   5.479   0.031
 6433SOL    HW220199   2.848   5.383   0.074
 6434SOL     OW20200   2.629   6.688   6.506
 6434SOL    HW120201   2.557   6.629   6.471
 6434SOL    HW220202   2.623   6.777   6.460
 6435SOL     OW20203   6.297   0.006   0.710
 6435SOL    HW120204   6.387   7.008   0.669
 6435SOL    HW220205   6.302   7.008   0.809
 6436SOL     OW20206   0.763   3.177   3.464
 6436SOL    HW120207   0.803   3.088   3.488
 6436SOL    HW220208   0.664   3.175   3.480
 6437SOL     OW20209   0.562   1.593   5.285
 6437SOL    HW120210   0.498   1.517   5.294
 6437SOL    HW220211   0.628   1.589   5.360
 6438SOL     OW20212   1.021   5.316   6.306
 6438SOL    HW120213   0.942   5.255   6.303
 6438SOL    HW220214   1.105   5.263   6.319
 6439SOL     OW20215   6.474   0.994   3.327
 6439SOL    HW120216   6.428   0.951   3.405
 6439SOL    HW220217   6.573   0.985   3.338
 6440SOL     OW20218   2.279   0.996   6.643
 6440SOL    HW120219   2.207   0.984   6.711
 6440SOL    HW220220   2.237   1.012   6.553
 6441SOL     OW20221   0.057   0.807   2.752
 6441SOL    HW120222   0.016   0.863   2.823
 6441SOL    HW220223   0.125   0.745   2.793
 6442SOL     OW20224   2.616   2.335   4.511
 6442SOL    HW120225   2.698   2.278   4.517
 6442SOL    HW220226   2.569   2.335   4.599
 6443SOL     OW20227   3.547   2.090   6.221
 6443SOL    HW120228   3.643   2.118   6.225
 6443SOL    HW220229   3.512   2.100   6.128
 6444SOL     OW20230   0.458   2.471   5.014
 6444SOL    HW120231   0.530   2.456   5.081
 6444SOL    HW220232   0.495   2.454   4.922
 6445SOL     OW20233   3.677   3.469   2.987
 6445SOL    HW120234   3.692   3.377   3.024
 6445SOL    HW220235   3.764   3.516   2.977
 6446SOL     OW20236   1.336   1.739   6.903
 6446SOL    HW120237   1.250   1.709   6.946
 6446SOL    HW220238   1.396   1.660   6.891
 6447SOL     OW20239   0.002   4.320   1.830
 6447SOL    HW120240   7.012   4.268   1.915
 6447SOL    HW220241   0.092   4.362   1.824
 6448SOL     OW20242   4.987   5.102   1.537
 6448SOL    HW120243   4.978   5.135   1.631
 6448SOL    HW220244   5.019   5.177   1.479
 6449SOL     OW20245   1.906   5.591   1.317
 6449SOL    HW120246   1.978   5.524   1.298
 6449SOL    HW220247   1.881   5.587   1.414
 6450SOL     OW20248   1.025   4.368   0.604
 6450SOL    HW120249   0.978   4.454   0.624
 6450SOL    HW220250   0.975   4.317   0.535
 6451SOL     OW20251   3.275   1.779   6.405
 6451SOL    HW120252   3.355   1.795   6.348
 6451SOL    HW220253   3.207   1.726   6.353
 6452SOL     OW20254   5.125   3.762   2.531
 6452SOL    HW120255   5.098   3.841   2.477
 6452SOL    HW220256   5.167   3.792   2.617
 6453SOL     OW20257   3.553   6.828   0.902
 6453SOL    HW120258   3.545   6.859   0.997
 6453SOL    HW220259   3.649   6.833   0.874
 6454SOL     OW20260   0.092   1.578   2.513
 6454SOL    HW120261   0.093   1.580   2.414
 6454SOL    HW220262   7.016   1.561   2.545
 6455SOL     OW20263   6.313   4.006   3.185
 6455SOL    HW120264   6.338   3.972   3.276
 6455SOL    HW220265   6.356   4.095   3.170
 6456SOL     OW20266   0.856   0.168   2.995
 6456SOL    HW120267   0.825   0.243   2.936
 6456SOL    HW220268   0.778   0.126   3.040
 6457SOL     OW20269   4.781   0.031   1.811
 6457SOL    HW120270   4.713   0.094   1.773
 6457SOL    HW220271   4.862   0.031   1.753
 6458SOL     OW20272   1.486   4.977   4.246
 6458SOL    HW120273   1.502   4.886   4.209
 6458SOL    HW220274   1.567   5.008   4.296
 6459SOL     OW20275   5.841   2.286   2.914
 6459SOL    HW120276   5.747   2.318   2.928
 6459SOL    HW220277   5.896   2.309   2.994
 6460SOL     OW20278   6.269   5.722   5.677
 6460SOL    HW120279   6.208   5.719   5.597
 6460SOL    HW220280   6.273   5.631   5.719
 6461SOL     OW20281   3.648   4.533   0.522
 6461SOL    HW120282   3.635   4.618   0.471
 6461SOL    HW220283   3.649   4.456   0.459
 6462SOL     OW20284   1.260   3.290   4.454
 6462SOL    HW120285   1.164   3.268   4.435
 6462SOL    HW220286   1.319   3.244   4.388
 6463SOL     OW20287   5.451   0.344   0.648
 6463SOL    HW120288   5.372   0.292   0.616
 6463SOL    HW220289   5.535   0.303   0.611
 6464SOL     OW20290   0.914   5.998   4.921
 6464SOL    HW120291   0.921   5.900   4.902
 6464SOL    HW220292   0.919   6.049   4.835
 6465SOL     OW20293   5.968   2.494   2.370
 6465SOL    HW120294   5.917   2.427   2.316
 6465SOL    HW220295   6.059   2.506   2.330
 6466SOL     OW20296   6.896   2.905   6.834
 6466SOL    HW120297   6.995   2.891   6.845
 6466SOL    HW220298   6.871   2.886   6.739
 6467SOL     OW20299   4.085   1.445   0.788
 6467SOL    HW120300   4.131   1.384   0.724
 6467SOL    HW220301   4.150   1.512   0.823
 6468SOL     OW20302   4.018   6.369   0.896
 6468SOL    HW120303   4.087   6.408   0.836
 6468SOL    HW220304   4.029   6.406   0.988
 6469SOL     OW20305   2.778   2.136   3.946
 6469SOL    HW120306   2.859   2.173   3.901
 6469SOL    HW220307   2.805   2.063   4.008
 6470SOL     OW20308   5.792   2.434   0.796
 6470SOL    HW120309   5.856   2.358   0.792
 6470SOL    HW220310   5.699   2.399   0.808
 6471SOL     OW20311   0.709   6.442   4.563
 6471SOL    HW120312   0.681   6.346   4.565
 6471SOL    HW220313   0.657   6.491   4.493
 6472SOL     OW20314   6.414   5.967   2.413
 6472SOL    HW120315   6.360   6.029   2.357
 6472SOL    HW220316   6.427   6.007   2.504
 6473SOL     OW20317   1.906   1.822   4.628
 6473SOL    HW120318   1.826   1.868   4.589
 6473SOL    HW220319   1.912   1.842   4.726
 6474SOL     OW20320   3.940   5.310   5.663
 6474SOL    HW120321   4.012   5.298   5.595
 6474SOL    HW220322   3.899   5.401   5.652
 6475SOL     OW20323   5.383   5.093   3.593
 6475SOL    HW120324   5.450   5.067   3.524
 6475SOL    HW220325   5.387   5.028   3.669
 6476SOL     OW20326   3.581   2.660   6.767
 6476SOL    HW120327   3.555   2.711   6.849
 6476SOL    HW220328   3.499   2.623   6.723
 6477SOL     OW20329   6.910   5.367   0.717
 6477SOL    HW120330   6.889   5.299   0.647
 6477SOL    HW220331   6.945   5.322   0.799
 6478SOL     OW20332   2.564   5.809   1.525
 6478SOL    HW120333   2.531   5.789   1.433
 6478SOL    HW220334   2.561   5.908   1.541
 6479SOL     OW20335   3.171   5.217   4.457
 6479SOL    HW120336   3.264   5.245   4.432
 6479SOL    HW220337   3.107   5.288   4.428
 6480SOL     OW20338   2.337   1.469   0.205
 6480SOL    HW120339   2.266   1.531   0.240
 6480SOL    HW220340   2.306   1.428   0.119
 6481SOL     OW20341   3.251   2.350   1.675
 6481SOL    HW120342   3.170   2.402   1.651
 6481SOL    HW220343   3.252   2.264   1.624
 6482SOL     OW20344   6.657   2.152   5.487
 6482SOL    HW120345   6.693   2.207   5.562
 6482SOL    HW220346   6.650   2.057   5.517
 6483SOL     OW20347   1.086   5.864   4.064
 6483SOL    HW120348   1.067   5.913   3.978
 6483SOL    HW220349   1.026   5.785   4.071
 6484SOL     OW20350   2.507   1.709   2.509
 6484SOL    HW120351   2.580   1.748   2.565
 6484SOL    HW220352   2.511   1.748   2.417
 6485SOL     OW20353   2.249   6.039   4.495
 6485SOL    HW120354   2.345   6.013   4.485
 6485SOL    HW220355   2.194   5.958   4.515
 6486SOL     OW20356   0.980   4.789   2.995
 6486SOL    HW120357   0.945   4.717   2.935
 6486SOL    HW220358   0.965   4.763   3.090
 6487SOL     OW20359   1.093   5.631   4.331
 6487SOL    HW120360   1.140   5.557   4.283
 6487SOL    HW220361   1.145   5.716   4.322
 6488SOL     OW20362   4.669   5.988   5.226
 6488SOL    HW120363   4.729   5.935   5.287
 6488SOL    HW220364   4.595   5.930   5.193
 6489SOL     OW20365   3.027   3.151   6.493
 6489SOL    HW120366   2.963   3.074   6.493
 6489SOL    HW220367   3.066   3.161   6.402
 6490SOL     OW20368   2.609   1.589   6.518
 6490SOL    HW120369   2.663   1.538   6.451
 6490SOL    HW220370   2.594   1.682   6.484
 6491SOL     OW20371   2.218   0.601   1.174
 6491SOL    HW120372   2.226   0.509   1.136
 6491SOL    HW220373   2.269   0.606   1.260
 6492SOL     OW20374   3.654   3.805   4.171
 6492SOL    HW120375   3.641   3.740   4.246
 6492SOL    HW220376   3.708   3.883   4.203
 6493SOL     OW20377   1.624   4.643   6.378
 6493SOL    HW120378   1.651   4.591   6.297
 6493SOL    HW220379   1.660   4.736   6.370
 6494SOL     OW20380   6.306   6.155   2.678
 6494SOL    HW120381   6.358   6.108   2.749
 6494SOL    HW220382   6.283   6.247   2.709
 6495SOL     OW20383   6.785   6.807   4.807
 6495SOL    HW120384   6.725   6.865   4.861
 6495SOL    HW220385   6.839   6.749   4.868
 6496SOL     OW20386   5.072   6.697   1.422
 6496SOL    HW120387   5.036   6.748   1.344
 6496SOL    HW220388   5.007   6.703   1.498
 6497SOL     OW20389   0.967   1.028   1.402
 6497SOL    HW120390   1.003   1.104   1.349
 6497SOL    HW220391   1.039   0.989   1.459
 6498SOL     OW20392   0.690   3.851   4.128
 6498SOL    HW120393   0.719   3.812   4.040
 6498SOL    HW220394   0.643   3.781   4.181
 6499SOL     OW20395   5.467   3.756   4.296
 6499SOL    HW120396   5.544   3.814   4.269
 6499SOL    HW220397   5.398   3.812   4.342
 6500SOL     OW20398   0.573   3.946   2.265
 6500SOL    HW120399   0.648   4.012   2.274
 6500SOL    HW220400   0.487   3.995   2.252
 6501SOL     OW20401   0.083   1.506   0.944
 6501SOL    HW120402   0.059   1.586   0.890
 6501SOL    HW220403   0.104   1.429   0.884
 6502SOL     OW20404   6.458   3.915   1.629
 6502SOL    HW120405   6.471   3.826   1.672
 6502SOL    HW220406   6.507   3.918   1.542
 6503SOL     OW20407   6.404   0.912   5.027
 6503SOL    HW120408   6.328   0.973   5.010
 6503SOL    HW220409   6.490   0.963   5.024
 6504SOL     OW20410   4.578   6.598   6.622
 6504SOL    HW120411   4.652   6.531   6.612
 6504SOL    HW220412   4.505   6.559   6.678
 6505SOL     OW20413   5.307   6.733   6.702
 6505SOL    HW120414   5.271   6.776   6.784
 6505SOL    HW220415   5.407   6.736   6.704
 6506SOL     OW20416   0.195   3.283   3.556
 6506SOL    HW120417   0.203   3.334   3.642
 6506SOL    HW220418   0.244   3.331   3.484
 6507SOL     OW20419   2.567   5.566   6.304
 6507SOL    HW120420   2.533   5.637   6.366
 6507SOL    HW220421   2.647   5.601   6.254
 6508SOL     OW20422   1.884   6.936   2.586
 6508SOL    HW120423   1.880   6.961   2.683
 6508SOL    HW220424   1.956   6.988   2.541
 6509SOL     OW20425   4.987   1.304   5.531
 6509SOL    HW120426   4.935   1.388   5.548
 6509SOL    HW220427   5.046   1.317   5.451
 6510SOL     OW20428   4.384   5.922   6.499
 6510SOL    HW120429   4.352   6.001   6.447
 6510SOL    HW220430   4.402   5.949   6.594
 6511SOL     OW20431   4.080   0.556   5.650
 6511SOL    HW120432   4.106   0.517   5.562
 6511SOL    HW220433   4.111   0.495   5.723
 6512SOL     OW20434   3.034   6.272   2.798
 6512SOL    HW120435   3.085   6.298   2.879
 6512SOL    HW220436   3.098   6.251   2.723
 6513SOL     OW20437   2.634   6.284   4.400
 6513SOL    HW120438   2.727   6.280   4.434
 6513SOL    HW220439   2.585   6.360   4.444
 6514SOL     OW20440   5.800   0.571   4.833
 6514SOL    HW120441   5.736   0.640   4.866
 6514SOL    HW220442   5.893   0.608   4.834
 6515SOL     OW20443   2.012   4.267   2.390
 6515SOL    HW120444   1.965   4.208   2.456
 6515SOL    HW220445   1.969   4.258   2.300
 6516SOL     OW20446   6.709   3.323   1.989
 6516SOL    HW120447   6.793   3.362   2.028
 6516SOL    HW220448   6.631   3.349   2.045
 6517SOL     OW20449   0.354   2.084   0.697
 6517SOL    HW120450   0.341   2.165   0.754
 6517SOL    HW220451   0.351   2.111   0.601
 6518SOL     OW20452   6.541   0.835   2.293
 6518SOL    HW120453   6.601   0.756   2.307
 6518SOL    HW220454   6.505   0.834   2.200
 6519SOL     OW20455   0.436   0.704   3.278
 6519SOL    HW120456   0.445   0.676   3.373
 6519SOL    HW220457   0.436   0.804   3.273
 6520SOL     OW20458   6.851   5.765   6.404
 6520SOL    HW120459   6.870   5.669   6.428
 6520SOL    HW220460   6.834   5.773   6.306
 6521SOL     OW20461   1.587   2.787   2.784
 6521SOL    HW120462   1.617   2.837   2.865
 6521SOL    HW220463   1.498   2.821   2.755
 6522SOL     OW20464   2.511   4.397   5.260
 6522SOL    HW120465   2.561   4.311   5.251
 6522SOL    HW220466   2.503   4.441   5.170
 6523SOL     OW20467   4.524   6.762   6.888
 6523SOL    HW120468   4.469   6.690   6.929
 6523SOL    HW220469   4.500   6.771   6.791
 6524SOL     OW20470   3.019   2.481   1.659
 6524SOL    HW120471   2.984   2.445   1.745
 6524SOL    HW220472   2.978   2.430   1.582
 6525SOL     OW20473   2.624   5.426   3.564
 6525SOL    HW120474   2.710   5.378   3.583
 6525SOL    HW220475   2.643   5.510   3.514
 6526SOL     OW20476   0.507   0.031   1.004
 6526SOL    HW120477   0.426   6.993   1.020
 6526SOL    HW220478   0.482   0.128   1.004
 6527SOL     OW20479   0.438   2.136   0.445
 6527SOL    HW120480   0.486   2.050   0.431
 6527SOL    HW220481   0.500   2.202   0.489
 6528SOL     OW20482   6.888   1.511   6.362
 6528SOL    HW120483   6.806   1.459   6.337
 6528SOL    HW220484   6.861   1.596   6.407
 6529SOL     OW20485   0.790   0.388   2.847
 6529SOL    HW120486   0.734   0.466   2.875
 6529SOL    HW220487   0.879   0.421   2.814
 6530SOL     OW20488   0.514   2.158   1.292
 6530SOL    HW120489   0.439   2.194   1.347
 6530SOL    HW220490   0.481   2.081   1.237
 6531SOL     OW20491   4.371   3.485   5.588
 6531SOL    HW120492   4.396   3.493   5.492
 6531SOL    HW220493   4.293   3.545   5.608
 6532SOL     OW20494   1.946   1.282   0.821
 6532SOL    HW120495   2.016   1.259   0.754
 6532SOL    HW220496   1.861   1.235   0.798
 6533SOL     OW20497   4.228   6.195   0.461
 6533SOL    HW120498   4.137   6.164   0.435
 6533SOL    HW220499   4.294   6.165   0.392
 6534SOL     OW20500   5.214   4.821   1.544
 6534SOL    HW120501   5.226   4.723   1.532
 6534SOL    HW220502   5.284   4.870   1.492
 6535SOL     OW20503   5.869   4.301   4.296
 6535SOL    HW120504   5.933   4.364   4.340
 6535SOL    HW220505   5.775   4.326   4.318
 6536SOL     OW20506   0.580   1.848   5.491
 6536SOL    HW120507   0.507   1.784   5.468
 6536SOL    HW220508   0.668   1.811   5.460
 6537SOL     OW20509   6.765   4.834   4.560
 6537SOL    HW120510   6.780   4.753   4.503
 6537SOL    HW220511   6.667   4.849   4.571
 6538SOL     OW20512   1.602   3.815   5.747
 6538SOL    HW120513   1.656   3.820   5.663
 6538SOL    HW220514   1.576   3.908   5.775
 6539SOL     OW20515   5.002   0.584   6.787
 6539SOL    HW120516   5.083   0.636   6.758
 6539SOL    HW220517   4.927   0.601   6.723
 6540SOL     OW20518   2.293   2.675   6.078
 6540SOL    HW120519   2.392   2.682   6.093
 6540SOL    HW220520   2.269   2.580   6.059
 6541SOL     OW20521   5.376   2.364   5.890
 6541SOL    HW120522   5.379   2.264   5.897
 6541SOL    HW220523   5.285   2.396   5.916
 6542SOL     OW20524   1.398   3.212   4.665
 6542SOL    HW120525   1.488   3.180   4.635
 6542SOL    HW220526   1.350   3.253   4.587
 6543SOL     OW20527   3.757   2.439   5.965
 6543SOL    HW120528   3.835   2.389   5.928
 6543SOL    HW220529   3.764   2.535   5.941
 6544SOL     OW20530   7.006   6.431   2.217
 6544SOL    HW120531   6.928   6.369   2.221
 6544SOL    HW220532   6.978   6.522   2.249
 6545SOL     OW20533   4.102   6.872   0.417
 6545SOL    HW120534   4.100   6.772   0.411
 6545SOL    HW220535   4.087   6.899   0.512
 6546SOL     OW20536   4.521   4.101   6.828
 6546SOL    HW120537   4.479   4.062   6.746
 6546SOL    HW220538   4.603   4.151   6.802
 6547SOL     OW20539   4.752   0.482   5.762
 6547SOL    HW120540   4.803   0.397   5.778
 6547SOL    HW220541   4.655   0.461   5.753
 6548SOL     OW20542   1.322   3.324   6.844
 6548SOL    HW120543   1.231   3.298   6.876
 6548SOL    HW220544   1.372   3.367   6.919
 6549SOL     OW20545   4.784   0.236   2.086
 6549SOL    HW120546   4.800   0.194   1.996
 6549SOL    HW220547   4.865   0.223   2.143
 6550SOL     OW20548   0.153   6.865   3.719
 6550SOL    HW120549   0.125   6.938   3.782
 6550SOL    HW220550   0.104   6.781   3.744
 6551SOL     OW20551   2.706   3.309   1.773
 6551SOL    HW120552   2.656   3.391   1.745
 6551SOL    HW220553   2.800   3.334   1.796
 6552SOL     OW20554   2.503   0.308   0.610
 6552SOL    HW120555   2.563   0.354   0.676
 6552SOL    HW220556   2.539   0.217   0.589
 6553SOL     OW20557   0.977   1.629   3.034
 6553SOL    HW120558   1.015   1.663   2.948
 6553SOL    HW220559   1.051   1.612   3.099
 6554SOL     OW20560   2.740   0.874   5.368
 6554SOL    HW120561   2.722   0.900   5.463
 6554SOL    HW220562   2.673   0.919   5.309
 6555SOL     OW20563   6.142   1.857   4.070
 6555SOL    HW120564   6.053   1.819   4.095
 6555SOL    HW220565   6.212   1.786   4.075
 6556SOL     OW20566   6.157   3.179   2.609
 6556SOL    HW120567   6.089   3.216   2.671
 6556SOL    HW220568   6.116   3.108   2.553
 6557SOL     OW20569   2.615   0.582   2.344
 6557SOL    HW120570   2.575   0.495   2.372
 6557SOL    HW220571   2.565   0.619   2.267
 6558SOL     OW20572   5.603   5.547   0.243
 6558SOL    HW120573   5.695   5.554   0.283
 6558SOL    HW220574   5.564   5.638   0.234
 6559SOL     OW20575   6.970   3.626   6.019
 6559SOL    HW120576   6.886   3.679   6.015
 6559SOL    HW220577   0.028   3.684   6.051
 6560SOL     OW20578   3.980   4.593   0.906
 6560SOL    HW120579   4.035   4.668   0.868
 6560SOL    HW220580   3.891   4.591   0.862
 6561SOL     OW20581   3.898   4.583   1.164
 6561SOL    HW120582   3.948   4.556   1.082
 6561SOL    HW220583   3.921   4.522   1.239
 6562SOL     OW20584   5.565   2.470   1.294
 6562SOL    HW120585   5.494   2.530   1.329
 6562SOL    HW220586   5.638   2.461   1.362
 6563SOL     OW20587   4.922   0.591   6.134
 6563SOL    HW120588   4.927   0.502   6.089
 6563SOL    HW220589   4.984   0.655   6.089
 6564SOL     OW20590   6.382   3.565   1.970
 6564SOL    HW120591   6.351   3.655   1.999
 6564SOL    HW220592   6.311   3.522   1.914
 6565SOL     OW20593   6.420   6.210   3.131
 6565SOL    HW120594   6.421   6.282   3.201
 6565SOL    HW220595   6.486   6.232   3.060
 6566SOL     OW20596   3.281   5.118   1.820
 6566SOL    HW120597   3.260   5.147   1.913
 6566SOL    HW220598   3.288   5.018   1.817
 6567SOL     OW20599   4.768   0.903   1.698
 6567SOL    HW120600   4.710   0.823   1.712
 6567SOL    HW220601   4.715   0.986   1.715
 6568SOL     OW20602   3.832   2.114   3.136
 6568SOL    HW120603   3.836   2.168   3.220
 6568SOL    HW220604   3.854   2.172   3.058
 6569SOL     OW20605   1.399   3.651   6.450
 6569SOL    HW120606   1.484   3.608   6.421
 6569SOL    HW220607   1.381   3.629   6.545
 6570SOL     OW20608   3.592   0.938   2.788
 6570SOL    HW120609   3.594   0.856   2.846
 6570SOL    HW220610   3.686   0.964   2.765
 6571SOL     OW20611   2.902   4.777   2.440
 6571SOL    HW120612   2.875   4.787   2.344
 6571SOL    HW220613   2.821   4.763   2.497
 6572SOL     OW20614   0.132   3.349   3.977
 6572SOL    HW120615   0.141   3.272   4.040
 6572SOL    HW220616   0.222   3.385   3.954
 6573SOL     OW20617   1.579   1.306   3.074
 6573SOL    HW120618   1.520   1.241   3.026
 6573SOL    HW220619   1.528   1.347   3.150
 6574SOL     OW20620   2.400   6.173   3.337
 6574SOL    HW120621   2.455   6.122   3.271
 6574SOL    HW220622   2.402   6.270   3.314
 6575SOL     OW20623   0.559   6.698   3.262
 6575SOL    HW120624   0.576   6.689   3.360
 6575SOL    HW220625   0.616   6.771   3.225
 6576SOL     OW20626   3.154   5.457   0.706
 6576SOL    HW120627   3.081   5.421   0.648
 6576SOL    HW220628   3.148   5.416   0.797
 6577SOL     OW20629   1.600   1.821   3.607
 6577SOL    HW120630   1.640   1.730   3.608
 6577SOL    HW220631   1.672   1.890   3.620
 6578SOL     OW20632   0.767   5.924   2.110
 6578SOL    HW120633   0.794   5.910   2.205
 6578SOL    HW220634   0.806   6.009   2.076
 6579SOL     OW20635   6.980   2.488   4.424
 6579SOL    HW120636   6.921   2.526   4.495
 6579SOL    HW220637   6.932   2.414   4.377
 6580SOL     OW20638   0.849   1.690   0.790
 6580SOL    HW120639   0.791   1.628   0.738
 6580SOL    HW220640   0.945   1.663   0.780
 6581SOL     OW20641   1.433   0.652   0.993
 6581SOL    HW120642   1.398   0.699   0.912
 6581SOL    HW220643   1.522   0.613   0.973
 6582SOL     OW20644   6.444   0.482   2.818
 6582SOL    HW120645   6.515   0.438   2.875
 6582SOL    HW220646   6.393   0.411   2.769
 6583SOL     OW20647   5.138   6.487   5.319
 6583SOL    HW120648   5.082   6.414   5.359
 6583SOL    HW220649   5.229   6.485   5.360
 6584SOL     OW20650   3.625   2.482   0.579
 6584SOL    HW120651   3.604   2.534   0.661
 6584SOL    HW220652   3.630   2.545   0.501
 6585SOL     OW20653   6.715   6.537   6.992
 6585SOL    HW120654   6.620   6.564   7.005
 6585SOL    HW220655   6.754   6.587   6.915
 6586SOL     OW20656   6.546   2.095   6.025
 6586SOL    HW120657   6.516   2.000   6.038
 6586SOL    HW220658   6.607   2.121   6.099
 6587SOL     OW20659   1.402   4.553   6.678
 6587SOL    HW120660   1.494   4.516   6.688
 6587SOL    HW220661   1.397   4.612   6.598
 6588SOL     OW20662   0.304   3.328   1.238
 6588SOL    HW120663   0.348   3.284   1.160
 6588SOL    HW220664   0.374   3.367   1.298
 6589SOL     OW20665   4.809   0.972   2.240
 6589SOL    HW120666   4.856   1.058   2.258
 6589SOL    HW220667   4.816   0.950   2.143
 6590SOL     OW20668   0.702   6.899   5.341
 6590SOL    HW120669   0.702   6.918   5.243
 6590SOL    HW220670   0.608   6.888   5.372
 6591SOL     OW20671   5.545   6.642   3.531
 6591SOL    HW120672   5.565   6.726   3.581
 6591SOL    HW220673   5.630   6.598   3.504
 6592SOL     OW20674   4.780   0.434   2.507
 6592SOL    HW120675   4.766   0.436   2.408
 6592SOL    HW220676   4.869   0.393   2.527
 6593SOL     OW20677   2.854   2.305   2.348
 6593SOL    HW120678   2.904   2.342   2.270
 6593SOL    HW220679   2.812   2.218   2.322
 6594SOL     OW20680   3.747   1.788   5.612
 6594SOL    HW120681   3.786   1.862   5.558
 6594SOL    HW220682   3.815   1.756   5.678
 6595SOL     OW20683   1.320   3.336   5.533
 6595SOL    HW120684   1.241   3.276   5.538
 6595SOL    HW220685   1.391   3.292   5.478
 6596SOL     OW20686   3.771   6.458   3.464
 6596SOL    HW120687   3.728   6.539   3.503
 6596SOL    HW220688   3.705   6.382   3.466
 6597SOL     OW20689   1.646   5.135   2.175
 6597SOL    HW120690   1.679   5.165   2.085
 6597SOL    HW220691   1.712   5.071   2.215
 6598SOL     OW20692   1.995   4.654   4.099
 6598SOL    HW120693   1.954   4.745   4.091
 6598SOL    HW220694   2.094   4.660   4.082
 6599SOL     OW20695   4.590   6.017   6.843
 6599SOL    HW120696   4.500   5.975   6.827
 6599SOL    HW220697   4.644   5.958   6.903
 6600SOL     OW20698   3.817   6.866   4.519
 6600SOL    HW120699   3.896   6.805   4.528
 6600SOL    HW220700   3.738   6.824   4.563
 6601SOL     OW20701   0.419   2.280   3.325
 6601SOL    HW120702   0.366   2.237   3.400
 6601SOL    HW220703   0.389   2.242   3.238
 6602SOL     OW20704   1.984   0.378   1.274
 6602SOL    HW120705   2.014   0.442   1.344
 6602SOL    HW220706   2.002   0.284   1.305
 6603SOL     OW20707   0.842   2.796   4.066
 6603SOL    HW120708   0.812   2.702   4.052
 6603SOL    HW220709   0.763   2.857   4.067
 6604SOL     OW20710   1.726   0.343   1.138
 6604SOL    HW120711   1.649   0.364   1.198
 6604SOL    HW220712   1.808   0.388   1.173
 6605SOL     OW20713   5.779   5.937   2.658
 6605SOL    HW120714   5.867   5.908   2.696
 6605SOL    HW220715   5.773   6.037   2.660
 6606SOL     OW20716   6.721   4.546   2.928
 6606SOL    HW120717   6.701   4.611   2.854
 6606SOL    HW220718   6.669   4.571   3.010
 6607SOL     OW20719   6.612   5.145   3.755
 6607SOL    HW120720   6.537   5.158   3.690
 6607SOL    HW220721   6.611   5.220   3.822
 6608SOL     OW20722   0.056   0.297   0.530
 6608SOL    HW120723   0.041   0.319   0.626
 6608SOL    HW220724   6.996   0.331   0.476
 6609SOL     OW20725   5.276   1.128   6.406
 6609SOL    HW120726   5.195   1.186   6.398
 6609SOL    HW220727   5.265   1.065   6.483
 6610SOL     OW20728   2.597   6.826   0.066
 6610SOL    HW120729   2.671   6.824   0.133
 6610SOL    HW220730   2.537   6.748   0.080
 6611SOL     OW20731   5.186   3.054   3.196
 6611SOL    HW120732   5.183   3.128   3.128
 6611SOL    HW220733   5.169   3.092   3.287
 6612SOL     OW20734   6.737   2.138   6.201
 6612SOL    HW120735   6.759   2.065   6.266
 6612SOL    HW220736   6.765   2.226   6.240
 6613SOL     OW20737   5.156   0.087   5.708
 6613SOL    HW120738   5.220   0.080   5.784
 6613SOL    HW220739   5.080   0.146   5.734
 6614SOL     OW20740   4.689   6.955   0.556
 6614SOL    HW120741   4.686   0.037   0.549
 6614SOL    HW220742   4.778   6.927   0.593
 6615SOL     OW20743   2.358   5.727   0.581
 6615SOL    HW120744   2.312   5.727   0.670
 6615SOL    HW220745   2.417   5.808   0.575
 6616SOL     OW20746   4.721   0.071   6.204
 6616SOL    HW120747   4.742   7.013   6.141
 6616SOL    HW220748   4.626   0.100   6.190
 6617SOL     OW20749   4.519   6.339   3.439
 6617SOL    HW120750   4.460   6.415   3.467
 6617SOL    HW220751   4.613   6.370   3.432
 6618SOL     OW20752   1.126   1.501   2.642
 6618SOL    HW120753   1.176   1.494   2.728
 6618SOL    HW220754   1.176   1.560   2.579
 6619SOL     OW20755   4.482   6.959   3.533
 6619SOL    HW120756   4.545   6.969   3.456
 6619SOL    HW220757   4.514   7.015   3.610
 6620SOL     OW20758   2.085   3.670   4.769
 6620SOL    HW120759   2.139   3.754   4.768
 6620SOL    HW220760   2.060   3.646   4.675
 6621SOL     OW20761   3.684   2.599   5.317
 6621SOL    HW120762   3.601   2.640   5.355
 6621SOL    HW220763   3.724   2.661   5.249
 6622SOL     OW20764   6.434   5.841   2.082
 6622SOL    HW120765   6.497   5.779   2.128
 6622SOL    HW220766   6.346   5.841   2.130
 6623SOL     OW20767   3.436   4.126   4.646
 6623SOL    HW120768   3.454   4.070   4.726
 6623SOL    HW220769   3.339   4.148   4.642
 6624SOL     OW20770   0.567   3.500   5.754
 6624SOL    HW120771   0.587   3.405   5.728
 6624SOL    HW220772   0.640   3.560   5.722
 6625SOL     OW20773   5.225   2.126   5.219
 6625SOL    HW120774   5.248   2.033   5.190
 6625SOL    HW220775   5.230   2.187   5.140
 6626SOL     OW20776   3.467   6.595   5.672
 6626SOL    HW120777   3.461   6.579   5.574
 6626SOL    HW220778   3.502   6.514   5.718
 6627SOL     OW20779   2.044   6.410   4.275
 6627SOL    HW120780   2.050   6.492   4.218
 6627SOL    HW220781   2.091   6.334   4.229
 6628SOL     OW20782   5.015   4.881   3.630
 6628SOL    HW120783   5.053   4.912   3.717
 6628SOL    HW220784   4.927   4.838   3.646
 6629SOL     OW20785   4.623   5.557   6.190
 6629SOL    HW120786   4.592   5.651   6.208
 6629SOL    HW220787   4.565   5.493   6.240
 6630SOL     OW20788   3.688   1.485   1.765
 6630SOL    HW120789   3.605   1.447   1.724
 6630SOL    HW220790   3.665   1.528   1.852
 6631SOL     OW20791   2.197   5.520   4.303
 6631SOL    HW120792   2.151   5.553   4.386
 6631SOL    HW220793   2.240   5.432   4.322
 6632SOL     OW20794   1.303   0.964   1.134
 6632SOL    HW120795   1.285   0.868   1.156
 6632SOL    HW220796   1.266   1.023   1.206
 6633SOL     OW20797   2.864   4.927   6.036
 6633SOL    HW120798   2.872   4.950   5.939
 6633SOL    HW220799   2.840   4.831   6.046
 6634SOL     OW20800   4.403   1.863   5.155
 6634SOL    HW120801   4.490   1.848   5.107
 6634SOL    HW220802   4.403   1.809   5.240
 6635SOL     OW20803   4.823   4.072   3.283
 6635SOL    HW120804   4.809   4.046   3.187
 6635SOL    HW220805   4.855   4.167   3.287
 6636SOL     OW20806   3.441   1.395   0.653
 6636SOL    HW120807   3.384   1.477   0.662
 6636SOL    HW220808   3.537   1.420   0.669
 6637SOL     OW20809   2.577   0.243   6.231
 6637SOL    HW120810   2.550   0.211   6.322
 6637SOL    HW220811   2.505   0.221   6.165
 6638SOL     OW20812   3.180   3.719   3.271
 6638SOL    HW120813   3.085   3.690   3.283
 6638SOL    HW220814   3.198   3.729   3.173
 6639SOL     OW20815   3.512   3.960   6.458
 6639SOL    HW120816   3.521   4.032   6.527
 6639SOL    HW220817   3.557   3.989   6.373
 6640SOL     OW20818   6.945   2.344   4.764
 6640SOL    HW120819   6.957   2.440   4.741
 6640SOL    HW220820   6.944   2.289   4.680
 6641SOL     OW20821   3.574   1.622   6.737
 6641SOL    HW120822   3.555   1.558   6.811
 6641SOL    HW220823   3.554   1.715   6.767
 6642SOL     OW20824   2.027   5.483   6.134
 6642SOL    HW120825   1.976   5.409   6.090
 6642SOL    HW220826   2.089   5.524   6.068
 6643SOL     OW20827   6.482   6.873   0.421
 6643SOL    HW120828   6.529   6.956   0.452
 6643SOL    HW220829   6.418   6.896   0.349
 6644SOL     OW20830   2.082   6.047   3.102
 6644SOL    HW120831   2.019   6.025   3.176
 6644SOL    HW220832   2.135   6.129   3.126
 6645SOL     OW20833   5.802   3.155   0.821
 6645SOL    HW120834   5.743   3.223   0.776
 6645SOL    HW220835   5.766   3.136   0.913
 6646SOL     OW20836   4.371   1.028   5.515
 6646SOL    HW120837   4.344   0.954   5.577
 6646SOL    HW220838   4.465   1.014   5.485
 6647SOL     OW20839   4.504   6.600   0.673
 6647SOL    HW120840   4.542   6.660   0.743
 6647SOL    HW220841   4.575   6.579   0.606
 6648SOL     OW20842   3.292   6.038   4.546
 6648SOL    HW120843   3.204   6.002   4.577
 6648SOL    HW220844   3.356   6.038   4.622
 6649SOL     OW20845   5.821   2.905   6.290
 6649SOL    HW120846   5.734   2.913   6.338
 6649SOL    HW220847   5.876   2.833   6.332
 6650SOL     OW20848   3.475   1.619   4.990
 6650SOL    HW120849   3.376   1.619   4.975
 6650SOL    HW220850   3.506   1.525   5.005
 6651SOL     OW20851   1.747   1.919   6.364
 6651SOL    HW120852   1.846   1.927   6.360
 6651SOL    HW220853   1.721   1.856   6.437
 6652SOL     OW20854   0.367   4.939   6.920
 6652SOL    HW120855   0.312   4.934   7.003
 6652SOL    HW220856   0.309   4.969   6.844
 6653SOL     OW20857   4.644   2.880   0.735
 6653SOL    HW120858   4.579   2.925   0.796
 6653SOL    HW220859   4.599   2.857   0.649
 6654SOL     OW20860   0.492   5.709   2.638
 6654SOL    HW120861   0.525   5.751   2.553
 6654SOL    HW220862   0.426   5.636   2.616
 6655SOL     OW20863   0.111   6.099   2.033
 6655SOL    HW120864   0.129   6.117   2.130
 6655SOL    HW220865   0.089   6.185   1.987
 6656SOL     OW20866   5.499   2.232   3.202
 6656SOL    HW120867   5.458   2.197   3.118
 6656SOL    HW220868   5.561   2.163   3.240
 6657SOL     OW20869   6.070   2.976   5.074
 6657SOL    HW120870   6.032   2.929   5.154
 6657SOL    HW220871   5.999   3.033   5.033
 6658SOL     OW20872   6.320   6.913   5.983
 6658SOL    HW120873   6.376   6.975   6.037
 6658SOL    HW220874   6.379   6.846   5.937
 6659SOL     OW20875   1.037   3.546   1.417
 6659SOL    HW120876   1.102   3.550   1.494
 6659SOL    HW220877   0.987   3.632   1.411
 6660SOL     OW20878   1.894   5.316   1.533
 6660SOL    HW120879   1.972   5.254   1.531
 6660SOL    HW220880   1.922   5.404   1.572
 6661SOL     OW20881   2.850   0.652   5.304
 6661SOL    HW120882   2.818   0.746   5.318
 6661SOL    HW220883   2.787   0.589   5.349
 6662SOL     OW20884   1.832   0.743   0.645
 6662SOL    HW120885   1.923   0.781   0.634
 6662SOL    HW220886   1.839   0.650   0.683
 6663SOL     OW20887   0.783   6.541   4.812
 6663SOL    HW120888   0.739   6.518   4.725
 6663SOL    HW220889   0.784   6.460   4.871
 6664SOL     OW20890   2.174   0.143   0.949
 6664SOL    HW120891   2.239   0.082   0.904
 6664SOL    HW220892   2.167   0.228   0.897
 6665SOL     OW20893   1.748   6.673   5.246
 6665SOL    HW120894   1.803   6.616   5.307
 6665SOL    HW220895   1.806   6.705   5.170
 6666SOL     OW20896   6.213   5.206   5.779
 6666SOL    HW120897   6.270   5.158   5.713
 6666SOL    HW220898   6.222   5.164   5.869
 6667SOL     OW20899   6.698   6.687   5.550
 6667SOL    HW120900   6.755   6.764   5.520
 6667SOL    HW220901   6.665   6.704   5.643
 6668SOL     OW20902   6.427   5.952   1.122
 6668SOL    HW120903   6.330   5.931   1.132
 6668SOL    HW220904   6.447   6.042   1.160
 6669SOL     OW20905   3.258   2.146   1.507
 6669SOL    HW120906   3.349   2.107   1.495
 6669SOL    HW220907   3.190   2.074   1.496
 6670SOL     OW20908   3.617   0.957   5.904
 6670SOL    HW120909   3.599   0.870   5.949
 6670SOL    HW220910   3.664   0.941   5.817
 6671SOL     OW20911   5.723   6.701   0.002
 6671SOL    HW120912   5.666   6.621   0.021
 6671SOL    HW220913   5.819   6.674   7.013
 6672SOL     OW20914   0.984   2.853   0.036
 6672SOL    HW120915   0.905   2.902   0.073
 6672SOL    HW220916   0.966   2.754   0.039
 6673SOL     OW20917   4.890   4.037   3.691
 6673SOL    HW120918   4.871   3.991   3.605
 6673SOL    HW220919   4.839   3.993   3.765
 6674SOL     OW20920   0.812   3.517   6.888
 6674SOL    HW120921   0.868   3.592   6.923
 6674SOL    HW220922   0.772   3.543   6.800
 6675SOL     OW20923   6.209   2.583   0.163
 6675SOL    HW120924   6.185   2.645   0.238
 6675SOL    HW220925   6.301   2.547   0.178
 6676SOL     OW20926   0.553   3.341   3.166
 6676SOL    HW120927   0.641   3.367   3.207
 6676SOL    HW220928   0.482   3.405   3.197
 6677SOL     OW20929   0.779   0.685   6.689
 6677SOL    HW120930   0.762   0.679   6.591
 6677SOL    HW220931   0.872   0.655   6.709
 6678SOL     OW20932   2.678   4.642   0.678
 6678SOL    HW120933   2.639   4.564   0.728
 6678SOL    HW220934   2.774   4.625   0.658
 6679SOL     OW20935   3.932   0.964   3.889
 6679SOL    HW120936   3.984   0.896   3.839
 6679SOL    HW220937   3.985   0.996   3.968
 6680SOL     OW20938   4.341   6.530   6.781
 6680SOL    HW120939   4.252   6.570   6.805
 6680SOL    HW220940   4.378   6.481   6.860
 6681SOL     OW20941   4.711   5.583   0.835
 6681SOL    HW120942   4.629   5.571   0.891
 6681SOL    HW220943   4.729   5.499   0.784
 6682SOL     OW20944   2.457   4.944   6.889
 6682SOL    HW120945   2.502   4.864   6.851
 6682SOL    HW220946   2.490   5.026   6.842
 6683SOL     OW20947   6.324   3.292   5.529
 6683SOL    HW120948   6.226   3.296   5.549
 6683SOL    HW220949   6.339   3.245   5.442
 6684SOL     OW20950   3.910   6.710   2.116
 6684SOL    HW120951   3.976   6.729   2.043
 6684SOL    HW220952   3.894   6.612   2.123
 6685SOL     OW20953   5.084   2.565   6.156
 6685SOL    HW120954   5.027   2.646   6.168
 6685SOL    HW220955   5.066   2.500   6.229
 6686SOL     OW20956   5.611   6.123   3.681
 6686SOL    HW120957   5.680   6.195   3.689
 6686SOL    HW220958   5.654   6.034   3.692
 6687SOL     OW20959   0.616   2.867   1.877
 6687SOL    HW120960   0.697   2.876   1.820
 6687SOL    HW220961   0.562   2.788   1.847
 6688SOL     OW20962   3.903   4.811   0.559
 6688SOL    HW120963   3.854   4.819   0.472
 6688SOL    HW220964   3.888   4.893   0.614
 6689SOL     OW20965   4.327   3.847   5.799
 6689SOL    HW120966   4.260   3.843   5.873
 6689SOL    HW220967   4.290   3.802   5.718
 6690SOL     OW20968   0.873   6.673   0.783
 6690SOL    HW120969   0.865   6.621   0.698
 6690SOL    HW220970   0.910   6.614   0.854
 6691SOL     OW20971   2.109   0.515   2.578
 6691SOL    HW120972   2.104   0.572   2.496
 6691SOL    HW220973   2.084   0.570   2.658
 6692SOL     OW20974   4.120   3.793   1.960
 6692SOL    HW120975   4.189   3.762   2.025
 6692SOL    HW220976   4.054   3.719   1.944
 6693SOL     OW20977   4.189   2.218   5.016
 6693SOL    HW120978   4.205   2.304   5.064
 6693SOL    HW220979   4.214   2.141   5.075
 6694SOL     OW20980   4.351   6.705   1.328
 6694SOL    HW120981   4.400   6.664   1.405
 6694SOL    HW220982   4.282   6.768   1.363
 6695SOL     OW20983   2.635   2.145   7.016
 6695SOL    HW120984   2.545   2.187   0.012
 6695SOL    HW220985   2.639   2.101   6.927
 6696SOL     OW20986   3.963   3.163   3.685
 6696SOL    HW120987   3.986   3.149   3.781
 6696SOL    HW220988   4.034   3.217   3.641
 6697SOL     OW20989   4.616   2.047   3.123
 6697SOL    HW120990   4.701   2.020   3.168
 6697SOL    HW220991   4.619   2.020   3.027
 6698SOL     OW20992   3.218   3.212   0.853
 6698SOL    HW120993   3.137   3.231   0.798
 6698SOL    HW220994   3.219   3.115   0.877
 6699SOL     OW20995   2.179   6.578   5.552
 6699SOL    HW120996   2.097   6.551   5.603
 6699SOL    HW220997   2.209   6.502   5.494
 6700SOL     OW20998   6.586   1.353   1.199
 6700SOL    HW120999   6.635   1.438   1.183
 6700SOL    HW221000   6.487   1.371   1.204
 6701SOL     OW21001   5.281   6.078   1.778
 6701SOL    HW121002   5.297   5.992   1.729
 6701SOL    HW221003   5.199   6.121   1.743
 6702SOL     OW21004   1.969   2.385   2.235
 6702SOL    HW121005   2.066   2.392   2.211
 6702SOL    HW221006   1.951   2.439   2.317
 6703SOL     OW21007   0.793   0.882   0.350
 6703SOL    HW121008   0.701   0.859   0.382
 6703SOL    HW221009   0.797   0.980   0.332
 6704SOL     OW21010   4.040   2.164   4.310
 6704SOL    HW121011   4.105   2.209   4.372
 6704SOL    HW221012   4.063   2.186   4.216
 6705SOL     OW21013   6.158   2.748   1.003
 6705SOL    HW121014   6.160   2.786   0.911
 6705SOL    HW221015   6.068   2.706   1.019
 6706SOL     OW21016   1.304   5.661   0.523
 6706SOL    HW121017   1.285   5.574   0.567
 6706SOL    HW221018   1.356   5.720   0.585
 6707SOL     OW21019   5.267   6.632   3.517
 6707SOL    HW121020   5.239   6.558   3.579
 6707SOL    HW221021   5.367   6.634   3.511
 6708SOL     OW21022   5.402   5.413   1.365
 6708SOL    HW121023   5.451   5.339   1.318
 6708SOL    HW221024   5.316   5.378   1.402
 6709SOL     OW21025   0.680   5.377   3.168
 6709SOL    HW121026   0.737   5.336   3.096
 6709SOL    HW221027   0.738   5.418   3.238
 6710SOL     OW21028   4.226   0.917   6.919
 6710SOL    HW121029   4.218   1.017   6.928
 6710SOL    HW221030   4.307   0.885   6.968
 6711SOL     OW21031   4.610   6.433   5.989
 6711SOL    HW121032   4.703   6.399   6.004
 6711SOL    HW221033   4.599   6.521   6.035
 6712SOL     OW21034   5.970   3.287   1.360
 6712SOL    HW121035   6.015   3.198   1.373
 6712SOL    HW221036   6.033   3.360   1.386
 6713SOL     OW21037   1.232   0.782   3.087
 6713SOL    HW121038   1.152   0.757   3.032
 6713SOL    HW221039   1.259   0.704   3.144
 6714SOL     OW21040   5.971   1.597   0.457
 6714SOL    HW121041   5.884   1.603   0.507
 6714SOL    HW221042   6.010   1.506   0.471
 6715SOL     OW21043   1.484   0.388   1.281
 6715SOL    HW121044   1.476   0.488   1.274
 6715SOL    HW221045   1.400   0.351   1.319
 6716SOL     OW21046   0.834   5.637   2.250
 6716SOL    HW121047   0.880   5.724   2.233
 6716SOL    HW221048   0.770   5.648   2.327
 6717SOL     OW21049   2.318   1.896   6.700
 6717SOL    HW121050   2.292   1.992   6.710
 6717SOL    HW221051   2.239   1.843   6.670
 6718SOL     OW21052   4.910   0.116   0.694
 6718SOL    HW121053   4.824   0.117   0.746
 6718SOL    HW221054   4.944   0.022   0.690
 6719SOL     OW21055   2.359   6.979   0.376
 6719SOL    HW121056   2.441   7.014   0.422
 6719SOL    HW221057   2.324   0.030   0.313
 6720SOL     OW21058   2.482   1.018   3.590
 6720SOL    HW121059   2.447   1.022   3.497
 6720SOL    HW221060   2.454   1.100   3.640
 6721SOL     OW21061   6.817   6.511   0.877
 6721SOL    HW121062   6.818   6.575   0.800
 6721SOL    HW221063   6.814   6.418   0.843
 6722SOL     OW21064   0.219   3.016   0.015
 6722SOL    HW121065   0.253   2.941   0.073
 6722SOL    HW221066   0.146   3.064   0.064
 6723SOL     OW21067   1.489   6.761   5.257
 6723SOL    HW121068   1.462   6.788   5.165
 6723SOL    HW221069   1.585   6.732   5.257
 6724SOL     OW21070   2.014   2.576   6.364
 6724SOL    HW121071   1.985   2.491   6.409
 6724SOL    HW221072   1.963   2.653   6.403
 6725SOL     OW21073   6.904   2.033   2.452
 6725SOL    HW121074   6.958   1.963   2.405
 6725SOL    HW221075   6.962   2.081   2.518
 6726SOL     OW21076   0.615   2.509   3.995
 6726SOL    HW121077   0.697   2.487   3.941
 6726SOL    HW221078   0.590   2.605   3.980
 6727SOL     OW21079   0.152   4.453   5.764
 6727SOL    HW121080   0.168   4.432   5.668
 6727SOL    HW221081   0.067   4.506   5.773
 6728SOL     OW21082   4.117   1.874   2.674
 6728SOL    HW121083   4.134   1.972   2.686
 6728SOL    HW221084   4.028   1.850   2.713
 6729SOL     OW21085   0.158   1.519   0.619
 6729SOL    HW121086   0.077   1.537   0.674
 6729SOL    HW221087   0.142   1.439   0.561
 6730SOL     OW21088   1.990   6.959   1.004
 6730SOL    HW121089   1.937   6.974   1.088
 6730SOL    HW221090   2.052   0.019   0.989
 6731SOL     OW21091   1.587   6.748   0.592
 6731SOL    HW121092   1.554   6.702   0.509
 6731SOL    HW221093   1.643   6.827   0.566
 6732SOL     OW21094   5.530   4.692   4.557
 6732SOL    HW121095   5.465   4.758   4.595
 6732SOL    HW221096   5.564   4.633   4.629
 6733SOL     OW21097   3.775   5.611   6.166
 6733SOL    HW121098   3.756   5.548   6.241
 6733SOL    HW221099   3.867   5.648   6.176
 6734SOL     OW21100   5.884   2.103   5.644
 6734SOL    HW121101   5.849   2.128   5.554
 6734SOL    HW221102   5.892   2.185   5.701
 6735SOL     OW21103   5.704   3.394   4.450
 6735SOL    HW121104   5.608   3.421   4.452
 6735SOL    HW221105   5.748   3.432   4.368
 6736SOL     OW21106   3.273   3.775   5.905
 6736SOL    HW121107   3.325   3.691   5.891
 6736SOL    HW221108   3.180   3.763   5.871
 6737SOL     OW21109   1.435   3.121   0.895
 6737SOL    HW121110   1.458   3.211   0.859
 6737SOL    HW221111   1.371   3.130   0.971
 6738SOL     OW21112   1.955   5.373   4.132
 6738SOL    HW121113   1.870   5.406   4.172
 6738SOL    HW221114   2.028   5.378   4.201
 6739SOL     OW21115   5.963   6.003   3.826
 6739SOL    HW121116   5.884   6.013   3.886
 6739SOL    HW221117   6.047   6.001   3.880
 6740SOL     OW21118   6.323   0.447   5.581
 6740SOL    HW121119   6.241   0.396   5.555
 6740SOL    HW221120   6.357   0.498   5.502
 6741SOL     OW21121   3.538   2.077   5.374
 6741SOL    HW121122   3.457   2.136   5.375
 6741SOL    HW221123   3.616   2.129   5.340
 6742SOL     OW21124   5.466   5.360   3.507
 6742SOL    HW121125   5.478   5.356   3.408
 6742SOL    HW221126   5.413   5.281   3.538
 6743SOL     OW21127   3.904   4.135   6.209
 6743SOL    HW121128   3.951   4.214   6.247
 6743SOL    HW221129   3.873   4.156   6.116
 6744SOL     OW21130   0.517   6.264   5.051
 6744SOL    HW121131   0.446   6.252   4.982
 6744SOL    HW221132   0.586   6.193   5.042
 6745SOL     OW21133   6.705   6.073   3.698
 6745SOL    HW121134   6.667   6.102   3.786
 6745SOL    HW221135   6.765   5.994   3.712
 6746SOL     OW21136   1.213   0.291   3.522
 6746SOL    HW121137   1.298   0.248   3.554
 6746SOL    HW221138   1.146   0.220   3.501
 6747SOL     OW21139   5.722   0.583   0.068
 6747SOL    HW121140   5.761   0.575   0.160
 6747SOL    HW221141   5.692   0.677   0.053
 6748SOL     OW21142   3.602   1.746   3.060
 6748SOL    HW121143   3.580   1.809   2.985
 6748SOL    HW221144   3.517   1.706   3.095
 6749SOL     OW21145   3.990   4.301   1.005
 6749SOL    HW121146   3.974   4.287   0.908
 6749SOL    HW221147   4.067   4.364   1.017
 6750SOL     OW21148   3.288   1.755   4.278
 6750SOL    HW121149   3.292   1.777   4.181
 6750SOL    HW221150   3.284   1.840   4.331
 6751SOL     OW21151   4.906   0.934   3.507
 6751SOL    HW121152   4.980   0.873   3.480
 6751SOL    HW221153   4.829   0.879   3.542
 6752SOL     OW21154   2.392   0.127   2.625
 6752SOL    HW121155   2.367   0.174   2.710
 6752SOL    HW221156   2.447   0.188   2.568
 6753SOL     OW21157   3.764   1.513   6.053
 6753SOL    HW121158   3.822   1.439   6.087
 6753SOL    HW221159   3.701   1.542   6.125
 6754SOL     OW21160   6.780   0.466   0.971
 6754SOL    HW121161   6.743   0.375   0.952
 6754SOL    HW221162   6.710   0.535   0.955
 6755SOL     OW21163   4.003   3.547   1.319
 6755SOL    HW121164   4.019   3.610   1.395
 6755SOL    HW221165   4.082   3.486   1.310
 6756SOL     OW21166   3.812   6.143   5.465
 6756SOL    HW121167   3.771   6.109   5.380
 6756SOL    HW221168   3.787   6.083   5.541
 6757SOL     OW21169   3.489   2.297   0.384
 6757SOL    HW121170   3.558   2.349   0.434
 6757SOL    HW221171   3.520   2.203   0.373
 6758SOL     OW21172   6.209   3.091   1.884
 6758SOL    HW121173   6.208   3.010   1.943
 6758SOL    HW221174   6.212   3.063   1.789
 6759SOL     OW21175   0.483   3.420   2.773
 6759SOL    HW121176   0.493   3.341   2.712
 6759SOL    HW221177   0.559   3.422   2.838
 6760SOL     OW21178   6.599   3.296   2.502
 6760SOL    HW121179   6.678   3.303   2.440
 6760SOL    HW221180   6.628   3.254   2.588
 6761SOL     OW21181   6.316   2.758   4.713
 6761SOL    HW121182   6.244   2.819   4.679
 6761SOL    HW221183   6.309   2.669   4.668
 6762SOL     OW21184   0.657   4.629   4.027
 6762SOL    HW121185   0.731   4.607   3.963
 6762SOL    HW221186   0.598   4.549   4.038
 6763SOL     OW21187   6.011   5.101   3.817
 6763SOL    HW121188   6.021   5.046   3.900
 6763SOL    HW221189   6.086   5.168   3.813
 6764SOL     OW21190   2.357   5.563   1.687
 6764SOL    HW121191   2.287   5.634   1.693
 6764SOL    HW221192   2.435   5.598   1.635
 6765SOL     OW21193   5.794   4.753   3.154
 6765SOL    HW121194   5.853   4.716   3.226
 6765SOL    HW221195   5.750   4.836   3.186
 6766SOL     OW21196   5.562   6.621   5.562
 6766SOL    HW121197   5.527   6.684   5.632
 6766SOL    HW221198   5.632   6.563   5.601
 6767SOL     OW21199   2.979   0.502   1.772
 6767SOL    HW121200   2.905   0.560   1.807
 6767SOL    HW221201   2.947   0.450   1.693
 6768SOL     OW21202   2.139   0.359   5.263
 6768SOL    HW121203   2.201   0.425   5.304
 6768SOL    HW221204   2.059   0.406   5.227
 6769SOL     OW21205   3.723   1.167   0.635
 6769SOL    HW121206   3.762   1.229   0.567
 6769SOL    HW221207   3.721   1.212   0.724
 6770SOL     OW21208   6.703   0.611   2.382
 6770SOL    HW121209   6.691   0.638   2.478
 6770SOL    HW221210   6.800   0.596   2.363
 6771SOL     OW21211   5.180   2.445   3.354
 6771SOL    HW121212   5.200   2.348   3.339
 6771SOL    HW221213   5.212   2.498   3.276
 6772SOL     OW21214   3.738   1.830   3.265
 6772SOL    HW121215   3.769   1.921   3.290
 6772SOL    HW221216   3.671   1.837   3.190
 6773SOL     OW21217   6.527   5.196   2.631
 6773SOL    HW121218   6.503   5.275   2.687
 6773SOL    HW221219   6.450   5.132   2.630
 6774SOL     OW21220   1.046   2.743   5.747
 6774SOL    HW121221   1.089   2.654   5.730
 6774SOL    HW221222   1.108   2.816   5.718
 6775SOL     OW21223   2.586   2.641   1.700
 6775SOL    HW121224   2.653   2.701   1.658
 6775SOL    HW221225   2.494   2.679   1.688
 6776SOL     OW21226   4.750   5.361   0.280
 6776SOL    HW121227   4.775   5.319   0.367
 6776SOL    HW221228   4.805   5.444   0.266
 6777SOL     OW21229   4.630   4.547   0.340
 6777SOL    HW121230   4.625   4.522   0.437
 6777SOL    HW221231   4.538   4.563   0.304
 6778SOL     OW21232   5.945   4.994   1.825
 6778SOL    HW121233   5.948   5.065   1.754
 6778SOL    HW221234   6.033   4.946   1.827
 6779SOL     OW21235   6.120   5.372   6.710
 6779SOL    HW121236   6.106   5.326   6.622
 6779SOL    HW221237   6.218   5.375   6.730
 6780SOL     OW21238   1.258   3.089   2.021
 6780SOL    HW121239   1.332   3.148   1.989
 6780SOL    HW221240   1.280   2.993   2.000
 6781SOL     OW21241   6.504   1.020   4.309
 6781SOL    HW121242   6.506   0.946   4.376
 6781SOL    HW221243   6.412   1.027   4.270
 6782SOL     OW21244   6.789   0.853   3.759
 6782SOL    HW121245   6.812   0.759   3.782
 6782SOL    HW221246   6.851   0.915   3.808
 6783SOL     OW21247   6.447   2.322   5.911
 6783SOL    HW121248   6.349   2.325   5.932
 6783SOL    HW221249   6.489   2.243   5.956
 6784SOL     OW21250   2.228   3.359   1.156
 6784SOL    HW121251   2.155   3.359   1.088
 6784SOL    HW221252   2.316   3.341   1.112
 6785SOL     OW21253   5.576   4.972   3.439
 6785SOL    HW121254   5.575   4.989   3.341
 6785SOL    HW221255   5.558   4.875   3.457
 6786SOL     OW21256   1.985   1.946   0.017
 6786SOL    HW121257   2.029   2.035   0.000
 6786SOL    HW221258   1.975   1.898   6.947
 6787SOL     OW21259   1.448   2.627   1.544
 6787SOL    HW121260   1.372   2.568   1.519
 6787SOL    HW221261   1.532   2.573   1.549
 6788SOL     OW21262   2.398   4.651   1.184
 6788SOL    HW121263   2.456   4.570   1.196
 6788SOL    HW221264   2.325   4.649   1.252
 6789SOL     OW21265   6.817   5.388   3.713
 6789SOL    HW121266   6.838   5.313   3.651
 6789SOL    HW221267   6.766   5.459   3.663
 6790SOL     OW21268   0.631   4.048   1.581
 6790SOL    HW121269   0.690   3.967   1.582
 6790SOL    HW221270   0.578   4.049   1.497
 6791SOL     OW21271   3.849   2.047   1.366
 6791SOL    HW121272   3.921   2.111   1.391
 6791SOL    HW221273   3.780   2.044   1.439
 6792SOL     OW21274   6.376   6.060   5.142
 6792SOL    HW121275   6.325   6.005   5.076
 6792SOL    HW221276   6.474   6.042   5.131
 6793SOL     OW21277   1.149   1.999   1.079
 6793SOL    HW121278   1.130   2.090   1.117
 6793SOL    HW221279   1.068   1.966   1.030
 6794SOL     OW21280   5.096   1.992   6.123
 6794SOL    HW121281   5.156   1.915   6.147
 6794SOL    HW221282   5.008   1.980   6.168
 6795SOL     OW21283   2.403   6.800   1.542
 6795SOL    HW121284   2.343   6.730   1.581
 6795SOL    HW221285   2.405   6.879   1.603
 6796SOL     OW21286   6.162   0.660   2.096
 6796SOL    HW121287   6.069   0.654   2.062
 6796SOL    HW221288   6.226   0.668   2.019
 6797SOL     OW21289   5.828   2.257   2.212
 6797SOL    HW121290   5.858   2.311   2.133
 6797SOL    HW221291   5.768   2.184   2.181
 6798SOL     OW21292   4.854   6.853   2.007
 6798SOL    HW121293   4.824   6.924   1.943
 6798SOL    HW221294   4.953   6.857   2.018
 6799SOL     OW21295   6.083   6.255   1.328
 6799SOL    HW121296   6.042   6.164   1.343
 6799SOL    HW221297   6.034   6.322   1.383
 6800SOL     OW21298   1.708   3.689   1.686
 6800SOL    HW121299   1.701   3.775   1.736
 6800SOL    HW221300   1.778   3.698   1.615
 6801SOL     OW21301   0.650   6.957   3.143
 6801SOL    HW121302   0.577   6.993   3.084
 6801SOL    HW221303   0.631   6.981   3.238
 6802SOL     OW21304   3.514   5.786   0.605
 6802SOL    HW121305   3.525   5.795   0.506
 6802SOL    HW221306   3.587   5.837   0.651
 6803SOL     OW21307   4.934   3.355   6.212
 6803SOL    HW121308   4.895   3.433   6.162
 6803SOL    HW221309   5.034   3.361   6.210
 6804SOL     OW21310   3.549   5.102   3.532
 6804SOL    HW121311   3.647   5.123   3.535
 6804SOL    HW221312   3.500   5.165   3.591
 6805SOL     OW21313   6.750   4.687   6.498
 6805SOL    HW121314   6.771   4.601   6.453
 6805SOL    HW221315   6.685   4.739   6.442
 6806SOL     OW21316   5.841   0.524   3.957
 6806SOL    HW121317   5.788   0.608   3.966
 6806SOL    HW221318   5.784   0.446   3.982
 6807SOL     OW21319   3.271   3.317   0.247
 6807SOL    HW121320   3.199   3.370   0.291
 6807SOL    HW221321   3.232   3.232   0.210
 6808SOL     OW21322   6.775   1.898   4.857
 6808SOL    HW121323   6.693   1.956   4.856
 6808SOL    HW221324   6.807   1.887   4.951
 6809SOL     OW21325   1.038   2.943   1.533
 6809SOL    HW121326   1.017   3.033   1.496
 6809SOL    HW221327   1.072   2.883   1.461
 6810SOL     OW21328   1.993   0.741   2.410
 6810SOL    HW121329   1.926   0.746   2.484
 6810SOL    HW221330   1.971   0.809   2.340
 6811SOL     OW21331   6.108   3.724   0.841
 6811SOL    HW121332   6.075   3.806   0.796
 6811SOL    HW221333   6.045   3.648   0.822
 6812SOL     OW21334   3.328   3.494   3.376
 6812SOL    HW121335   3.279   3.581   3.367
 6812SOL    HW221336   3.385   3.480   3.295
 6813SOL     OW21337   5.017   2.274   2.484
 6813SOL    HW121338   4.932   2.287   2.432
 6813SOL    HW221339   4.998   2.278   2.582
 6814SOL     OW21340   3.164   1.495   5.692
 6814SOL    HW121341   3.128   1.521   5.603
 6814SOL    HW221342   3.218   1.412   5.683
 6815SOL     OW21343   3.183   6.963   1.404
 6815SOL    HW121344   3.255   6.894   1.398
 6815SOL    HW221345   3.128   6.946   1.486
 6816SOL     OW21346   0.348   0.219   7.011
 6816SOL    HW121347   0.420   0.166   0.037
 6816SOL    HW221348   0.259   0.180   0.018
 6817SOL     OW21349   1.792   2.300   3.076
 6817SOL    HW121350   1.842   2.296   3.162
 6817SOL    HW221351   1.857   2.303   3.000
 6818SOL     OW21352   3.195   5.542   2.133
 6818SOL    HW121353   3.277   5.545   2.190
 6818SOL    HW221354   3.177   5.632   2.094
 6819SOL     OW21355   5.319   0.901   4.370
 6819SOL    HW121356   5.402   0.927   4.320
 6819SOL    HW221357   5.238   0.929   4.319
 6820SOL     OW21358   2.398   5.804   2.649
 6820SOL    HW121359   2.318   5.785   2.705
 6820SOL    HW221360   2.470   5.738   2.672
 6821SOL     OW21361   4.000   1.777   4.487
 6821SOL    HW121362   3.986   1.790   4.388
 6821SOL    HW221363   4.098   1.773   4.507
 6822SOL     OW21364   5.915   2.564   6.863
 6822SOL    HW121365   5.820   2.538   6.845
 6822SOL    HW221366   5.936   2.550   6.959
 6823SOL     OW21367   3.817   3.098   4.854
 6823SOL    HW121368   3.777   3.038   4.785
 6823SOL    HW221369   3.857   3.178   4.810
 6824SOL     OW21370   0.853   2.156   6.528
 6824SOL    HW121371   0.773   2.216   6.534
 6824SOL    HW221372   0.928   2.196   6.581
 6825SOL     OW21373   5.222   6.551   2.148
 6825SOL    HW121374   5.321   6.556   2.163
 6825SOL    HW221375   5.182   6.486   2.213
 6826SOL     OW21376   1.925   3.903   2.715
 6826SOL    HW121377   1.925   3.975   2.784
 6826SOL    HW221378   1.989   3.831   2.742
 6827SOL     OW21379   4.438   5.373   6.289
 6827SOL    HW121380   4.339   5.360   6.292
 6827SOL    HW221381   4.483   5.286   6.304
 6828SOL     OW21382   2.642   1.959   1.432
 6828SOL    HW121383   2.742   1.965   1.426
 6828SOL    HW221384   2.601   2.031   1.375
 6829SOL     OW21385   4.226   6.780   4.161
 6829SOL    HW121386   4.289   6.726   4.217
 6829SOL    HW221387   4.141   6.729   4.148
 6830SOL     OW21388   5.103   1.003   4.230
 6830SOL    HW121389   5.023   0.994   4.290
 6830SOL    HW221390   5.072   1.020   4.136
 6831SOL     OW21391   1.682   0.862   6.901
 6831SOL    HW121392   1.724   0.915   6.975
 6831SOL    HW221393   1.639   0.781   6.939
 6832SOL     OW21394   2.623   4.386   1.213
 6832SOL    HW121395   2.608   4.318   1.286
 6832SOL    HW221396   2.708   4.435   1.230
 6833SOL     OW21397   4.027   4.354   6.306
 6833SOL    HW121398   3.986   4.411   6.376
 6833SOL    HW221399   4.124   4.379   6.295
 6834SOL     OW21400   5.276   6.554   0.875
 6834SOL    HW121401   5.182   6.523   0.891
 6834SOL    HW221402   5.317   6.500   0.801
 6835SOL     OW21403   3.775   6.981   4.026
 6835SOL    HW121404   3.769   6.975   4.126
 6835SOL    HW221405   3.768   6.889   3.987
 6836SOL     OW21406   2.693   5.361   0.135
 6836SOL    HW121407   2.614   5.331   0.082
 6836SOL    HW221408   2.668   5.370   0.232
 6837SOL     OW21409   0.905   1.928   2.474
 6837SOL    HW121410   0.967   2.003   2.453
 6837SOL    HW221411   0.812   1.963   2.483
 6838SOL     OW21412   3.055   6.233   0.320
 6838SOL    HW121413   3.036   6.139   0.347
 6838SOL    HW221414   3.047   6.293   0.400
 6839SOL     OW21415   5.092   0.828   0.228
 6839SOL    HW121416   5.184   0.815   0.267
 6839SOL    HW221417   5.029   0.762   0.269
 6840SOL     OW21418   3.463   1.129   4.643
 6840SOL    HW121419   3.541   1.190   4.660
 6840SOL    HW221420   3.441   1.081   4.728
 6841SOL     OW21421   4.802   4.199   6.756
 6841SOL    HW121422   4.880   4.170   6.810
 6841SOL    HW221423   4.784   4.132   6.684
 6842SOL     OW21424   2.445   3.959   1.038
 6842SOL    HW121425   2.351   3.924   1.039
 6842SOL    HW221426   2.506   3.892   1.080
 6843SOL     OW21427   6.073   6.621   0.850
 6843SOL    HW121428   6.155   6.567   0.869
 6843SOL    HW221429   6.020   6.632   0.935
 6844SOL     OW21430   5.541   0.460   4.218
 6844SOL    HW121431   5.596   0.392   4.169
 6844SOL    HW221432   5.580   0.475   4.309
 6845SOL     OW21433   6.417   3.508   3.256
 6845SOL    HW121434   6.349   3.446   3.217
 6845SOL    HW221435   6.378   3.557   3.334
 6846SOL     OW21436   3.868   3.184   0.344
 6846SOL    HW121437   3.811   3.255   0.384
 6846SOL    HW221438   3.875   3.106   0.407
 6847SOL     OW21439   0.208   3.518   4.741
 6847SOL    HW121440   0.229   3.614   4.759
 6847SOL    HW221441   0.273   3.460   4.790
 6848SOL     OW21442   4.733   4.811   3.580
 6848SOL    HW121443   4.719   4.870   3.659
 6848SOL    HW221444   4.652   4.813   3.521
 6849SOL     OW21445   4.880   4.166   5.262
 6849SOL    HW121446   4.884   4.078   5.214
 6849SOL    HW221447   4.882   4.241   5.196
 6850SOL     OW21448   5.602   3.311   3.012
 6850SOL    HW121449   5.539   3.321   2.934
 6850SOL    HW221450   5.566   3.360   3.091
 6851SOL     OW21451   6.974   2.259   3.390
 6851SOL    HW121452   6.909   2.292   3.322
 6851SOL    HW221453   0.048   2.294   3.369
 6852SOL     OW21454   2.675   4.728   1.394
 6852SOL    HW121455   2.760   4.781   1.387
 6852SOL    HW221456   2.638   4.713   1.303
 6853SOL     OW21457   5.358   4.496   0.015
 6853SOL    HW121458   5.433   4.532   0.071
 6853SOL    HW221459   5.375   4.399   7.014
 6854SOL     OW21460   4.979   0.775   5.469
 6854SOL    HW121461   4.888   0.754   5.504
 6854SOL    HW221462   4.995   0.873   5.475
 6855SOL     OW21463   4.024   6.393   3.989
 6855SOL    HW121464   4.106   6.440   3.956
 6855SOL    HW221465   3.993   6.327   3.921
 6856SOL     OW21466   0.079   2.263   4.974
 6856SOL    HW121467   0.077   2.334   5.044
 6856SOL    HW221468   0.026   2.293   4.895
 6857SOL     OW21469   1.459   2.674   6.396
 6857SOL    HW121470   1.488   2.687   6.301
 6857SOL    HW221471   1.468   2.577   6.420
 6858SOL     OW21472   3.960   4.004   1.815
 6858SOL    HW121473   4.031   3.970   1.877
 6858SOL    HW221474   3.936   3.931   1.751
 6859SOL     OW21475   1.163   0.952   1.590
 6859SOL    HW121476   1.144   0.854   1.587
 6859SOL    HW221477   1.162   0.983   1.685
 6860SOL     OW21478   0.454   5.117   1.329
 6860SOL    HW121479   0.508   5.077   1.255
 6860SOL    HW221480   0.473   5.067   1.414
 6861SOL     OW21481   4.742   3.835   6.872
 6861SOL    HW121482   4.722   3.932   6.885
 6861SOL    HW221483   4.658   3.782   6.879
 6862SOL     OW21484   0.838   5.592   5.465
 6862SOL    HW121485   0.894   5.671   5.489
 6862SOL    HW221486   0.878   5.509   5.503
 6863SOL     OW21487   6.125   6.657   6.204
 6863SOL    HW121488   6.194   6.587   6.187
 6863SOL    HW221489   6.089   6.690   6.116
 6864SOL     OW21490   2.272   4.594   5.031
 6864SOL    HW121491   2.362   4.584   4.988
 6864SOL    HW221492   2.201   4.556   4.972
 6865SOL     OW21493   0.499   6.571   4.322
 6865SOL    HW121494   0.538   6.561   4.230
 6865SOL    HW221495   0.434   6.497   4.338
 6866SOL     OW21496   5.501   5.584   3.060
 6866SOL    HW121497   5.546   5.516   3.002
 6866SOL    HW221498   5.486   5.668   3.007
 6867SOL     OW21499   1.983   3.783   2.184
 6867SOL    HW121500   1.996   3.687   2.159
 6867SOL    HW221501   2.067   3.834   2.165
 6868SOL     OW21502   1.800   6.481   6.234
 6868SOL    HW121503   1.839   6.400   6.190
 6868SOL    HW221504   1.774   6.460   6.327
 6869SOL     OW21505   4.687   0.704   6.151
 6869SOL    HW121506   4.780   0.669   6.138
 6869SOL    HW221507   4.661   0.761   6.073
 6870SOL     OW21508   0.434   4.434   0.956
 6870SOL    HW121509   0.353   4.489   0.933
 6870SOL    HW221510   0.509   4.494   0.982
 6871SOL     OW21511   5.948   4.460   2.982
 6871SOL    HW121512   5.894   4.497   2.906
 6871SOL    HW221513   6.029   4.414   2.946
 6872SOL     OW21514   0.044   2.362   1.530
 6872SOL    HW121515   0.135   2.320   1.528
 6872SOL    HW221516   0.003   2.346   1.620
 6873SOL     OW21517   0.190   3.264   4.245
 6873SOL    HW121518   0.288   3.245   4.250
 6873SOL    HW221519   0.142   3.208   4.313
 6874SOL     OW21520   6.969   4.871   3.130
 6874SOL    HW121521   6.991   4.916   3.043
 6874SOL    HW221522   6.995   4.930   3.206
 6875SOL     OW21523   2.101   2.203   2.584
 6875SOL    HW121524   2.004   2.188   2.566
 6875SOL    HW221525   2.149   2.221   2.498
 6876SOL     OW21526   4.194   0.132   3.323
 6876SOL    HW121527   4.204   0.110   3.226
 6876SOL    HW221528   4.201   0.048   3.377
 6877SOL     OW21529   3.129   4.501   1.407
 6877SOL    HW121530   3.196   4.438   1.367
 6877SOL    HW221531   3.126   4.487   1.506
 6878SOL     OW21532   3.310   1.557   3.981
 6878SOL    HW121533   3.334   1.644   4.024
 6878SOL    HW221534   3.319   1.483   4.047
 6879SOL     OW21535   1.810   3.097   0.423
 6879SOL    HW121536   1.899   3.118   0.383
 6879SOL    HW221537   1.789   3.164   0.494
 6880SOL     OW21538   1.360   5.640   5.568
 6880SOL    HW121539   1.411   5.721   5.540
 6880SOL    HW221540   1.326   5.653   5.661
 6881SOL     OW21541   1.280   3.875   1.584
 6881SOL    HW121542   1.309   3.780   1.596
 6881SOL    HW221543   1.360   3.935   1.588
 6882SOL     OW21544   2.807   0.612   0.486
 6882SOL    HW121545   2.712   0.632   0.510
 6882SOL    HW221546   2.820   0.624   0.388
 6883SOL     OW21547   5.276   2.163   0.085
 6883SOL    HW121548   5.219   2.131   0.010
 6883SOL    HW221549   5.261   2.261   0.099
 6884SOL     OW21550   1.098   4.174   3.303
 6884SOL    HW121551   1.131   4.192   3.210
 6884SOL    HW221552   0.999   4.185   3.306
 6885SOL     OW21553   4.554   4.902   3.360
 6885SOL    HW121554   4.488   4.910   3.435
 6885SOL    HW221555   4.505   4.880   3.275
 6886SOL     OW21556   6.814   1.007   4.392
 6886SOL    HW121557   6.881   0.946   4.434
 6886SOL    HW221558   6.731   0.956   4.371
 6887SOL     OW21559   4.805   5.649   6.459
 6887SOL    HW121560   4.856   5.592   6.524
 6887SOL    HW221561   4.782   5.594   6.379
 6888SOL     OW21562   5.443   5.418   6.371
 6888SOL    HW121563   5.520   5.358   6.390
 6888SOL    HW221564   5.368   5.366   6.329
 6889SOL     OW21565   1.317   2.683   6.012
 6889SOL    HW121566   1.236   2.625   6.000
 6889SOL    HW221567   1.371   2.650   6.089
 6890SOL     OW21568   3.989   6.462   2.224
 6890SOL    HW121569   4.080   6.503   2.218
 6890SOL    HW221570   3.987   6.397   2.300
 6891SOL     OW21571   2.123   4.287   1.772
 6891SOL    HW121572   2.043   4.254   1.823
 6891SOL    HW221573   2.098   4.371   1.722
 6892SOL     OW21574   3.696   2.017   3.964
 6892SOL    HW121575   3.667   2.070   4.044
 6892SOL    HW221576   3.685   1.920   3.983
 6893SOL     OW21577   4.549   4.041   0.187
 6893SOL    HW121578   4.647   4.054   0.193
 6893SOL    HW221579   4.505   4.126   0.160
 6894SOL     OW21580   5.972   4.675   1.398
 6894SOL    HW121581   5.931   4.599   1.348
 6894SOL    HW221582   5.976   4.756   1.340
 6895SOL     OW21583   2.272   5.040   1.332
 6895SOL    HW121584   2.272   4.997   1.241
 6895SOL    HW221585   2.280   4.969   1.402
 6896SOL     OW21586   2.991   1.876   3.924
 6896SOL    HW121587   3.009   1.883   3.826
 6896SOL    HW221588   2.970   1.781   3.948
 6897SOL     OW21589   4.909   3.727   4.774
 6897SOL    HW121590   4.878   3.822   4.763
 6897SOL    HW221591   4.894   3.698   4.868
 6898SOL     OW21592   3.950   1.664   1.187
 6898SOL    HW121593   3.869   1.717   1.214
 6898SOL    HW221594   4.000   1.636   1.269
 6899SOL     OW21595   4.351   6.303   1.986
 6899SOL    HW121596   4.361   6.314   2.085
 6899SOL    HW221597   4.421   6.357   1.939
 6900SOL     OW21598   6.491   5.120   4.603
 6900SOL    HW121599   6.549   5.167   4.669
 6900SOL    HW221600   6.493   5.168   4.516
 6901SOL     OW21601   6.027   6.268   6.314
 6901SOL    HW121602   6.023   6.314   6.226
 6901SOL    HW221603   6.111   6.214   6.321
 6902SOL     OW21604   6.360   5.669   6.041
 6902SOL    HW121605   6.326   5.598   5.978
 6902SOL    HW221606   6.412   5.736   5.989
 6903SOL     OW21607   3.275   5.008   5.069
 6903SOL    HW121608   3.222   5.027   5.152
 6903SOL    HW221609   3.244   4.923   5.028
 6904SOL     OW21610   6.150   0.402   5.911
 6904SOL    HW121611   6.243   0.392   5.876
 6904SOL    HW221612   6.153   0.416   6.010
 6905SOL     OW21613   5.563   6.013   6.866
 6905SOL    HW121614   5.553   6.067   6.782
 6905SOL    HW221615   5.651   5.965   6.865
 6906SOL     OW21616   3.682   1.367   3.806
 6906SOL    HW121617   3.742   1.315   3.867
 6906SOL    HW221618   3.682   1.463   3.832
 6907SOL     OW21619   5.771   2.469   1.454
 6907SOL    HW121620   5.716   2.505   1.529
 6907SOL    HW221621   5.859   2.437   1.489
 6908SOL     OW21622   1.878   5.891   6.282
 6908SOL    HW121623   1.871   5.851   6.374
 6908SOL    HW221624   1.804   5.956   6.268
 6909SOL     OW21625   5.064   3.987   0.714
 6909SOL    HW121626   5.141   4.027   0.764
 6909SOL    HW221627   5.065   3.887   0.727
 6910SOL     OW21628   1.204   3.531   3.467
 6910SOL    HW121629   1.109   3.525   3.499
 6910SOL    HW221630   1.220   3.622   3.427
 6911SOL     OW21631   4.203   6.943   3.505
 6911SOL    HW121632   4.194   7.003   3.585
 6911SOL    HW221633   4.299   6.918   3.494
 6912SOL     OW21634   2.925   3.280   5.919
 6912SOL    HW121635   2.922   3.341   5.999
 6912SOL    HW221636   2.861   3.205   5.932
 6913SOL     OW21637   5.652   6.028   4.715
 6913SOL    HW121638   5.710   5.952   4.688
 6913SOL    HW221639   5.707   6.112   4.718
 6914SOL     OW21640   5.365   4.482   3.626
 6914SOL    HW121641   5.305   4.487   3.706
 6914SOL    HW221642   5.446   4.539   3.643
 6915SOL     OW21643   6.873   2.689   1.939
 6915SOL    HW121644   6.827   2.716   2.024
 6915SOL    HW221645   6.960   2.646   1.960
 6916SOL     OW21646   5.478   1.287   0.483
 6916SOL    HW121647   5.501   1.296   0.386
 6916SOL    HW221648   5.395   1.231   0.492
 6917SOL     OW21649   4.178   6.710   0.931
 6917SOL    HW121650   4.236   6.753   0.999
 6917SOL    HW221651   4.226   6.632   0.890
 6918SOL     OW21652   0.428   2.759   4.307
 6918SOL    HW121653   0.408   2.710   4.222
 6918SOL    HW221654   0.356   2.826   4.325
 6919SOL     OW21655   5.595   5.503   4.641
 6919SOL    HW121656   5.610   5.601   4.630
 6919SOL    HW221657   5.616   5.456   4.555
 6920SOL     OW21658   4.641   7.014   5.459
 6920SOL    HW121659   4.686   6.985   5.375
 6920SOL    HW221660   4.550   0.034   5.437
 6921SOL     OW21661   4.404   6.213   3.871
 6921SOL    HW121662   4.392   6.312   3.860
 6921SOL    HW221663   4.324   6.165   3.834
 6922SOL     OW21664   1.850   5.572   5.784
 6922SOL    HW121665   1.895   5.482   5.782
 6922SOL    HW221666   1.789   5.580   5.705
 6923SOL     OW21667   4.737   5.564   2.253
 6923SOL    HW121668   4.715   5.528   2.344
 6923SOL    HW221669   4.762   5.488   2.193
 6924SOL     OW21670   2.177   4.770   0.195
 6924SOL    HW121671   2.099   4.709   0.185
 6924SOL    HW221672   2.192   4.819   0.109
 6925SOL     OW21673   5.076   5.938   4.438
 6925SOL    HW121674   5.069   5.979   4.529
 6925SOL    HW221675   5.074   5.838   4.445
 6926SOL     OW21676   2.651   2.531   0.828
 6926SOL    HW121677   2.679   2.480   0.909
 6926SOL    HW221678   2.714   2.512   0.753
 6927SOL     OW21679   3.539   2.910   6.136
 6927SOL    HW121680   3.623   2.940   6.090
 6927SOL    HW221681   3.554   2.819   6.175
 6928SOL     OW21682   5.556   5.664   1.310
 6928SOL    HW121683   5.489   5.720   1.261
 6928SOL    HW221684   5.512   5.580   1.342
 6929SOL     OW21685   4.630   5.976   2.274
 6929SOL    HW121686   4.689   5.912   2.225
 6929SOL    HW221687   4.535   5.960   2.248
 6930SOL     OW21688   1.783   0.822   1.686
 6930SOL    HW121689   1.752   0.734   1.650
 6930SOL    HW221690   1.881   0.832   1.670
 6931SOL     OW21691   1.528   1.145   2.530
 6931SOL    HW121692   1.553   1.164   2.435
 6931SOL    HW221693   1.544   1.049   2.551
 6932SOL     OW21694   4.385   0.092   0.394
 6932SOL    HW121695   4.474   0.133   0.413
 6932SOL    HW221696   4.383   7.015   0.428
 6933SOL     OW21697   3.543   6.336   5.443
 6933SOL    HW121698   3.487   6.256   5.421
 6933SOL    HW221699   3.602   6.358   5.365
 6934SOL     OW21700   4.825   3.118   6.249
 6934SOL    HW121701   4.836   3.097   6.346
 6934SOL    HW221702   4.869   3.206   6.228
 6935SOL     OW21703   4.643   5.875   2.574
 6935SOL    HW121704   4.574   5.803   2.586
 6935SOL    HW221705   4.656   5.893   2.477
 6936SOL     OW21706   6.299   3.071   4.208
 6936SOL    HW121707   6.312   3.005   4.282
 6936SOL    HW221708   6.260   3.025   4.129
 6937SOL     OW21709   5.979   6.123   1.016
 6937SOL    HW121710   6.027   6.047   1.058
 6937SOL    HW221711   5.935   6.178   1.087
 6938SOL     OW21712   6.719   2.564   4.886
 6938SOL    HW121713   6.695   2.487   4.827
 6938SOL    HW221714   6.683   2.547   4.978
 6939SOL     OW21715   0.102   5.478   2.362
 6939SOL    HW121716   0.188   5.499   2.409
 6939SOL    HW221717   0.034   5.448   2.430
 6940SOL     OW21718   3.832   0.818   0.234
 6940SOL    HW121719   3.806   0.728   0.268
 6940SOL    HW221720   3.815   0.887   0.304
 6941SOL     OW21721   3.149   3.885   1.916
 6941SOL    HW121722   3.089   3.925   1.986
 6941SOL    HW221723   3.161   3.951   1.841
 6942SOL     OW21724   5.911   6.747   2.440
 6942SOL    HW121725   5.838   6.682   2.418
 6942SOL    HW221726   5.982   6.742   2.370
 6943SOL     OW21727   3.864   5.721   0.942
 6943SOL    HW121728   3.918   5.773   1.009
 6943SOL    HW221729   3.852   5.627   0.976
 6944SOL     OW21730   1.206   4.753   6.098
 6944SOL    HW121731   1.211   4.665   6.146
 6944SOL    HW221732   1.151   4.817   6.153
 6945SOL     OW21733   0.005   1.701   0.790
 6945SOL    HW121734   6.996   1.749   0.874
 6945SOL    HW221735   0.092   1.738   0.756
 6946SOL     OW21736   4.220   7.006   1.142
 6946SOL    HW121737   4.190   6.970   1.231
 6946SOL    HW221738   4.145   7.001   1.077
 6947SOL     OW21739   3.720   5.211   6.717
 6947SOL    HW121740   3.716   5.307   6.691
 6947SOL    HW221741   3.806   5.193   6.766
 6948SOL     OW21742   1.118   6.179   0.978
 6948SOL    HW121743   1.170   6.178   1.064
 6948SOL    HW221744   1.022   6.197   0.998
 6949SOL     OW21745   3.101   0.327   3.242
 6949SOL    HW121746   3.090   0.236   3.203
 6949SOL    HW221747   3.016   0.356   3.286
 6950SOL     OW21748   1.784   1.143   4.599
 6950SOL    HW121749   1.751   1.236   4.583
 6950SOL    HW221750   1.811   1.133   4.695
 6951SOL     OW21751   0.416   5.697   6.000
 6951SOL    HW121752   0.441   5.785   6.040
 6951SOL    HW221753   0.497   5.654   5.960
 6952SOL     OW21754   1.252   5.167   3.305
 6952SOL    HW121755   1.169   5.116   3.329
 6952SOL    HW221756   1.266   5.240   3.372
 6953SOL     OW21757   5.010   6.402   1.020
 6953SOL    HW121758   5.040   6.391   1.115
 6953SOL    HW221759   4.963   6.489   1.009
 6954SOL     OW21760   0.805   4.312   1.757
 6954SOL    HW121761   0.820   4.304   1.658
 6954SOL    HW221762   0.848   4.396   1.791
 6955SOL     OW21763   5.263   0.849   2.187
 6955SOL    HW121764   5.245   0.875   2.092
 6955SOL    HW221765   5.247   0.928   2.246
 6956SOL     OW21766   4.886   5.997   3.522
 6956SOL    HW121767   4.795   5.975   3.558
 6956SOL    HW221768   4.877   6.058   3.443
 6957SOL     OW21769   6.294   6.216   0.211
 6957SOL    HW121770   6.206   6.262   0.193
 6957SOL    HW221771   6.331   6.249   0.298
 6958SOL     OW21772   3.980   3.371   4.995
 6958SOL    HW121773   4.030   3.453   4.969
 6958SOL    HW221774   3.951   3.322   4.912
 6959SOL     OW21775   1.640   3.184   3.307
 6959SOL    HW121776   1.675   3.113   3.369
 6959SOL    HW221777   1.560   3.149   3.259
 6960SOL     OW21778   1.955   4.183   1.308
 6960SOL    HW121779   1.989   4.110   1.249
 6960SOL    HW221780   1.862   4.162   1.337
 6961SOL     OW21781   6.060   0.679   4.903
 6961SOL    HW121782   6.099   0.589   4.883
 6961SOL    HW221783   6.095   0.711   4.991
 6962SOL     OW21784   4.212   5.819   1.154
 6962SOL    HW121785   4.199   5.862   1.065
 6962SOL    HW221786   4.308   5.824   1.181
 6963SOL     OW21787   5.446   5.589   0.912
 6963SOL    HW121788   5.513   5.653   0.948
 6963SOL    HW221789   5.445   5.595   0.812
 6964SOL     OW21790   3.911   1.407   5.783
 6964SOL    HW121791   3.931   1.436   5.690
 6964SOL    HW221792   3.991   1.422   5.841
 6965SOL     OW21793   2.195   1.178   6.846
 6965SOL    HW121794   2.139   1.230   6.781
 6965SOL    HW221795   2.151   1.091   6.865
 6966SOL     OW21796   0.738   0.874   2.915
 6966SOL    HW121797   0.681   0.951   2.886
 6966SOL    HW221798   0.820   0.870   2.858
 6967SOL     OW21799   3.380   1.073   5.813
 6967SOL    HW121800   3.318   1.082   5.892
 6967SOL    HW221801   3.463   1.026   5.841
 6968SOL     OW21802   3.204   1.196   4.041
 6968SOL    HW121803   3.200   1.260   4.118
 6968SOL    HW221804   3.299   1.178   4.016
 6969SOL     OW21805   2.956   2.335   1.422
 6969SOL    HW121806   2.958   2.236   1.412
 6969SOL    HW221807   2.881   2.373   1.367
 6970SOL     OW21808   3.909   3.706   5.616
 6970SOL    HW121809   3.870   3.702   5.524
 6970SOL    HW221810   3.846   3.662   5.680
 6971SOL     OW21811   6.389   4.565   0.745
 6971SOL    HW121812   6.349   4.592   0.657
 6971SOL    HW221813   6.444   4.640   0.781
 6972SOL     OW21814   5.002   4.375   2.983
 6972SOL    HW121815   4.985   4.355   2.887
 6972SOL    HW221816   5.014   4.473   2.996
 6973SOL     OW21817   0.588   2.750   3.354
 6973SOL    HW121818   0.656   2.807   3.308
 6973SOL    HW221819   0.629   2.662   3.377
 6974SOL     OW21820   3.156   3.610   2.563
 6974SOL    HW121821   3.162   3.655   2.474
 6974SOL    HW221822   3.144   3.680   2.634
 6975SOL     OW21823   1.367   6.464   4.616
 6975SOL    HW121824   1.438   6.444   4.549
 6975SOL    HW221825   1.383   6.410   4.699
 6976SOL     OW21826   6.534   4.785   5.976
 6976SOL    HW121827   6.455   4.775   5.914
 6976SOL    HW221828   6.501   4.792   6.070
 6977SOL     OW21829   3.564   3.259   0.708
 6977SOL    HW121830   3.561   3.271   0.808
 6977SOL    HW221831   3.551   3.162   0.686
 6978SOL     OW21832   4.892   2.440   1.990
 6978SOL    HW121833   4.937   2.458   1.903
 6978SOL    HW221834   4.890   2.342   2.007
 6979SOL     OW21835   0.977   4.187   1.307
 6979SOL    HW121836   1.007   4.206   1.214
 6979SOL    HW221837   1.016   4.100   1.337
 6980SOL     OW21838   1.834   1.022   3.274
 6980SOL    HW121839   1.754   0.965   3.292
 6980SOL    HW221840   1.907   0.965   3.236
 6981SOL     OW21841   3.573   3.736   5.787
 6981SOL    HW121842   3.616   3.653   5.750
 6981SOL    HW221843   3.543   3.719   5.881
 6982SOL     OW21844   1.269   1.286   4.406
 6982SOL    HW121845   1.210   1.216   4.445
 6982SOL    HW221846   1.350   1.242   4.366
 6983SOL     OW21847   4.692   1.498   4.883
 6983SOL    HW121848   4.599   1.521   4.853
 6983SOL    HW221849   4.698   1.504   4.982
 6984SOL     OW21850   2.307   1.682   3.404
 6984SOL    HW121851   2.286   1.648   3.496
 6984SOL    HW221852   2.223   1.712   3.359
 6985SOL     OW21853   5.998   5.401   0.766
 6985SOL    HW121854   5.941   5.320   0.776
 6985SOL    HW221855   6.094   5.376   0.775
 6986SOL     OW21856   3.136   0.342   6.671
 6986SOL    HW121857   3.205   0.408   6.641
 6986SOL    HW221858   3.074   0.321   6.595
 6987SOL     OW21859   6.677   1.318   6.293
 6987SOL    HW121860   6.663   1.227   6.254
 6987SOL    HW221861   6.648   1.387   6.227
 6988SOL     OW21862   1.401   0.318   6.559
 6988SOL    HW121863   1.434   0.404   6.598
 6988SOL    HW221864   1.332   0.278   6.619
 6989SOL     OW21865   0.637   4.527   2.814
 6989SOL    HW121866   0.602   4.481   2.732
 6989SOL    HW221867   0.580   4.606   2.835
 6990SOL     OW21868   4.179   3.154   1.022
 6990SOL    HW121869   4.107   3.186   1.083
 6990SOL    HW221870   4.229   3.080   1.066
 6991SOL     OW21871   4.656   4.320   3.354
 6991SOL    HW121872   4.608   4.237   3.328
 6991SOL    HW221873   4.739   4.329   3.297
 6992SOL     OW21874   5.738   0.343   6.729
 6992SOL    HW121875   5.786   0.413   6.783
 6992SOL    HW221876   5.804   0.291   6.675
 6993SOL     OW21877   5.876   0.164   2.039
 6993SOL    HW121878   5.970   0.132   2.049
 6993SOL    HW221879   5.873   0.263   2.054
 6994SOL     OW21880   0.521   2.308   4.201
 6994SOL    HW121881   0.598   2.331   4.261
 6994SOL    HW221882   0.510   2.380   4.133
 6995SOL     OW21883   0.453   3.797   6.438
 6995SOL    HW121884   0.553   3.793   6.432
 6995SOL    HW221885   0.417   3.847   6.359
 6996SOL     OW21886   2.293   0.171   0.233
 6996SOL    HW121887   2.199   0.206   0.232
 6996SOL    HW221888   2.352   0.236   0.281
 6997SOL     OW21889   0.235   5.214   5.042
 6997SOL    HW121890   0.135   5.217   5.047
 6997SOL    HW221891   0.267   5.121   5.058
 6998SOL     OW21892   1.592   1.584   1.368
 6998SOL    HW121893   1.568   1.641   1.446
 6998SOL    HW221894   1.598   1.488   1.397
 6999SOL     OW21895   1.863   2.801   5.951
 6999SOL    HW121896   1.784   2.861   5.963
 6999SOL    HW221897   1.893   2.767   6.039
 7000SOL     OW21898   6.327   6.580   2.191
 7000SOL    HW121899   6.395   6.526   2.143
 7000SOL    HW221900   6.251   6.521   2.219
 7001SOL     OW21901   0.927   3.272   5.264
 7001SOL    HW121902   1.023   3.257   5.242
 7001SOL    HW221903   0.892   3.348   5.210
 7002SOL     OW21904   1.860   5.550   4.550
 7002SOL    HW121905   1.863   5.476   4.484
 7002SOL    HW221906   1.796   5.620   4.519
 7003SOL     OW21907   4.400   6.093   1.279
 7003SOL    HW121908   4.465   6.086   1.355
 7003SOL    HW221909   4.427   6.029   1.207
 7004SOL     OW21910   0.511   5.875   1.178
 7004SOL    HW121911   0.574   5.867   1.256
 7004SOL    HW221912   0.547   5.942   1.114
 7005SOL     OW21913   1.168   0.341   0.922
 7005SOL    HW121914   1.171   0.296   0.833
 7005SOL    HW221915   1.145   0.438   0.909
 7006SOL     OW21916   5.573   5.636   3.513
 7006SOL    HW121917   5.549   5.541   3.529
 7006SOL    HW221918   5.490   5.693   3.519
 7007SOL     OW21919   3.992   0.706   4.086
 7007SOL    HW121920   3.906   0.724   4.038
 7007SOL    HW221921   4.039   0.630   4.041
 7008SOL     OW21922   0.569   4.367   4.499
 7008SOL    HW121923   0.487   4.312   4.512
 7008SOL    HW221924   0.562   4.418   4.414
 7009SOL     OW21925   4.069   6.530   2.554
 7009SOL    HW121926   4.089   6.618   2.512
 7009SOL    HW221927   3.979   6.533   2.597
 7010SOL     OW21928   5.324   4.078   3.705
 7010SOL    HW121929   5.373   4.140   3.767
 7010SOL    HW221930   5.380   3.996   3.690
 7011SOL     OW21931   3.757   6.972   6.771
 7011SOL    HW121932   3.797   6.899   6.826
 7011SOL    HW221933   3.661   6.951   6.752
 7012SOL     OW21934   0.756   1.524   1.361
 7012SOL    HW121935   0.779   1.611   1.317
 7012SOL    HW221936   0.675   1.485   1.318
 7013SOL     OW21937   0.977   6.905   6.638
 7013SOL    HW121938   1.031   6.825   6.611
 7013SOL    HW221939   0.940   6.949   6.556
 7014SOL     OW21940   5.341   3.136   0.206
 7014SOL    HW121941   5.424   3.089   0.174
 7014SOL    HW221942   5.349   3.154   0.304
 7015SOL     OW21943   5.968   4.069   1.485
 7015SOL    HW121944   5.872   4.096   1.480
 7015SOL    HW221945   6.026   4.146   1.460
 7016SOL     OW21946   4.037   4.755   1.404
 7016SOL    HW121947   4.081   4.791   1.486
 7016SOL    HW221948   4.106   4.721   1.341
 7017SOL     OW21949   3.034   5.415   3.204
 7017SOL    HW121950   3.110   5.382   3.260
 7017SOL    HW221951   3.068   5.479   3.136
 7018SOL     OW21952   5.074   3.955   4.422
 7018SOL    HW121953   5.107   3.923   4.511
 7018SOL    HW221954   4.978   3.980   4.429
 7019SOL     OW21955   3.959   4.507   0.562
 7019SOL    HW121956   3.870   4.520   0.519
 7019SOL    HW221957   3.994   4.595   0.593
 7020SOL     OW21958   6.784   3.841   5.373
 7020SOL    HW121959   6.837   3.798   5.446
 7020SOL    HW221960   6.687   3.843   5.399
 7021SOL     OW21961   1.530   2.572   4.084
 7021SOL    HW121962   1.612   2.521   4.108
 7021SOL    HW221963   1.450   2.513   4.096
 7022SOL     OW21964   4.914   6.867   6.658
 7022SOL    HW121965   4.859   6.949   6.641
 7022SOL    HW221966   5.008   6.894   6.677
 7023SOL     OW21967   0.613   3.187   1.703
 7023SOL    HW121968   0.593   3.125   1.627
 7023SOL    HW221969   0.617   3.135   1.788
 7024SOL     OW21970   2.935   3.353   4.339
 7024SOL    HW121971   3.002   3.396   4.399
 7024SOL    HW221972   2.976   3.335   4.250
 7025SOL     OW21973   4.081   1.397   1.167
 7025SOL    HW121974   4.180   1.390   1.178
 7025SOL    HW221975   4.053   1.493   1.177
 7026SOL     OW21976   3.439   2.074   2.252
 7026SOL    HW121977   3.508   2.112   2.190
 7026SOL    HW221978   3.365   2.033   2.198
 7027SOL     OW21979   2.614   5.843   4.267
 7027SOL    HW121980   2.577   5.842   4.174
 7027SOL    HW221981   2.557   5.901   4.325
 7028SOL     OW21982   3.868   0.601   3.739
 7028SOL    HW121983   3.805   0.625   3.812
 7028SOL    HW221984   3.830   0.630   3.651
 7029SOL     OW21985   4.560   4.123   5.293
 7029SOL    HW121986   4.549   4.025   5.307
 7029SOL    HW221987   4.614   4.162   5.368
 7030SOL     OW21988   0.165   0.736   4.291
 7030SOL    HW121989   0.195   0.686   4.372
 7030SOL    HW221990   0.234   0.728   4.219
 7031SOL     OW21991   3.944   6.026   0.084
 7031SOL    HW121992   3.935   5.984   7.010
 7031SOL    HW221993   3.960   6.124   0.073
 7032SOL     OW21994   4.159   1.537   3.570
 7032SOL    HW121995   4.173   1.625   3.524
 7032SOL    HW221996   4.204   1.465   3.518
 7033SOL     OW21997   1.177   2.725   3.308
 7033SOL    HW121998   1.151   2.801   3.367
 7033SOL    HW221999   1.270   2.738   3.275
 7034SOL     OW22000   7.005   1.263   2.794
 7034SOL    HW122001   6.971   1.200   2.724
 7034SOL    HW222002   6.945   1.344   2.798
 7035SOL     OW22003   1.587   0.316   0.712
 7035SOL    HW122004   1.661   0.309   0.646
 7035SOL    HW222005   1.573   0.227   0.757
 7036SOL     OW22006   6.911   1.169   2.132
 7036SOL    HW122007   6.851   1.090   2.144
 7036SOL    HW222008   6.988   1.163   2.196
 7037SOL     OW22009   1.214   1.132   6.507
 7037SOL    HW122010   1.172   1.105   6.420
 7037SOL    HW222011   1.248   1.051   6.554
 7038SOL     OW22012   2.440   4.494   4.722
 7038SOL    HW122013   2.509   4.558   4.688
 7038SOL    HW222014   2.406   4.439   4.647
 7039SOL     OW22015   0.198   5.707   3.156
 7039SOL    HW122016   0.283   5.730   3.109
 7039SOL    HW222017   0.121   5.749   3.107
 7040SOL     OW22018   4.724   2.784   5.791
 7040SOL    HW122019   4.719   2.884   5.788
 7040SOL    HW222020   4.811   2.757   5.833
 7041SOL     OW22021   6.899   1.807   2.687
 7041SOL    HW122022   6.911   1.717   2.646
 7041SOL    HW222023   6.827   1.857   2.639
 7042SOL     OW22024   4.509   6.269   4.398
 7042SOL    HW122025   4.482   6.261   4.494
 7042SOL    HW222026   4.439   6.226   4.341
 7043SOL     OW22027   2.492   5.040   3.650
 7043SOL    HW122028   2.521   5.069   3.559
 7043SOL    HW222029   2.510   4.942   3.660
 7044SOL     OW22030   5.489   5.664   5.208
 7044SOL    HW122031   5.417   5.680   5.140
 7044SOL    HW222032   5.535   5.578   5.188
 7045SOL     OW22033   5.079   5.810   2.377
 7045SOL    HW122034   5.027   5.814   2.463
 7045SOL    HW222035   5.123   5.721   2.369
 7046SOL     OW22036   3.524   1.204   3.396
 7046SOL    HW122037   3.465   1.282   3.418
 7046SOL    HW222038   3.591   1.191   3.469
 7047SOL     OW22039   6.463   0.854   2.042
 7047SOL    HW122040   6.516   0.913   1.982
 7047SOL    HW222041   6.403   0.796   1.987
 7048SOL     OW22042   5.896   6.776   4.765
 7048SOL    HW122043   5.994   6.782   4.750
 7048SOL    HW222044   5.848   6.782   4.678
 7049SOL     OW22045   3.474   2.064   1.243
 7049SOL    HW122046   3.497   2.085   1.147
 7049SOL    HW222047   3.477   1.965   1.257
 7050SOL     OW22048   4.062   3.630   0.987
 7050SOL    HW122049   4.004   3.563   1.032
 7050SOL    HW222050   4.156   3.594   0.983
 7051SOL     OW22051   6.716   6.548   1.340
 7051SOL    HW122052   6.729   6.449   1.354
 7051SOL    HW222053   6.703   6.566   1.243
 7052SOL     OW22054   6.518   0.877   3.907
 7052SOL    HW122055   6.606   0.851   3.945
 7052SOL    HW222056   6.516   0.977   3.894
 7053SOL     OW22057   1.288   3.563   4.519
 7053SOL    HW122058   1.304   3.464   4.528
 7053SOL    HW222059   1.206   3.587   4.570
 7054SOL     OW22060   0.000   6.867   0.926
 7054SOL    HW122061   0.037   6.775   0.914
 7054SOL    HW222062   7.002   6.885   1.023
 7055SOL     OW22063   2.801   0.604   0.215
 7055SOL    HW122064   2.811   0.645   0.124
 7055SOL    HW222065   2.832   0.509   0.212
 7056SOL     OW22066   6.964   5.146   1.229
 7056SOL    HW122067   7.008   5.234   1.246
 7056SOL    HW222068   6.978   5.085   1.307
 7057SOL     OW22069   2.938   5.024   3.788
 7057SOL    HW122070   3.005   5.014   3.714
 7057SOL    HW222071   2.905   4.933   3.815
 7058SOL     OW22072   5.326   2.015   6.306
 7058SOL    HW122073   5.237   1.970   6.316
 7058SOL    HW222074   5.390   1.952   6.262
 7059SOL     OW22075   1.387   1.236   3.892
 7059SOL    HW122076   1.415   1.182   3.971
 7059SOL    HW222077   1.297   1.206   3.861
 7060SOL     OW22078   3.584   0.146   0.950
 7060SOL    HW122079   3.536   0.153   1.037
 7060SOL    HW222080   3.518   0.121   0.878
 7061SOL     OW22081   6.873   2.854   3.798
 7061SOL    HW122082   6.918   2.935   3.760
 7061SOL    HW222083   6.776   2.855   3.773
 7062SOL     OW22084   3.774   2.207   5.286
 7062SOL    HW122085   3.815   2.296   5.308
 7062SOL    HW222086   3.795   2.183   5.191
 7063SOL     OW22087   1.158   0.219   1.660
 7063SOL    HW122088   1.226   0.228   1.588
 7063SOL    HW222089   1.187   0.149   1.725
 7064SOL     OW22090   4.213   1.898   6.557
 7064SOL    HW122091   4.249   1.819   6.608
 7064SOL    HW222092   4.283   1.969   6.552
 7065SOL     OW22093   3.124   4.102   5.042
 7065SOL    HW122094   3.132   4.055   4.954
 7065SOL    HW222095   3.125   4.201   5.028
 7066SOL     OW22096   4.227   6.632   5.694
 7066SOL    HW122097   4.200   6.546   5.738
 7066SOL    HW222098   4.178   6.708   5.737
 7067SOL     OW22099   1.035   3.600   5.735
 7067SOL    HW122100   1.099   3.588   5.659
 7067SOL    HW222101   1.057   3.534   5.807
 7068SOL     OW22102   5.580   4.116   4.392
 7068SOL    HW122103   5.497   4.080   4.350
 7068SOL    HW222104   5.591   4.213   4.369
 7069SOL     OW22105   5.841   1.575   5.614
 7069SOL    HW122106   5.765   1.531   5.663
 7069SOL    HW222107   5.818   1.585   5.518
 7070SOL     OW22108   1.154   6.390   4.028
 7070SOL    HW122109   1.138   6.336   3.945
 7070SOL    HW222110   1.244   6.432   4.023
 7071SOL     OW22111   4.013   5.835   6.925
 7071SOL    HW122112   4.069   5.849   6.844
 7071SOL    HW222113   4.064   5.783   6.993
 7072SOL     OW22114   2.418   4.607   0.237
 7072SOL    HW122115   2.331   4.638   0.275
 7072SOL    HW222116   2.494   4.641   0.293
 7073SOL     OW22117   3.604   0.409   2.817
 7073SOL    HW122118   3.696   0.402   2.855
 7073SOL    HW222119   3.595   0.347   2.739
 7074SOL     OW22120   6.430   2.936   2.945
 7074SOL    HW122121   6.471   2.934   3.036
 7074SOL    HW222122   6.430   2.843   2.907
 7075SOL     OW22123   2.733   5.138   4.789
 7075SOL    HW122124   2.794   5.111   4.715
 7075SOL    HW222125   2.720   5.237   4.788
 7076SOL     OW22126   5.859   2.683   0.651
 7076SOL    HW122127   5.797   2.642   0.718
 7076SOL    HW222128   5.893   2.770   0.687
 7077SOL     OW22129   2.118   3.944   3.612
 7077SOL    HW122130   2.157   3.862   3.656
 7077SOL    HW222131   2.055   3.988   3.676
 7078SOL     OW22132   6.236   6.392   0.938
 7078SOL    HW122133   6.170   6.341   0.882
 7078SOL    HW222134   6.326   6.349   0.931
 7079SOL     OW22135   1.484   6.666   3.280
 7079SOL    HW122136   1.522   6.758   3.284
 7079SOL    HW222137   1.425   6.657   3.199
 7080SOL     OW22138   4.158   2.149   4.039
 7080SOL    HW122139   4.094   2.077   4.011
 7080SOL    HW222140   4.203   2.188   3.959
 7081SOL     OW22141   1.027   5.601   0.173
 7081SOL    HW122142   1.006   5.545   0.253
 7081SOL    HW222143   1.097   5.668   0.196
 7082SOL     OW22144   6.665   4.215   0.514
 7082SOL    HW122145   6.576   4.172   0.524
 7082SOL    HW222146   6.665   4.276   0.435
 7083SOL     OW22147   0.127   1.104   2.247
 7083SOL    HW122148   0.142   1.099   2.346
 7083SOL    HW222149   0.112   1.012   2.212
 7084SOL     OW22150   0.538   5.200   5.569
 7084SOL    HW122151   0.482   5.250   5.634
 7084SOL    HW222152   0.594   5.264   5.516
 7085SOL     OW22153   6.518   2.460   2.698
 7085SOL    HW122154   6.465   2.387   2.657
 7085SOL    HW222155   6.596   2.422   2.747
 7086SOL     OW22156   5.611   0.826   6.370
 7086SOL    HW122157   5.597   0.730   6.345
 7086SOL    HW222158   5.708   0.848   6.361
 7087SOL     OW22159   5.701   4.132   2.657
 7087SOL    HW122160   5.744   4.077   2.584
 7087SOL    HW222161   5.732   4.098   2.746
 7088SOL     OW22162   5.273   2.551   5.589
 7088SOL    HW122163   5.244   2.559   5.684
 7088SOL    HW222164   5.316   2.637   5.561
 7089SOL     OW22165   2.039   3.678   3.290
 7089SOL    HW122166   2.082   3.694   3.201
 7089SOL    HW222167   1.972   3.750   3.308
 7090SOL     OW22168   2.521   1.657   0.298
 7090SOL    HW122169   2.462   1.576   0.304
 7090SOL    HW222170   2.505   1.703   0.211
 7091SOL     OW22171   0.399   0.957   1.482
 7091SOL    HW122172   0.459   0.992   1.555
 7091SOL    HW222173   0.445   0.969   1.394
 7092SOL     OW22174   3.795   3.069   5.610
 7092SOL    HW122175   3.889   3.045   5.633
 7092SOL    HW222176   3.760   3.133   5.678
 7093SOL     OW22177   3.158   4.118   1.722
 7093SOL    HW122178   3.145   4.061   1.641
 7093SOL    HW222179   3.252   4.110   1.754
 7094SOL     OW22180   1.332   0.494   5.630
 7094SOL    HW122181   1.233   0.495   5.615
 7094SOL    HW222182   1.378   0.536   5.552
 7095SOL     OW22183   3.352   4.868   5.414
 7095SOL    HW122184   3.321   4.826   5.499
 7095SOL    HW222185   3.275   4.915   5.370
 7096SOL     OW22186   6.117   0.404   1.942
 7096SOL    HW122187   6.193   0.404   1.877
 7096SOL    HW222188   6.153   0.397   2.035
 7097SOL     OW22189   5.400   0.870   1.457
 7097SOL    HW122190   5.371   0.872   1.553
 7097SOL    HW222191   5.329   0.825   1.402
 7098SOL     OW22192   1.421   6.022   5.812
 7098SOL    HW122193   1.520   6.035   5.802
 7098SOL    HW222194   1.394   6.042   5.906
 7099SOL     OW22195   3.803   2.106   4.429
 7099SOL    HW122196   3.889   2.127   4.382
 7099SOL    HW222197   3.822   2.045   4.506
 7100SOL     OW22198   6.507   3.135   0.607
 7100SOL    HW122199   6.527   3.110   0.702
 7100SOL    HW222200   6.544   3.065   0.546
 7101SOL     OW22201   2.275   0.572   5.388
 7101SOL    HW122202   2.251   0.641   5.320
 7101SOL    HW222203   2.333   0.614   5.459
 7102SOL     OW22204   5.726   0.334   0.983
 7102SOL    HW122205   5.641   0.387   0.985
 7102SOL    HW222206   5.714   0.251   1.038
 7103SOL     OW22207   5.781   5.210   1.243
 7103SOL    HW122208   5.817   5.301   1.266
 7103SOL    HW222209   5.813   5.184   1.152
 7104SOL     OW22210   6.173   3.539   2.385
 7104SOL    HW122211   6.245   3.568   2.449
 7104SOL    HW222212   6.206   3.461   2.331
 7105SOL     OW22213   3.458   3.278   4.729
 7105SOL    HW122214   3.509   3.214   4.671
 7105SOL    HW222215   3.520   3.349   4.763
 7106SOL     OW22216   3.628   3.015   1.556
 7106SOL    HW122217   3.543   3.025   1.608
 7106SOL    HW222218   3.697   2.971   1.613
 7107SOL     OW22219   4.049   0.725   1.004
 7107SOL    HW122220   4.116   0.708   0.931
 7107SOL    HW222221   4.002   0.640   1.026
 7108SOL     OW22222   2.852   5.685   2.527
 7108SOL    HW122223   2.761   5.665   2.491
 7108SOL    HW222224   2.887   5.770   2.487
 7109SOL     OW22225   1.852   1.263   6.954
 7109SOL    HW122226   1.896   1.287   6.868
 7109SOL    HW222227   1.891   1.317   0.011
 7110SOL     OW22228   3.319   5.910   4.286
 7110SOL    HW122229   3.243   5.935   4.225
 7110SOL    HW222230   3.330   5.981   4.356
 7111SOL     OW22231   1.834   2.234   4.101
 7111SOL    HW122232   1.805   2.315   4.050
 7111SOL    HW222233   1.933   2.227   4.099
 7112SOL     OW22234   1.902   4.653   4.506
 7112SOL    HW122235   1.903   4.725   4.437
 7112SOL    HW222236   1.857   4.572   4.469
 7113SOL     OW22237   3.348   4.428   5.311
 7113SOL    HW122238   3.374   4.332   5.309
 7113SOL    HW222239   3.430   4.484   5.324
 7114SOL     OW22240   4.601   5.045   1.538
 7114SOL    HW122241   4.504   5.045   1.513
 7114SOL    HW222242   4.653   4.992   1.471
 7115SOL     OW22243   5.508   3.464   6.743
 7115SOL    HW122244   5.580   3.453   6.675
 7115SOL    HW222245   5.536   3.534   6.809
 7116SOL     OW22246   5.285   4.280   3.074
 7116SOL    HW122247   5.188   4.300   3.059
 7116SOL    HW222248   5.321   4.232   2.995
 7117SOL     OW22249   0.324   6.860   4.816
 7117SOL    HW122250   0.293   6.931   4.752
 7117SOL    HW222251   0.400   6.810   4.776
 7118SOL     OW22252   4.007   4.030   5.478
 7118SOL    HW122253   4.061   4.079   5.547
 7118SOL    HW222254   3.948   3.963   5.523
 7119SOL     OW22255   5.252   0.941   5.370
 7119SOL    HW122256   5.343   0.910   5.342
 7119SOL    HW222257   5.241   0.929   5.468
 7120SOL     OW22258   3.942   1.578   1.750
 7120SOL    HW122259   3.850   1.540   1.759
 7120SOL    HW222260   3.991   1.570   1.837
 7121SOL     OW22261   0.482   6.784   2.745
 7121SOL    HW122262   0.397   6.837   2.738
 7121SOL    HW222263   0.560   6.845   2.736
 7122SOL     OW22264   1.653   0.554   5.678
 7122SOL    HW122265   1.604   0.478   5.720
 7122SOL    HW222266   1.657   0.631   5.742
 7123SOL     OW22267   0.494   5.380   3.610
 7123SOL    HW122268   0.475   5.314   3.537
 7123SOL    HW222269   0.524   5.330   3.692
 7124SOL     OW22270   0.681   2.641   1.627
 7124SOL    HW122271   0.718   2.549   1.610
 7124SOL    HW222272   0.736   2.708   1.578
 7125SOL     OW22273   1.455   1.112   1.687
 7125SOL    HW122274   1.412   1.092   1.599
 7125SOL    HW222275   1.385   1.120   1.758
 7126SOL     OW22276   4.406   6.034   0.633
 7126SOL    HW122277   4.362   5.949   0.664
 7126SOL    HW222278   4.358   6.112   0.671
 7127SOL     OW22279   2.525   6.340   5.970
 7127SOL    HW122280   2.539   6.242   5.955
 7127SOL    HW222281   2.566   6.392   5.896
 7128SOL     OW22282   3.769   3.836   6.893
 7128SOL    HW122283   3.677   3.802   6.874
 7128SOL    HW222284   3.800   3.892   6.816
 7129SOL     OW22285   1.727   1.020   1.431
 7129SOL    HW122286   1.699   0.933   1.391
 7129SOL    HW222287   1.779   1.004   1.515
 7130SOL     OW22288   3.793   6.572   4.389
 7130SOL    HW122289   3.803   6.474   4.406
 7130SOL    HW222290   3.735   6.587   4.309
 7131SOL     OW22291   3.020   0.807   1.543
 7131SOL    HW122292   3.037   0.710   1.559
 7131SOL    HW222293   2.964   0.844   1.616
 7132SOL     OW22294   5.015   4.150   0.379
 7132SOL    HW122295   5.031   4.189   0.469
 7132SOL    HW222296   5.101   4.150   0.328
 7133SOL     OW22297   4.349   4.608   4.411
 7133SOL    HW122298   4.254   4.639   4.409
 7133SOL    HW222299   4.406   4.676   4.457
 7134SOL     OW22300   4.961   6.689   2.377
 7134SOL    HW122301   4.957   6.706   2.476
 7134SOL    HW222302   5.053   6.660   2.352
 7135SOL     OW22303   2.109   3.164   2.999
 7135SOL    HW122304   2.155   3.179   2.912
 7135SOL    HW222305   2.117   3.247   3.055
 7136SOL     OW22306   3.185   1.906   1.157
 7136SOL    HW122307   3.216   1.839   1.089
 7136SOL    HW222308   3.217   1.878   1.247
 7137SOL     OW22309   3.135   1.836   0.695
 7137SOL    HW122310   3.187   1.797   0.772
 7137SOL    HW222311   3.088   1.919   0.726
 7138SOL     OW22312   2.068   1.327   1.222
 7138SOL    HW122313   2.065   1.404   1.285
 7138SOL    HW222314   1.975   1.304   1.192
 7139SOL     OW22315   5.778   4.859   2.008
 7139SOL    HW122316   5.841   4.913   1.952
 7139SOL    HW222317   5.819   4.843   2.098
 7140SOL     OW22318   6.332   4.186   1.126
 7140SOL    HW122319   6.367   4.258   1.067
 7140SOL    HW222320   6.342   4.097   1.080
 7141SOL     OW22321   4.431   0.125   1.113
 7141SOL    HW122322   4.351   0.068   1.133
 7141SOL    HW222323   4.415   0.177   1.029
 7142SOL     OW22324   3.358   0.067   3.931
 7142SOL    HW122325   3.359   6.985   3.921
 7142SOL    HW222326   3.375   0.091   4.026
 7143SOL     OW22327   1.932   4.089   0.160
 7143SOL    HW122328   1.880   4.155   0.214
 7143SOL    HW222329   1.983   4.137   0.088
 7144SOL     OW22330   0.789   0.978   3.536
 7144SOL    HW122331   0.730   1.046   3.580
 7144SOL    HW222332   0.835   0.923   3.606
 7145SOL     OW22333   3.942   0.993   6.433
 7145SOL    HW122334   3.911   1.027   6.344
 7145SOL    HW222335   3.987   0.905   6.421
 7146SOL     OW22336   1.975   1.587   5.689
 7146SOL    HW122337   1.877   1.605   5.673
 7146SOL    HW222338   1.989   1.565   5.785
 7147SOL     OW22339   6.414   5.702   3.257
 7147SOL    HW122340   6.418   5.735   3.351
 7147SOL    HW222341   6.475   5.756   3.199
 7148SOL     OW22342   6.324   6.094   1.729
 7148SOL    HW122343   6.230   6.099   1.764
 7148SOL    HW222344   6.377   6.030   1.784
 7149SOL     OW22345   0.643   5.336   3.888
 7149SOL    HW122346   0.597   5.417   3.925
 7149SOL    HW222347   0.704   5.297   3.957
 7150SOL     OW22348   3.467   3.225   0.396
 7150SOL    HW122349   3.551   3.279   0.390
 7150SOL    HW222350   3.394   3.272   0.346
 7151SOL     OW22351   2.942   6.735   0.863
 7151SOL    HW122352   2.956   6.782   0.950
 7151SOL    HW222353   2.879   6.788   0.807
 7152SOL     OW22354   6.255   0.620   6.537
 7152SOL    HW122355   6.311   0.605   6.455
 7152SOL    HW222356   6.170   0.568   6.530
 7153SOL     OW22357   3.571   5.326   1.930
 7153SOL    HW122358   3.546   5.360   1.839
 7153SOL    HW222359   3.551   5.228   1.935
 7154SOL     OW22360   3.974   0.116   2.849
 7154SOL    HW122361   3.952   0.150   2.757
 7154SOL    HW222362   4.069   0.139   2.871
 7155SOL     OW22363   3.240   3.194   1.201
 7155SOL    HW122364   3.288   3.282   1.196
 7155SOL    HW222365   3.307   3.120   1.208
 7156SOL     OW22366   4.888   3.378   2.598
 7156SOL    HW122367   4.859   3.469   2.627
 7156SOL    HW222368   4.941   3.384   2.514
 7157SOL     OW22369   6.744   4.505   1.663
 7157SOL    HW122370   6.802   4.424   1.671
 7157SOL    HW222371   6.753   4.543   1.571
 7158SOL     OW22372   0.070   0.084   3.354
 7158SOL    HW122373   0.037   0.094   3.448
 7158SOL    HW222374   7.012   0.099   3.290
 7159SOL     OW22375   1.057   4.807   4.438
 7159SOL    HW122376   1.064   4.749   4.357
 7159SOL    HW222377   1.084   4.754   4.519
 7160SOL     OW22378   6.067   6.128   2.264
 7160SOL    HW122379   6.043   6.076   2.346
 7160SOL    HW222380   6.162   6.110   2.240
 7161SOL     OW22381   3.275   4.046   2.739
 7161SOL    HW122382   3.284   4.074   2.644
 7161SOL    HW222383   3.351   3.986   2.764
 7162SOL     OW22384   0.347   4.862   6.606
 7162SOL    HW122385   0.396   4.824   6.685
 7162SOL    HW222386   0.263   4.907   6.637
 7163SOL     OW22387   2.642   0.195   2.864
 7163SOL    HW122388   2.681   0.265   2.805
 7163SOL    HW222389   2.551   0.224   2.895
 7164SOL     OW22390   1.775   0.607   5.038
 7164SOL    HW122391   1.761   0.657   4.953
 7164SOL    HW222392   1.744   0.513   5.026
 7165SOL     OW22393   6.090   6.054   1.850
 7165SOL    HW122394   6.047   6.129   1.899
 7165SOL    HW222395   6.026   5.978   1.840
 7166SOL     OW22396   5.628   0.859   6.732
 7166SOL    HW122397   5.688   0.881   6.655
 7166SOL    HW222398   5.663   0.778   6.779
 7167SOL     OW22399   4.936   2.881   5.351
 7167SOL    HW122400   4.966   2.863   5.258
 7167SOL    HW222401   4.941   2.979   5.370
 7168SOL     OW22402   2.776   1.771   2.946
 7168SOL    HW122403   2.840   1.795   3.019
 7168SOL    HW222404   2.774   1.672   2.936
 7169SOL     OW22405   0.564   3.786   4.506
 7169SOL    HW122406   0.474   3.812   4.541
 7169SOL    HW222407   0.635   3.817   4.570
 7170SOL     OW22408   3.945   6.222   2.403
 7170SOL    HW122409   4.029   6.242   2.454
 7170SOL    HW222410   3.866   6.249   2.457
 7171SOL     OW22411   6.290   3.666   1.030
 7171SOL    HW122412   6.330   3.758   1.036
 7171SOL    HW222413   6.215   3.667   0.963
 7172SOL     OW22414   2.003   1.974   5.156
 7172SOL    HW122415   1.994   2.058   5.210
 7172SOL    HW222416   2.067   1.912   5.203
 7173SOL     OW22417   6.194   5.042   7.013
 7173SOL    HW122418   6.171   5.041   6.916
 7173SOL    HW222419   6.206   5.136   0.027
 7174SOL     OW22420   6.656   4.933   0.385
 7174SOL    HW122421   6.591   4.921   0.460
 7174SOL    HW222422   6.636   4.868   0.312
 7175SOL     OW22423   6.750   3.530   5.566
 7175SOL    HW122424   6.807   3.508   5.645
 7175SOL    HW222425   6.763   3.461   5.495
 7176SOL     OW22426   0.148   1.336   4.440
 7176SOL    HW122427   0.107   1.425   4.419
 7176SOL    HW222428   0.240   1.349   4.475
 7177SOL     OW22429   1.604   5.066   5.473
 7177SOL    HW122430   1.601   5.165   5.459
 7177SOL    HW222431   1.513   5.028   5.458
 7178SOL     OW22432   1.021   1.061   6.301
 7178SOL    HW122433   0.926   1.042   6.279
 7178SOL    HW222434   1.077   1.054   6.218
 7179SOL     OW22435   1.664   3.886   4.788
 7179SOL    HW122436   1.657   3.839   4.876
 7179SOL    HW222437   1.578   3.876   4.738
 7180SOL     OW22438   2.176   3.743   0.974
 7180SOL    HW122439   2.210   3.767   0.883
 7180SOL    HW222440   2.076   3.750   0.975
 7181SOL     OW22441   2.370   1.452   6.638
 7181SOL    HW122442   2.425   1.532   6.617
 7181SOL    HW222443   2.430   1.373   6.654
 7182SOL     OW22444   0.846   3.689   3.409
 7182SOL    HW122445   0.782   3.730   3.344
 7182SOL    HW222446   0.838   3.589   3.404
 7183SOL     OW22447   2.053   6.018   2.037
 7183SOL    HW122448   2.118   6.038   2.111
 7183SOL    HW222449   2.030   6.102   1.989
 7184SOL     OW22450   6.229   0.870   4.120
 7184SOL    HW122451   6.197   0.850   4.027
 7184SOL    HW222452   6.313   0.818   4.137
 7185SOL     OW22453   5.220   0.905   5.644
 7185SOL    HW122454   5.215   0.974   5.717
 7185SOL    HW222455   5.175   0.821   5.675
 7186SOL     OW22456   0.313   1.328   1.084
 7186SOL    HW122457   0.278   1.236   1.104
 7186SOL    HW222458   0.241   1.381   1.039
 7187SOL     OW22459   2.894   3.664   5.239
 7187SOL    HW122460   2.886   3.589   5.304
 7187SOL    HW222461   2.836   3.740   5.267
 7188SOL     OW22462   4.999   5.196   0.055
 7188SOL    HW122463   4.945   5.196   6.988
 7188SOL    HW222464   4.940   5.173   0.133
 7189SOL     OW22465   6.067   3.271   5.589
 7189SOL    HW122466   5.974   3.267   5.627
 7189SOL    HW222467   6.062   3.269   5.489
 7190SOL     OW22468   5.999   6.036   1.499
 7190SOL    HW122469   5.921   5.975   1.505
 7190SOL    HW222470   5.975   6.125   1.539
 7191SOL     OW22471   0.270   4.347   3.151
 7191SOL    HW122472   0.369   4.353   3.166
 7191SOL    HW222473   0.249   4.261   3.104
 7192SOL     OW22474   1.230   4.205   6.322
 7192SOL    HW122475   1.308   4.197   6.385
 7192SOL    HW222476   1.256   4.169   6.232
 7193SOL     OW22477   2.798   1.469   2.938
 7193SOL    HW122478   2.824   1.398   3.003
 7193SOL    HW222479   2.873   1.484   2.873
 7194SOL     OW22480   2.123   2.834   0.382
 7194SOL    HW122481   2.122   2.755   0.321
 7194SOL    HW222482   2.067   2.907   0.344
 7195SOL     OW22483   6.282   4.385   6.524
 7195SOL    HW122484   6.328   4.312   6.473
 7195SOL    HW222485   6.186   4.360   6.538
 7196SOL     OW22486   2.865   4.077   1.690
 7196SOL    HW122487   2.958   4.114   1.695
 7196SOL    HW222488   2.869   3.980   1.669
 7197SOL     OW22489   0.755   3.650   5.659
 7197SOL    HW122490   0.854   3.658   5.674
 7197SOL    HW222491   0.723   3.730   5.608
 7198SOL     OW22492   0.572   0.693   6.858
 7198SOL    HW122493   0.652   0.676   6.800
 7198SOL    HW222494   0.547   0.609   6.907
 7199SOL     OW22495   1.069   0.124   2.659
 7199SOL    HW122496   1.120   0.203   2.692
 7199SOL    HW222497   1.003   0.153   2.589
 7200SOL     OW22498   1.646   3.340   0.301
 7200SOL    HW122499   1.707   3.304   0.230
 7200SOL    HW222500   1.698   3.399   0.362
 7201SOL     OW22501   0.512   5.462   4.167
 7201SOL    HW122502   0.488   5.444   4.263
 7201SOL    HW222503   0.434   5.503   4.120
 7202SOL     OW22504   5.191   6.569   6.192
 7202SOL    HW122505   5.137   6.649   6.216
 7202SOL    HW222506   5.229   6.527   6.275
 7203SOL     OW22507   0.359   1.100   1.859
 7203SOL    HW122508   0.436   1.086   1.798
 7203SOL    HW222509   0.306   1.179   1.829
 7204SOL     OW22510   6.925   1.310   6.546
 7204SOL    HW122511   6.865   1.236   6.517
 7204SOL    HW222512   6.920   1.385   6.479
 7205SOL     OW22513   1.455   4.148   4.744
 7205SOL    HW122514   1.486   4.102   4.660
 7205SOL    HW222515   1.533   4.168   4.802
 7206SOL     OW22516   1.370   1.483   1.873
 7206SOL    HW122517   1.333   1.447   1.958
 7206SOL    HW222518   1.458   1.439   1.853
 7207SOL     OW22519   2.727   1.019   4.640
 7207SOL    HW122520   2.778   1.105   4.633
 7207SOL    HW222521   2.739   0.966   4.556
 7208SOL     OW22522   4.687   0.317   3.982
 7208SOL    HW122523   4.651   0.410   3.991
 7208SOL    HW222524   4.705   0.279   4.073
 7209SOL     OW22525   2.317   2.659   2.171
 7209SOL    HW122526   2.278   2.751   2.161
 7209SOL    HW222527   2.375   2.639   2.092
 7210SOL     OW22528   3.604   2.075   3.725
 7210SOL    HW122529   3.512   2.039   3.712
 7210SOL    HW222530   3.636   2.053   3.817
 7211SOL     OW22531   2.974   6.292   5.452
 7211SOL    HW122532   2.971   6.232   5.532
 7211SOL    HW222533   3.010   6.382   5.478
 7212SOL     OW22534   0.522   6.354   6.195
 7212SOL    HW122535   0.447   6.318   6.250
 7212SOL    HW222536   0.517   6.454   6.193
 7213SOL     OW22537   3.377   6.071   5.954
 7213SOL    HW122538   3.290   6.027   5.973
 7213SOL    HW222539   3.451   6.003   5.956
 7214SOL     OW22540   6.591   1.242   5.574
 7214SOL    HW122541   6.582   1.240   5.474
 7214SOL    HW222542   6.532   1.314   5.611
 7215SOL     OW22543   5.855   2.547   4.245
 7215SOL    HW122544   5.847   2.477   4.316
 7215SOL    HW222545   5.788   2.619   4.260
 7216SOL     OW22546   3.155   6.081   2.263
 7216SOL    HW122547   3.086   6.077   2.336
 7216SOL    HW222548   3.208   5.997   2.261
 7217SOL     OW22549   1.644   3.405   3.529
 7217SOL    HW122550   1.683   3.346   3.459
 7217SOL    HW222551   1.716   3.464   3.567
 7218SOL     OW22552   6.854   2.785   4.410
 7218SOL    HW122553   6.918   2.771   4.335
 7218SOL    HW222554   6.837   2.883   4.421
 7219SOL     OW22555   2.952   6.987   2.177
 7219SOL    HW122556   2.888   6.947   2.244
 7219SOL    HW222557   2.943   0.070   2.178
 7220SOL     OW22558   6.300   4.433   3.881
 7220SOL    HW122559   6.244   4.462   3.803
 7220SOL    HW222560   6.384   4.390   3.848
 7221SOL     OW22561   3.680   6.025   4.897
 7221SOL    HW122562   3.588   6.011   4.861
 7221SOL    HW222563   3.676   6.033   4.996
 7222SOL     OW22564   5.866   6.907   3.390
 7222SOL    HW122565   5.809   6.975   3.438
 7222SOL    HW222566   5.962   6.928   3.406
 7223SOL     OW22567   2.788   0.759   1.257
 7223SOL    HW122568   2.877   0.714   1.254
 7223SOL    HW222569   2.795   0.852   1.223
 7224SOL     OW22570   4.760   2.789   4.990
 7224SOL    HW122571   4.732   2.693   4.998
 7224SOL    HW222572   4.858   2.797   5.008
 7225SOL     OW22573   1.808   6.488   0.751
 7225SOL    HW122574   1.778   6.530   0.837
 7225SOL    HW222575   1.761   6.531   0.674
 7226SOL     OW22576   5.891   6.879   1.226
 7226SOL    HW122577   5.825   6.883   1.301
 7226SOL    HW222578   5.943   6.794   1.232
 7227SOL     OW22579   2.475   1.534   2.122
 7227SOL    HW122580   2.430   1.449   2.148
 7227SOL    HW222581   2.475   1.544   2.023
 7228SOL     OW22582   1.436   1.119   2.928
 7228SOL    HW122583   1.337   1.114   2.912
 7228SOL    HW222584   1.480   1.162   2.849
 7229SOL     OW22585   0.707   6.860   4.635
 7229SOL    HW122586   0.760   6.838   4.554
 7229SOL    HW222587   0.701   6.959   4.646
 7230SOL     OW22588   3.128   5.951   3.821
 7230SOL    HW122589   3.201   5.967   3.887
 7230SOL    HW222590   3.103   6.037   3.777
 7231SOL     OW22591   4.422   0.588   0.006
 7231SOL    HW122592   4.512   0.552   0.032
 7231SOL    HW222593   4.386   0.534   6.947
 7232SOL     OW22594   4.934   6.145   2.888
 7232SOL    HW122595   4.990   6.104   2.816
 7232SOL    HW222596   4.903   6.235   2.858
 7233SOL     OW22597   1.168   1.098   5.316
 7233SOL    HW122598   1.239   1.029   5.332
 7233SOL    HW222599   1.199   1.187   5.350
 7234SOL     OW22600   6.006   3.120   2.874
 7234SOL    HW122601   6.016   3.052   2.947
 7234SOL    HW222602   5.960   3.202   2.910
 7235SOL     OW22603   6.140   4.383   2.090
 7235SOL    HW122604   6.199   4.453   2.051
 7235SOL    HW222605   6.048   4.420   2.101
 7236SOL     OW22606   2.646   2.360   2.789
 7236SOL    HW122607   2.652   2.371   2.690
 7236SOL    HW222608   2.683   2.271   2.815
 7237SOL     OW22609   4.034   6.975   6.127
 7237SOL    HW122610   3.948   6.948   6.082
 7237SOL    HW222611   4.019   0.041   6.181
 7238SOL     OW22612   4.635   2.110   6.016
 7238SOL    HW122613   4.671   2.017   6.024
 7238SOL    HW222614   4.688   2.172   6.073
 7239SOL     OW22615   0.838   2.904   1.732
 7239SOL    HW122616   0.866   2.961   1.810
 7239SOL    HW222617   0.904   2.915   1.658
 7240SOL     OW22618   0.291   0.988   6.461
 7240SOL    HW122619   0.224   0.971   6.389
 7240SOL    HW222620   0.243   1.014   6.545
 7241SOL     OW22621   2.736   0.111   0.679
 7241SOL    HW122622   2.721   0.076   0.772
 7241SOL    HW222623   2.832   0.137   0.670
 7242SOL     OW22624   6.695   5.472   6.444
 7242SOL    HW122625   6.626   5.539   6.414
 7242SOL    HW222626   6.649   5.389   6.476
 7243SOL     OW22627   6.920   4.537   5.751
 7243SOL    HW122628   6.944   4.440   5.751
 7243SOL    HW222629   6.849   4.554   5.819
 7244SOL     OW22630   0.259   0.454   1.225
 7244SOL    HW122631   0.257   0.443   1.126
 7244SOL    HW222632   0.323   0.388   1.265
 7245SOL     OW22633   0.969   3.103   5.622
 7245SOL    HW122634   0.915   3.027   5.585
 7245SOL    HW222635   1.011   3.075   5.708
 7246SOL     OW22636   1.692   0.141   3.478
 7246SOL    HW122637   1.662   0.171   3.388
 7246SOL    HW222638   1.747   0.058   3.469
 7247SOL     OW22639   2.516   1.574   5.255
 7247SOL    HW122640   2.540   1.625   5.338
 7247SOL    HW222641   2.557   1.619   5.176
 7248SOL     OW22642   3.321   0.860   2.684
 7248SOL    HW122643   3.398   0.867   2.748
 7248SOL    HW222644   3.282   0.951   2.669
 7249SOL     OW22645   5.277   5.002   1.765
 7249SOL    HW122646   5.268   4.933   1.694
 7249SOL    HW222647   5.372   5.008   1.795
 7250SOL     OW22648   5.297   5.617   5.805
 7250SOL    HW122649   5.225   5.684   5.788
 7250SOL    HW222650   5.386   5.660   5.792
 7251SOL     OW22651   1.140   6.895   4.808
 7251SOL    HW122652   1.055   6.862   4.850
 7251SOL    HW222653   1.208   6.912   4.879
 7252SOL     OW22654   3.367   3.557   1.874
 7252SOL    HW122655   3.373   3.504   1.790
 7252SOL    HW222656   3.276   3.598   1.882
 7253SOL     OW22657   1.535   5.709   6.589
 7253SOL    HW122658   1.599   5.743   6.657
 7253SOL    HW222659   1.446   5.692   6.632
 7254SOL     OW22660   5.570   5.258   4.458
 7254SOL    HW122661   5.611   5.184   4.511
 7254SOL    HW222662   5.484   5.227   4.418
 7255SOL     OW22663   4.659   3.627   0.054
 7255SOL    HW122664   4.688   3.540   0.093
 7255SOL    HW222665   4.734   3.692   0.057
 7256SOL     OW22666   3.308   5.894   5.202
 7256SOL    HW122667   3.302   5.979   5.150
 7256SOL    HW222668   3.273   5.909   5.295
 7257SOL     OW22669   0.121   1.956   3.800
 7257SOL    HW122670   0.049   1.973   3.868
 7257SOL    HW222671   0.084   1.972   3.708
 7258SOL     OW22672   4.980   2.288   2.754
 7258SOL    HW122673   4.929   2.208   2.785
 7258SOL    HW222674   5.053   2.308   2.820
 7259SOL     OW22675   1.523   3.507   1.849
 7259SOL    HW122676   1.504   3.540   1.941
 7259SOL    HW222677   1.609   3.547   1.816
 7260SOL     OW22678   5.747   1.783   1.982
 7260SOL    HW122679   5.826   1.738   2.024
 7260SOL    HW222680   5.687   1.714   1.941
 7261SOL     OW22681   1.312   4.698   1.697
 7261SOL    HW122682   1.346   4.782   1.740
 7261SOL    HW222683   1.225   4.719   1.651
 7262SOL     OW22684   5.602   2.137   6.469
 7262SOL    HW122685   5.546   2.177   6.542
 7262SOL    HW222686   5.553   2.061   6.427
 7263SOL     OW22687   0.312   6.947   6.739
 7263SOL    HW122688   0.273   6.921   6.828
 7263SOL    HW222689   0.257   6.905   6.666
 7264SOL     OW22690   5.432   1.541   0.754
 7264SOL    HW122691   5.383   1.539   0.841
 7264SOL    HW222692   5.488   1.459   0.746
 7265SOL     OW22693   5.490   4.697   6.383
 7265SOL    HW122694   5.464   4.706   6.287
 7265SOL    HW222695   5.559   4.625   6.392
 7266SOL     OW22696   5.511   0.826   2.842
 7266SOL    HW122697   5.425   0.842   2.891
 7266SOL    HW222698   5.587   0.821   2.908
 7267SOL     OW22699   6.605   5.934   5.007
 7267SOL    HW122700   6.569   5.881   4.930
 7267SOL    HW222701   6.689   5.891   5.040
 7268SOL     OW22702   6.695   5.694   4.628
 7268SOL    HW122703   6.660   5.600   4.635
 7268SOL    HW222704   6.795   5.692   4.633
 7269SOL     OW22705   1.674   6.123   5.780
 7269SOL    HW122706   1.749   6.089   5.837
 7269SOL    HW222707   1.645   6.212   5.812
 7270SOL     OW22708   0.980   2.707   5.378
 7270SOL    HW122709   1.062   2.747   5.337
 7270SOL    HW222710   0.920   2.780   5.411
 7271SOL     OW22711   1.624   4.906   3.982
 7271SOL    HW122712   1.526   4.890   3.996
 7271SOL    HW222713   1.654   4.983   4.039
 7272SOL     OW22714   6.052   5.658   2.511
 7272SOL    HW122715   6.103   5.694   2.433
 7272SOL    HW222716   6.040   5.560   2.500
 7273SOL     OW22717   6.393   3.944   1.000
 7273SOL    HW122718   6.367   3.924   0.905
 7273SOL    HW222719   6.491   3.927   1.012
 7274SOL     OW22720   0.255   5.301   6.586
 7274SOL    HW122721   0.251   5.370   6.513
 7274SOL    HW222722   0.256   5.347   6.675
 7275SOL     OW22723   0.207   5.125   3.141
 7275SOL    HW122724   0.123   5.174   3.163
 7275SOL    HW222725   0.247   5.163   3.058
 7276SOL     OW22726   4.602   0.758   3.263
 7276SOL    HW122727   4.570   0.693   3.194
 7276SOL    HW222728   4.633   0.709   3.344
 7277SOL     OW22729   4.974   0.365   4.422
 7277SOL    HW122730   5.062   0.379   4.468
 7277SOL    HW222731   4.982   0.395   4.327
 7278SOL     OW22732   4.012   2.791   1.138
 7278SOL    HW122733   4.076   2.774   1.063
 7278SOL    HW222734   3.990   2.704   1.182
 7279SOL     OW22735   4.040   5.015   6.529
 7279SOL    HW122736   4.118   5.077   6.532
 7279SOL    HW222737   3.959   5.064   6.495
 7280SOL     OW22738   0.263   1.727   3.902
 7280SOL    HW122739   0.346   1.742   3.956
 7280SOL    HW222740   0.232   1.815   3.865
 7281SOL     OW22741   2.532   1.704   6.771
 7281SOL    HW122742   2.554   1.646   6.693
 7281SOL    HW222743   2.485   1.786   6.740
 7282SOL     OW22744   5.513   5.039   3.180
 7282SOL    HW122745   5.570   5.049   3.098
 7282SOL    HW222746   5.429   4.990   3.157
 7283SOL     OW22747   4.289   1.197   2.551
 7283SOL    HW122748   4.238   1.118   2.517
 7283SOL    HW222749   4.260   1.218   2.644
 7284SOL     OW22750   0.301   2.820   6.401
 7284SOL    HW122751   0.322   2.870   6.484
 7284SOL    HW222752   0.323   2.877   6.321
 7285SOL     OW22753   5.104   3.002   2.280
 7285SOL    HW122754   5.167   2.963   2.213
 7285SOL    HW222755   5.045   3.069   2.236
 7286SOL     OW22756   2.824   0.976   0.649
 7286SOL    HW122757   2.847   1.074   0.651
 7286SOL    HW222758   2.902   0.924   0.615
 7287SOL     OW22759   0.057   2.430   5.933
 7287SOL    HW122760   0.006   2.363   5.987
 7287SOL    HW222761   0.148   2.394   5.912
 7288SOL     OW22762   2.817   0.769   0.838
 7288SOL    HW122763   2.863   0.840   0.891
 7288SOL    HW222764   2.773   0.810   0.759
 7289SOL     OW22765   4.735   2.899   4.686
 7289SOL    HW122766   4.785   2.857   4.762
 7289SOL    HW222767   4.736   2.999   4.698
 7290SOL     OW22768   3.895   0.030   5.459
 7290SOL    HW122769   3.820   6.981   5.460
 7290SOL    HW222770   3.975   7.007   5.415
 7291SOL     OW22771   2.382   6.613   0.607
 7291SOL    HW122772   2.410   6.636   0.700
 7291SOL    HW222773   2.331   6.527   0.609
 7292SOL     OW22774   3.939   0.881   3.468
 7292SOL    HW122775   3.914   0.952   3.535
 7292SOL    HW222776   3.886   0.798   3.485
 7293SOL     OW22777   1.220   1.926   4.859
 7293SOL    HW122778   1.318   1.937   4.842
 7293SOL    HW222779   1.207   1.874   4.944
 7294SOL     OW22780   2.832   4.888   6.877
 7294SOL    HW122781   2.931   4.875   6.887
 7294SOL    HW222782   2.796   4.935   6.958
 7295SOL     OW22783   0.683   2.907   0.817
 7295SOL    HW122784   0.596   2.870   0.850
 7295SOL    HW222785   0.741   2.930   0.894
 7296SOL     OW22786   3.224   5.472   1.849
 7296SOL    HW122787   3.171   5.394   1.816
 7296SOL    HW222788   3.214   5.480   1.948
 7297SOL     OW22789   3.777   6.805   1.744
 7297SOL    HW122790   3.739   6.718   1.775
 7297SOL    HW222791   3.731   6.834   1.660
 7298SOL     OW22792   5.152   4.514   5.339
 7298SOL    HW122793   5.164   4.465   5.426
 7298SOL    HW222794   5.084   4.587   5.352
 7299SOL     OW22795   0.877   2.144   0.580
 7299SOL    HW122796   0.805   2.076   0.588
 7299SOL    HW222797   0.934   2.123   0.501
 7300SOL     OW22798   7.016   5.933   3.235
 7300SOL    HW122799   6.985   5.855   3.289
 7300SOL    HW222800   6.939   5.969   3.182
 7301SOL     OW22801   5.625   0.786   4.963
 7301SOL    HW122802   5.526   0.791   4.950
 7301SOL    HW222803   5.667   0.871   4.932
 7302SOL     OW22804   1.021   2.132   5.621
 7302SOL    HW122805   1.008   2.088   5.710
 7302SOL    HW222806   1.114   2.170   5.616
 7303SOL     OW22807   3.749   0.557   0.329
 7303SOL    HW122808   3.821   0.563   0.398
 7303SOL    HW222809   3.665   0.525   0.372
 7304SOL     OW22810   4.103   4.996   1.292
 7304SOL    HW122811   4.092   5.071   1.357
 7304SOL    HW222812   4.020   4.942   1.289
 7305SOL     OW22813   4.742   1.101   0.274
 7305SOL    HW122814   4.655   1.091   0.227
 7305SOL    HW222815   4.736   1.177   0.340
 7306SOL     OW22816   5.016   1.869   1.144
 7306SOL    HW122817   5.050   1.955   1.107
 7306SOL    HW222818   4.978   1.814   1.069
 7307SOL     OW22819   2.340   6.660   2.190
 7307SOL    HW122820   2.393   6.726   2.137
 7307SOL    HW222821   2.399   6.615   2.257
 7308SOL     OW22822   6.877   2.873   5.519
 7308SOL    HW122823   6.903   2.878   5.615
 7308SOL    HW222824   6.788   2.828   5.511
 7309SOL     OW22825   4.526   5.751   1.474
 7309SOL    HW122826   4.549   5.848   1.461
 7309SOL    HW222827   4.450   5.743   1.539
 7310SOL     OW22828   2.338   4.061   1.357
 7310SOL    HW122829   2.275   4.087   1.430
 7310SOL    HW222830   2.432   4.084   1.384
 7311SOL     OW22831   2.510   1.808   1.635
 7311SOL    HW122832   2.451   1.869   1.688
 7311SOL    HW222833   2.557   1.860   1.564
 7312SOL     OW22834   0.494   3.304   4.532
 7312SOL    HW122835   0.466   3.373   4.598
 7312SOL    HW222836   0.580   3.333   4.489
 7313SOL     OW22837   2.486   1.207   6.714
 7313SOL    HW122838   2.516   1.235   6.806
 7313SOL    HW222839   2.406   1.147   6.722
 7314SOL     OW22840   6.829   5.784   6.138
 7314SOL    HW122841   6.760   5.712   6.125
 7314SOL    HW222842   6.821   5.851   6.065
 7315SOL     OW22843   6.630   0.077   2.424
 7315SOL    HW122844   6.637   0.158   2.367
 7315SOL    HW222845   6.542   0.032   2.409
 7316SOL     OW22846   2.765   3.956   6.063
 7316SOL    HW122847   2.685   3.896   6.071
 7316SOL    HW222848   2.832   3.915   6.002
 7317SOL     OW22849   5.135   1.578   3.017
 7317SOL    HW122850   5.213   1.613   2.966
 7317SOL    HW222851   5.070   1.534   2.955
 7318SOL     OW22852   1.996   0.728   1.300
 7318SOL    HW122853   1.950   0.808   1.261
 7318SOL    HW222854   2.070   0.698   1.239
 7319SOL     OW22855   0.040   4.065   6.220
 7319SOL    HW122856   0.113   4.132   6.230
 7319SOL    HW222857   6.988   4.080   6.291
 7320SOL     OW22858   6.539   3.530   2.374
 7320SOL    HW122859   6.475   3.572   2.437
 7320SOL    HW222860   6.559   3.436   2.403
 7321SOL     OW22861   2.514   0.753   5.868
 7321SOL    HW122862   2.448   0.773   5.940
 7321SOL    HW222863   2.603   0.733   5.910
 7322SOL     OW22864   6.886   2.782   3.171
 7322SOL    HW122865   6.929   2.854   3.115
 7322SOL    HW222866   6.823   2.730   3.114
 7323SOL     OW22867   1.747   2.168   2.102
 7323SOL    HW122868   1.737   2.108   2.023
 7323SOL    HW222869   1.660   2.176   2.150
 7324SOL     OW22870   4.568   6.359   2.218
 7324SOL    HW122871   4.562   6.285   2.286
 7324SOL    HW222872   4.617   6.436   2.257
 7325SOL     OW22873   3.259   6.820   0.387
 7325SOL    HW122874   3.222   6.765   0.461
 7325SOL    HW222875   3.221   6.790   0.300
 7326SOL     OW22876   3.252   5.944   5.466
 7326SOL    HW122877   3.235   6.016   5.533
 7326SOL    HW222878   3.268   5.857   5.513
 7327SOL     OW22879   6.081   1.425   6.243
 7327SOL    HW122880   6.023   1.488   6.294
 7327SOL    HW222881   6.108   1.348   6.301
 7328SOL     OW22882   3.406   0.876   6.410
 7328SOL    HW122883   3.328   0.815   6.402
 7328SOL    HW222884   3.438   0.902   6.318
 7329SOL     OW22885   6.044   3.821   1.720
 7329SOL    HW122886   5.952   3.831   1.757
 7329SOL    HW222887   6.102   3.895   1.755
 7330SOL     OW22888   2.398   2.243   0.071
 7330SOL    HW122889   2.376   2.337   0.045
 7330SOL    HW222890   2.319   2.201   0.116
 7331SOL     OW22891   5.189   6.861   1.731
 7331SOL    HW122892   5.258   6.898   1.668
 7331SOL    HW222893   5.182   6.762   1.718
 7332SOL     OW22894   2.341   6.203   0.093
 7332SOL    HW122895   2.399   6.190   0.013
 7332SOL    HW222896   2.310   6.113   0.126
 7333SOL     OW22897   0.427   3.008   2.308
 7333SOL    HW122898   0.424   2.938   2.236
 7333SOL    HW222899   0.521   3.036   2.324
 7334SOL     OW22900   2.668   5.413   5.972
 7334SOL    HW122901   2.665   5.418   5.872
 7334SOL    HW222902   2.666   5.317   6.001
 7335SOL     OW22903   1.910   2.504   2.773
 7335SOL    HW122904   1.852   2.491   2.692
 7335SOL    HW222905   1.969   2.425   2.784
 7336SOL     OW22906   1.725   6.779   2.839
 7336SOL    HW122907   1.795   6.840   2.802
 7336SOL    HW222908   1.637   6.800   2.797
 7337SOL     OW22909   6.944   3.430   2.088
 7337SOL    HW122910   0.023   3.412   2.068
 7337SOL    HW222911   6.930   3.432   2.187
 7338SOL     OW22912   6.403   1.925   1.737
 7338SOL    HW122913   6.455   1.985   1.798
 7338SOL    HW222914   6.444   1.835   1.736
 7339SOL     OW22915   6.059   6.815   4.108
 7339SOL    HW122916   6.014   6.814   4.198
 7339SOL    HW222917   5.994   6.783   4.039
 7340SOL     OW22918   2.978   1.277   1.161
 7340SOL    HW122919   2.982   1.277   1.061
 7340SOL    HW222920   2.914   1.206   1.191
 7341SOL     OW22921   0.242   3.535   6.704
 7341SOL    HW122922   0.230   3.442   6.668
 7341SOL    HW222923   0.272   3.530   6.799
 7342SOL     OW22924   0.361   1.965   1.169
 7342SOL    HW122925   0.288   2.007   1.116
 7342SOL    HW222926   0.323   1.928   1.254
 7343SOL     OW22927   5.992   3.951   0.679
 7343SOL    HW122928   6.045   4.030   0.647
 7343SOL    HW222929   5.929   3.922   0.607
 7344SOL     OW22930   0.716   1.000   6.626
 7344SOL    HW122931   0.653   0.926   6.604
 7344SOL    HW222932   0.798   0.963   6.669
 7345SOL     OW22933   4.354   4.544   5.998
 7345SOL    HW122934   4.255   4.534   5.985
 7345SOL    HW222935   4.383   4.636   5.968
 7346SOL     OW22936   4.091   5.524   2.137
 7346SOL    HW122937   4.087   5.585   2.057
 7346SOL    HW222938   4.123   5.434   2.108
 7347SOL     OW22939   1.006   1.657   0.518
 7347SOL    HW122940   1.074   1.656   0.591
 7347SOL    HW222941   0.927   1.601   0.544
 7348SOL     OW22942   1.259   4.248   4.081
 7348SOL    HW122943   1.296   4.156   4.063
 7348SOL    HW222944   1.239   4.257   4.178
 7349SOL     OW22945   4.810   1.376   1.330
 7349SOL    HW122946   4.763   1.298   1.286
 7349SOL    HW222947   4.894   1.396   1.280
 7350SOL     OW22948   2.931   2.213   5.577
 7350SOL    HW122949   3.000   2.275   5.539
 7350SOL    HW222950   2.953   2.194   5.673
 7351SOL     OW22951   5.506   5.853   4.379
 7351SOL    HW122952   5.527   5.940   4.333
 7351SOL    HW222953   5.493   5.782   4.310
 7352SOL     OW22954   1.940   1.273   3.013
 7352SOL    HW122955   1.940   1.248   2.916
 7352SOL    HW222956   1.850   1.256   3.052
 7353SOL     OW22957   0.135   0.445   5.795
 7353SOL    HW122958   0.169   0.436   5.889
 7353SOL    HW222959   0.095   0.358   5.766
 7354SOL     OW22960   0.978   1.704   4.469
 7354SOL    HW122961   1.012   1.610   4.464
 7354SOL    HW222962   1.046   1.762   4.514
 7355SOL     OW22963   1.390   0.667   1.255
 7355SOL    HW122964   1.396   0.654   1.156
 7355SOL    HW222965   1.298   0.697   1.280
 7356SOL     OW22966   3.712   3.741   6.487
 7356SOL    HW122967   3.793   3.798   6.472
 7356SOL    HW222968   3.632   3.799   6.499
 7357SOL     OW22969   3.357   6.385   1.906
 7357SOL    HW122970   3.298   6.345   1.836
 7357SOL    HW222971   3.336   6.482   1.918
 7358SOL     OW22972   6.389   3.153   2.430
 7358SOL    HW122973   6.317   3.156   2.500
 7358SOL    HW222974   6.464   3.214   2.457
 7359SOL     OW22975   4.320   2.043   5.698
 7359SOL    HW122976   4.348   2.110   5.767
 7359SOL    HW222977   4.267   2.089   5.627
 7360SOL     OW22978   2.866   3.438   5.430
 7360SOL    HW122979   2.935   3.470   5.495
 7360SOL    HW222980   2.812   3.365   5.471
 7361SOL     OW22981   5.085   0.668   2.306
 7361SOL    HW122982   5.155   0.722   2.259
 7361SOL    HW222983   5.061   0.713   2.392
 7362SOL     OW22984   1.663   6.086   6.202
 7362SOL    HW122985   1.632   6.162   6.145
 7362SOL    HW222986   1.584   6.031   6.230
 7363SOL     OW22987   4.395   2.020   1.177
 7363SOL    HW122988   4.379   1.969   1.261
 7363SOL    HW222989   4.316   2.080   1.159
 7364SOL     OW22990   4.625   0.691   1.809
 7364SOL    HW122991   4.528   0.678   1.788
 7364SOL    HW222992   4.666   0.603   1.834
 7365SOL     OW22993   0.303   6.128   1.803
 7365SOL    HW122994   0.311   6.216   1.754
 7365SOL    HW222995   0.268   6.145   1.895
 7366SOL     OW22996   2.057   6.615   6.177
 7366SOL    HW122997   2.122   6.547   6.143
 7366SOL    HW222998   1.971   6.571   6.202
 7367SOL     OW22999   4.665   2.971   1.116
 7367SOL    HW123000   4.691   2.893   1.173
 7367SOL    HW223001   4.592   2.943   1.053
 7368SOL     OW23002   3.893   3.052   2.842
 7368SOL    HW123003   3.860   3.023   2.752
 7368SOL    HW223004   3.967   2.992   2.871
 7369SOL     OW23005   2.823   2.214   1.112
 7369SOL    HW123006   2.829   2.115   1.112
 7369SOL    HW223007   2.915   2.253   1.098
 7370SOL     OW23008   2.261   1.418   5.119
 7370SOL    HW123009   2.176   1.446   5.074
 7370SOL    HW223010   2.305   1.498   5.161
 7371SOL     OW23011   2.544   6.765   3.310
 7371SOL    HW123012   2.548   6.704   3.231
 7371SOL    HW223013   2.552   6.860   3.280
 7372SOL     OW23014   4.350   0.407   4.209
 7372SOL    HW123015   4.368   0.328   4.149
 7372SOL    HW223016   4.275   0.385   4.271
 7373SOL     OW23017   5.877   1.411   4.115
 7373SOL    HW123018   5.784   1.405   4.152
 7373SOL    HW223019   5.934   1.341   4.157
 7374SOL     OW23020   2.712   2.026   4.977
 7374SOL    HW123021   2.798   2.077   4.982
 7374SOL    HW223022   2.708   1.977   4.890
 7375SOL     OW23023   2.234   2.393   2.223
 7375SOL    HW123024   2.303   2.322   2.208
 7375SOL    HW223025   2.274   2.483   2.206
 7376SOL     OW23026   1.789   1.612   1.135
 7376SOL    HW123027   1.718   1.655   1.191
 7376SOL    HW223028   1.750   1.532   1.088
 7377SOL     OW23029   5.245   4.949   0.563
 7377SOL    HW123030   5.311   4.906   0.625
 7377SOL    HW223031   5.289   5.026   0.517
 7378SOL     OW23032   0.816   0.517   5.452
 7378SOL    HW123033   0.756   0.443   5.422
 7378SOL    HW223034   0.764   0.603   5.456
 7379SOL     OW23035   3.445   1.527   2.235
 7379SOL    HW123036   3.474   1.468   2.310
 7379SOL    HW223037   3.455   1.623   2.263
 7380SOL     OW23038   0.451   4.365   3.931
 7380SOL    HW123039   0.424   4.441   3.872
 7380SOL    HW223040   0.548   4.344   3.917
 7381SOL     OW23041   4.412   3.248   0.741
 7381SOL    HW123042   4.333   3.304   0.768
 7381SOL    HW223043   4.392   3.203   0.654
 7382SOL     OW23044   0.012   1.109   4.722
 7382SOL    HW123045   6.951   1.159   4.683
 7382SOL    HW223046   0.090   1.115   4.660
 7383SOL     OW23047   2.926   6.472   0.941
 7383SOL    HW123048   2.943   6.565   0.906
 7383SOL    HW223049   2.986   6.455   1.019
 7384SOL     OW23050   6.953   6.599   2.856
 7384SOL    HW123051   6.853   6.592   2.855
 7384SOL    HW223052   6.980   6.694   2.840
 7385SOL     OW23053   3.142   5.208   2.460
 7385SOL    HW123054   3.125   5.255   2.374
 7385SOL    HW223055   3.074   5.135   2.473
 7386SOL     OW23056   0.026   2.579   6.904
 7386SOL    HW123057   0.078   2.499   6.934
 7386SOL    HW223058   0.006   2.637   6.984
 7387SOL     OW23059   6.414   5.100   5.634
 7387SOL    HW123060   6.424   5.001   5.629
 7387SOL    HW223061   6.451   5.133   5.721
 7388SOL     OW23062   1.098   4.877   2.078
 7388SOL    HW123063   1.165   4.815   2.117
 7388SOL    HW223064   1.131   4.911   1.990
 7389SOL     OW23065   6.231   4.087   6.097
 7389SOL    HW123066   6.234   4.182   6.129
 7389SOL    HW223067   6.182   4.031   6.163
 7390SOL     OW23068   2.021   2.081   2.129
 7390SOL    HW123069   1.931   2.114   2.099
 7390SOL    HW223070   2.062   2.149   2.190
 7391SOL     OW23071   4.142   3.564   3.619
 7391SOL    HW123072   4.143   3.538   3.715
 7391SOL    HW223073   4.065   3.627   3.602
 7392SOL     OW23074   3.420   5.982   6.726
 7392SOL    HW123075   3.444   6.077   6.748
 7392SOL    HW223076   3.321   5.973   6.720
 7393SOL     OW23077   6.312   4.632   3.197
 7393SOL    HW123078   6.303   4.667   3.290
 7393SOL    HW223079   6.257   4.549   3.187
 7394SOL     OW23080   1.750   3.151   5.597
 7394SOL    HW123081   1.799   3.089   5.658
 7394SOL    HW223082   1.812   3.180   5.524
 7395SOL     OW23083   1.950   3.647   1.505
 7395SOL    HW123084   1.978   3.743   1.495
 7395SOL    HW223085   2.008   3.589   1.448
 7396SOL     OW23086   2.277   6.468   1.105
 7396SOL    HW123087   2.234   6.554   1.132
 7396SOL    HW223088   2.217   6.392   1.126
 7397SOL     OW23089   4.719   5.758   4.597
 7397SOL    HW123090   4.807   5.789   4.635
 7397SOL    HW223091   4.646   5.779   4.662
 7398SOL     OW23092   1.460   5.009   3.218
 7398SOL    HW123093   1.496   4.952   3.291
 7398SOL    HW223094   1.389   5.068   3.254
 7399SOL     OW23095   0.461   2.392   4.757
 7399SOL    HW123096   0.409   2.307   4.758
 7399SOL    HW223097   0.557   2.372   4.736
 7400SOL     OW23098   4.160   2.919   5.993
 7400SOL    HW123099   4.252   2.884   5.974
 7400SOL    HW223100   4.142   2.997   5.934
 7401SOL     OW23101   1.153   2.928   3.496
 7401SOL    HW123102   1.234   2.906   3.550
 7401SOL    HW223103   1.076   2.944   3.558
 7402SOL     OW23104   3.274   4.403   6.053
 7402SOL    HW123105   3.341   4.350   6.001
 7402SOL    HW223106   3.244   4.350   6.132
 7403SOL     OW23107   1.306   4.329   2.514
 7403SOL    HW123108   1.215   4.358   2.543
 7403SOL    HW223109   1.298   4.249   2.454
 7404SOL     OW23110   3.055   4.699   1.684
 7404SOL    HW123111   3.153   4.714   1.686
 7404SOL    HW223112   3.028   4.645   1.764
 7405SOL     OW23113   3.795   4.966   4.133
 7405SOL    HW123114   3.743   4.933   4.212
 7405SOL    HW223115   3.744   4.947   4.049
 7406SOL     OW23116   0.461   2.052   4.180
 7406SOL    HW123117   0.455   2.039   4.081
 7406SOL    HW223118   0.489   2.147   4.199
 7407SOL     OW23119   0.950   6.920   5.120
 7407SOL    HW123120   1.040   6.942   5.081
 7407SOL    HW223121   0.894   6.874   5.051
 7408SOL     OW23122   3.831   4.160   5.939
 7408SOL    HW123123   3.816   4.070   5.899
 7408SOL    HW223124   3.777   4.228   5.889
 7409SOL     OW23125   5.301   3.304   6.854
 7409SOL    HW123126   5.319   3.339   6.946
 7409SOL    HW223127   5.359   3.351   6.788
 7410SOL     OW23128   0.540   0.751   0.119
 7410SOL    HW123129   0.602   0.674   0.136
 7410SOL    HW223130   0.520   0.758   0.022
 7411SOL     OW23131   2.212   1.066   0.141
 7411SOL    HW123132   2.299   1.067   0.093
 7411SOL    HW223133   2.173   1.159   0.141
 7412SOL     OW23134   4.151   0.294   1.238
 7412SOL    HW123135   4.124   0.228   1.167
 7412SOL    HW223136   4.088   0.286   1.315
 7413SOL     OW23137   4.429   5.103   3.847
 7413SOL    HW123138   4.417   5.117   3.749
 7413SOL    HW223139   4.350   5.055   3.884
 7414SOL     OW23140   2.080   0.886   3.284
 7414SOL    HW123141   2.056   0.910   3.378
 7414SOL    HW223142   2.166   0.835   3.283
 7415SOL     OW23143   2.117   4.180   4.414
 7415SOL    HW123144   2.094   4.243   4.340
 7415SOL    HW223145   2.070   4.093   4.400
 7416SOL     OW23146   2.446   0.246   2.053
 7416SOL    HW123147   2.369   0.306   2.034
 7416SOL    HW223148   2.532   0.296   2.041
 7417SOL     OW23149   1.832   2.284   1.404
 7417SOL    HW123150   1.815   2.188   1.424
 7417SOL    HW223151   1.901   2.319   1.468
 7418SOL     OW23152   1.577   5.325   7.001
 7418SOL    HW123153   1.580   5.226   6.993
 7418SOL    HW223154   1.572   5.365   6.909
 7419SOL     OW23155   6.849   4.136   4.200
 7419SOL    HW123156   6.789   4.187   4.263
 7419SOL    HW223157   6.797   4.063   4.157
 7420SOL     OW23158   0.286   6.438   1.030
 7420SOL    HW123159   0.210   6.405   1.085
 7420SOL    HW223160   0.252   6.485   0.948
 7421SOL     OW23161   4.397   3.585   0.880
 7421SOL    HW123162   4.386   3.673   0.926
 7421SOL    HW223163   4.341   3.516   0.926
 7422SOL     OW23164   0.089   4.639   2.052
 7422SOL    HW123165   0.022   4.690   1.997
 7422SOL    HW223166   0.041   4.585   2.121
 7423SOL     OW23167   5.941   2.298   5.836
 7423SOL    HW123168   6.029   2.304   5.883
 7423SOL    HW223169   5.879   2.367   5.872
 7424SOL     OW23170   0.262   1.517   6.043
 7424SOL    HW123171   0.257   1.475   6.134
 7424SOL    HW223172   0.274   1.616   6.053
 7425SOL     OW23173   5.052   0.166   0.420
 7425SOL    HW123174   5.128   0.228   0.400
 7425SOL    HW223175   5.029   0.114   0.337
 7426SOL     OW23176   2.865   1.786   5.053
 7426SOL    HW123177   2.879   1.865   5.111
 7426SOL    HW223178   2.852   1.815   4.958
 7427SOL     OW23179   4.848   0.889   4.261
 7427SOL    HW123180   4.802   0.824   4.322
 7427SOL    HW223181   4.887   0.840   4.183
 7428SOL     OW23182   4.007   0.668   4.964
 7428SOL    HW123183   4.001   0.768   4.974
 7428SOL    HW223184   3.936   0.637   4.901
 7429SOL     OW23185   0.625   6.415   3.888
 7429SOL    HW123186   0.699   6.392   3.824
 7429SOL    HW223187   0.664   6.443   3.975
 7430SOL     OW23188   0.342   3.822   1.363
 7430SOL    HW123189   0.397   3.751   1.407
 7430SOL    HW223190   0.388   3.853   1.280
 7431SOL     OW23191   0.823   2.367   2.915
 7431SOL    HW123192   0.889   2.292   2.928
 7431SOL    HW223193   0.864   2.437   2.856
 7432SOL     OW23194   1.876   0.604   3.222
 7432SOL    HW123195   1.897   0.514   3.262
 7432SOL    HW223196   1.853   0.668   3.296
 7433SOL     OW23197   3.930   6.187   6.312
 7433SOL    HW123198   3.880   6.230   6.387
 7433SOL    HW223199   3.960   6.257   6.247
 7434SOL     OW23200   4.983   5.391   5.344
 7434SOL    HW123201   5.014   5.378   5.250
 7434SOL    HW223202   5.052   5.440   5.396
 7435SOL     OW23203   4.768   6.517   0.928
 7435SOL    HW123204   4.707   6.438   0.939
 7435SOL    HW223205   4.716   6.593   0.888
 7436SOL     OW23206   4.685   4.140   6.284
 7436SOL    HW123207   4.744   4.069   6.248
 7436SOL    HW223208   4.612   4.160   6.218
 7437SOL     OW23209   2.815   6.067   0.244
 7437SOL    HW123210   2.766   6.003   0.185
 7437SOL    HW223211   2.862   6.135   0.187
 7438SOL     OW23212   0.661   6.744   0.140
 7438SOL    HW123213   0.593   6.673   0.121
 7438SOL    HW223214   0.716   6.718   0.219
 7439SOL     OW23215   1.654   6.736   6.164
 7439SOL    HW123216   1.689   6.644   6.148
 7439SOL    HW223217   1.716   6.802   6.122
 7440SOL     OW23218   6.580   2.774   3.758
 7440SOL    HW123219   6.542   2.829   3.832
 7440SOL    HW223220   6.547   2.680   3.766
 7441SOL     OW23221   5.748   0.144   4.953
 7441SOL    HW123222   5.844   0.161   4.974
 7441SOL    HW223223   5.731   0.161   4.856
 7442SOL     OW23224   5.977   1.533   0.008
 7442SOL    HW123225   5.959   1.601   0.079
 7442SOL    HW223226   6.074   1.509   0.007
 7443SOL     OW23227   6.234   5.875   1.485
 7443SOL    HW123228   6.330   5.901   1.472
 7443SOL    HW223229   6.179   5.956   1.501
 7444SOL     OW23230   5.461   1.968   0.065
 7444SOL    HW123231   5.416   1.882   0.089
 7444SOL    HW223232   5.395   2.043   0.071
 7445SOL     OW23233   3.361   0.525   1.044
 7445SOL    HW123234   3.284   0.565   1.094
 7445SOL    HW223235   3.433   0.594   1.032
 7446SOL     OW23236   5.596   2.653   0.029
 7446SOL    HW123237   5.644   2.595   0.095
 7446SOL    HW223238   5.497   2.642   0.041
 7447SOL     OW23239   6.584   4.739   0.195
 7447SOL    HW123240   6.515   4.811   0.183
 7447SOL    HW223241   6.584   4.680   0.114
 7448SOL     OW23242   6.319   6.633   4.823
 7448SOL    HW123243   6.380   6.676   4.889
 7448SOL    HW223244   6.364   6.628   4.734
 7449SOL     OW23245   0.660   5.173   0.863
 7449SOL    HW123246   0.643   5.144   0.769
 7449SOL    HW223247   0.652   5.272   0.870
 7450SOL     OW23248   5.446   2.450   4.850
 7450SOL    HW123249   5.352   2.471   4.825
 7450SOL    HW223250   5.508   2.518   4.811
 7451SOL     OW23251   6.637   6.326   2.640
 7451SOL    HW123252   6.561   6.378   2.602
 7451SOL    HW223253   6.721   6.347   2.589
 7452SOL     OW23254   5.752   6.003   4.032
 7452SOL    HW123255   5.656   6.029   4.036
 7452SOL    HW223256   5.760   5.903   4.036
 7453SOL     OW23257   4.946   5.415   4.600
 7453SOL    HW123258   4.982   5.329   4.563
 7453SOL    HW223259   4.846   5.412   4.599
 7454SOL     OW23260   1.931   2.304   1.081
 7454SOL    HW123261   1.911   2.310   1.178
 7454SOL    HW223262   1.848   2.278   1.031
 7455SOL     OW23263   6.542   2.792   1.998
 7455SOL    HW123264   6.568   2.842   2.081
 7455SOL    HW223265   6.524   2.857   1.924
 7456SOL     OW23266   2.075   1.077   4.784
 7456SOL    HW123267   2.073   1.116   4.877
 7456SOL    HW223268   2.025   0.991   4.783
 7457SOL     OW23269   3.063   0.397   4.907
 7457SOL    HW123270   3.062   0.457   4.827
 7457SOL    HW223271   3.011   0.438   4.981
 7458SOL     OW23272   1.804   0.261   5.666
 7458SOL    HW123273   1.867   0.322   5.714
 7458SOL    HW223274   1.819   0.166   5.695
 7459SOL     OW23275   5.563   1.089   2.402
 7459SOL    HW123276   5.619   1.006   2.401
 7459SOL    HW223277   5.467   1.064   2.413
 7460SOL     OW23278   0.702   5.659   0.215
 7460SOL    HW123279   0.785   5.714   0.230
 7460SOL    HW223280   0.727   5.569   0.181
 7461SOL     OW23281   5.916   0.007   6.481
 7461SOL    HW123282   5.933   6.950   6.416
 7461SOL    HW223283   5.958   7.001   6.569
 7462SOL     OW23284   1.432   4.510   2.353
 7462SOL    HW123285   1.371   4.589   2.356
 7462SOL    HW223286   1.404   4.444   2.423
 7463SOL     OW23287   2.914   4.265   0.070
 7463SOL    HW123288   3.004   4.284   0.108
 7463SOL    HW223289   2.866   4.351   0.053
 7464SOL     OW23290   5.835   6.925   5.718
 7464SOL    HW123291   5.783   6.963   5.641
 7464SOL    HW223292   5.932   6.945   5.706
 7465SOL     OW23293   2.494   5.167   6.763
 7465SOL    HW123294   2.426   5.195   6.695
 7465SOL    HW223295   2.504   5.239   6.832
 7466SOL     OW23296   6.754   0.716   5.174
 7466SOL    HW123297   6.695   0.796   5.165
 7466SOL    HW223298   6.850   0.744   5.169
 7467SOL     OW23299   0.314   2.382   5.863
 7467SOL    HW123300   0.340   2.315   5.933
 7467SOL    HW223301   0.381   2.456   5.863
 7468SOL     OW23302   5.364   3.039   3.914
 7468SOL    HW123303   5.301   3.075   3.983
 7468SOL    HW223304   5.438   2.990   3.959
 7469SOL     OW23305   0.179   0.611   6.584
 7469SOL    HW123306   0.109   0.545   6.611
 7469SOL    HW223307   0.270   0.574   6.606
 7470SOL     OW23308   5.411   3.600   3.521
 7470SOL    HW123309   5.380   3.510   3.552
 7470SOL    HW223310   5.385   3.614   3.425
 7471SOL     OW23311   5.099   6.393   5.996
 7471SOL    HW123312   5.118   6.420   5.902
 7471SOL    HW223313   5.133   6.464   6.058
 7472SOL     OW23314   6.828   1.094   5.610
 7472SOL    HW123315   6.765   1.155   5.562
 7472SOL    HW223316   6.782   1.008   5.630
 7473SOL     OW23317   5.170   5.452   3.539
 7473SOL    HW123318   5.184   5.524   3.472
 7473SOL    HW223319   5.163   5.492   3.631
 7474SOL     OW23320   6.705   1.765   6.445
 7474SOL    HW123321   6.611   1.802   6.444
 7474SOL    HW223322   6.753   1.795   6.363
 7475SOL     OW23323   4.283   2.434   1.798
 7475SOL    HW123324   4.191   2.439   1.759
 7475SOL    HW223325   4.334   2.517   1.775
 7476SOL     OW23326   2.805   1.101   2.890
 7476SOL    HW123327   2.769   1.110   2.983
 7476SOL    HW223328   2.901   1.073   2.894
 7477SOL     OW23329   6.388   2.470   4.977
 7477SOL    HW123330   6.402   2.402   4.905
 7477SOL    HW223331   6.325   2.434   5.046
 7478SOL     OW23332   5.988   3.665   5.340
 7478SOL    HW123333   5.911   3.602   5.331
 7478SOL    HW223334   6.059   3.640   5.273
 7479SOL     OW23335   4.411   2.427   2.051
 7479SOL    HW123336   4.489   2.478   2.014
 7479SOL    HW223337   4.352   2.397   1.976
 7480SOL     OW23338   1.610   4.967   2.603
 7480SOL    HW123339   1.630   5.046   2.545
 7480SOL    HW223340   1.648   4.885   2.562
 7481SOL     OW23341   5.806   5.192   0.810
 7481SOL    HW123342   5.880   5.126   0.822
 7481SOL    HW223343   5.762   5.177   0.722
 7482SOL     OW23344   4.701   2.726   2.864
 7482SOL    HW123345   4.695   2.722   2.764
 7482SOL    HW223346   4.764   2.800   2.890
 7483SOL     OW23347   4.874   3.432   4.736
 7483SOL    HW123348   4.974   3.429   4.742
 7483SOL    HW223349   4.844   3.524   4.711
 7484SOL     OW23350   1.855   5.853   4.613
 7484SOL    HW123351   1.770   5.821   4.571
 7484SOL    HW223352   1.834   5.910   4.693
 7485SOL     OW23353   2.705   0.284   4.987
 7485SOL    HW123354   2.648   0.366   4.982
 7485SOL    HW223355   2.801   0.311   4.996
 7486SOL     OW23356   1.129   6.698   6.932
 7486SOL    HW123357   1.217   6.675   6.892
 7486SOL    HW223358   1.116   6.646   7.017
 7487SOL     OW23359   2.923   0.777   3.491
 7487SOL    HW123360   2.967   0.736   3.411
 7487SOL    HW223361   2.910   0.875   3.476
 7488SOL     OW23362   1.913   5.515   5.098
 7488SOL    HW123363   1.972   5.462   5.039
 7488SOL    HW223364   1.963   5.543   5.180
 7489SOL     OW23365   6.465   2.985   6.508
 7489SOL    HW123366   6.399   2.964   6.437
 7489SOL    HW223367   6.439   3.070   6.554
 7490SOL     OW23368   1.355   0.591   3.238
 7490SOL    HW123369   1.446   0.577   3.198
 7490SOL    HW223370   1.363   0.597   3.337
 7491SOL     OW23371   4.178   3.142   6.704
 7491SOL    HW123372   4.227   3.119   6.788
 7491SOL    HW223373   4.243   3.161   6.631
 7492SOL     OW23374   2.284   0.826   3.684
 7492SOL    HW123375   2.252   0.890   3.754
 7492SOL    HW223376   2.358   0.868   3.631
 7493SOL     OW23377   6.992   2.499   6.263
 7493SOL    HW123378   6.892   2.493   6.267
 7493SOL    HW223379   0.005   2.587   6.300
 7494SOL     OW23380   5.991   1.589   3.254
 7494SOL    HW123381   5.899   1.550   3.254
 7494SOL    HW223382   6.030   1.582   3.162
 7495SOL     OW23383   0.991   3.077   6.357
 7495SOL    HW123384   0.898   3.041   6.359
 7495SOL    HW223385   0.992   3.163   6.306
 7496SOL     OW23386   5.810   3.545   3.822
 7496SOL    HW123387   5.826   3.524   3.726
 7496SOL    HW223388   5.881   3.608   3.854
 7497SOL     OW23389   1.695   4.779   1.447
 7497SOL    HW123390   1.617   4.842   1.451
 7497SOL    HW223391   1.746   4.784   1.534
 7498SOL     OW23392   3.143   1.099   4.413
 7498SOL    HW123393   3.231   1.055   4.394
 7498SOL    HW223394   3.069   1.035   4.395
 7499SOL     OW23395   4.451   2.351   3.128
 7499SOL    HW123396   4.504   2.325   3.208
 7499SOL    HW223397   4.479   2.442   3.097
 7500SOL     OW23398   3.716   5.778   3.205
 7500SOL    HW123399   3.721   5.678   3.216
 7500SOL    HW223400   3.761   5.804   3.119
 7501SOL     OW23401   5.220   4.588   3.864
 7501SOL    HW123402   5.299   4.564   3.921
 7501SOL    HW223403   5.136   4.572   3.915
 7502SOL     OW23404   3.245   0.354   4.462
 7502SOL    HW123405   3.199   0.441   4.445
 7502SOL    HW223406   3.177   0.282   4.475
 7503SOL     OW23407   2.654   6.641   1.288
 7503SOL    HW123408   2.629   6.544   1.293
 7503SOL    HW223409   2.590   6.689   1.228
 7504SOL     OW23410   0.609   6.277   3.387
 7504SOL    HW123411   0.640   6.185   3.411
 7504SOL    HW223412   0.510   6.277   3.374
 7505SOL     OW23413   1.471   2.388   6.250
 7505SOL    HW123414   1.561   2.405   6.210
 7505SOL    HW223415   1.479   2.382   6.349
 7506SOL     OW23416   5.226   2.597   4.119
 7506SOL    HW123417   5.232   2.643   4.030
 7506SOL    HW223418   5.271   2.654   4.189
 7507SOL     OW23419   5.802   1.654   2.690
 7507SOL    HW123420   5.888   1.705   2.686
 7507SOL    HW223421   5.729   1.707   2.648
 7508SOL     OW23422   2.273   5.334   0.677
 7508SOL    HW123423   2.203   5.265   0.695
 7508SOL    HW223424   2.245   5.391   0.600
 7509SOL     OW23425   5.817   3.681   0.545
 7509SOL    HW123426   5.867   3.631   0.474
 7509SOL    HW223427   5.869   3.677   0.630
 7510SOL     OW23428   3.772   3.359   4.497
 7510SOL    HW123429   3.744   3.263   4.488
 7510SOL    HW223430   3.691   3.416   4.505
 7511SOL     OW23431   3.139   6.143   3.368
 7511SOL    HW123432   3.181   6.148   3.458
 7511SOL    HW223433   3.184   6.209   3.307
 7512SOL     OW23434   2.835   1.146   6.514
 7512SOL    HW123435   2.808   1.168   6.607
 7512SOL    HW223436   2.818   1.225   6.454
 7513SOL     OW23437   1.491   0.888   2.176
 7513SOL    HW123438   1.525   0.980   2.199
 7513SOL    HW223439   1.562   0.837   2.128
 7514SOL     OW23440   2.477   4.883   2.838
 7514SOL    HW123441   2.519   4.972   2.854
 7514SOL    HW223442   2.441   4.879   2.745
 7515SOL     OW23443   6.487   4.856   4.707
 7515SOL    HW123444   6.430   4.862   4.789
 7515SOL    HW223445   6.481   4.942   4.656
 7516SOL     OW23446   0.449   5.298   6.222
 7516SOL    HW123447   0.530   5.339   6.265
 7516SOL    HW223448   0.435   5.206   6.258
 7517SOL     OW23449   0.871   2.329   0.247
 7517SOL    HW123450   0.796   2.388   0.274
 7517SOL    HW223451   0.835   2.242   0.214
 7518SOL     OW23452   5.104   3.471   3.950
 7518SOL    HW123453   5.129   3.420   3.868
 7518SOL    HW223454   5.163   3.551   3.958
 7519SOL     OW23455   6.695   6.531   4.851
 7519SOL    HW123456   6.631   6.455   4.838
 7519SOL    HW223457   6.718   6.571   4.763
 7520SOL     OW23458   2.396   0.561   2.956
 7520SOL    HW123459   2.495   0.568   2.955
 7520SOL    HW223460   2.355   0.650   2.974
 7521SOL     OW23461   5.386   2.621   5.040
 7521SOL    HW123462   5.341   2.577   5.118
 7521SOL    HW223463   5.404   2.553   4.969
 7522SOL     OW23464   1.292   0.670   6.129
 7522SOL    HW123465   1.303   0.763   6.166
 7522SOL    HW223466   1.310   0.671   6.031
 7523SOL     OW23467   5.007   0.906   6.478
 7523SOL    HW123468   5.034   0.895   6.574
 7523SOL    HW223469   4.990   0.816   6.438
 7524SOL     OW23470   0.928   2.475   5.488
 7524SOL    HW123471   0.955   2.564   5.452
 7524SOL    HW223472   0.972   2.460   5.576
 7525SOL     OW23473   4.106   0.009   6.962
 7525SOL    HW123474   4.206   0.010   6.953
 7525SOL    HW223475   4.076   6.935   6.991
 7526SOL     OW23476   2.827   3.077   1.704
 7526SOL    HW123477   2.775   3.148   1.751
 7526SOL    HW223478   2.908   3.055   1.758
 7527SOL     OW23479   3.319   5.638   4.334
 7527SOL    HW123480   3.340   5.735   4.319
 7527SOL    HW223481   3.324   5.589   4.247
 7528SOL     OW23482   6.006   2.083   6.554
 7528SOL    HW123483   6.071   2.093   6.629
 7528SOL    HW223484   6.016   2.160   6.490
 7529SOL     OW23485   5.532   1.879   4.728
 7529SOL    HW123486   5.611   1.899   4.671
 7529SOL    HW223487   5.526   1.780   4.743
 7530SOL     OW23488   6.198   2.581   2.221
 7530SOL    HW123489   6.226   2.583   2.125
 7530SOL    HW223490   6.186   2.675   2.254
 7531SOL     OW23491   5.256   3.384   4.149
 7531SOL    HW123492   5.199   3.432   4.082
 7531SOL    HW223493   5.344   3.431   4.158
 7532SOL     OW23494   4.626   6.171   0.538
 7532SOL    HW123495   4.616   6.212   0.447
 7532SOL    HW223496   4.551   6.107   0.555
 7533SOL     OW23497   3.598   1.923   1.980
 7533SOL    HW123498   3.615   2.011   2.023
 7533SOL    HW223499   3.565   1.937   1.887
 7534SOL     OW23500   5.080   5.865   4.093
 7534SOL    HW123501   5.079   5.806   4.174
 7534SOL    HW223502   5.174   5.888   4.069
 7535SOL     OW23503   1.620   6.597   4.844
 7535SOL    HW123504   1.720   6.588   4.842
 7535SOL    HW223505   1.584   6.593   4.751
 7536SOL     OW23506   4.766   5.279   4.060
 7536SOL    HW123507   4.822   5.221   4.000
 7536SOL    HW223508   4.728   5.355   4.007
 7537SOL     OW23509   1.718   4.792   2.846
 7537SOL    HW123510   1.683   4.713   2.796
 7537SOL    HW223511   1.688   4.876   2.802
 7538SOL     OW23512   1.676   2.502   1.445
 7538SOL    HW123513   1.716   2.412   1.427
 7538SOL    HW223514   1.723   2.545   1.522
 7539SOL     OW23515   1.441   4.030   4.087
 7539SOL    HW123516   1.446   3.931   4.077
 7539SOL    HW223517   1.524   4.063   4.133
 7540SOL     OW23518   4.154   0.117   4.517
 7540SOL    HW123519   4.055   0.106   4.525
 7540SOL    HW223520   4.200   0.058   4.584
 7541SOL     OW23521   0.260   4.075   5.661
 7541SOL    HW123522   0.355   4.066   5.690
 7541SOL    HW223523   0.206   4.115   5.736
 7542SOL     OW23524   6.636   6.084   0.619
 7542SOL    HW123525   6.629   6.082   0.519
 7542SOL    HW223526   6.555   6.129   0.657
 7543SOL     OW23527   3.242   1.192   5.360
 7543SOL    HW123528   3.146   1.185   5.387
 7543SOL    HW223529   3.274   1.103   5.328
 7544SOL     OW23530   6.616   2.652   4.442
 7544SOL    HW123531   6.669   2.700   4.373
 7544SOL    HW223532   6.637   2.689   4.532
 7545SOL     OW23533   0.945   6.495   6.539
 7545SOL    HW123534   0.905   6.406   6.564
 7545SOL    HW223535   0.872   6.561   6.524
 7546SOL     OW23536   4.663   2.131   1.183
 7546SOL    HW123537   4.567   2.109   1.199
 7546SOL    HW223538   4.674   2.231   1.181
 7547SOL     OW23539   5.222   1.238   1.195
 7547SOL    HW123540   5.159   1.261   1.120
 7547SOL    HW223541   5.186   1.274   1.281
 7548SOL     OW23542   4.785   2.285   6.177
 7548SOL    HW123543   4.799   2.377   6.141
 7548SOL    HW223544   4.872   2.247   6.208
 7549SOL     OW23545   3.675   3.236   6.513
 7549SOL    HW123546   3.679   3.179   6.595
 7549SOL    HW223547   3.644   3.328   6.537
 7550SOL     OW23548   1.684   4.434   3.613
 7550SOL    HW123549   1.765   4.376   3.619
 7550SOL    HW223550   1.603   4.379   3.631
 7551SOL     OW23551   5.674   2.964   5.215
 7551SOL    HW123552   5.696   2.942   5.119
 7551SOL    HW223553   5.616   3.045   5.218
 7552SOL     OW23554   1.882   5.903   4.289
 7552SOL    HW123555   1.972   5.893   4.330
 7552SOL    HW223556   1.815   5.926   4.360
 7553SOL     OW23557   4.788   6.706   5.689
 7553SOL    HW123558   4.717   6.748   5.746
 7553SOL    HW223559   4.818   6.772   5.620
 7554SOL     OW23560   4.787   0.671   6.617
 7554SOL    HW123561   4.859   0.660   6.548
 7554SOL    HW223562   4.780   0.767   6.643
 7555SOL     OW23563   3.030   5.553   6.447
 7555SOL    HW123564   3.002   5.650   6.445
 7555SOL    HW223565   2.992   5.509   6.528
 7556SOL     OW23566   2.776   1.653   0.392
 7556SOL    HW123567   2.686   1.646   0.348
 7556SOL    HW223568   2.827   1.728   0.350
 7557SOL     OW23569   4.981   0.625   6.420
 7557SOL    HW123570   5.051   0.557   6.445
 7557SOL    HW223571   4.944   0.602   6.330
 7558SOL     OW23572   2.177   3.184   4.377
 7558SOL    HW123573   2.179   3.132   4.291
 7558SOL    HW223574   2.219   3.130   4.449
 7559SOL     OW23575   3.779   2.986   6.037
 7559SOL    HW123576   3.856   2.935   6.076
 7559SOL    HW223577   3.811   3.076   6.006
 7560SOL     OW23578   5.630   0.053   0.282
 7560SOL    HW123579   5.618   6.982   0.329
 7560SOL    HW223580   5.615   0.041   0.184
 7561SOL     OW23581   6.817   2.836   5.790
 7561SOL    HW123582   6.783   2.743   5.776
 7561SOL    HW223583   6.747   2.891   5.836
 7562SOL     OW23584   0.607   4.661   5.075
 7562SOL    HW123585   0.690   4.609   5.096
 7562SOL    HW223586   0.576   4.637   4.982
 7563SOL     OW23587   2.822   6.208   1.592
 7563SOL    HW123588   2.862   6.297   1.572
 7563SOL    HW223589   2.894   6.139   1.597
 7564SOL     OW23590   3.715   0.274   4.226
 7564SOL    HW123591   3.652   0.319   4.290
 7564SOL    HW223592   3.741   0.185   4.262
 7565SOL     OW23593   5.576   4.091   6.267
 7565SOL    HW123594   5.560   4.027   6.192
 7565SOL    HW223595   5.623   4.045   6.341
 7566SOL     OW23596   5.452   5.251   2.046
 7566SOL    HW123597   5.547   5.276   2.029
 7566SOL    HW223598   5.434   5.161   2.004
 7567SOL     OW23599   1.480   1.108   5.961
 7567SOL    HW123600   1.409   1.057   5.912
 7567SOL    HW223601   1.450   1.127   6.054
 7568SOL     OW23602   5.538   4.464   2.156
 7568SOL    HW123603   5.509   4.500   2.068
 7568SOL    HW223604   5.638   4.467   2.163
 7569SOL     OW23605   2.774   4.878   6.324
 7569SOL    HW123606   2.865   4.841   6.307
 7569SOL    HW223607   2.713   4.852   6.249
 7570SOL     OW23608   5.808   3.734   4.323
 7570SOL    HW123609   5.777   3.817   4.276
 7570SOL    HW223610   5.778   3.654   4.272
 7571SOL     OW23611   4.896   3.616   3.231
 7571SOL    HW123612   4.885   3.520   3.207
 7571SOL    HW223613   4.895   3.626   3.331
 7572SOL     OW23614   5.055   0.658   2.912
 7572SOL    HW123615   4.984   0.707   2.962
 7572SOL    HW223616   5.088   0.582   2.968
 7573SOL     OW23617   6.023   0.788   5.598
 7573SOL    HW123618   5.958   0.725   5.640
 7573SOL    HW223619   6.095   0.809   5.665
 7574SOL     OW23620   5.692   1.207   4.655
 7574SOL    HW123621   5.735   1.128   4.699
 7574SOL    HW223622   5.698   1.286   4.716
 7575SOL     OW23623   5.449   6.926   0.481
 7575SOL    HW123624   5.530   6.927   0.539
 7575SOL    HW223625   5.475   6.905   0.387
 7576SOL     OW23626   5.140   2.968   0.096
 7576SOL    HW123627   5.076   2.936   0.165
 7576SOL    HW223628   5.231   2.976   0.136
 7577SOL     OW23629   0.406   6.123   6.732
 7577SOL    HW123630   0.459   6.175   6.664
 7577SOL    HW223631   0.376   6.037   6.691
 7578SOL     OW23632   2.452   5.168   2.458
 7578SOL    HW123633   2.376   5.215   2.412
 7578SOL    HW223634   2.518   5.236   2.491
 7579SOL     OW23635   0.170   1.500   1.460
 7579SOL    HW123636   0.258   1.528   1.498
 7579SOL    HW223637   0.154   1.547   1.373
 7580SOL     OW23638   0.705   4.138   3.628
 7580SOL    HW123639   0.617   4.138   3.582
 7580SOL    HW223640   0.764   4.068   3.587
 7581SOL     OW23641   0.765   1.752   1.577
 7581SOL    HW123642   0.757   1.701   1.492
 7581SOL    HW223643   0.861   1.773   1.594
 7582SOL     OW23644   4.072   1.891   3.889
 7582SOL    HW123645   3.997   1.938   3.844
 7582SOL    HW223646   4.158   1.941   3.872
 7583SOL     OW23647   5.238   2.913   2.066
 7583SOL    HW123648   5.307   2.971   2.021
 7583SOL    HW223649   5.148   2.935   2.029
 7584SOL     OW23650   1.650   0.639   2.883
 7584SOL    HW123651   1.728   0.699   2.901
 7584SOL    HW223652   1.566   0.693   2.878
 7585SOL     OW23653   1.871   2.583   6.138
 7585SOL    HW123654   1.924   2.575   6.223
 7585SOL    HW223655   1.858   2.492   6.099
 7586SOL     OW23656   1.875   6.437   3.590
 7586SOL    HW123657   1.943   6.375   3.551
 7586SOL    HW223658   1.807   6.384   3.641
 7587SOL     OW23659   3.138   1.385   0.088
 7587SOL    HW123660   3.203   1.393   0.163
 7587SOL    HW223661   3.081   1.467   0.083
 7588SOL     OW23662   2.213   2.201   3.508
 7588SOL    HW123663   2.159   2.148   3.443
 7588SOL    HW223664   2.154   2.263   3.559
 7589SOL     OW23665   0.253   0.214   2.844
 7589SOL    HW123666   0.295   0.234   2.755
 7589SOL    HW223667   0.153   0.216   2.835
 7590SOL     OW23668   5.313   1.379   0.196
 7590SOL    HW123669   5.311   1.401   0.098
 7590SOL    HW223670   5.221   1.353   0.226
 7591SOL     OW23671   5.225   4.217   0.217
 7591SOL    HW123672   5.192   4.258   0.132
 7591SOL    HW223673   5.277   4.286   0.268
 7592SOL     OW23674   6.049   4.987   4.476
 7592SOL    HW123675   6.101   5.065   4.511
 7592SOL    HW223676   6.041   4.993   4.377
 7593SOL     OW23677   6.659   3.360   6.968
 7593SOL    HW123678   6.725   3.320   6.904
 7593SOL    HW223679   6.668   3.459   6.968
 7594SOL     OW23680   1.768   4.769   1.712
 7594SOL    HW123681   1.700   4.720   1.767
 7594SOL    HW223682   1.761   4.867   1.730
 7595SOL     OW23683   6.279   2.935   6.306
 7595SOL    HW123684   6.318   2.946   6.214
 7595SOL    HW223685   6.233   2.847   6.313
 7596SOL     OW23686   3.297   6.752   4.393
 7596SOL    HW123687   3.333   6.667   4.432
 7596SOL    HW223688   3.264   6.811   4.466
 7597SOL     OW23689   1.991   6.401   3.180
 7597SOL    HW123690   1.930   6.480   3.178
 7597SOL    HW223691   1.990   6.354   3.092
 7598SOL     OW23692   6.327   0.608   3.663
 7598SOL    HW123693   6.262   0.671   3.705
 7598SOL    HW223694   6.314   0.516   3.700
 7599SOL     OW23695   5.183   2.449   1.577
 7599SOL    HW123696   5.221   2.367   1.621
 7599SOL    HW223697   5.232   2.530   1.609
 7600SOL     OW23698   0.939   0.801   3.692
 7600SOL    HW123699   0.896   0.714   3.718
 7600SOL    HW223700   0.927   0.868   3.766
 7601SOL     OW23701   2.571   4.889   1.996
 7601SOL    HW123702   2.594   4.983   1.970
 7601SOL    HW223703   2.497   4.890   2.063
 7602SOL     OW23704   1.334   3.608   6.700
 7602SOL    HW123705   1.242   3.648   6.695
 7602SOL    HW223706   1.334   3.533   6.766
 7603SOL     OW23707   2.246   6.333   6.371
 7603SOL    HW123708   2.152   6.313   6.395
 7603SOL    HW223709   2.249   6.402   6.298
 7604SOL     OW23710   0.894   2.115   5.119
 7604SOL    HW123711   0.980   2.150   5.080
 7604SOL    HW223712   0.910   2.085   5.212
 7605SOL     OW23713   1.524   0.477   0.244
 7605SOL    HW123714   1.593   0.493   0.315
 7605SOL    HW223715   1.457   0.411   0.276
 7606SOL     OW23716   5.338   3.125   4.869
 7606SOL    HW123717   5.347   3.031   4.902
 7606SOL    HW223718   5.422   3.175   4.889
 7607SOL     OW23719   4.319   5.123   0.243
 7607SOL    HW123720   4.250   5.191   0.221
 7607SOL    HW223721   4.300   5.038   0.194
 7608SOL     OW23722   5.481   2.811   0.858
 7608SOL    HW123723   5.403   2.819   0.921
 7608SOL    HW223724   5.482   2.719   0.819
 7609SOL     OW23725   1.258   3.572   3.749
 7609SOL    HW123726   1.166   3.598   3.779
 7609SOL    HW223727   1.260   3.569   3.649
 7610SOL     OW23728   4.069   4.801   5.853
 7610SOL    HW123729   4.162   4.818   5.821
 7610SOL    HW223730   4.011   4.778   5.775
 7611SOL     OW23731   4.858   3.895   1.287
 7611SOL    HW123732   4.929   3.943   1.340
 7611SOL    HW223733   4.880   3.798   1.283
 7612SOL     OW23734   4.841   2.932   2.968
 7612SOL    HW123735   4.820   3.022   2.931
 7612SOL    HW223736   4.937   2.911   2.952
 7613SOL     OW23737   0.327   1.831   1.405
 7613SOL    HW123738   0.369   1.890   1.473
 7613SOL    HW223739   0.334   1.735   1.435
 7614SOL     OW23740   5.377   3.392   1.468
 7614SOL    HW123741   5.289   3.439   1.477
 7614SOL    HW223742   5.421   3.384   1.557
 7615SOL     OW23743   4.990   4.159   6.455
 7615SOL    HW123744   4.914   4.104   6.490
 7615SOL    HW223745   5.068   4.152   6.516
 7616SOL     OW23746   6.980   6.769   4.407
 7616SOL    HW123747   6.990   6.680   4.453
 7616SOL    HW223748   0.046   6.789   4.354
 7617SOL     OW23749   5.383   6.274   3.703
 7617SOL    HW123750   5.473   6.230   3.703
 7617SOL    HW223751   5.343   6.269   3.612
 7618SOL     OW23752   0.912   2.674   6.686
 7618SOL    HW123753   0.981   2.744   6.707
 7618SOL    HW223754   0.894   2.673   6.588
 7619SOL     OW23755   0.155   2.904   4.451
 7619SOL    HW123756   0.090   2.951   4.511
 7619SOL    HW223757   0.154   2.806   4.473
 7620SOL     OW23758   4.526   5.466   1.300
 7620SOL    HW123759   4.500   5.559   1.328
 7620SOL    HW223760   4.517   5.458   1.201
 7621SOL     OW23761   0.306   0.727   1.242
 7621SOL    HW123762   0.241   0.767   1.306
 7621SOL    HW223763   0.281   0.632   1.224
 7622SOL     OW23764   4.783   4.572   6.215
 7622SOL    HW123765   4.693   4.602   6.248
 7622SOL    HW223766   4.830   4.523   6.289
 7623SOL     OW23767   4.511   4.582   1.134
 7623SOL    HW123768   4.446   4.566   1.059
 7623SOL    HW223769   4.583   4.513   1.130
 7624SOL     OW23770   6.980   3.523   3.644
 7624SOL    HW123771   0.050   3.561   3.674
 7624SOL    HW223772   6.920   3.509   3.723
 7625SOL     OW23773   6.220   1.515   0.030
 7625SOL    HW123774   6.268   1.463   0.100
 7625SOL    HW223775   6.274   1.515   6.962
 7626SOL     OW23776   6.407   0.600   5.791
 7626SOL    HW123777   6.343   0.550   5.734
 7626SOL    HW223778   6.434   0.543   5.868
 7627SOL     OW23779   3.234   2.364   0.317
 7627SOL    HW123780   3.327   2.327   0.322
 7627SOL    HW223781   3.170   2.296   0.352
 7628SOL     OW23782   3.805   2.873   1.692
 7628SOL    HW123783   3.811   2.831   1.601
 7628SOL    HW223784   3.895   2.906   1.719
 7629SOL     OW23785   0.158   3.933   3.343
 7629SOL    HW123786   0.098   4.003   3.304
 7629SOL    HW223787   0.123   3.904   3.432
 7630SOL     OW23788   1.054   0.895   6.792
 7630SOL    HW123789   0.994   0.814   6.788
 7630SOL    HW223790   1.124   0.887   6.721
 7631SOL     OW23791   1.329   1.586   5.637
 7631SOL    HW123792   1.400   1.518   5.657
 7631SOL    HW223793   1.333   1.612   5.541
 7632SOL     OW23794   4.316   4.668   0.584
 7632SOL    HW123795   4.335   4.736   0.513
 7632SOL    HW223796   4.402   4.641   0.628
 7633SOL     OW23797   5.056   0.556   1.651
 7633SOL    HW123798   5.137   0.598   1.693
 7633SOL    HW223799   5.035   0.471   1.698
 7634SOL     OW23800   2.560   1.220   1.522
 7634SOL    HW123801   2.591   1.304   1.567
 7634SOL    HW223802   2.636   1.156   1.516
 7635SOL     OW23803   3.154   4.952   4.541
 7635SOL    HW123804   3.149   4.949   4.641
 7635SOL    HW223805   3.173   5.046   4.512
 7636SOL     OW23806   0.833   3.729   3.884
 7636SOL    HW123807   0.885   3.692   3.808
 7636SOL    HW223808   0.889   3.727   3.967
 7637SOL     OW23809   2.529   5.944   2.848
 7637SOL    HW123810   2.483   5.876   2.791
 7637SOL    HW223811   2.627   5.928   2.846
 7638SOL     OW23812   1.737   5.376   2.807
 7638SOL    HW123813   1.722   5.362   2.709
 7638SOL    HW223814   1.826   5.422   2.820
 7639SOL     OW23815   0.794   1.341   0.865
 7639SOL    HW123816   0.706   1.297   0.884
 7639SOL    HW223817   0.782   1.409   0.793
 7640SOL     OW23818   2.421   2.877   6.800
 7640SOL    HW123819   2.447   2.782   6.788
 7640SOL    HW223820   2.329   2.882   6.839
 7641SOL     OW23821   6.868   3.778   2.769
 7641SOL    HW123822   6.891   3.861   2.819
 7641SOL    HW223823   6.828   3.802   2.681
 7642SOL     OW23824   4.936   1.271   2.306
 7642SOL    HW123825   5.011   1.270   2.371
 7642SOL    HW223826   4.887   1.358   2.312
 7643SOL     OW23827   5.001   1.541   2.623
 7643SOL    HW123828   5.093   1.579   2.637
 7643SOL    HW223829   4.969   1.499   2.708
 7644SOL     OW23830   4.869   3.170   2.241
 7644SOL    HW123831   4.845   3.099   2.307
 7644SOL    HW223832   4.826   3.150   2.153
 7645SOL     OW23833   4.617   3.668   5.582
 7645SOL    HW123834   4.641   3.726   5.504
 7645SOL    HW223835   4.521   3.641   5.575
 7646SOL     OW23836   0.479   2.758   3.962
 7646SOL    HW123837   0.500   2.850   3.994
 7646SOL    HW223838   0.471   2.758   3.862
 7647SOL     OW23839   0.249   2.865   4.748
 7647SOL    HW123840   0.190   2.795   4.708
 7647SOL    HW223841   0.198   2.951   4.756
 7648SOL     OW23842   2.502   1.440   2.501
 7648SOL    HW123843   2.518   1.538   2.508
 7648SOL    HW223844   2.552   1.393   2.574
 7649SOL     OW23845   1.495   1.044   4.053
 7649SOL    HW123846   1.418   0.998   4.097
 7649SOL    HW223847   1.574   1.041   4.114
 7650SOL     OW23848   6.170   0.426   0.902
 7650SOL    HW123849   6.205   0.372   0.825
 7650SOL    HW223850   6.204   0.519   0.896
 7651SOL     OW23851   2.467   6.474   4.563
 7651SOL    HW123852   2.411   6.397   4.593
 7651SOL    HW223853   2.409   6.554   4.548
 7652SOL     OW23854   5.429   2.193   4.970
 7652SOL    HW123855   5.341   2.157   4.939
 7652SOL    HW223856   5.440   2.287   4.938
 7653SOL     OW23857   1.403   1.698   0.296
 7653SOL    HW123858   1.325   1.752   0.329
 7653SOL    HW223859   1.398   1.689   0.197
 7654SOL     OW23860   5.230   3.299   4.424
 7654SOL    HW123861   5.227   3.326   4.328
 7654SOL    HW223862   5.142   3.317   4.467
 7655SOL     OW23863   3.644   6.951   3.646
 7655SOL    HW123864   3.549   6.979   3.631
 7655SOL    HW223865   3.697   6.964   3.563
 7656SOL     OW23866   4.842   3.120   6.515
 7656SOL    HW123867   4.922   3.161   6.560
 7656SOL    HW223868   4.778   3.087   6.584
 7657SOL     OW23869   2.309   2.339   3.829
 7657SOL    HW123870   2.394   2.285   3.838
 7657SOL    HW223871   2.232   2.276   3.821
 7658SOL     OW23872   2.977   0.547   0.896
 7658SOL    HW123873   2.909   0.620   0.907
 7658SOL    HW223874   3.017   0.552   0.804
 7659SOL     OW23875   4.718   4.395   0.141
 7659SOL    HW123876   4.637   4.339   0.123
 7659SOL    HW223877   4.690   4.486   0.171
 7660SOL     OW23878   6.552   5.567   4.065
 7660SOL    HW123879   6.626   5.621   4.025
 7660SOL    HW223880   6.468   5.623   4.069
 7661SOL     OW23881   5.268   2.076   5.729
 7661SOL    HW123882   5.316   2.072   5.816
 7661SOL    HW223883   5.299   2.156   5.677
 7662SOL     OW23884   0.838   2.373   3.237
 7662SOL    HW123885   0.879   2.442   3.295
 7662SOL    HW223886   0.880   2.376   3.146
 7663SOL     OW23887   5.207   5.354   6.245
 7663SOL    HW123888   5.129   5.292   6.255
 7663SOL    HW223889   5.176   5.441   6.208
 7664SOL     OW23890   4.133   1.002   2.447
 7664SOL    HW123891   4.181   0.915   2.436
 7664SOL    HW223892   4.037   0.991   2.423
 7665SOL     OW23893   5.628   1.113   5.168
 7665SOL    HW123894   5.585   1.027   5.196
 7665SOL    HW223895   5.580   1.150   5.088
 7666SOL     OW23896   0.309   4.850   3.576
 7666SOL    HW123897   0.272   4.943   3.577
 7666SOL    HW223898   0.408   4.854   3.592
 7667SOL     OW23899   4.348   0.427   2.391
 7667SOL    HW123900   4.379   0.416   2.297
 7667SOL    HW223901   4.424   0.460   2.447
 7668SOL     OW23902   2.692   4.798   0.973
 7668SOL    HW123903   2.691   4.773   0.876
 7668SOL    HW223904   2.719   4.894   0.982
 7669SOL     OW23905   4.598   0.924   5.334
 7669SOL    HW123906   4.673   0.990   5.336
 7669SOL    HW223907   4.635   0.832   5.353
 7670SOL     OW23908   1.200   5.782   0.285
 7670SOL    HW123909   1.268   5.846   0.249
 7670SOL    HW223910   1.233   5.744   0.372
 7671SOL     OW23911   3.923   0.455   2.221
 7671SOL    HW123912   3.861   0.507   2.162
 7671SOL    HW223913   3.970   0.385   2.167
 7672SOL     OW23914   6.802   5.142   3.191
 7672SOL    HW123915   6.819   5.048   3.222
 7672SOL    HW223916   6.705   5.163   3.201
 7673SOL     OW23917   1.812   5.594   2.441
 7673SOL    HW123918   1.763   5.679   2.458
 7673SOL    HW223919   1.827   5.582   2.343
 7674SOL     OW23920   4.589   0.600   4.048
 7674SOL    HW123921   4.509   0.626   4.102
 7674SOL    HW223922   4.574   0.623   3.952
 7675SOL     OW23923   5.349   6.247   3.405
 7675SOL    HW123924   5.322   6.297   3.322
 7675SOL    HW223925   5.270   6.197   3.440
 7676SOL     OW23926   3.084   2.069   6.242
 7676SOL    HW123927   3.142   2.135   6.194
 7676SOL    HW223928   3.117   2.058   6.336
 7677SOL     OW23929   0.801   4.284   0.879
 7677SOL    HW123930   0.874   4.342   0.914
 7677SOL    HW223931   0.793   4.295   0.780
 7678SOL     OW23932   1.965   2.913   5.364
 7678SOL    HW123933   1.973   2.844   5.436
 7678SOL    HW223934   2.056   2.941   5.335
 7679SOL     OW23935   1.909   5.271   5.992
 7679SOL    HW123936   1.830   5.272   5.931
 7679SOL    HW223937   1.971   5.197   5.965
 7680SOL     OW23938   1.710   0.558   0.415
 7680SOL    HW123939   1.791   0.595   0.370
 7680SOL    HW223940   1.680   0.620   0.488
 7681SOL     OW23941   2.967   0.974   0.385
 7681SOL    HW123942   2.877   0.998   0.349
 7681SOL    HW223943   3.031   0.961   0.310
 7682SOL     OW23944   4.589   0.646   2.083
 7682SOL    HW123945   4.602   0.662   1.985
 7682SOL    HW223946   4.557   0.730   2.127
 7683SOL     OW23947   0.248   1.597   4.874
 7683SOL    HW123948   0.231   1.642   4.962
 7683SOL    HW223949   0.166   1.602   4.818
 7684SOL     OW23950   3.836   2.024   1.046
 7684SOL    HW123951   3.786   2.091   0.991
 7684SOL    HW223952   3.850   2.060   1.138
 7685SOL     OW23953   3.145   1.611   6.105
 7685SOL    HW123954   3.193   1.612   6.017
 7685SOL    HW223955   3.093   1.696   6.115
 7686SOL     OW23956   6.551   6.844   4.214
 7686SOL    HW123957   6.511   6.758   4.246
 7686SOL    HW223958   6.480   6.913   4.206
 7687SOL     OW23959   5.031   5.498   4.860
 7687SOL    HW123960   5.016   5.484   4.762
 7687SOL    HW223961   5.099   5.433   4.893
 7688SOL     OW23962   0.318   5.899   6.240
 7688SOL    HW123963   0.229   5.910   6.196
 7688SOL    HW223964   0.306   5.877   6.336
 7689SOL     OW23965   5.322   6.306   3.130
 7689SOL    HW123966   5.403   6.253   3.104
 7689SOL    HW223967   5.339   6.403   3.111
 7690SOL     OW23968   5.078   5.524   0.660
 7690SOL    HW123969   5.038   5.595   0.718
 7690SOL    HW223970   5.105   5.446   0.716
 7691SOL     OW23971   5.433   4.197   2.169
 7691SOL    HW123972   5.349   4.181   2.116
 7691SOL    HW223973   5.462   4.292   2.158
 7692SOL     OW23974   0.577   6.031   1.680
 7692SOL    HW123975   0.509   6.028   1.752
 7692SOL    HW223976   0.665   5.998   1.715
 7693SOL     OW23977   3.028   0.353   1.341
 7693SOL    HW123978   2.988   0.420   1.278
 7693SOL    HW223979   3.078   0.284   1.289
 7694SOL     OW23980   5.625   2.915   3.974
 7694SOL    HW123981   5.614   2.819   3.948
 7694SOL    HW223982   5.714   2.947   3.942
 7695SOL     OW23983   5.983   0.774   1.164
 7695SOL    HW123984   6.035   0.781   1.079
 7695SOL    HW223985   5.905   0.713   1.150
 7696SOL     OW23986   6.418   1.722   6.463
 7696SOL    HW123987   6.376   1.670   6.389
 7696SOL    HW223988   6.429   1.663   6.543
 7697SOL     OW23989   3.026   0.824   2.668
 7697SOL    HW123990   3.122   0.794   2.666
 7697SOL    HW223991   3.003   0.865   2.579
 7698SOL     OW23992   6.573   1.262   5.259
 7698SOL    HW123993   6.601   1.192   5.194
 7698SOL    HW223994   6.564   1.350   5.212
 7699SOL     OW23995   2.343   5.301   6.575
 7699SOL    HW123996   2.294   5.374   6.623
 7699SOL    HW223997   2.301   5.287   6.485
 7700SOL     OW23998   4.038   5.843   3.170
 7700SOL    HW123999   4.023   5.744   3.172
 7700SOL    HW224000   4.136   5.862   3.178
 7701SOL     OW24001   0.299   2.563   6.787
 7701SOL    HW124002   0.225   2.604   6.841
 7701SOL    HW224003   0.265   2.481   6.742
 7702SOL     OW24004   4.522   5.784   5.124
 7702SOL    HW124005   4.573   5.701   5.146
 7702SOL    HW224006   4.522   5.797   5.025
 7703SOL     OW24007   6.471   6.464   5.730
 7703SOL    HW124008   6.547   6.401   5.749
 7703SOL    HW224009   6.490   6.552   5.773
 7704SOL     OW24010   6.012   1.642   3.516
 7704SOL    HW124011   5.925   1.603   3.546
 7704SOL    HW224012   6.019   1.635   3.416
 7705SOL     OW24013   2.555   5.481   1.496
 7705SOL    HW124014   2.582   5.495   1.400
 7705SOL    HW224015   2.464   5.439   1.499
 7706SOL     OW24016   4.149   3.289   4.231
 7706SOL    HW124017   4.074   3.330   4.283
 7706SOL    HW224018   4.192   3.358   4.174
 7707SOL     OW24019   0.409   4.442   6.621
 7707SOL    HW124020   0.499   4.467   6.585
 7707SOL    HW224021   0.382   4.353   6.587
 7708SOL     OW24022   1.608   6.332   4.432
 7708SOL    HW124023   1.670   6.303   4.359
 7708SOL    HW224024   1.576   6.252   4.482
 7709SOL     OW24025   6.915   5.019   1.911
 7709SOL    HW124026   6.887   4.923   1.921
 7709SOL    HW224027   6.858   5.063   1.842
 7710SOL     OW24028   1.411   2.261   0.708
 7710SOL    HW124029   1.328   2.296   0.752
 7710SOL    HW224030   1.461   2.203   0.772
 7711SOL     OW24031   5.437   5.911   5.633
 7711SOL    HW124032   5.351   5.962   5.637
 7711SOL    HW224033   5.429   5.836   5.567
 7712SOL     OW24034   5.965   4.549   0.664
 7712SOL    HW124035   5.898   4.594   0.604
 7712SOL    HW224036   6.056   4.585   0.644
 7713SOL     OW24037   1.810   3.242   0.646
 7713SOL    HW124038   1.855   3.330   0.654
 7713SOL    HW224039   1.872   3.170   0.677
 7714SOL     OW24040   0.222   5.916   5.064
 7714SOL    HW124041   0.304   5.872   5.100
 7714SOL    HW224042   0.186   5.980   5.132
 7715SOL     OW24043   2.526   2.478   6.423
 7715SOL    HW124044   2.438   2.520   6.402
 7715SOL    HW224045   2.589   2.492   6.347
 7716SOL     OW24046   6.422   5.189   0.547
 7716SOL    HW124047   6.394   5.114   0.607
 7716SOL    HW224048   6.522   5.189   0.538
 7717SOL     OW24049   1.246   1.941   5.250
 7717SOL    HW124050   1.315   1.981   5.310
 7717SOL    HW224051   1.163   1.995   5.254
 7718SOL     OW24052   6.714   4.147   3.232
 7718SOL    HW124053   6.676   4.055   3.217
 7718SOL    HW224054   6.760   4.150   3.321
 7719SOL     OW24055   1.021   4.237   4.886
 7719SOL    HW124056   1.062   4.155   4.925
 7719SOL    HW224057   0.933   4.214   4.844
 7720SOL     OW24058   6.270   2.023   6.151
 7720SOL    HW124059   6.322   1.938   6.163
 7720SOL    HW224060   6.218   2.018   6.066
 7721SOL     OW24061   0.269   6.424   2.301
 7721SOL    HW124062   0.170   6.415   2.294
 7721SOL    HW224063   0.311   6.409   2.211
 7722SOL     OW24064   1.818   4.768   3.877
 7722SOL    HW124065   1.765   4.842   3.918
 7722SOL    HW224066   1.798   4.682   3.924
 7723SOL     OW24067   4.030   3.659   6.687
 7723SOL    HW124068   4.043   3.648   6.785
 7723SOL    HW224069   3.999   3.572   6.648
 7724SOL     OW24070   3.207   4.391   0.091
 7724SOL    HW124071   3.215   4.295   0.117
 7724SOL    HW224072   3.217   4.399   7.009
 7725SOL     OW24073   6.211   1.668   2.712
 7725SOL    HW124074   6.251   1.624   2.631
 7725SOL    HW224075   6.136   1.728   2.683
 7726SOL     OW24076   1.499   3.897   6.317
 7726SOL    HW124077   1.585   3.922   6.360
 7726SOL    HW224078   1.446   3.840   6.380
 7727SOL     OW24079   5.955   3.015   2.052
 7727SOL    HW124080   5.866   2.972   2.069
 7727SOL    HW224081   6.028   2.947   2.067
 7728SOL     OW24082   2.246   2.891   4.760
 7728SOL    HW124083   2.263   2.905   4.662
 7728SOL    HW224084   2.329   2.910   4.811
 7729SOL     OW24085   5.622   1.357   2.111
 7729SOL    HW124086   5.705   1.358   2.167
 7729SOL    HW224087   5.552   1.412   2.156
 7730SOL     OW24088   0.089   4.377   6.674
 7730SOL    HW124089   0.021   4.310   6.706
 7730SOL    HW224090   0.100   4.449   6.743
 7731SOL     OW24091   6.835   0.119   0.225
 7731SOL    HW124092   6.749   0.138   0.178
 7731SOL    HW224093   6.899   0.077   0.161
 7732SOL     OW24094   3.941   0.560   0.740
 7732SOL    HW124095   3.861   0.512   0.776
 7732SOL    HW224096   3.938   0.557   0.640
 7733SOL     OW24097   6.092   5.432   2.080
 7733SOL    HW124098   6.186   5.465   2.069
 7733SOL    HW224099   6.088   5.334   2.057
 7734SOL     OW24100   1.968   4.783   4.741
 7734SOL    HW124101   1.943   4.735   4.657
 7734SOL    HW224102   1.923   4.741   4.819
 7735SOL     OW24103   5.933   5.685   6.806
 7735SOL    HW124104   5.932   5.587   6.788
 7735SOL    HW224105   5.884   5.733   6.733
 7736SOL     OW24106   2.123   3.353   0.424
 7736SOL    HW124107   2.130   3.319   0.518
 7736SOL    HW224108   2.180   3.297   0.364
 7737SOL     OW24109   3.828   6.367   1.794
 7737SOL    HW124110   3.769   6.295   1.831
 7737SOL    HW224111   3.879   6.331   1.716
 7738SOL     OW24112   2.646   5.329   0.421
 7738SOL    HW124113   2.598   5.326   0.509
 7738SOL    HW224114   2.663   5.236   0.389
 7739SOL     OW24115   1.844   2.013   1.576
 7739SOL    HW124116   1.815   2.103   1.609
 7739SOL    HW224117   1.782   1.984   1.503
 7740SOL     OW24118   1.596   0.856   2.534
 7740SOL    HW124119   1.650   0.797   2.595
 7740SOL    HW224120   1.648   0.872   2.450
 7741SOL     OW24121   0.452   3.447   5.161
 7741SOL    HW124122   0.519   3.395   5.108
 7741SOL    HW224123   0.491   3.470   5.250
 7742SOL     OW24124   4.657   1.760   3.624
 7742SOL    HW124125   4.618   1.671   3.650
 7742SOL    HW224126   4.711   1.750   3.541
 7743SOL     OW24127   4.853   1.268   6.913
 7743SOL    HW124128   4.895   1.240   6.999
 7743SOL    HW224129   4.896   1.218   6.837
 7744SOL     OW24130   1.096   5.856   3.258
 7744SOL    HW124131   1.016   5.795   3.257
 7744SOL    HW224132   1.174   5.809   3.219
 7745SOL     OW24133   2.606   0.036   0.465
 7745SOL    HW124134   2.657   0.044   0.551
 7745SOL    HW224135   2.671   0.035   0.388
 7746SOL     OW24136   1.406   6.861   0.768
 7746SOL    HW124137   1.325   6.875   0.712
 7746SOL    HW224138   1.476   6.813   0.715
 7747SOL     OW24139   6.786   5.957   1.477
 7747SOL    HW124140   6.830   5.978   1.565
 7747SOL    HW224141   6.840   5.889   1.428
 7748SOL     OW24142   3.527   4.044   3.884
 7748SOL    HW124143   3.627   4.043   3.887
 7748SOL    HW224144   3.495   3.983   3.812
 7749SOL     OW24145   3.830   4.031   3.642
 7749SOL    HW124146   3.772   4.072   3.571
 7749SOL    HW224147   3.926   4.044   3.617
 7750SOL     OW24148   6.278   6.164   6.324
 7750SOL    HW124149   6.360   6.213   6.354
 7750SOL    HW224150   6.304   6.089   6.263
 7751SOL     OW24151   0.699   2.359   2.530
 7751SOL    HW124152   0.661   2.446   2.499
 7751SOL    HW224153   0.789   2.374   2.569
 7752SOL     OW24154   5.342   6.164   5.377
 7752SOL    HW124155   5.436   6.136   5.397
 7752SOL    HW224156   5.330   6.174   5.279
 7753SOL     OW24157   2.587   1.014   4.066
 7753SOL    HW124158   2.554   1.105   4.042
 7753SOL    HW224159   2.514   0.948   4.055
 7754SOL     OW24160   5.388   7.002   1.552
 7754SOL    HW124161   5.407   0.083   1.551
 7754SOL    HW224162   5.406   6.963   1.461
 7755SOL     OW24163   1.444   1.968   5.735
 7755SOL    HW124164   1.361   2.006   5.775
 7755SOL    HW224165   1.476   1.891   5.791
 7756SOL     OW24166   3.378   5.320   2.551
 7756SOL    HW124167   3.360   5.390   2.481
 7756SOL    HW224168   3.297   5.263   2.562
 7757SOL     OW24169   5.245   6.206   4.055
 7757SOL    HW124170   5.180   6.282   4.047
 7757SOL    HW224171   5.240   6.168   4.147
 7758SOL     OW24172   1.909   1.967   6.761
 7758SOL    HW124173   1.909   1.881   6.710
 7758SOL    HW224174   1.959   2.036   6.708
 7759SOL     OW24175   1.418   1.658   4.737
 7759SOL    HW124176   1.391   1.572   4.695
 7759SOL    HW224177   1.499   1.643   4.794
 7760SOL     OW24178   6.022   3.023   2.435
 7760SOL    HW124179   6.028   2.930   2.470
 7760SOL    HW224180   5.940   3.033   2.379
 7761SOL     OW24181   1.431   0.187   6.135
 7761SOL    HW124182   1.361   0.199   6.205
 7761SOL    HW224183   1.397   0.219   6.047
 7762SOL     OW24184   4.206   0.787   4.285
 7762SOL    HW124185   4.197   0.879   4.324
 7762SOL    HW224186   4.140   0.775   4.212
 7763SOL     OW24187   1.397   1.319   1.403
 7763SOL    HW124188   1.360   1.335   1.495
 7763SOL    HW224189   1.497   1.322   1.407
 7764SOL     OW24190   3.645   2.890   2.686
 7764SOL    HW124191   3.624   2.843   2.772
 7764SOL    HW224192   3.659   2.987   2.703
 7765SOL     OW24193   5.880   3.109   4.189
 7765SOL    HW124194   5.865   3.036   4.123
 7765SOL    HW224195   5.930   3.073   4.268
 7766SOL     OW24196   5.046   1.971   0.558
 7766SOL    HW124197   5.066   2.068   0.545
 7766SOL    HW224198   5.131   1.921   0.568
 7767SOL     OW24199   4.003   6.516   3.573
 7767SOL    HW124200   3.912   6.500   3.535
 7767SOL    HW224201   4.047   6.427   3.590
 7768SOL     OW24202   4.129   5.179   2.259
 7768SOL    HW124203   4.075   5.097   2.242
 7768SOL    HW224204   4.186   5.166   2.340
 7769SOL     OW24205   4.870   2.171   1.857
 7769SOL    HW124206   4.869   2.215   1.767
 7769SOL    HW224207   4.779   2.133   1.876
 7770SOL     OW24208   1.184   3.842   2.713
 7770SOL    HW124209   1.219   3.843   2.619
 7770SOL    HW224210   1.261   3.848   2.777
 7771SOL     OW24211   2.456   2.688   5.101
 7771SOL    HW124212   2.536   2.693   5.161
 7771SOL    HW224213   2.415   2.779   5.093
 7772SOL     OW24214   4.925   1.141   3.751
 7772SOL    HW124215   4.845   1.198   3.730
 7772SOL    HW224216   4.940   1.076   3.677
 7773SOL     OW24217   3.176   5.444   5.683
 7773SOL    HW124218   3.176   5.350   5.718
 7773SOL    HW224219   3.158   5.442   5.584
 7774SOL     OW24220   6.436   2.518   6.366
 7774SOL    HW124221   6.453   2.424   6.340
 7774SOL    HW224222   6.523   2.565   6.379
 7775SOL     OW24223   3.862   6.560   2.889
 7775SOL    HW124224   3.847   6.530   2.794
 7775SOL    HW224225   3.898   6.483   2.942
 7776SOL     OW24226   3.232   3.963   6.591
 7776SOL    HW124227   3.146   4.000   6.556
 7776SOL    HW224228   3.266   3.892   6.530
 7777SOL     OW24229   2.180   1.139   5.207
 7777SOL    HW124230   2.082   1.127   5.221
 7777SOL    HW224231   2.201   1.236   5.192
 7778SOL     OW24232   4.613   6.202   0.023
 7778SOL    HW124233   4.594   6.131   6.972
 7778SOL    HW224234   4.565   6.180   0.108
 7779SOL     OW24235   3.089   2.966   0.612
 7779SOL    HW124236   3.039   3.047   0.581
 7779SOL    HW224237   3.113   2.910   0.534
 7780SOL     OW24238   1.672   5.137   4.889
 7780SOL    HW124239   1.705   5.051   4.848
 7780SOL    HW224240   1.725   5.213   4.853
 7781SOL     OW24241   1.775   4.825   6.756
 7781SOL    HW124242   1.863   4.781   6.772
 7781SOL    HW224243   1.759   4.834   6.658
 7782SOL     OW24244   1.254   4.177   5.735
 7782SOL    HW124245   1.346   4.213   5.753
 7782SOL    HW224246   1.214   4.225   5.657
 7783SOL     OW24247   1.697   5.617   5.559
 7783SOL    HW124248   1.668   5.685   5.627
 7783SOL    HW224249   1.683   5.653   5.467
 7784SOL     OW24250   2.603   2.800   0.153
 7784SOL    HW124251   2.553   2.725   0.195
 7784SOL    HW224252   2.699   2.773   0.139
 7785SOL     OW24253   1.635   6.478   4.217
 7785SOL    HW124254   1.690   6.414   4.163
 7785SOL    HW224255   1.633   6.447   4.313
 7786SOL     OW24256   3.150   5.935   6.687
 7786SOL    HW124257   3.110   5.886   6.610
 7786SOL    HW224258   3.097   6.018   6.705
 7787SOL     OW24259   2.418   3.135   5.883
 7787SOL    HW124260   2.384   3.138   5.789
 7787SOL    HW224261   2.364   3.071   5.936
 7788SOL     OW24262   1.584   6.735   1.439
 7788SOL    HW124263   1.552   6.682   1.518
 7788SOL    HW224264   1.573   6.681   1.356
 7789SOL     OW24265   3.127   0.054   0.366
 7789SOL    HW124266   3.183   6.993   0.393
 7789SOL    HW224267   3.156   0.135   0.416
 7790SOL     OW24268   5.868   4.856   2.246
 7790SOL    HW124269   5.792   4.849   2.311
 7790SOL    HW224270   5.919   4.940   2.263
 7791SOL     OW24271   2.818   6.622   3.885
 7791SOL    HW124272   2.907   6.614   3.930
 7791SOL    HW224273   2.799   6.718   3.865
 7792SOL     OW24274   1.643   5.281   5.868
 7792SOL    HW124275   1.638   5.198   5.814
 7792SOL    HW224276   1.603   5.357   5.817
 7793SOL     OW24277   2.294   0.725   6.327
 7793SOL    HW124278   2.229   0.674   6.382
 7793SOL    HW224279   2.387   0.709   6.361
 7794SOL     OW24280   5.130   5.235   3.709
 7794SOL    HW124281   5.127   5.325   3.666
 7794SOL    HW224282   5.178   5.171   3.650
 7795SOL     OW24283   1.980   3.426   5.334
 7795SOL    HW124284   1.945   3.332   5.326
 7795SOL    HW224285   2.078   3.426   5.315
 7796SOL     OW24286   3.216   3.798   3.539
 7796SOL    HW124287   3.176   3.765   3.453
 7796SOL    HW224288   3.144   3.839   3.595
 7797SOL     OW24289   0.909   6.360   3.107
 7797SOL    HW124290   0.887   6.409   3.191
 7797SOL    HW224291   0.868   6.407   3.028
 7798SOL     OW24292   1.427   4.940   5.999
 7798SOL    HW124293   1.414   5.032   5.962
 7798SOL    HW224294   1.341   4.906   6.036
 7799SOL     OW24295   6.979   6.632   1.301
 7799SOL    HW124296   6.881   6.632   1.323
 7799SOL    HW224297   0.015   6.623   1.385
 7800SOL     OW24298   1.765   5.512   0.255
 7800SOL    HW124299   1.803   5.428   0.295
 7800SOL    HW224300   1.825   5.589   0.277
 7801SOL     OW24301   2.174   2.386   1.596
 7801SOL    HW124302   2.200   2.416   1.688
 7801SOL    HW224303   2.221   2.300   1.574
 7802SOL     OW24304   5.498   2.110   1.575
 7802SOL    HW124305   5.569   2.054   1.618
 7802SOL    HW224306   5.450   2.162   1.646
 7803SOL     OW24307   4.397   2.741   6.226
 7803SOL    HW124308   4.400   2.835   6.260
 7803SOL    HW224309   4.373   2.741   6.129
 7804SOL     OW24310   5.717   1.280   4.402
 7804SOL    HW124311   5.718   1.236   4.492
 7804SOL    HW224312   5.729   1.379   4.414
 7805SOL     OW24313   5.323   1.550   1.002
 7805SOL    HW124314   5.391   1.621   1.019
 7805SOL    HW224315   5.304   1.500   1.087
 7806SOL     OW24316   5.728   2.190   6.216
 7806SOL    HW124317   5.677   2.270   6.186
 7806SOL    HW224318   5.683   2.150   6.297
 7807SOL     OW24319   6.945   4.259   5.730
 7807SOL    HW124320   0.015   4.229   5.769
 7807SOL    HW224321   6.869   4.218   5.780
 7808SOL     OW24322   6.975   3.027   4.602
 7808SOL    HW124323   6.876   3.017   4.609
 7808SOL    HW224324   7.003   3.111   4.648
 7809SOL     OW24325   2.517   5.547   4.680
 7809SOL    HW124326   2.569   5.613   4.626
 7809SOL    HW224327   2.442   5.594   4.728
 7810SOL     OW24328   3.724   0.188   4.962
 7810SOL    HW124329   3.728   0.272   4.908
 7810SOL    HW224330   3.771   0.203   5.049
 7811SOL     OW24331   0.621   5.096   3.414
 7811SOL    HW124332   0.658   5.038   3.341
 7811SOL    HW224333   0.539   5.143   3.380
 7812SOL     OW24334   1.375   1.776   3.456
 7812SOL    HW124335   1.289   1.814   3.488
 7812SOL    HW224336   1.444   1.782   3.528
 7813SOL     OW24337   3.719   2.411   6.695
 7813SOL    HW124338   3.763   2.393   6.607
 7813SOL    HW224339   3.671   2.499   6.692
 7814SOL     OW24340   6.412   3.356   3.936
 7814SOL    HW124341   6.458   3.399   3.858
 7814SOL    HW224342   6.421   3.416   4.016
 7815SOL     OW24343   4.649   0.330   6.526
 7815SOL    HW124344   4.591   0.357   6.449
 7815SOL    HW224345   4.646   0.401   6.597
 7816SOL     OW24346   1.091   2.854   6.772
 7816SOL    HW124347   1.109   2.935   6.716
 7816SOL    HW224348   1.072   2.882   6.866
 7817SOL     OW24349   5.241   4.411   3.370
 7817SOL    HW124350   5.281   4.422   3.461
 7817SOL    HW224351   5.290   4.468   3.305
 7818SOL     OW24352   4.044   1.138   3.067
 7818SOL    HW124353   4.131   1.102   3.033
 7818SOL    HW224354   4.037   1.122   3.166
 7819SOL     OW24355   6.456   3.114   2.037
 7819SOL    HW124356   6.470   3.213   2.043
 7819SOL    HW224357   6.395   3.094   1.960
 7820SOL     OW24358   1.004   2.344   4.618
 7820SOL    HW124359   0.919   2.359   4.669
 7820SOL    HW224360   1.014   2.414   4.548
 7821SOL     OW24361   5.083   6.144   0.987
 7821SOL    HW124362   5.055   6.240   0.985
 7821SOL    HW224363   5.170   6.135   1.038
 7822SOL     OW24364   0.791   0.806   5.426
 7822SOL    HW124365   0.870   0.816   5.366
 7822SOL    HW224366   0.773   0.893   5.472
 7823SOL     OW24367   2.710   3.846   5.301
 7823SOL    HW124368   2.707   3.884   5.393
 7823SOL    HW224369   2.630   3.876   5.250
 7824SOL     OW24370   5.757   1.785   4.348
 7824SOL    HW124371   5.674   1.829   4.314
 7824SOL    HW224372   5.789   1.833   4.430
 7825SOL     OW24373   1.271   2.786   0.786
 7825SOL    HW124374   1.338   2.715   0.808
 7825SOL    HW224375   1.315   2.857   0.730
 7826SOL     OW24376   6.204   1.186   1.073
 7826SOL    HW124377   6.105   1.191   1.057
 7826SOL    HW224378   6.253   1.213   0.991
 7827SOL     OW24379   1.959   5.914   1.012
 7827SOL    HW124380   1.947   5.848   0.938
 7827SOL    HW224381   1.895   5.894   1.086
 7828SOL     OW24382   6.376   4.595   0.366
 7828SOL    HW124383   6.445   4.573   0.435
 7828SOL    HW224384   6.420   4.636   0.286
 7829SOL     OW24385   2.472   3.496   1.586
 7829SOL    HW124386   2.417   3.493   1.669
 7829SOL    HW224387   2.443   3.573   1.529
 7830SOL     OW24388   2.663   4.864   5.486
 7830SOL    HW124389   2.755   4.888   5.517
 7830SOL    HW224390   2.669   4.801   5.408
 7831SOL     OW24391   1.396   6.953   1.450
 7831SOL    HW124392   1.313   6.904   1.479
 7831SOL    HW224393   1.469   6.887   1.434
 7832SOL     OW24394   6.333   0.665   4.555
 7832SOL    HW124395   6.401   0.592   4.549
 7832SOL    HW224396   6.357   0.726   4.630
 7833SOL     OW24397   0.663   0.725   5.172
 7833SOL    HW124398   0.700   0.762   5.258
 7833SOL    HW224399   0.563   0.726   5.176
 7834SOL     OW24400   6.710   1.519   3.607
 7834SOL    HW124401   6.659   1.542   3.690
 7834SOL    HW224402   6.725   1.420   3.603
 7835SOL     OW24403   3.883   1.993   5.445
 7835SOL    HW124404   3.901   1.912   5.389
 7835SOL    HW224405   3.852   2.068   5.387
 7836SOL     OW24406   3.207   3.696   4.768
 7836SOL    HW124407   3.243   3.742   4.687
 7836SOL    HW224408   3.234   3.600   4.766
 7837SOL     OW24409   4.534   5.528   6.958
 7837SOL    HW124410   4.520   5.442   7.007
 7837SOL    HW224411   4.497   5.521   6.866
 7838SOL     OW24412   4.209   6.964   0.811
 7838SOL    HW124413   4.192   6.870   0.842
 7838SOL    HW224414   4.276   6.962   0.737
 7839SOL     OW24415   5.807   4.309   4.670
 7839SOL    HW124416   5.824   4.236   4.603
 7839SOL    HW224417   5.849   4.394   4.639
 7840SOL     OW24418   6.739   3.669   4.230
 7840SOL    HW124419   6.692   3.746   4.186
 7840SOL    HW224420   6.835   3.670   4.204
 7841SOL     OW24421   3.870   1.769   6.062
 7841SOL    HW124422   3.827   1.678   6.065
 7841SOL    HW224423   3.862   1.813   6.152
 7842SOL     OW24424   2.371   1.588   2.749
 7842SOL    HW124425   2.443   1.580   2.818
 7842SOL    HW224426   2.411   1.618   2.663
 7843SOL     OW24427   0.577   5.775   3.278
 7843SOL    HW124428   0.504   5.798   3.214
 7843SOL    HW224429   0.538   5.735   3.361
 7844SOL     OW24430   2.850   0.704   2.385
 7844SOL    HW124431   2.809   0.773   2.325
 7844SOL    HW224432   2.799   0.618   2.375
 7845SOL     OW24433   5.127   1.829   2.523
 7845SOL    HW124434   5.036   1.867   2.543
 7845SOL    HW224435   5.191   1.904   2.507
 7846SOL     OW24436   0.496   2.537   1.047
 7846SOL    HW124437   0.493   2.622   0.994
 7846SOL    HW224438   0.439   2.547   1.129
 7847SOL     OW24439   6.652   1.482   3.323
 7847SOL    HW124440   6.684   1.523   3.408
 7847SOL    HW224441   6.688   1.534   3.245
 7848SOL     OW24442   3.419   4.959   0.565
 7848SOL    HW124443   3.361   4.926   0.491
 7848SOL    HW224444   3.510   4.981   0.529
 7849SOL     OW24445   6.548   4.099   4.799
 7849SOL    HW124446   6.542   4.080   4.701
 7849SOL    HW224447   6.479   4.166   4.824
 7850SOL     OW24448   0.534   1.548   3.624
 7850SOL    HW124449   0.529   1.633   3.570
 7850SOL    HW224450   0.626   1.539   3.663
 7851SOL     OW24451   6.958   1.831   1.586
 7851SOL    HW124452   7.013   1.846   1.504
 7851SOL    HW224453   6.954   1.733   1.605
 7852SOL     OW24454   3.344   1.902   0.152
 7852SOL    HW124455   3.368   1.832   0.084
 7852SOL    HW224456   3.251   1.936   0.134
 7853SOL     OW24457   5.137   2.886   1.306
 7853SOL    HW124458   5.083   2.958   1.262
 7853SOL    HW224459   5.081   2.841   1.376
 7854SOL     OW24460   3.147   3.078   5.987
 7854SOL    HW124461   3.143   3.165   5.936
 7854SOL    HW224462   3.232   3.031   5.966
 7855SOL     OW24463   4.210   6.481   4.840
 7855SOL    HW124464   4.116   6.499   4.868
 7855SOL    HW224465   4.231   6.384   4.855
 7856SOL     OW24466   6.798   5.775   5.360
 7856SOL    HW124467   6.721   5.747   5.304
 7856SOL    HW224468   6.846   5.694   5.394
 7857SOL     OW24469   4.553   2.744   0.465
 7857SOL    HW124470   4.620   2.670   0.458
 7857SOL    HW224471   4.463   2.704   0.484
 7858SOL     OW24472   6.809   6.377   4.501
 7858SOL    HW124473   6.791   6.300   4.563
 7858SOL    HW224474   6.757   6.364   4.417
 7859SOL     OW24475   4.616   3.331   6.476
 7859SOL    HW124476   4.639   3.403   6.542
 7859SOL    HW224477   4.682   3.257   6.483
 7860SOL     OW24478   4.597   1.057   4.075
 7860SOL    HW124479   4.539   0.975   4.065
 7860SOL    HW224480   4.693   1.029   4.079
 7861SOL     OW24481   3.356   4.836   1.529
 7861SOL    HW124482   3.352   4.902   1.604
 7861SOL    HW224483   3.350   4.743   1.567
 7862SOL     OW24484   2.152   5.063   2.286
 7862SOL    HW124485   2.191   5.149   2.252
 7862SOL    HW224486   2.207   4.986   2.254
 7863SOL     OW24487   0.223   3.932   4.053
 7863SOL    HW124488   0.124   3.915   4.049
 7863SOL    HW224489   0.270   3.847   4.076
 7864SOL     OW24490   0.630   5.066   5.230
 7864SOL    HW124491   0.695   5.025   5.294
 7864SOL    HW224492   0.560   5.117   5.280
 7865SOL     OW24493   6.445   5.870   3.937
 7865SOL    HW124494   6.418   5.813   4.014
 7865SOL    HW224495   6.448   5.966   3.966
 7866SOL     OW24496   1.088   0.506   5.526
 7866SOL    HW124497   0.992   0.496   5.501
 7866SOL    HW224498   1.105   0.598   5.559
 7867SOL     OW24499   6.248   6.186   3.432
 7867SOL    HW124500   6.314   6.215   3.501
 7867SOL    HW224501   6.170   6.142   3.477
 7868SOL     OW24502   4.482   5.751   1.180
 7868SOL    HW124503   4.525   5.826   1.131
 7868SOL    HW224504   4.525   5.741   1.270
 7869SOL     OW24505   5.219   4.490   6.333
 7869SOL    HW124506   5.251   4.536   6.416
 7869SOL    HW224507   5.120   4.474   6.340
 7870SOL     OW24508   5.442   6.271   4.475
 7870SOL    HW124509   5.356   6.270   4.526
 7870SOL    HW224510   5.438   6.343   4.406
 7871SOL     OW24511   4.729   2.443   1.666
 7871SOL    HW124512   4.754   2.362   1.613
 7871SOL    HW224513   4.811   2.492   1.694
 7872SOL     OW24514   2.014   4.035   2.933
 7872SOL    HW124515   1.968   4.058   3.018
 7872SOL    HW224516   2.095   4.093   2.922
 7873SOL     OW24517   5.989   6.774   0.134
 7873SOL    HW124518   5.955   6.859   0.094
 7873SOL    HW224519   5.953   6.763   0.226
 7874SOL     OW24520   5.009   2.450   0.847
 7874SOL    HW124521   4.930   2.396   0.817
 7874SOL    HW224522   4.977   2.528   0.901
 7875SOL     OW24523   4.144   2.359   6.927
 7875SOL    HW124524   4.111   2.452   6.938
 7875SOL    HW224525   4.066   2.296   6.920
 7876SOL     OW24526   1.279   6.131   3.311
 7876SOL    HW124527   1.295   6.230   3.313
 7876SOL    HW224528   1.183   6.113   3.291
 7877SOL     OW24529   0.603   1.746   2.722
 7877SOL    HW124530   0.696   1.711   2.725
 7877SOL    HW224531   0.541   1.679   2.763
 7878SOL     OW24532   4.748   4.530   4.267
 7878SOL    HW124533   4.687   4.568   4.197
 7878SOL    HW224534   4.694   4.509   4.349
 7879SOL     OW24535   3.849   5.339   2.913
 7879SOL    HW124536   3.774   5.278   2.885
 7879SOL    HW224537   3.933   5.286   2.925
 7880SOL     OW24538   1.913   4.145   1.892
 7880SOL    HW124539   1.951   4.053   1.894
 7880SOL    HW224540   1.847   4.152   1.817
 7881SOL     OW24541   5.656   4.591   5.015
 7881SOL    HW124542   5.602   4.524   5.067
 7881SOL    HW224543   5.611   4.680   5.019
 7882SOL     OW24544   1.679   3.876   1.883
 7882SOL    HW124545   1.736   3.958   1.876
 7882SOL    HW224546   1.602   3.895   1.943
 7883SOL     OW24547   1.168   0.598   6.530
 7883SOL    HW124548   1.217   0.599   6.443
 7883SOL    HW224549   1.114   0.681   6.539
 7884SOL     OW24550   1.648   4.066   5.070
 7884SOL    HW124551   1.738   4.033   5.098
 7884SOL    HW224552   1.660   4.138   5.000
 7885SOL     OW24553   6.655   5.655   0.905
 7885SOL    HW124554   6.663   5.556   0.889
 7885SOL    HW224555   6.620   5.699   0.823
 7886SOL     OW24556   3.947   6.001   6.587
 7886SOL    HW124557   4.032   6.006   6.535
 7886SOL    HW224558   3.880   5.946   6.536
 7887SOL     OW24559   3.323   2.526   6.181
 7887SOL    HW124560   3.332   2.553   6.084
 7887SOL    HW224561   3.271   2.596   6.230
 7888SOL     OW24562   6.097   0.260   5.512
 7888SOL    HW124563   6.020   0.250   5.574
 7888SOL    HW224564   6.181   0.227   5.557
 7889SOL     OW24565   1.891   4.492   2.524
 7889SOL    HW124566   1.922   4.399   2.507
 7889SOL    HW224567   1.896   4.512   2.622
 7890SOL     OW24568   2.000   3.435   2.870
 7890SOL    HW124569   1.902   3.420   2.858
 7890SOL    HW224570   2.025   3.416   2.965
 7891SOL     OW24571   1.484   3.561   3.053
 7891SOL    HW124572   1.546   3.579   2.977
 7891SOL    HW224573   1.515   3.610   3.135
 7892SOL     OW24574   1.796   2.510   4.188
 7892SOL    HW124575   1.859   2.587   4.189
 7892SOL    HW224576   1.773   2.484   4.282
 7893SOL     OW24577   6.629   6.821   3.024
 7893SOL    HW124578   6.660   6.810   2.929
 7893SOL    HW224579   6.699   6.869   3.076
 7894SOL     OW24580   2.637   6.666   1.646
 7894SOL    HW124581   2.722   6.662   1.593
 7894SOL    HW224582   2.564   6.702   1.588
 7895SOL     OW24583   6.780   1.550   5.895
 7895SOL    HW124584   6.859   1.527   5.952
 7895SOL    HW224585   6.812   1.584   5.807
 7896SOL     OW24586   4.956   3.670   6.825
 7896SOL    HW124587   4.877   3.720   6.859
 7896SOL    HW224588   5.012   3.639   6.902
 7897SOL     OW24589   2.354   4.115   6.491
 7897SOL    HW124590   2.410   4.032   6.487
 7897SOL    HW224591   2.412   4.195   6.485
 7898SOL     OW24592   5.380   1.919   3.909
 7898SOL    HW124593   5.340   2.007   3.883
 7898SOL    HW224594   5.478   1.931   3.926
 7899SOL     OW24595   5.863   1.495   1.788
 7899SOL    HW124596   5.772   1.519   1.822
 7899SOL    HW224597   5.887   1.403   1.818
 7900SOL     OW24598   1.413   5.860   1.493
 7900SOL    HW124599   1.354   5.928   1.538
 7900SOL    HW224600   1.360   5.776   1.478
 7901SOL     OW24601   4.593   0.701   6.425
 7901SOL    HW124602   4.645   0.705   6.339
 7901SOL    HW224603   4.655   0.673   6.499
 7902SOL     OW24604   5.453   5.526   1.603
 7902SOL    HW124605   5.473   5.482   1.515
 7902SOL    HW224606   5.354   5.536   1.614
 7903SOL     OW24607   5.959   2.067   0.684
 7903SOL    HW124608   5.979   2.164   0.699
 7903SOL    HW224609   5.886   2.038   0.745
 7904SOL     OW24610   5.563   0.483   3.494
 7904SOL    HW124611   5.617   0.400   3.510
 7904SOL    HW224612   5.587   0.521   3.405
 7905SOL     OW24613   4.389   2.233   0.304
 7905SOL    HW124614   4.439   2.147   0.296
 7905SOL    HW224615   4.394   2.283   0.217
 7906SOL     OW24616   0.498   5.652   0.434
 7906SOL    HW124617   0.551   5.630   0.353
 7906SOL    HW224618   0.551   5.629   0.516
 7907SOL     OW24619   5.822   1.782   3.844
 7907SOL    HW124620   5.852   1.734   3.926
 7907SOL    HW224621   5.886   1.857   3.824
 7908SOL     OW24622   0.623   1.300   4.412
 7908SOL    HW124623   0.709   1.345   4.436
 7908SOL    HW224624   0.593   1.331   4.322
 7909SOL     OW24625   5.541   3.797   4.947
 7909SOL    HW124626   5.586   3.727   4.892
 7909SOL    HW224627   5.594   3.883   4.941
 7910SOL     OW24628   2.945   2.802   5.629
 7910SOL    HW124629   2.879   2.873   5.654
 7910SOL    HW224630   2.950   2.795   5.529
 7911SOL     OW24631   1.397   3.314   6.310
 7911SOL    HW124632   1.335   3.364   6.370
 7911SOL    HW224633   1.483   3.363   6.302
 7912SOL     OW24634   0.324   5.325   0.365
 7912SOL    HW124635   0.284   5.415   0.384
 7912SOL    HW224636   0.419   5.324   0.395
 7913SOL     OW24637   1.474   5.138   0.825
 7913SOL    HW124638   1.556   5.103   0.780
 7913SOL    HW224639   1.406   5.064   0.831
 7914SOL     OW24640   0.014   4.716   6.341
 7914SOL    HW124641   6.953   4.711   6.278
 7914SOL    HW224642   0.035   4.624   6.375
 7915SOL     OW24643   4.811   2.976   2.450
 7915SOL    HW124644   4.891   2.990   2.509
 7915SOL    HW224645   4.755   2.902   2.487
 7916SOL     OW24646   6.176   3.943   5.803
 7916SOL    HW124647   6.119   3.920   5.725
 7916SOL    HW224648   6.145   4.030   5.843
 7917SOL     OW24649   3.090   3.138   3.646
 7917SOL    HW124650   3.079   3.177   3.555
 7917SOL    HW224651   3.149   3.058   3.641
 7918SOL     OW24652   0.421   1.534   0.699
 7918SOL    HW124653   0.434   1.528   0.798
 7918SOL    HW224654   0.324   1.545   0.679
 7919SOL     OW24655   0.834   4.218   3.328
 7919SOL    HW124656   0.803   4.245   3.237
 7919SOL    HW224657   0.776   4.262   3.397
 7920SOL     OW24658   0.912   5.117   1.332
 7920SOL    HW124659   0.839   5.180   1.355
 7920SOL    HW224660   1.001   5.161   1.346
 7921SOL     OW24661   4.003   5.917   0.606
 7921SOL    HW124662   3.910   5.897   0.638
 7921SOL    HW224663   4.044   5.987   0.665
 7922SOL     OW24664   6.190   5.713   0.593
 7922SOL    HW124665   6.273   5.747   0.548
 7922SOL    HW224666   6.188   5.613   0.589
 7923SOL     OW24667   3.146   0.268   2.398
 7923SOL    HW124668   3.166   0.364   2.421
 7923SOL    HW224669   3.121   0.262   2.301
 7924SOL     OW24670   3.919   6.121   2.792
 7924SOL    HW124671   3.862   6.076   2.724
 7924SOL    HW224672   3.865   6.136   2.875
 7925SOL     OW24673   0.674   1.693   6.362
 7925SOL    HW124674   0.599   1.695   6.429
 7925SOL    HW224675   0.726   1.607   6.373
 7926SOL     OW24676   4.747   1.173   4.922
 7926SOL    HW124677   4.766   1.180   5.020
 7926SOL    HW224678   4.694   1.252   4.892
 7927SOL     OW24679   3.927   5.628   4.377
 7927SOL    HW124680   3.847   5.686   4.391
 7927SOL    HW224681   4.006   5.686   4.353
 7928SOL     OW24682   1.327   3.204   4.074
 7928SOL    HW124683   1.227   3.209   4.085
 7928SOL    HW224684   1.361   3.292   4.041
 7929SOL     OW24685   4.223   4.169   5.602
 7929SOL    HW124686   4.222   4.249   5.661
 7929SOL    HW224687   4.255   4.195   5.511
 7930SOL     OW24688   4.556   5.671   3.734
 7930SOL    HW124689   4.517   5.689   3.824
 7930SOL    HW224690   4.482   5.666   3.666
 7931SOL     OW24691   1.290   1.710   6.201
 7931SOL    HW124692   1.366   1.734   6.260
 7931SOL    HW224693   1.204   1.735   6.246
 7932SOL     OW24694   2.899   6.792   0.332
 7932SOL    HW124695   2.991   6.768   0.302
 7932SOL    HW224696   2.851   6.709   0.363
 7933SOL     OW24697   0.180   0.238   0.301
 7933SOL    HW124698   0.140   0.258   0.391
 7933SOL    HW224699   0.110   0.200   0.241
 7934SOL     OW24700   2.452   4.673   6.860
 7934SOL    HW124701   2.549   4.651   6.858
 7934SOL    HW224702   2.406   4.617   6.930
 7935SOL     OW24703   5.610   5.418   6.991
 7935SOL    HW124704   5.656   5.458   0.054
 7935SOL    HW224705   5.538   5.356   0.004
 7936SOL     OW24706   3.583   5.066   2.422
 7936SOL    HW124707   3.513   5.136   2.409
 7936SOL    HW224708   3.604   5.058   2.520
 7937SOL     OW24709   5.816   7.012   3.797
 7937SOL    HW124710   5.851   0.057   3.868
 7937SOL    HW224711   5.719   6.994   3.813
 7938SOL     OW24712   5.681   4.878   5.601
 7938SOL    HW124713   5.723   4.963   5.633
 7938SOL    HW224714   5.593   4.865   5.647
 7939SOL     OW24715   0.547   2.150   6.090
 7939SOL    HW124716   0.464   2.115   6.047
 7939SOL    HW224717   0.523   2.207   6.169
 7940SOL     OW24718   1.919   4.488   2.793
 7940SOL    HW124719   2.007   4.449   2.820
 7940SOL    HW224720   1.855   4.482   2.870
 7941SOL     OW24721   6.695   0.053   1.096
 7941SOL    HW124722   6.634   7.005   1.142
 7941SOL    HW224723   6.724   0.124   1.161
 7942SOL     OW24724   6.583   6.284   2.895
 7942SOL    HW124725   6.663   6.320   2.943
 7942SOL    HW224726   6.602   6.282   2.796
 7943SOL     OW24727   5.793   1.961   0.455
 7943SOL    HW124728   5.744   2.023   0.394
 7943SOL    HW224729   5.840   2.014   0.526
 7944SOL     OW24730   0.383   3.191   1.015
 7944SOL    HW124731   0.477   3.223   1.000
 7944SOL    HW224732   0.325   3.227   0.942
 7945SOL     OW24733   5.491   6.715   2.817
 7945SOL    HW124734   5.496   6.813   2.798
 7945SOL    HW224735   5.564   6.690   2.881
 7946SOL     OW24736   2.239   2.708   5.771
 7946SOL    HW124737   2.282   2.766   5.701
 7946SOL    HW224738   2.309   2.654   5.817
 7947SOL     OW24739   3.731   2.762   6.437
 7947SOL    HW124740   3.662   2.718   6.379
 7947SOL    HW224741   3.743   2.710   6.521
 7948SOL     OW24742   0.542   6.366   1.170
 7948SOL    HW124743   0.565   6.448   1.118
 7948SOL    HW224744   0.451   6.335   1.145
 7949SOL     OW24745   4.517   4.506   3.672
 7949SOL    HW124746   4.502   4.529   3.575
 7949SOL    HW224747   4.447   4.551   3.727
 7950SOL     OW24748   4.796   5.616   3.634
 7950SOL    HW124749   4.794   5.517   3.645
 7950SOL    HW224750   4.709   5.655   3.663
 7951SOL     OW24751   1.904   3.755   1.044
 7951SOL    HW124752   1.807   3.760   1.066
 7951SOL    HW224753   1.947   3.843   1.060
 7952SOL     OW24754   0.539   3.433   6.662
 7952SOL    HW124755   0.480   3.393   6.733
 7952SOL    HW224756   0.494   3.425   6.573
 7953SOL     OW24757   2.238   2.809   3.404
 7953SOL    HW124758   2.210   2.845   3.315
 7953SOL    HW224759   2.335   2.784   3.401
 7954SOL     OW24760   4.563   4.491   5.335
 7954SOL    HW124761   4.622   4.427   5.384
 7954SOL    HW224762   4.505   4.540   5.400
 7955SOL     OW24763   1.251   6.668   6.191
 7955SOL    HW124764   1.274   6.681   6.287
 7955SOL    HW224765   1.299   6.736   6.136
 7956SOL     OW24766   1.435   6.262   2.317
 7956SOL    HW124767   1.529   6.288   2.341
 7956SOL    HW224768   1.436   6.172   2.274
 7957SOL     OW24769   2.120   1.122   0.529
 7957SOL    HW124770   2.205   1.092   0.572
 7957SOL    HW224771   2.122   1.222   0.516
 7958SOL     OW24772   3.183   5.679   4.557
 7958SOL    HW124773   3.145   5.771   4.549
 7958SOL    HW224774   3.215   5.648   4.468
 7959SOL     OW24775   4.274   5.342   1.276
 7959SOL    HW124776   4.238   5.293   1.356
 7959SOL    HW224777   4.355   5.393   1.303
 7960SOL     OW24778   3.658   1.550   0.750
 7960SOL    HW124779   3.704   1.536   0.838
 7960SOL    HW224780   3.727   1.558   0.678
 7961SOL     OW24781   0.618   6.118   0.134
 7961SOL    HW124782   0.704   6.095   0.089
 7961SOL    HW224783   0.633   6.194   0.197
 7962SOL     OW24784   2.042   0.290   0.226
 7962SOL    HW124785   1.970   0.287   0.157
 7962SOL    HW224786   2.090   0.377   0.220
 7963SOL     OW24787   6.532   0.591   3.910
 7963SOL    HW124788   6.531   0.687   3.884
 7963SOL    HW224789   6.438   0.561   3.930
 7964SOL     OW24790   6.209   5.295   3.751
 7964SOL    HW124791   6.164   5.342   3.675
 7964SOL    HW224792   6.286   5.242   3.716
 7965SOL     OW24793   3.382   2.602   6.555
 7965SOL    HW124794   3.416   2.525   6.500
 7965SOL    HW224795   3.410   2.688   6.513
 7966SOL     OW24796   0.494   2.977   5.549
 7966SOL    HW124797   0.456   3.056   5.502
 7966SOL    HW224798   0.482   2.987   5.648
 7967SOL     OW24799   3.070   6.458   4.034
 7967SOL    HW124800   3.025   6.396   4.099
 7967SOL    HW224801   3.101   6.540   4.082
 7968SOL     OW24802   2.098   2.888   3.090
 7968SOL    HW124803   2.116   2.983   3.064
 7968SOL    HW224804   2.168   2.829   3.050
 7969SOL     OW24805   4.703   6.734   2.192
 7969SOL    HW124806   4.780   6.743   2.129
 7969SOL    HW224807   4.617   6.740   2.141
 7970SOL     OW24808   0.120   3.130   2.758
 7970SOL    HW124809   0.091   3.059   2.694
 7970SOL    HW224810   0.134   3.215   2.708
 7971SOL     OW24811   3.428   1.705   0.633
 7971SOL    HW124812   3.449   1.799   0.657
 7971SOL    HW224813   3.496   1.644   0.675
 7972SOL     OW24814   0.783   4.273   1.482
 7972SOL    HW124815   0.847   4.237   1.414
 7972SOL    HW224816   0.710   4.207   1.499
 7973SOL     OW24817   5.419   3.407   2.820
 7973SOL    HW124818   5.334   3.369   2.784
 7973SOL    HW224819   5.418   3.507   2.810
 7974SOL     OW24820   5.576   0.394   4.920
 7974SOL    HW124821   5.621   0.467   4.868
 7974SOL    HW224822   5.645   0.341   4.968
 7975SOL     OW24823   5.800   0.622   3.617
 7975SOL    HW124824   5.740   0.542   3.610
 7975SOL    HW224825   5.888   0.601   3.576
 7976SOL     OW24826   0.832   0.754   5.741
 7976SOL    HW124827   0.751   0.723   5.790
 7976SOL    HW224828   0.818   0.740   5.643
 7977SOL     OW24829   4.595   5.648   2.049
 7977SOL    HW124830   4.678   5.662   1.994
 7977SOL    HW224831   4.621   5.621   2.141
 7978SOL     OW24832   5.730   3.656   6.113
 7978SOL    HW124833   5.714   3.665   6.015
 7978SOL    HW224834   5.796   3.724   6.143
 7979SOL     OW24835   3.366   0.650   5.489
 7979SOL    HW124836   3.368   0.610   5.581
 7979SOL    HW224837   3.452   0.631   5.442
 7980SOL     OW24838   3.053   6.201   7.001
 7980SOL    HW124839   3.011   6.292   7.008
 7980SOL    HW224840   3.149   6.207   0.012
 7981SOL     OW24841   0.577   6.086   2.374
 7981SOL    HW124842   0.499   6.059   2.317
 7981SOL    HW224843   0.556   6.171   2.422
 7982SOL     OW24844   6.600   1.738   0.337
 7982SOL    HW124845   6.696   1.765   0.341
 7982SOL    HW224846   6.546   1.798   0.396
 7983SOL     OW24847   5.364   2.077   2.950
 7983SOL    HW124848   5.368   2.113   2.857
 7983SOL    HW224849   5.446   2.023   2.968
 7984SOL     OW24850   1.591   2.216   1.631
 7984SOL    HW124851   1.563   2.264   1.548
 7984SOL    HW224852   1.672   2.261   1.670
 7985SOL     OW24853   2.508   0.223   3.632
 7985SOL    HW124854   2.452   0.302   3.654
 7985SOL    HW224855   2.493   0.197   3.536
 7986SOL     OW24856   3.270   0.994   6.748
 7986SOL    HW124857   3.190   0.969   6.694
 7986SOL    HW224858   3.338   1.038   6.689
 7987SOL     OW24859   0.947   3.411   6.505
 7987SOL    HW124860   0.948   3.446   6.412
 7987SOL    HW224861   0.903   3.321   6.506
 7988SOL     OW24862   1.661   1.919   4.506
 7988SOL    HW124863   1.679   2.001   4.451
 7988SOL    HW224864   1.581   1.872   4.469
 7989SOL     OW24865   3.317   2.236   5.359
 7989SOL    HW124866   3.246   2.170   5.332
 7989SOL    HW224867   3.305   2.321   5.307
 7990SOL     OW24868   5.864   3.925   3.810
 7990SOL    HW124869   5.773   3.888   3.833
 7990SOL    HW224870   5.934   3.858   3.836
 7991SOL     OW24871   6.316   0.485   5.111
 7991SOL    HW124872   6.270   0.573   5.098
 7991SOL    HW224873   6.381   0.492   5.186
 7992SOL     OW24874   1.460   6.459   0.783
 7992SOL    HW124875   1.370   6.494   0.810
 7992SOL    HW224876   1.505   6.419   0.863
 7993SOL     OW24877   1.460   6.149   6.790
 7993SOL    HW124878   1.433   6.121   6.698
 7993SOL    HW224879   1.545   6.103   6.816
 7994SOL     OW24880   4.607   0.595   2.860
 7994SOL    HW124881   4.658   0.675   2.892
 7994SOL    HW224882   4.670   0.529   2.820
 7995SOL     OW24883   4.125   5.367   3.555
 7995SOL    HW124884   4.196   5.349   3.486
 7995SOL    HW224885   4.036   5.374   3.509
 7996SOL     OW24886   3.242   6.589   4.600
 7996SOL    HW124887   3.272   6.499   4.632
 7996SOL    HW224888   3.190   6.635   4.671
 7997SOL     OW24889   0.089   1.278   0.791
 7997SOL    HW124890   0.033   1.195   0.798
 7997SOL    HW224891   0.184   1.253   0.773
 7998SOL     OW24892   4.119   5.366   0.927
 7998SOL    HW124893   4.040   5.306   0.937
 7998SOL    HW224894   4.110   5.443   0.990
 7999SOL     OW24895   1.509   0.767   6.564
 7999SOL    HW124896   1.469   0.697   6.505
 7999SOL    HW224897   1.582   0.727   6.620
 8000SOL     OW24898   5.450   0.863   6.957
 8000SOL    HW124899   5.537   0.840   7.000
 8000SOL    HW224900   5.462   0.868   6.858
 8001SOL     OW24901   3.520   6.305   1.288
 8001SOL    HW124902   3.513   6.400   1.319
 8001SOL    HW224903   3.429   6.267   1.277
 8002SOL     OW24904   0.343   2.715   5.713
 8002SOL    HW124905   0.409   2.687   5.642
 8002SOL    HW224906   0.383   2.699   5.803
 8003SOL     OW24907   2.160   4.825   1.969
 8003SOL    HW124908   2.061   4.828   1.958
 8003SOL    HW224909   2.197   4.748   1.917
 8004SOL     OW24910   1.671   4.455   2.947
 8004SOL    HW124911   1.683   4.501   3.035
 8004SOL    HW224912   1.628   4.366   2.961
 8005SOL     OW24913   3.512   1.789   2.299
 8005SOL    HW124914   3.474   1.881   2.297
 8005SOL    HW224915   3.596   1.786   2.245
 8006SOL     OW24916   2.814   6.515   0.679
 8006SOL    HW124917   2.804   6.614   0.693
 8006SOL    HW224918   2.826   6.470   0.767
 8007SOL     OW24919   1.463   6.923   4.064
 8007SOL    HW124920   1.398   6.847   4.069
 8007SOL    HW224921   1.417   7.004   4.026
 8008SOL     OW24922   4.781   6.909   6.023
 8008SOL    HW124923   4.753   6.930   5.929
 8008SOL    HW224924   4.881   6.918   6.030
 8009SOL     OW24925   6.223   0.386   3.472
 8009SOL    HW124926   6.254   0.304   3.423
 8009SOL    HW224927   6.249   0.379   3.569
 8010SOL     OW24928   1.548   1.546   6.897
 8010SOL    HW124929   1.571   1.481   6.969
 8010SOL    HW224930   1.626   1.605   6.878
 8011SOL     OW24931   2.480   3.008   1.512
 8011SOL    HW124932   2.524   2.934   1.462
 8011SOL    HW224933   2.430   2.969   1.590
 8012SOL     OW24934   2.275   5.952   1.402
 8012SOL    HW124935   2.373   5.937   1.413
 8012SOL    HW224936   2.247   5.927   1.310
 8013SOL     OW24937   0.556   5.226   4.692
 8013SOL    HW124938   0.579   5.319   4.664
 8013SOL    HW224939   0.587   5.162   4.622
 8014SOL     OW24940   1.080   6.462   5.318
 8014SOL    HW124941   1.101   6.427   5.410
 8014SOL    HW224942   1.002   6.523   5.323
 8015SOL     OW24943   2.983   1.187   0.134
 8015SOL    HW124944   3.039   1.267   0.112
 8015SOL    HW224945   3.039   1.105   0.126
 8016SOL     OW24946   4.454   0.388   6.340
 8016SOL    HW124947   4.494   0.392   6.248
 8016SOL    HW224948   4.379   0.454   6.347
 8017SOL     OW24949   6.436   5.110   6.271
 8017SOL    HW124950   6.352   5.088   6.222
 8017SOL    HW224951   6.442   5.208   6.286
 8018SOL     OW24952   4.177   2.482   6.301
 8018SOL    HW124953   4.116   2.508   6.375
 8018SOL    HW224954   4.141   2.516   6.214
 8019SOL     OW24955   2.053   3.843   6.999
 8019SOL    HW124956   1.967   3.807   6.962
 8019SOL    HW224957   2.036   3.931   0.026
 8020SOL     OW24958   6.060   5.955   0.614
 8020SOL    HW124959   6.107   5.868   0.626
 8020SOL    HW224960   6.050   5.974   0.516
 8021SOL     OW24961   1.214   2.396   2.263
 8021SOL    HW124962   1.212   2.397   2.163
 8021SOL    HW224963   1.296   2.347   2.294
 8022SOL     OW24964   4.187   0.262   2.568
 8022SOL    HW124965   4.236   0.331   2.514
 8022SOL    HW224966   4.217   0.267   2.663
 8023SOL     OW24967   5.741   5.865   3.625
 8023SOL    HW124968   5.820   5.830   3.674
 8023SOL    HW224969   5.684   5.789   3.595
 8024SOL     OW24970   2.825   4.774   0.289
 8024SOL    HW124971   2.800   4.851   0.231
 8024SOL    HW224972   2.872   4.705   0.234
 8025SOL     OW24973   2.730   5.922   6.039
 8025SOL    HW124974   2.787   5.977   6.100
 8025SOL    HW224975   2.778   5.909   5.952
 8026SOL     OW24976   0.540   4.761   6.806
 8026SOL    HW124977   0.495   4.834   6.856
 8026SOL    HW224978   0.500   4.673   6.830
 8027SOL     OW24979   4.152   2.074   5.492
 8027SOL    HW124980   4.212   2.069   5.412
 8027SOL    HW224981   4.064   2.032   5.469
 8028SOL     OW24982   3.548   4.691   5.691
 8028SOL    HW124983   3.586   4.776   5.727
 8028SOL    HW224984   3.454   4.707   5.660
 8029SOL     OW24985   5.521   3.564   0.185
 8029SOL    HW124986   5.581   3.535   0.260
 8029SOL    HW224987   5.576   3.581   0.103
 8030SOL     OW24988   5.685   3.935   6.480
 8030SOL    HW124989   5.622   3.865   6.511
 8030SOL    HW224990   5.779   3.909   6.502
 8031SOL     OW24991   4.920   5.888   2.606
 8031SOL    HW124992   4.898   5.806   2.658
 8031SOL    HW224993   4.837   5.925   2.564
 8032SOL     OW24994   5.613   4.475   5.850
 8032SOL    HW124995   5.570   4.501   5.936
 8032SOL    HW224996   5.627   4.376   5.849
 8033SOL     OW24997   5.159   3.070   6.858
 8033SOL    HW124998   5.233   3.137   6.856
 8033SOL    HW224999   5.154   3.028   6.949
 8034SOL     OW25000   6.332   1.212   5.433
 8034SOL    HW125001   6.404   1.192   5.367
 8034SOL    HW225002   6.249   1.161   5.408
 8035SOL     OW25003   4.327   0.188   4.988
 8035SOL    HW125004   4.399   0.258   4.997
 8035SOL    HW225005   4.362   0.101   5.022
 8036SOL     OW25006   0.844   3.933   2.661
 8036SOL    HW125007   0.934   3.960   2.628
 8036SOL    HW225008   0.788   3.901   2.584
 8037SOL     OW25009   1.298   4.121   2.316
 8037SOL    HW125010   1.266   4.027   2.320
 8037SOL    HW225011   1.394   4.123   2.286
 8038SOL     OW25012   4.668   1.223   2.731
 8038SOL    HW125013   4.674   1.306   2.786
 8038SOL    HW225014   4.607   1.238   2.653
 8039SOL     OW25015   1.343   0.073   3.190
 8039SOL    HW125016   1.297   0.155   3.223
 8039SOL    HW225017   1.340   0.072   3.090
 8040SOL     OW25018   1.537   5.898   1.201
 8040SOL    HW125019   1.478   5.828   1.240
 8040SOL    HW225020   1.627   5.895   1.245
 8041SOL     OW25021   3.007   2.014   2.191
 8041SOL    HW125022   2.919   1.988   2.233
 8041SOL    HW225023   3.012   2.113   2.184
 8042SOL     OW25024   3.817   3.241   3.052
 8042SOL    HW125025   3.848   3.238   2.957
 8042SOL    HW225026   3.870   3.176   3.107
 8043SOL     OW25027   3.829   6.120   0.847
 8043SOL    HW125028   3.884   6.155   0.924
 8043SOL    HW225029   3.758   6.186   0.825
 8044SOL     OW25030   3.050   3.824   0.963
 8044SOL    HW125031   3.063   3.789   1.056
 8044SOL    HW225032   3.117   3.895   0.945
 8045SOL     OW25033   5.307   0.636   1.729
 8045SOL    HW125034   5.294   0.733   1.746
 8045SOL    HW225035   5.399   0.619   1.696
 8046SOL     OW25036   6.766   4.977   0.009
 8046SOL    HW125037   6.847   4.972   0.067
 8046SOL    HW225038   6.705   5.049   0.042
 8047SOL     OW25039   4.010   4.966   5.014
 8047SOL    HW125040   3.942   5.009   5.074
 8047SOL    HW225041   4.096   5.016   5.019
 8048SOL     OW25042   4.985   1.035   6.043
 8048SOL    HW125043   4.926   1.061   6.119
 8048SOL    HW225044   5.030   1.116   6.006
 8049SOL     OW25045   1.299   0.188   1.411
 8049SOL    HW125046   1.341   0.098   1.417
 8049SOL    HW225047   1.241   0.193   1.330
 8050SOL     OW25048   0.515   4.396   2.108
 8050SOL    HW125049   0.553   4.307   2.083
 8050SOL    HW225050   0.416   4.388   2.119
 8051SOL     OW25051   4.871   6.200   3.332
 8051SOL    HW125052   4.866   6.264   3.409
 8051SOL    HW225053   4.942   6.231   3.268
 8052SOL     OW25054   3.637   1.101   1.795
 8052SOL    HW125055   3.718   1.091   1.737
 8052SOL    HW225056   3.664   1.132   1.886
 8053SOL     OW25057   3.985   3.911   2.832
 8053SOL    HW125058   3.954   3.938   2.923
 8053SOL    HW225059   4.048   3.979   2.796
 8054SOL     OW25060   5.691   6.668   4.417
 8054SOL    HW125061   5.700   6.596   4.347
 8054SOL    HW225062   5.649   6.629   4.499
 8055SOL     OW25063   0.541   0.383   6.169
 8055SOL    HW125064   0.635   0.414   6.152
 8055SOL    HW225065   0.485   0.402   6.088
 8056SOL     OW25066   4.004   1.367   4.027
 8056SOL    HW125067   4.042   1.413   4.108
 8056SOL    HW225068   4.031   1.418   3.945
 8057SOL     OW25069   2.231   1.747   2.495
 8057SOL    HW125070   2.198   1.676   2.558
 8057SOL    HW225071   2.328   1.764   2.512
 8058SOL     OW25072   3.280   0.093   2.565
 8058SOL    HW125073   3.265   0.126   2.658
 8058SOL    HW225074   3.230   0.150   2.501
 8059SOL     OW25075   4.163   2.266   4.755
 8059SOL    HW125076   4.196   2.258   4.850
 8059SOL    HW225077   4.112   2.351   4.745
 8060SOL     OW25078   0.264   1.276   4.076
 8060SOL    HW125079   0.189   1.295   4.139
 8060SOL    HW225080   0.351   1.300   4.118
 8061SOL     OW25081   6.399   6.943   1.737
 8061SOL    HW125082   6.365   6.849   1.734
 8061SOL    HW225083   6.330   7.005   1.698
 8062SOL     OW25084   2.851   4.782   4.474
 8062SOL    HW125085   2.778   4.730   4.517
 8062SOL    HW225086   2.893   4.843   4.542
 8063SOL     OW25087   1.962   3.027   0.746
 8063SOL    HW125088   1.953   2.943   0.693
 8063SOL    HW225089   1.922   3.013   0.837
 8064SOL     OW25090   0.165   5.001   1.861
 8064SOL    HW125091   0.067   5.006   1.879
 8064SOL    HW225092   0.214   5.059   1.927
 8065SOL     OW25093   4.413   6.463   3.763
 8065SOL    HW125094   4.345   6.428   3.698
 8065SOL    HW225095   4.446   6.552   3.732
 8066SOL     OW25096   0.958   1.491   6.465
 8066SOL    HW125097   0.911   1.403   6.472
 8066SOL    HW225098   1.053   1.481   6.493
 8067SOL     OW25099   4.567   3.087   1.524
 8067SOL    HW125100   4.584   3.067   1.621
 8067SOL    HW225101   4.503   3.020   1.487
 8068SOL     OW25102   6.308   5.285   6.460
 8068SOL    HW125103   6.330   5.361   6.522
 8068SOL    HW225104   6.335   5.199   6.503
 8069SOL     OW25105   2.028   6.072   1.396
 8069SOL    HW125106   2.126   6.052   1.403
 8069SOL    HW225107   1.980   6.028   1.473
 8070SOL     OW25108   2.382   3.576   0.627
 8070SOL    HW125109   2.345   3.596   0.537
 8070SOL    HW225110   2.445   3.499   0.621
 8071SOL     OW25111   2.957   6.452   4.981
 8071SOL    HW125112   2.876   6.415   4.934
 8071SOL    HW225113   3.014   6.500   4.915
 8072SOL     OW25114   3.393   1.149   0.152
 8072SOL    HW125115   3.389   1.148   0.052
 8072SOL    HW225116   3.382   1.056   0.187
 8073SOL     OW25117   4.415   6.790   6.180
 8073SOL    HW125118   4.321   6.787   6.146
 8073SOL    HW225119   4.414   6.778   6.280
 8074SOL     OW25120   2.988   2.969   6.971
 8074SOL    HW125121   3.086   2.975   6.990
 8074SOL    HW225122   2.941   2.933   0.034
 8075SOL     OW25123   6.678   0.834   1.314
 8075SOL    HW125124   6.748   0.885   1.263
 8075SOL    HW225125   6.588   0.856   1.278
 8076SOL     OW25126   4.642   2.338   5.640
 8076SOL    HW125127   4.700   2.348   5.721
 8076SOL    HW225128   4.700   2.317   5.561
 8077SOL     OW25129   0.910   6.137   2.016
 8077SOL    HW125130   0.999   6.100   2.044
 8077SOL    HW225131   0.918   6.236   2.004
 8078SOL     OW25132   6.251   1.654   1.001
 8078SOL    HW125133   6.183   1.657   0.927
 8078SOL    HW225134   6.342   1.640   0.962
 8079SOL     OW25135   5.137   1.648   3.790
 8079SOL    HW125136   5.122   1.553   3.762
 8079SOL    HW225137   5.230   1.675   3.767
 8080SOL     OW25138   0.726   4.088   0.131
 8080SOL    HW125139   0.703   4.009   0.074
 8080SOL    HW225140   0.651   4.107   0.194
 8081SOL     OW25141   5.122   0.305   5.036
 8081SOL    HW125142   5.160   0.346   5.119
 8081SOL    HW225143   5.179   0.330   4.958
 8082SOL     OW25144   5.879   0.859   1.869
 8082SOL    HW125145   5.966   0.906   1.853
 8082SOL    HW225146   5.894   0.760   1.870
 8083SOL     OW25147   5.316   2.671   2.118
 8083SOL    HW125148   5.303   2.760   2.074
 8083SOL    HW225149   5.227   2.628   2.132
 8084SOL     OW25150   5.518   6.965   0.777
 8084SOL    HW125151   5.427   6.925   0.785
 8084SOL    HW225152   5.587   6.895   0.798
 8085SOL     OW25153   6.067   0.124   2.516
 8085SOL    HW125154   6.125   0.103   2.595
 8085SOL    HW225155   5.977   0.082   2.529
 8086SOL     OW25156   4.532   0.673   3.765
 8086SOL    HW125157   4.491   0.600   3.711
 8086SOL    HW225158   4.482   0.758   3.749
 8087SOL     OW25159   2.003   1.587   1.326
 8087SOL    HW125160   2.062   1.667   1.337
 8087SOL    HW225161   1.933   1.605   1.257
 8088SOL     OW25162   6.089   1.649   1.736
 8088SOL    HW125163   6.113   1.684   1.645
 8088SOL    HW225164   6.004   1.598   1.731
 8089SOL     OW25165   5.432   2.570   0.684
 8089SOL    HW125166   5.347   2.547   0.638
 8089SOL    HW225167   5.465   2.491   0.735
 8090SOL     OW25168   4.474   1.846   6.352
 8090SOL    HW125169   4.452   1.754   6.383
 8090SOL    HW225170   4.409   1.911   6.392
 8091SOL     OW25171   2.452   3.643   6.239
 8091SOL    HW125172   2.358   3.643   6.273
 8091SOL    HW225173   2.460   3.576   6.165
 8092SOL     OW25174   0.933   1.853   4.875
 8092SOL    HW125175   0.843   1.892   4.895
 8092SOL    HW225176   0.998   1.927   4.856
 8093SOL     OW25177   5.309   5.795   2.101
 8093SOL    HW125178   5.249   5.787   2.020
 8093SOL    HW225179   5.284   5.876   2.153
 8094SOL     OW25180   2.145   3.950   4.809
 8094SOL    HW125181   2.156   3.968   4.711
 8094SOL    HW225182   2.151   4.036   4.859
 8095SOL     OW25183   5.683   4.031   3.637
 8095SOL    HW125184   5.749   3.969   3.680
 8095SOL    HW225185   5.644   3.986   3.556
 8096SOL     OW25186   3.279   5.513   4.102
 8096SOL    HW125187   3.235   5.424   4.114
 8096SOL    HW225188   3.343   5.509   4.026
 8097SOL     OW25189   5.216   0.598   3.971
 8097SOL    HW125190   5.284   0.579   3.901
 8097SOL    HW225191   5.258   0.595   4.062
 8098SOL     OW25192   1.803   6.790   4.428
 8098SOL    HW125193   1.849   6.878   4.430
 8098SOL    HW225194   1.713   6.801   4.385
 8099SOL     OW25195   6.276   0.457   4.191
 8099SOL    HW125196   6.289   0.364   4.226
 8099SOL    HW225197   6.228   0.512   4.260
 8100SOL     OW25198   0.118   6.948   0.237
 8100SOL    HW125199   0.194   6.892   0.270
 8100SOL    HW225200   0.038   6.933   0.295
 8101SOL     OW25201   2.228   0.566   4.595
 8101SOL    HW125202   2.175   0.482   4.606
 8101SOL    HW225203   2.237   0.588   4.498
 8102SOL     OW25204   1.344   5.117   5.799
 8102SOL    HW125205   1.358   5.150   5.705
 8102SOL    HW225206   1.263   5.160   5.838
 8103SOL     OW25207   4.206   1.278   0.631
 8103SOL    HW125208   4.184   1.181   0.640
 8103SOL    HW225209   4.274   1.291   0.559
 8104SOL     OW25210   2.662   6.613   5.941
 8104SOL    HW125211   2.749   6.585   5.900
 8104SOL    HW225212   2.603   6.651   5.870
 8105SOL     OW25213   1.759   2.056   3.242
 8105SOL    HW125214   1.664   2.050   3.273
 8105SOL    HW225215   1.778   2.149   3.210
 8106SOL     OW25216   2.535   5.925   3.729
 8106SOL    HW125217   2.511   5.946   3.824
 8106SOL    HW225218   2.527   6.008   3.674
 8107SOL     OW25219   1.317   6.102   5.568
 8107SOL    HW125220   1.329   6.023   5.507
 8107SOL    HW225221   1.350   6.078   5.660
 8108SOL     OW25222   5.765   2.600   4.965
 8108SOL    HW125223   5.771   2.566   5.059
 8108SOL    HW225224   5.706   2.681   4.962
 8109SOL     OW25225   1.056   3.627   4.661
 8109SOL    HW125226   1.040   3.689   4.739
 8109SOL    HW225227   0.982   3.560   4.657
 8110SOL     OW25228   3.469   6.639   0.742
 8110SOL    HW125229   3.373   6.631   0.766
 8110SOL    HW225230   3.516   6.698   0.808
 8111SOL     OW25231   3.729   6.996   5.755
 8111SOL    HW125232   3.755   6.900   5.744
 8111SOL    HW225233   3.809   0.037   5.745
 8112SOL     OW25234   1.811   1.099   4.926
 8112SOL    HW125235   1.862   1.150   4.994
 8112SOL    HW225236   1.727   1.062   4.967
 8113SOL     OW25237   2.331   3.272   0.035
 8113SOL    HW125238   2.293   3.360   0.007
 8113SOL    HW225239   2.401   3.243   6.986
 8114SOL     OW25240   2.220   2.966   2.223
 8114SOL    HW125241   2.317   2.970   2.245
 8114SOL    HW225242   2.195   3.047   2.170
 8115SOL     OW25243   4.158   1.488   1.595
 8115SOL    HW125244   4.159   1.390   1.616
 8115SOL    HW225245   4.084   1.532   1.645
 8116SOL     OW25246   4.642   6.891   4.502
 8116SOL    HW125247   4.733   6.890   4.460
 8116SOL    HW225248   4.644   6.949   4.584
 8117SOL     OW25249   2.372   1.479   3.822
 8117SOL    HW125250   2.465   1.510   3.844
 8117SOL    HW225251   2.306   1.525   3.881
 8118SOL     OW25252   0.336   3.378   6.145
 8118SOL    HW125253   0.338   3.326   6.059
 8118SOL    HW225254   0.241   3.403   6.166
 8119SOL     OW25255   0.068   5.660   5.061
 8119SOL    HW125256   0.150   5.603   5.060
 8119SOL    HW225257   0.095   5.757   5.062
 8120SOL     OW25258   3.884   4.515   6.466
 8120SOL    HW125259   3.925   4.553   6.550
 8120SOL    HW225260   3.811   4.575   6.435
 8121SOL     OW25261   6.392   5.434   3.193
 8121SOL    HW125262   6.413   5.532   3.196
 8121SOL    HW225263   6.335   5.410   3.272
 8122SOL     OW25264   0.333   5.501   2.499
 8122SOL    HW125265   0.296   5.464   2.584
 8122SOL    HW225266   0.400   5.438   2.461
 8123SOL     OW25267   0.383   0.062   0.348
 8123SOL    HW125268   0.395   0.077   0.446
 8123SOL    HW225269   0.324   0.134   0.311
 8124SOL     OW25270   0.704   6.080   1.178
 8124SOL    HW125271   0.784   6.123   1.137
 8124SOL    HW225272   0.627   6.143   1.174
 8125SOL     OW25273   6.851   5.510   3.261
 8125SOL    HW125274   6.761   5.497   3.302
 8125SOL    HW225275   6.841   5.513   3.161
 8126SOL     OW25276   6.337   3.911   2.313
 8126SOL    HW125277   6.350   3.981   2.384
 8126SOL    HW225278   6.425   3.866   2.294
 8127SOL     OW25279   2.313   6.051   0.480
 8127SOL    HW125280   2.240   6.067   0.547
 8127SOL    HW225281   2.401   6.045   0.526
 8128SOL     OW25282   2.904   2.917   0.196
 8128SOL    HW125283   2.824   2.931   0.255
 8128SOL    HW225284   2.934   2.822   0.201
 8129SOL     OW25285   4.759   1.253   6.107
 8129SOL    HW125286   4.691   1.211   6.048
 8129SOL    HW225287   4.725   1.253   6.201
 8130SOL     OW25288   0.886   5.071   6.323
 8130SOL    HW125289   0.949   5.029   6.389
 8130SOL    HW225290   0.808   5.010   6.309
 8131SOL     OW25291   2.558   0.618   0.630
 8131SOL    HW125292   2.469   0.575   0.616
 8131SOL    HW225293   2.574   0.630   0.728
 8132SOL     OW25294   6.020   6.432   6.076
 8132SOL    HW125295   6.080   6.454   5.999
 8132SOL    HW225296   5.990   6.516   6.121
 8133SOL     OW25297   3.507   4.908   2.121
 8133SOL    HW125298   3.513   4.829   2.059
 8133SOL    HW225299   3.421   4.905   2.171
 8134SOL     OW25300   1.915   1.113   4.388
 8134SOL    HW125301   1.937   1.197   4.338
 8134SOL    HW225302   1.869   1.136   4.473
 8135SOL     OW25303   2.360   5.597   2.426
 8135SOL    HW125304   2.311   5.659   2.365
 8135SOL    HW225305   2.453   5.630   2.441
 8136SOL     OW25306   4.799   4.789   2.377
 8136SOL    HW125307   4.881   4.842   2.401
 8136SOL    HW225308   4.824   4.718   2.311
 8137SOL     OW25309   2.617   1.821   4.316
 8137SOL    HW125310   2.665   1.735   4.332
 8137SOL    HW225311   2.574   1.820   4.226
 8138SOL     OW25312   5.990   2.131   1.516
 8138SOL    HW125313   5.949   2.074   1.445
 8138SOL    HW225314   6.053   2.076   1.571
 8139SOL     OW25315   1.858   2.599   3.207
 8139SOL    HW125316   1.948   2.582   3.168
 8139SOL    HW225317   1.790   2.600   3.133
 8140SOL     OW25318   3.543   0.327   0.275
 8140SOL    HW125319   3.612   0.320   0.347
 8140SOL    HW225320   3.581   0.293   0.189
 8141SOL     OW25321   4.870   6.662   5.376
 8141SOL    HW125322   4.830   6.586   5.428
 8141SOL    HW225323   4.873   6.637   5.279
 8142SOL     OW25324   1.818   5.093   1.083
 8142SOL    HW125325   1.734   5.143   1.104
 8142SOL    HW225326   1.800   4.994   1.088
 8143SOL     OW25327   4.875   4.918   1.016
 8143SOL    HW125328   4.833   4.844   0.964
 8143SOL    HW225329   4.832   4.925   1.106
 8144SOL     OW25330   1.122   6.040   5.181
 8144SOL    HW125331   1.062   6.063   5.105
 8144SOL    HW225332   1.066   6.017   5.261
 8145SOL     OW25333   4.812   4.492   0.735
 8145SOL    HW125334   4.866   4.540   0.665
 8145SOL    HW225335   4.845   4.398   0.742
 8146SOL     OW25336   6.602   6.976   5.530
 8146SOL    HW125337   6.515   6.934   5.555
 8146SOL    HW225338   6.630   6.942   5.440
 8147SOL     OW25339   6.988   0.809   0.306
 8147SOL    HW125340   0.019   0.724   0.282
 8147SOL    HW225341   0.034   0.872   0.349
 8148SOL     OW25342   4.145   4.790   6.677
 8148SOL    HW125343   4.083   4.868   6.674
 8148SOL    HW225344   4.093   4.705   6.677
 8149SOL     OW25345   1.312   6.078   4.341
 8149SOL    HW125346   1.384   6.112   4.402
 8149SOL    HW225347   1.245   6.150   4.324
 8150SOL     OW25348   0.918   3.589   0.945
 8150SOL    HW125349   0.964   3.507   0.980
 8150SOL    HW225350   0.831   3.563   0.904
 8151SOL     OW25351   5.724   5.604   3.859
 8151SOL    HW125352   5.786   5.587   3.782
 8151SOL    HW225353   5.660   5.528   3.868
 8152SOL     OW25354   5.473   2.432   3.510
 8152SOL    HW125355   5.393   2.419   3.570
 8152SOL    HW225356   5.442   2.462   3.420
 8153SOL     OW25357   0.239   0.623   3.104
 8153SOL    HW125358   0.195   0.713   3.106
 8153SOL    HW225359   0.324   0.627   3.157
 8154SOL     OW25360   3.330   0.218   3.084
 8154SOL    HW125361   3.296   0.284   3.150
 8154SOL    HW225362   3.428   0.203   3.098
 8155SOL     OW25363   1.137   4.313   2.178
 8155SOL    HW125364   1.210   4.248   2.198
 8155SOL    HW225365   1.056   4.264   2.147
 8156SOL     OW25366   4.809   6.284   1.634
 8156SOL    HW125367   4.728   6.248   1.680
 8156SOL    HW225368   4.791   6.291   1.535
 8157SOL     OW25369   6.069   4.563   5.904
 8157SOL    HW125370   5.994   4.606   5.955
 8157SOL    HW225371   6.045   4.559   5.807
 8158SOL     OW25372   5.308   4.707   6.791
 8158SOL    HW125373   5.392   4.762   6.787
 8158SOL    HW225374   5.304   4.658   6.879
 8159SOL     OW25375   3.482   6.080   5.400
 8159SOL    HW125376   3.511   6.055   5.308
 8159SOL    HW225377   3.397   6.032   5.422
 8160SOL     OW25378   4.402   0.062   3.813
 8160SOL    HW125379   4.324   0.063   3.749
 8160SOL    HW225380   4.387   7.008   3.882
 8161SOL     OW25381   5.995   3.723   6.413
 8161SOL    HW125382   5.957   3.640   6.456
 8161SOL    HW225383   5.997   3.710   6.314
 8162SOL     OW25384   6.977   5.215   6.718
 8162SOL    HW125385   6.982   5.304   6.672
 8162SOL    HW225386   6.965   5.230   6.817
 8163SOL     OW25387   2.665   5.141   6.065
 8163SOL    HW125388   2.625   5.160   6.154
 8163SOL    HW225389   2.701   5.048   6.063
 8164SOL     OW25390   4.701   1.406   0.160
 8164SOL    HW125391   4.713   1.354   0.076
 8164SOL    HW225392   4.755   1.490   0.156
 8165SOL     OW25393   6.563   3.915   6.355
 8165SOL    HW125394   6.488   3.870   6.307
 8165SOL    HW225395   6.577   3.870   6.444
 8166SOL     OW25396   2.272   1.381   3.396
 8166SOL    HW125397   2.212   1.438   3.451
 8166SOL    HW225398   2.225   1.354   3.312
 8167SOL     OW25399   0.373   0.680   3.673
 8167SOL    HW125400   0.325   0.593   3.665
 8167SOL    HW225401   0.470   0.664   3.690
 8168SOL     OW25402   2.361   6.883   1.271
 8168SOL    HW125403   2.367   6.814   1.344
 8168SOL    HW225404   2.431   6.864   1.202
 8169SOL     OW25405   3.920   1.866   0.254
 8169SOL    HW125406   3.831   1.897   0.222
 8169SOL    HW225407   3.989   1.935   0.233
 8170SOL     OW25408   6.630   4.740   1.352
 8170SOL    HW125409   6.723   4.770   1.374
 8170SOL    HW225410   6.625   4.640   1.355
 8171SOL     OW25411   1.922   1.478   6.365
 8171SOL    HW125412   1.840   1.475   6.422
 8171SOL    HW225413   1.911   1.415   6.288
 8172SOL     OW25414   0.042   2.053   1.718
 8172SOL    HW125415   7.005   2.136   1.730
 8172SOL    HW225416   6.997   1.976   1.699
 8173SOL     OW25417   6.318   1.572   2.462
 8173SOL    HW125418   6.270   1.493   2.424
 8173SOL    HW225419   6.274   1.656   2.431
 8174SOL     OW25420   1.045   6.725   2.936
 8174SOL    HW125421   1.064   6.801   2.874
 8174SOL    HW225422   0.958   6.740   2.982
 8175SOL     OW25423   0.501   2.920   4.585
 8175SOL    HW125424   0.523   2.839   4.531
 8175SOL    HW225425   0.406   2.916   4.615
 8176SOL     OW25426   2.519   4.477   1.840
 8176SOL    HW125427   2.559   4.427   1.763
 8176SOL    HW225428   2.580   4.552   1.867
 8177SOL     OW25429   4.225   1.150   3.649
 8177SOL    HW125430   4.288   1.197   3.587
 8177SOL    HW225431   4.260   1.156   3.743
 8178SOL     OW25432   3.389   6.513   1.150
 8178SOL    HW125433   3.463   6.573   1.122
 8178SOL    HW225434   3.394   6.427   1.100
 8179SOL     OW25435   5.675   1.387   4.864
 8179SOL    HW125436   5.707   1.426   4.950
 8179SOL    HW225437   5.579   1.362   4.872
 8180SOL     OW25438   5.714   0.861   0.051
 8180SOL    HW125439   5.642   0.895   0.112
 8180SOL    HW225440   5.803   0.883   0.090
 8181SOL     OW25441   1.190   1.150   0.902
 8181SOL    HW125442   1.250   1.133   0.825
 8181SOL    HW225443   1.230   1.110   0.985
 8182SOL     OW25444   3.355   3.750   4.546
 8182SOL    HW125445   3.400   3.685   4.485
 8182SOL    HW225446   3.356   3.841   4.505
 8183SOL     OW25447   6.355   2.016   4.053
 8183SOL    HW125448   6.257   2.002   4.067
 8183SOL    HW225449   6.405   1.990   4.136
 8184SOL     OW25450   0.882   0.090   0.661
 8184SOL    HW125451   0.903   0.118   0.568
 8184SOL    HW225452   0.822   0.157   0.703
 8185SOL     OW25453   2.203   0.285   0.684
 8185SOL    HW125454   2.289   0.312   0.640
 8185SOL    HW225455   2.146   0.234   0.619
 8186SOL     OW25456   2.645   4.164   5.289
 8186SOL    HW125457   2.739   4.169   5.257
 8186SOL    HW225458   2.603   4.079   5.257
 8187SOL     OW25459   2.292   0.899   4.680
 8187SOL    HW125460   2.250   0.847   4.605
 8187SOL    HW225461   2.233   0.977   4.703
 8188SOL     OW25462   4.935   2.888   3.789
 8188SOL    HW125463   4.838   2.879   3.814
 8188SOL    HW225464   4.943   2.887   3.689
 8189SOL     OW25465   5.372   5.566   2.224
 8189SOL    HW125466   5.439   5.516   2.170
 8189SOL    HW225467   5.360   5.658   2.186
 8190SOL     OW25468   4.780   4.156   4.022
 8190SOL    HW125469   4.811   4.178   4.114
 8190SOL    HW225470   4.738   4.237   3.980
 8191SOL     OW25471   4.324   5.350   2.512
 8191SOL    HW125472   4.321   5.401   2.426
 8191SOL    HW225473   4.368   5.262   2.497
 8192SOL     OW25474   1.462   5.725   2.625
 8192SOL    HW125475   1.402   5.647   2.641
 8192SOL    HW225476   1.525   5.736   2.702
 8193SOL     OW25477   5.897   4.829   5.112
 8193SOL    HW125478   5.879   4.741   5.070
 8193SOL    HW225479   5.845   4.837   5.197
 8194SOL     OW25480   4.701   0.827   0.894
 8194SOL    HW125481   4.703   0.728   0.882
 8194SOL    HW225482   4.779   0.868   0.846
 8195SOL     OW25483   6.575   0.657   3.492
 8195SOL    HW125484   6.643   0.587   3.511
 8195SOL    HW225485   6.488   0.632   3.534
 8196SOL     OW25486   4.306   6.745   0.119
 8196SOL    HW125487   4.322   6.836   0.157
 8196SOL    HW225488   4.392   6.693   0.118
 8197SOL     OW25489   3.519   1.751   0.991
 8197SOL    HW125490   3.518   1.795   1.081
 8197SOL    HW225491   3.594   1.685   0.987
 8198SOL     OW25492   3.601   6.674   2.520
 8198SOL    HW125493   3.606   6.735   2.442
 8198SOL    HW225494   3.521   6.697   2.576
 8199SOL     OW25495   5.391   3.554   5.566
 8199SOL    HW125496   5.315   3.578   5.626
 8199SOL    HW225497   5.453   3.632   5.557
 8200SOL     OW25498   6.257   4.766   1.490
 8200SOL    HW125499   6.162   4.786   1.467
 8200SOL    HW225500   6.279   4.673   1.461
 8201SOL     OW25501   6.937   1.005   5.173
 8201SOL    HW125502   0.005   1.007   5.121
 8201SOL    HW225503   6.949   1.052   5.260
 8202SOL     OW25504   0.168   5.408   3.487
 8202SOL    HW125505   0.068   5.402   3.487
 8202SOL    HW225506   0.200   5.418   3.581
 8203SOL     OW25507   2.290   2.205   6.714
 8203SOL    HW125508   2.361   2.274   6.704
 8203SOL    HW225509   2.253   2.208   6.807
 8204SOL     OW25510   3.644   4.279   0.389
 8204SOL    HW125511   3.664   4.323   0.301
 8204SOL    HW225512   3.545   4.280   0.405
 8205SOL     OW25513   6.472   4.026   0.005
 8205SOL    HW125514   6.390   4.064   6.980
 8205SOL    HW225515   6.469   3.927   0.000
 8206SOL     OW25516   4.670   2.147   6.820
 8206SOL    HW125517   4.667   2.172   6.723
 8206SOL    HW225518   4.577   2.123   6.850
 8207SOL     OW25519   3.376   3.235   4.168
 8207SOL    HW125520   3.404   3.317   4.118
 8207SOL    HW225521   3.352   3.164   4.102
 8208SOL     OW25522   1.127   0.756   1.183
 8208SOL    HW125523   1.080   0.668   1.180
 8208SOL    HW225524   1.061   0.830   1.174
 8209SOL     OW25525   0.298   0.646   4.790
 8209SOL    HW125526   0.348   0.570   4.747
 8209SOL    HW225527   0.200   0.637   4.769
 8210SOL     OW25528   2.298   2.233   0.570
 8210SOL    HW125529   2.275   2.242   0.667
 8210SOL    HW225530   2.220   2.260   0.514
 8211SOL     OW25531   3.777   4.602   1.438
 8211SOL    HW125532   3.867   4.636   1.411
 8211SOL    HW225533   3.739   4.662   1.509
 8212SOL     OW25534   1.311   2.244   2.768
 8212SOL    HW125535   1.216   2.242   2.798
 8212SOL    HW225536   1.325   2.174   2.697
 8213SOL     OW25537   6.945   4.568   1.479
 8213SOL    HW125538   6.937   4.641   1.411
 8213SOL    HW225539   7.010   4.596   1.550
 8214SOL     OW25540   6.435   4.907   4.049
 8214SOL    HW125541   6.428   4.811   4.077
 8214SOL    HW225542   6.525   4.924   4.010
 8215SOL     OW25543   3.855   5.555   5.685
 8215SOL    HW125544   3.920   5.628   5.665
 8215SOL    HW225545   3.802   5.578   5.767
 8216SOL     OW25546   5.413   5.703   4.181
 8216SOL    HW125547   5.380   5.643   4.108
 8216SOL    HW225548   5.412   5.798   4.149
 8217SOL     OW25549   1.601   5.233   0.283
 8217SOL    HW125550   1.686   5.181   0.285
 8217SOL    HW225551   1.622   5.329   0.265
 8218SOL     OW25552   6.987   0.266   6.424
 8218SOL    HW125553   6.934   0.344   6.391
 8218SOL    HW225554   0.048   0.250   6.364
 8219SOL     OW25555   4.508   1.998   0.250
 8219SOL    HW125556   4.535   1.953   0.336
 8219SOL    HW225557   4.553   1.953   0.173
 8220SOL     OW25558   3.827   3.146   3.397
 8220SOL    HW125559   3.921   3.174   3.380
 8220SOL    HW225560   3.810   3.143   3.496
 8221SOL     OW25561   5.399   6.046   4.642
 8221SOL    HW125562   5.485   6.014   4.680
 8221SOL    HW225563   5.416   6.092   4.555
 8222SOL     OW25564   5.458   1.578   2.236
 8222SOL    HW125565   5.410   1.663   2.260
 8222SOL    HW225566   5.494   1.536   2.319
 8223SOL     OW25567   1.424   4.382   6.087
 8223SOL    HW125568   1.468   4.321   6.022
 8223SOL    HW225569   1.331   4.403   6.055
 8224SOL     OW25570   6.687   0.950   2.839
 8224SOL    HW125571   6.617   0.992   2.898
 8224SOL    HW225572   6.686   0.993   2.750
 8225SOL     OW25573   3.672   1.178   6.525
 8225SOL    HW125574   3.719   1.125   6.596
 8225SOL    HW225575   3.573   1.162   6.530
 8226SOL     OW25576   4.281   6.611   1.816
 8226SOL    HW125577   4.197   6.593   1.766
 8226SOL    HW225578   4.265   6.682   1.885
 8227SOL     OW25579   6.532   2.237   3.651
 8227SOL    HW125580   6.582   2.151   3.663
 8227SOL    HW225581   6.454   2.239   3.714
 8228SOL     OW25582   6.744   1.737   5.288
 8228SOL    HW125583   6.772   1.662   5.228
 8228SOL    HW225584   6.655   1.715   5.330
 8229SOL     OW25585   3.623   4.044   0.866
 8229SOL    HW125586   3.597   4.093   0.949
 8229SOL    HW225587   3.681   3.966   0.891
 8230SOL     OW25588   3.830   6.870   5.185
 8230SOL    HW125589   3.917   6.902   5.147
 8230SOL    HW225590   3.758   6.878   5.116
 8231SOL     OW25591   4.133   5.138   0.576
 8231SOL    HW125592   4.205   5.204   0.557
 8231SOL    HW225593   4.088   5.113   0.490
 8232SOL     OW25594   4.866   1.730   0.982
 8232SOL    HW125595   4.775   1.772   0.973
 8232SOL    HW225596   4.860   1.633   0.960
 8233SOL     OW25597   1.155   6.329   6.857
 8233SOL    HW125598   1.190   6.308   6.948
 8233SOL    HW225599   1.227   6.373   6.803
 8234SOL     OW25600   2.697   4.126   6.810
 8234SOL    HW125601   2.796   4.113   6.808
 8234SOL    HW225602   2.674   4.216   6.774
 8235SOL     OW25603   0.823   3.926   0.394
 8235SOL    HW125604   0.804   3.842   0.444
 8235SOL    HW225605   0.740   3.958   0.349
 8236SOL     OW25606   6.803   4.389   6.945
 8236SOL    HW125607   6.785   4.448   6.867
 8236SOL    HW225608   6.868   4.434   7.006
 8237SOL     OW25609   4.256   6.519   4.566
 8237SOL    HW125610   4.237   6.529   4.664
 8237SOL    HW225611   4.328   6.582   4.539
 8238SOL     OW25612   0.691   4.985   6.679
 8238SOL    HW125613   0.621   5.028   6.622
 8238SOL    HW225614   0.690   5.027   6.769
 8239SOL     OW25615   6.455   0.826   5.632
 8239SOL    HW125616   6.430   0.752   5.695
 8239SOL    HW225617   6.413   0.911   5.662
 8240SOL     OW25618   3.314   4.108   2.468
 8240SOL    HW125619   3.406   4.124   2.434
 8240SOL    HW225620   3.258   4.190   2.454
 8241SOL     OW25621   4.120   0.585   0.275
 8241SOL    HW125622   4.199   0.530   0.249
 8241SOL    HW225623   4.085   0.633   0.195
 8242SOL     OW25624   0.380   5.095   5.838
 8242SOL    HW125625   0.324   5.149   5.775
 8242SOL    HW225626   0.368   4.997   5.819
 8243SOL     OW25627   0.744   2.929   0.184
 8243SOL    HW125628   0.669   2.943   0.120
 8243SOL    HW225629   0.736   2.839   0.227
 8244SOL     OW25630   1.314   6.954   4.606
 8244SOL    HW125631   1.249   6.932   4.678
 8244SOL    HW225632   1.274   6.932   4.517
 8245SOL     OW25633   4.216   2.220   2.673
 8245SOL    HW125634   4.282   2.262   2.611
 8245SOL    HW225635   4.261   2.194   2.758
 8246SOL     OW25636   0.769   3.175   6.003
 8246SOL    HW125637   0.808   3.087   5.976
 8246SOL    HW225638   0.782   3.241   5.930
 8247SOL     OW25639   0.852   0.152   2.488
 8247SOL    HW125640   0.758   0.130   2.513
 8247SOL    HW225641   0.875   0.106   2.402
 8248SOL     OW25642   6.230   5.099   4.683
 8248SOL    HW125643   6.326   5.125   4.675
 8248SOL    HW225644   6.185   5.158   4.750
 8249SOL     OW25645   1.599   3.042   4.601
 8249SOL    HW125646   1.574   2.988   4.682
 8249SOL    HW225647   1.682   3.094   4.621
 8250SOL     OW25648   3.556   4.131   2.336
 8250SOL    HW125649   3.652   4.152   2.356
 8250SOL    HW225650   3.543   4.128   2.237
 8251SOL     OW25651   6.376   3.402   3.611
 8251SOL    HW125652   6.377   3.307   3.578
 8251SOL    HW225653   6.328   3.459   3.545
 8252SOL     OW25654   3.315   1.634   5.288
 8252SOL    HW125655   3.272   1.679   5.210
 8252SOL    HW225656   3.393   1.690   5.319
 8253SOL     OW25657   4.729   4.294   5.467
 8253SOL    HW125658   4.750   4.306   5.564
 8253SOL    HW225659   4.811   4.267   5.417
 8254SOL     OW25660   4.701   4.651   5.031
 8254SOL    HW125661   4.796   4.665   5.058
 8254SOL    HW225662   4.650   4.736   5.046
 8255SOL     OW25663   2.445   6.840   4.704
 8255SOL    HW125664   2.456   6.796   4.614
 8255SOL    HW225665   2.535   6.861   4.742
 8256SOL     OW25666   6.313   0.061   2.335
 8256SOL    HW125667   6.233   0.082   2.392
 8256SOL    HW225668   6.340   6.983   2.350
 8257SOL     OW25669   6.122   3.742   3.605
 8257SOL    HW125670   6.102   3.835   3.634
 8257SOL    HW225671   6.118   3.680   3.684
 8258SOL     OW25672   5.548   2.091   0.713
 8258SOL    HW125673   5.465   2.035   0.707
 8258SOL    HW225674   5.560   2.143   0.628
 8259SOL     OW25675   4.256   2.221   3.462
 8259SOL    HW125676   4.344   2.189   3.427
 8259SOL    HW225677   4.211   2.148   3.512
 8260SOL     OW25678   2.954   6.424   1.490
 8260SOL    HW125679   2.924   6.518   1.504
 8260SOL    HW225680   2.999   6.416   1.401
 8261SOL     OW25681   5.891   0.590   1.899
 8261SOL    HW125682   5.797   0.557   1.912
 8261SOL    HW225683   5.954   0.513   1.909
 8262SOL     OW25684   0.447   3.122   6.974
 8262SOL    HW125685   0.471   3.139   0.052
 8262SOL    HW225686   0.368   3.060   6.970
 8263SOL     OW25687   1.605   2.471   6.808
 8263SOL    HW125688   1.677   2.411   6.774
 8263SOL    HW225689   1.516   2.431   6.787
 8264SOL     OW25690   2.833   6.080   2.721
 8264SOL    HW125691   2.818   6.002   2.781
 8264SOL    HW225692   2.915   6.130   2.751
 8265SOL     OW25693   1.021   6.912   0.810
 8265SOL    HW125694   0.961   6.832   0.817
 8265SOL    HW225695   0.973   6.987   0.766
 8266SOL     OW25696   2.327   1.042   3.376
 8266SOL    HW125697   2.323   1.100   3.295
 8266SOL    HW225698   2.237   1.039   3.420
 8267SOL     OW25699   1.170   2.804   1.308
 8267SOL    HW125700   1.266   2.798   1.338
 8267SOL    HW225701   1.123   2.719   1.331
 8268SOL     OW25702   1.661   6.594   5.746
 8268SOL    HW125703   1.604   6.663   5.791
 8268SOL    HW225704   1.752   6.631   5.729
 8269SOL     OW25705   4.027   2.112   2.144
 8269SOL    HW125706   3.977   2.052   2.082
 8269SOL    HW225707   4.117   2.132   2.106
 8270SOL     OW25708   2.791   6.545   5.610
 8270SOL    HW125709   2.877   6.584   5.575
 8270SOL    HW225710   2.717   6.566   5.546
 8271SOL     OW25711   6.436   0.178   3.174
 8271SOL    HW125712   6.459   0.160   3.078
 8271SOL    HW225713   6.513   0.224   3.219
 8272SOL     OW25714   4.897   1.815   2.044
 8272SOL    HW125715   4.846   1.823   1.958
 8272SOL    HW225716   4.867   1.887   2.106
 8273SOL     OW25717   3.211   0.268   0.495
 8273SOL    HW125718   3.116   0.285   0.472
 8273SOL    HW225719   3.253   0.353   0.527
 8274SOL     OW25720   4.963   5.065   3.368
 8274SOL    HW125721   5.033   5.136   3.373
 8274SOL    HW225722   4.994   4.984   3.417
 8275SOL     OW25723   5.150   1.204   5.731
 8275SOL    HW125724   5.112   1.215   5.823
 8275SOL    HW225725   5.079   1.225   5.664
 8276SOL     OW25726   0.779   1.968   3.747
 8276SOL    HW125727   0.779   1.986   3.845
 8276SOL    HW225728   0.785   1.870   3.730
 8277SOL     OW25729   0.017   0.060   0.018
 8277SOL    HW125730   0.063   0.005   0.089
 8277SOL    HW225731   0.022   0.012   6.948
 8278SOL     OW25732   2.441   2.002   5.553
 8278SOL    HW125733   2.489   2.007   5.465
 8278SOL    HW225734   2.343   1.997   5.537
 8279SOL     OW25735   1.594   6.997   4.585
 8279SOL    HW125736   1.647   6.928   4.538
 8279SOL    HW225737   1.499   6.968   4.593
 8280SOL     OW25738   2.032   3.889   0.606
 8280SOL    HW125739   1.967   3.936   0.666
 8280SOL    HW225740   2.017   3.917   0.512
 8281SOL     OW25741   2.757   4.783   1.828
 8281SOL    HW125742   2.674   4.820   1.871
 8281SOL    HW225743   2.811   4.734   1.897
 8282SOL     OW25744   5.060   3.530   0.120
 8282SOL    HW125745   4.985   3.469   0.093
 8282SOL    HW225746   5.147   3.483   0.107
 8283SOL     OW25747   1.318   5.201   6.673
 8283SOL    HW125748   1.257   5.239   6.741
 8283SOL    HW225749   1.411   5.234   6.689
 8284SOL     OW25750   0.782   3.759   0.732
 8284SOL    HW125751   0.812   3.710   0.649
 8284SOL    HW225752   0.862   3.796   0.778
 8285SOL     OW25753   2.857   3.578   4.194
 8285SOL    HW125754   2.819   3.495   4.236
 8285SOL    HW225755   2.957   3.572   4.193
 8286SOL     OW25756   6.176   2.612   5.939
 8286SOL    HW125757   6.207   2.671   5.865
 8286SOL    HW225758   6.211   2.647   6.026
 8287SOL     OW25759   1.981   5.526   3.891
 8287SOL    HW125760   1.956   5.617   3.922
 8287SOL    HW225761   1.993   5.466   3.971
 8288SOL     OW25762   3.300   1.770   1.795
 8288SOL    HW125763   3.231   1.718   1.845
 8288SOL    HW225764   3.299   1.865   1.826
 8289SOL     OW25765   0.667   5.473   0.925
 8289SOL    HW125766   0.639   5.497   1.017
 8289SOL    HW225767   0.587   5.470   0.865
 8290SOL     OW25768   6.271   1.287   1.407
 8290SOL    HW125769   6.277   1.195   1.367
 8290SOL    HW225770   6.315   1.352   1.346
 8291SOL     OW25771   5.175   6.348   5.708
 8291SOL    HW125772   5.153   6.255   5.677
 8291SOL    HW225773   5.111   6.413   5.666
 8292SOL     OW25774   2.748   6.523   0.055
 8292SOL    HW125775   2.686   6.574   7.011
 8292SOL    HW225776   2.718   6.535   0.149
 8293SOL     OW25777   3.460   6.287   6.893
 8293SOL    HW125778   3.468   6.384   6.915
 8293SOL    HW225779   3.405   6.242   6.962
 8294SOL     OW25780   5.463   3.969   4.588
 8294SOL    HW125781   5.426   4.034   4.655
 8294SOL    HW225782   5.535   4.014   4.535
 8295SOL     OW25783   5.635   5.131   1.476
 8295SOL    HW125784   5.703   5.138   1.403
 8295SOL    HW225785   5.639   5.213   1.534
 8296SOL     OW25786   1.267   5.231   6.390
 8296SOL    HW125787   1.271   5.236   6.490
 8296SOL    HW225788   1.344   5.176   6.356
 8297SOL     OW25789   6.278   2.831   2.329
 8297SOL    HW125790   6.232   2.861   2.413
 8297SOL    HW225791   6.361   2.885   2.315
 8298SOL     OW25792   6.313   1.461   1.186
 8298SOL    HW125793   6.310   1.528   1.112
 8298SOL    HW225794   6.305   1.369   1.149
 8299SOL     OW25795   6.714   2.980   1.588
 8299SOL    HW125796   6.654   3.037   1.531
 8299SOL    HW225797   6.664   2.948   1.668
 8300SOL     OW25798   0.383   5.766   4.457
 8300SOL    HW125799   0.298   5.808   4.488
 8300SOL    HW225800   0.461   5.812   4.500
 8301SOL     OW25801   4.045   1.827   1.570
 8301SOL    HW125802   4.096   1.789   1.493
 8301SOL    HW225803   3.953   1.788   1.572
 8302SOL     OW25804   6.072   6.345   0.129
 8302SOL    HW125805   6.084   6.411   0.202
 8302SOL    HW225806   6.098   6.387   0.041
 8303SOL     OW25807   6.586   0.351   4.045
 8303SOL    HW125808   6.616   0.432   3.996
 8303SOL    HW225809   6.518   0.302   3.990
 8304SOL     OW25810   0.186   3.622   0.879
 8304SOL    HW125811   0.142   3.619   0.789
 8304SOL    HW225812   0.276   3.579   0.873
 8305SOL     OW25813   4.293   4.940   4.521
 8305SOL    HW125814   4.235   4.878   4.467
 8305SOL    HW225815   4.381   4.898   4.538
 8306SOL     OW25816   0.011   2.785   6.266
 8306SOL    HW125817   0.104   2.815   6.289
 8306SOL    HW225818   6.992   2.840   6.191
 8307SOL     OW25819   3.867   5.481   1.492
 8307SOL    HW125820   3.833   5.519   1.406
 8307SOL    HW225821   3.813   5.517   1.568
 8308SOL     OW25822   3.860   5.526   1.210
 8308SOL    HW125823   3.824   5.609   1.252
 8308SOL    HW225824   3.959   5.533   1.198
 8309SOL     OW25825   6.358   5.221   4.080
 8309SOL    HW125826   6.342   5.123   4.069
 8309SOL    HW225827   6.450   5.244   4.048
 8310SOL     OW25828   0.271   4.408   0.539
 8310SOL    HW125829   0.194   4.347   0.557
 8310SOL    HW225830   0.249   4.468   0.462
 8311SOL     OW25831   0.776   2.000   4.023
 8311SOL    HW125832   0.785   1.964   4.115
 8311SOL    HW225833   0.757   2.098   4.027
 8312SOL     OW25834   4.862   0.037   0.098
 8312SOL    HW125835   4.848   6.987   0.024
 8312SOL    HW225836   4.929   0.001   0.163
 8313SOL     OW25837   5.153   0.527   1.917
 8313SOL    HW125838   5.210   0.584   1.857
 8313SOL    HW225839   5.210   0.484   1.987
 8314SOL     OW25840   4.535   0.942   0.417
 8314SOL    HW125841   4.610   0.892   0.373
 8314SOL    HW225842   4.448   0.905   0.387
 8315SOL     OW25843   4.002   3.222   1.211
 8315SOL    HW125844   3.944   3.301   1.229
 8315SOL    HW225845   4.069   3.212   1.284
 8316SOL     OW25846   0.350   2.608   2.275
 8316SOL    HW125847   0.288   2.612   2.353
 8316SOL    HW225848   0.336   2.689   2.217
 8317SOL     OW25849   2.298   2.289   2.715
 8317SOL    HW125850   2.214   2.252   2.676
 8317SOL    HW225851   2.367   2.217   2.720
 8318SOL     OW25852   4.570   1.289   4.673
 8318SOL    HW125853   4.584   1.379   4.714
 8318SOL    HW225854   4.546   1.224   4.745
 8319SOL     OW25855   2.516   1.847   6.448
 8319SOL    HW125856   2.466   1.858   6.534
 8319SOL    HW225857   2.573   1.928   6.432
 8320SOL     OW25858   3.129   3.061   1.513
 8320SOL    HW125859   3.151   3.140   1.456
 8320SOL    HW225860   3.182   2.982   1.481
 8321SOL     OW25861   6.745   0.824   0.114
 8321SOL    HW125862   6.705   0.831   0.205
 8321SOL    HW225863   6.836   0.865   0.115
 8322SOL     OW25864   0.349   0.497   0.769
 8322SOL    HW125865   0.397   0.420   0.728
 8322SOL    HW225866   0.300   0.466   0.851
 8323SOL     OW25867   5.776   5.903   2.369
 8323SOL    HW125868   5.808   5.815   2.335
 8323SOL    HW225869   5.810   5.918   2.462
 8324SOL     OW25870   5.419   6.947   1.253
 8324SOL    HW125871   5.324   6.961   1.224
 8324SOL    HW225872   5.476   0.003   1.215
 8325SOL     OW25873   2.748   3.182   5.513
 8325SOL    HW125874   2.654   3.189   5.479
 8325SOL    HW225875   2.802   3.126   5.449
 8326SOL     OW25876   5.202   3.565   6.030
 8326SOL    HW125877   5.298   3.595   6.030
 8326SOL    HW225878   5.160   3.588   6.118
 8327SOL     OW25879   6.312   1.179   6.163
 8327SOL    HW125880   6.402   1.150   6.196
 8327SOL    HW225881   6.253   1.200   6.241
 8328SOL     OW25882   2.332   5.209   5.704
 8328SOL    HW125883   2.368   5.140   5.641
 8328SOL    HW225884   2.405   5.240   5.765
 8329SOL     OW25885   0.977   3.323   6.233
 8329SOL    HW125886   1.000   3.419   6.245
 8329SOL    HW225887   0.934   3.310   6.143
 8330SOL     OW25888   2.958   0.368   0.476
 8330SOL    HW125889   2.931   0.323   0.391
 8330SOL    HW225890   2.916   0.459   0.480
 8331SOL     OW25891   3.034   1.764   1.625
 8331SOL    HW125892   2.953   1.713   1.652
 8331SOL    HW225893   3.103   1.758   1.698
 8332SOL     OW25894   5.081   5.270   2.348
 8332SOL    HW125895   5.175   5.240   2.362
 8332SOL    HW225896   5.045   5.228   2.264
 8333SOL     OW25897   0.547   6.629   6.101
 8333SOL    HW125898   0.646   6.615   6.109
 8333SOL    HW225899   0.509   6.560   6.040
 8334SOL     OW25900   4.131   1.769   4.222
 8334SOL    HW125901   4.116   1.820   4.138
 8334SOL    HW225902   4.229   1.763   4.240
 8335SOL     OW25903   6.331   6.131   6.713
 8335SOL    HW125904   6.233   6.140   6.693
 8335SOL    HW225905   6.343   6.115   6.811
 8336SOL     OW25906   6.151   6.160   3.113
 8336SOL    HW125907   6.248   6.185   3.112
 8336SOL    HW225908   6.124   6.138   3.207
 8337SOL     OW25909   1.160   6.171   2.632
 8337SOL    HW125910   1.100   6.248   2.611
 8337SOL    HW225911   1.245   6.205   2.673
 8338SOL     OW25912   2.215   5.369   1.829
 8338SOL    HW125913   2.259   5.432   1.766
 8338SOL    HW225914   2.285   5.312   1.874
 8339SOL     OW25915   5.710   0.317   1.391
 8339SOL    HW125916   5.804   0.289   1.370
 8339SOL    HW225917   5.702   0.339   1.488
 8340SOL     OW25918   5.005   3.109   1.524
 8340SOL    HW125919   5.102   3.133   1.521
 8340SOL    HW225920   4.994   3.012   1.503
 8341SOL     OW25921   1.642   6.210   0.036
 8341SOL    HW125922   1.740   6.228   0.025
 8341SOL    HW225923   1.630   6.124   0.085
 8342SOL     OW25924   4.328   0.107   1.862
 8342SOL    HW125925   4.364   0.123   1.954
 8342SOL    HW225926   4.314   0.195   1.816
 8343SOL     OW25927   1.192   5.451   6.095
 8343SOL    HW125928   1.268   5.393   6.125
 8343SOL    HW225929   1.164   5.510   6.170
 8344SOL     OW25930   4.541   6.840   4.814
 8344SOL    HW125931   4.523   6.908   4.744
 8344SOL    HW225932   4.639   6.821   4.818
 8345SOL     OW25933   4.814   1.766   3.387
 8345SOL    HW125934   4.851   1.694   3.328
 8345SOL    HW225935   4.887   1.829   3.413
 8346SOL     OW25936   2.704   4.318   0.629
 8346SOL    HW125937   2.725   4.324   0.727
 8346SOL    HW225938   2.620   4.265   0.617
 8347SOL     OW25939   3.426   5.279   5.051
 8347SOL    HW125940   3.353   5.248   4.990
 8347SOL    HW225941   3.453   5.372   5.026
 8348SOL     OW25942   1.678   6.796   2.448
 8348SOL    HW125943   1.753   6.848   2.489
 8348SOL    HW225944   1.687   6.700   2.471
 8349SOL     OW25945   5.663   6.559   1.347
 8349SOL    HW125946   5.590   6.502   1.385
 8349SOL    HW225947   5.643   6.655   1.364
 8350SOL     OW25948   4.913   0.446   4.821
 8350SOL    HW125949   4.887   0.541   4.806
 8350SOL    HW225950   4.864   0.387   4.757
 8351SOL     OW25951   4.795   4.641   3.949
 8351SOL    HW125952   4.817   4.644   3.851
 8351SOL    HW225953   4.806   4.732   3.988
 8352SOL     OW25954   0.038   6.365   3.224
 8352SOL    HW125955   0.064   6.461   3.235
 8352SOL    HW225956   0.113   6.306   3.254
 8353SOL     OW25957   6.864   3.818   1.507
 8353SOL    HW125958   6.934   3.747   1.513
 8353SOL    HW225959   6.774   3.776   1.505
 8354SOL     OW25960   3.846   0.200   6.797
 8354SOL    HW125961   3.820   0.104   6.786
 8354SOL    HW225962   3.771   0.250   6.840
 8355SOL     OW25963   2.930   0.913   6.842
 8355SOL    HW125964   2.981   0.967   6.775
 8355SOL    HW225965   2.833   0.909   6.816
 8356SOL     OW25966   1.598   6.327   0.993
 8356SOL    HW125967   1.666   6.393   1.025
 8356SOL    HW225968   1.549   6.289   1.072
 8357SOL     OW25969   3.759   0.628   4.899
 8357SOL    HW125970   3.732   0.702   4.838
 8357SOL    HW225971   3.715   0.639   4.988
 8358SOL     OW25972   1.221   3.926   5.509
 8358SOL    HW125973   1.243   3.912   5.606
 8358SOL    HW225974   1.211   3.837   5.464
 8359SOL     OW25975   2.726   0.014   5.200
 8359SOL    HW125976   2.783   0.005   5.119
 8359SOL    HW225977   2.642   0.063   5.176
 8360SOL     OW25978   3.619   6.186   1.074
 8360SOL    HW125979   3.576   6.096   1.060
 8360SOL    HW225980   3.570   6.235   1.146
 8361SOL     OW25981   3.269   6.414   2.911
 8361SOL    HW125982   3.209   6.482   2.868
 8361SOL    HW225983   3.329   6.460   2.978
 8362SOL     OW25984   3.529   2.443   0.854
 8362SOL    HW125985   3.489   2.437   0.945
 8362SOL    HW225986   3.456   2.436   0.785
 8363SOL     OW25987   0.529   2.640   6.649
 8363SOL    HW125988   0.576   2.720   6.686
 8363SOL    HW225989   0.443   2.626   6.697
 8364SOL     OW25990   0.461   3.236   2.013
 8364SOL    HW125991   0.400   3.166   1.977
 8364SOL    HW225992   0.467   3.313   1.949
 8365SOL     OW25993   2.041   3.908   1.862
 8365SOL    HW125994   2.121   3.943   1.911
 8365SOL    HW225995   2.066   3.823   1.815
 8366SOL     OW25996   2.623   5.922   2.303
 8366SOL    HW125997   2.536   5.956   2.337
 8366SOL    HW225998   2.638   5.956   2.210
 8367SOL     OW25999   3.955   6.066   4.314
 8367SOL    HW126000   4.008   6.130   4.259
 8367SOL    HW226001   4.013   5.989   4.341
 8368SOL     OW26002   2.380   6.567   6.438
 8368SOL    HW126003   2.348   6.621   6.516
 8368SOL    HW226004   2.355   6.471   6.451
 8369SOL     OW26005   2.379   6.852   6.630
 8369SOL    HW126006   2.337   6.766   6.660
 8369SOL    HW226007   2.402   6.846   6.533
 8370SOL     OW26008   2.635   2.399   5.056
 8370SOL    HW126009   2.637   2.497   5.074
 8370SOL    HW226010   2.594   2.352   5.133
 8371SOL     OW26011   2.041   4.866   1.177
 8371SOL    HW126012   2.077   4.802   1.245
 8371SOL    HW226013   2.116   4.900   1.121
 8372SOL     OW26014   0.316   5.651   2.855
 8372SOL    HW126015   0.339   5.707   2.776
 8372SOL    HW226016   0.394   5.594   2.880
 8373SOL     OW26017   1.605   0.436   3.725
 8373SOL    HW126018   1.667   0.358   3.710
 8373SOL    HW226019   1.575   0.473   3.637
 8374SOL     OW26020   0.486   0.919   5.527
 8374SOL    HW126021   0.576   0.959   5.546
 8374SOL    HW226022   0.488   0.875   5.437
 8375SOL     OW26023   4.097   6.924   5.347
 8375SOL    HW126024   4.084   6.831   5.382
 8375SOL    HW226025   4.089   6.923   5.247
 8376SOL     OW26026   1.621   0.571   3.968
 8376SOL    HW126027   1.614   0.507   3.891
 8376SOL    HW226028   1.564   0.651   3.950
 8377SOL     OW26029   5.442   5.974   1.456
 8377SOL    HW126030   5.520   6.037   1.450
 8377SOL    HW226031   5.437   5.934   1.547
 8378SOL     OW26032   3.917   4.900   2.698
 8378SOL    HW126033   3.818   4.910   2.688
 8378SOL    HW226034   3.937   4.854   2.785
 8379SOL     OW26035   6.030   2.395   1.552
 8379SOL    HW126036   6.085   2.423   1.631
 8379SOL    HW226037   6.026   2.295   1.549
 8380SOL     OW26038   6.977   0.565   2.472
 8380SOL    HW126039   0.060   0.567   2.470
 8380SOL    HW226040   6.943   0.631   2.539
 8381SOL     OW26041   0.181   3.155   4.795
 8381SOL    HW126042   0.118   3.141   4.871
 8381SOL    HW226043   0.275   3.162   4.830
 8382SOL     OW26044   2.368   0.384   2.289
 8382SOL    HW126045   2.314   0.468   2.297
 8382SOL    HW226046   2.409   0.362   2.378
 8383SOL     OW26047   2.338   0.198   6.007
 8383SOL    HW126048   2.378   0.263   5.942
 8383SOL    HW226049   2.338   0.106   5.966
 8384SOL     OW26050   0.122   0.807   0.769
 8384SOL    HW126051   0.211   0.829   0.809
 8384SOL    HW226052   0.064   0.766   0.840
 8385SOL     OW26053   6.236   1.996   1.542
 8385SOL    HW126054   6.295   2.034   1.470
 8385SOL    HW226055   6.293   1.963   1.617
 8386SOL     OW26056   1.091   4.564   2.271
 8386SOL    HW126057   1.166   4.628   2.286
 8386SOL    HW226058   1.126   4.471   2.277
 8387SOL     OW26059   1.973   0.758   2.083
 8387SOL    HW126060   1.878   0.745   2.053
 8387SOL    HW226061   2.035   0.732   2.009
 8388SOL     OW26062   1.750   6.017   0.236
 8388SOL    HW126063   1.823   5.965   0.281
 8388SOL    HW226064   1.672   6.026   0.298
 8389SOL     OW26065   6.341   3.189   2.855
 8389SOL    HW126066   6.346   3.194   2.755
 8389SOL    HW226067   6.390   3.108   2.886
 8390SOL     OW26068   3.887   0.631   6.226
 8390SOL    HW126069   3.862   0.560   6.291
 8390SOL    HW226070   3.881   0.595   6.133
 8391SOL     OW26071   6.559   5.348   0.778
 8391SOL    HW126072   6.570   5.391   0.868
 8391SOL    HW226073   6.610   5.262   0.775
 8392SOL     OW26074   6.556   3.582   4.451
 8392SOL    HW126075   6.600   3.609   4.366
 8392SOL    HW226076   6.620   3.528   4.506
 8393SOL     OW26077   6.315   0.302   2.660
 8393SOL    HW126078   6.305   0.204   2.641
 8393SOL    HW226079   6.252   0.354   2.603
 8394SOL     OW26080   6.424   2.753   1.109
 8394SOL    HW126081   6.366   2.794   1.039
 8394SOL    HW226082   6.373   2.682   1.158
 8395SOL     OW26083   2.706   6.312   5.720
 8395SOL    HW126084   2.790   6.259   5.728
 8395SOL    HW226085   2.728   6.404   5.688
 8396SOL     OW26086   4.689   5.156   3.426
 8396SOL    HW126087   4.657   5.062   3.415
 8396SOL    HW226088   4.789   5.159   3.418
 8397SOL     OW26089   1.284   0.931   2.716
 8397SOL    HW126090   1.264   0.989   2.637
 8397SOL    HW226091   1.277   0.835   2.689
 8398SOL     OW26092   4.591   2.201   6.333
 8398SOL    HW126093   4.657   2.208   6.259
 8398SOL    HW226094   4.499   2.216   6.297
 8399SOL     OW26095   6.241   0.010   6.555
 8399SOL    HW126096   6.155   6.984   6.529
 8399SOL    HW226097   6.316   6.963   6.537
 8400SOL     OW26098   2.276   1.518   4.275
 8400SOL    HW126099   2.264   1.604   4.326
 8400SOL    HW226100   2.370   1.511   4.243
 8401SOL     OW26101   2.378   0.993   5.273
 8401SOL    HW126102   2.310   1.063   5.249
 8401SOL    HW226103   2.371   0.971   5.370
 8402SOL     OW26104   5.408   1.667   6.507
 8402SOL    HW126105   5.471   1.743   6.491
 8402SOL    HW226106   5.454   1.580   6.488
 8403SOL     OW26107   6.723   3.282   4.538
 8403SOL    HW126108   6.671   3.286   4.623
 8403SOL    HW226109   6.821   3.275   4.559
 8404SOL     OW26110   3.779   6.726   5.671
 8404SOL    HW126111   3.775   6.633   5.709
 8404SOL    HW226112   3.737   6.727   5.580
 8405SOL     OW26113   2.263   1.342   5.535
 8405SOL    HW126114   2.213   1.255   5.530
 8405SOL    HW226115   2.230   1.404   5.465
 8406SOL     OW26116   4.316   0.846   0.299
 8406SOL    HW126117   4.282   0.753   0.314
 8406SOL    HW226118   4.338   0.858   0.203
 8407SOL     OW26119   4.026   6.116   3.743
 8407SOL    HW126120   3.933   6.116   3.780
 8407SOL    HW226121   4.037   6.037   3.683
 8408SOL     OW26122   5.702   4.050   0.991
 8408SOL    HW126123   5.786   4.043   0.937
 8408SOL    HW226124   5.630   4.090   0.935
 8409SOL     OW26125   4.866   2.022   3.236
 8409SOL    HW126126   4.903   1.993   3.324
 8409SOL    HW226127   4.942   2.044   3.174
 8410SOL     OW26128   6.123   0.801   0.938
 8410SOL    HW126129   6.171   0.889   0.941
 8410SOL    HW226130   6.072   0.794   0.853
 8411SOL     OW26131   0.617   6.044   0.554
 8411SOL    HW126132   0.668   6.029   0.469
 8411SOL    HW226133   0.550   5.971   0.566
 8412SOL     OW26134   3.416   2.758   1.155
 8412SOL    HW126135   3.471   2.700   1.216
 8412SOL    HW226136   3.320   2.734   1.164
 8413SOL     OW26137   5.103   6.088   6.491
 8413SOL    HW126138   5.031   6.024   6.466
 8413SOL    HW226139   5.089   6.175   6.443
 8414SOL     OW26140   3.110   6.938   3.670
 8414SOL    HW126141   3.121   6.890   3.758
 8414SOL    HW226142   3.060   0.006   3.685
 8415SOL     OW26143   0.874   5.835   4.434
 8415SOL    HW126144   0.908   5.820   4.526
 8415SOL    HW226145   0.939   5.798   4.367
 8416SOL     OW26146   6.660   2.031   3.811
 8416SOL    HW126147   6.722   1.969   3.764
 8416SOL    HW226148   6.566   1.997   3.802
 8417SOL     OW26149   0.898   3.351   5.834
 8417SOL    HW126150   0.895   3.433   5.892
 8417SOL    HW226151   0.896   3.379   5.738
 8418SOL     OW26152   6.617   5.522   1.253
 8418SOL    HW126153   6.592   5.608   1.297
 8418SOL    HW226154   6.646   5.456   1.323
 8419SOL     OW26155   5.529   0.081   2.283
 8419SOL    HW126156   5.621   0.045   2.270
 8419SOL    HW226157   5.477   0.072   2.197
 8420SOL     OW26158   4.445   0.466   1.120
 8420SOL    HW126159   4.379   0.412   1.172
 8420SOL    HW226160   4.405   0.554   1.097
 8421SOL     OW26161   3.284   4.866   0.345
 8421SOL    HW126162   3.269   4.775   0.307
 8421SOL    HW226163   3.197   4.914   0.353
 8422SOL     OW26164   4.422   1.277   2.219
 8422SOL    HW126165   4.427   1.371   2.252
 8422SOL    HW226166   4.338   1.264   2.165
 8423SOL     OW26167   4.294   4.374   6.294
 8423SOL    HW126168   4.302   4.402   6.198
 8423SOL    HW226169   4.381   4.394   6.341
 8424SOL     OW26170   1.569   1.978   2.786
 8424SOL    HW126171   1.617   2.065   2.788
 8424SOL    HW226172   1.636   1.903   2.785
 8425SOL     OW26173   4.083   3.908   6.230
 8425SOL    HW126174   4.023   3.989   6.229
 8425SOL    HW226175   4.175   3.935   6.257
 8426SOL     OW26176   3.644   3.176   2.710
 8426SOL    HW126177   3.627   3.253   2.770
 8426SOL    HW226178   3.582   3.180   2.631
 8427SOL     OW26179   3.530   4.103   3.542
 8427SOL    HW126180   3.431   4.107   3.533
 8427SOL    HW226181   3.555   4.029   3.605
 8428SOL     OW26182   6.846   6.199   1.125
 8428SOL    HW126183   6.913   6.273   1.116
 8428SOL    HW226184   6.875   6.122   1.069
 8429SOL     OW26185   1.626   5.795   5.754
 8429SOL    HW126186   1.703   5.812   5.815
 8429SOL    HW226187   1.545   5.770   5.808
 8430SOL     OW26188   3.614   4.972   3.918
 8430SOL    HW126189   3.579   5.004   3.830
 8430SOL    HW226190   3.541   4.928   3.969
 8431SOL     OW26191   3.988   3.913   0.104
 8431SOL    HW126192   4.061   3.920   0.172
 8431SOL    HW226193   3.903   3.946   0.144
 8432SOL     OW26194   6.532   5.664   5.261
 8432SOL    HW126195   6.438   5.685   5.287
 8432SOL    HW226196   6.552   5.569   5.285
 8433SOL     OW26197   4.078   3.143   0.113
 8433SOL    HW126198   4.131   3.084   0.174
 8433SOL    HW226199   4.019   3.203   0.167
 8434SOL     OW26200   2.812   0.328   4.349
 8434SOL    HW126201   2.832   0.230   4.353
 8434SOL    HW226202   2.842   0.364   4.260
 8435SOL     OW26203   5.591   6.983   2.692
 8435SOL    HW126204   5.545   0.018   2.621
 8435SOL    HW226205   5.683   6.958   2.662
 8436SOL     OW26206   3.318   6.643   3.681
 8436SOL    HW126207   3.274   6.687   3.604
 8436SOL    HW226208   3.252   6.583   3.727
 8437SOL     OW26209   2.107   1.774   3.254
 8437SOL    HW126210   2.118   1.686   3.207
 8437SOL    HW226211   2.056   1.836   3.195
 8438SOL     OW26212   2.419   4.415   3.012
 8438SOL    HW126213   2.493   4.466   2.968
 8438SOL    HW226214   2.425   4.427   3.111
 8439SOL     OW26215   6.244   4.647   2.325
 8439SOL    HW126216   6.261   4.666   2.422
 8439SOL    HW226217   6.272   4.554   2.304
 8440SOL     OW26218   3.078   1.878   3.342
 8440SOL    HW126219   3.154   1.857   3.281
 8440SOL    HW226220   3.058   1.976   3.338
 8441SOL     OW26221   5.476   6.499   0.013
 8441SOL    HW126222   5.478   6.509   6.931
 8441SOL    HW226223   5.470   6.402   0.036
 8442SOL     OW26224   3.942   2.014   5.706
 8442SOL    HW126225   3.913   1.989   5.613
 8442SOL    HW226226   4.033   1.976   5.723
 8443SOL     OW26227   2.500   4.538   3.542
 8443SOL    HW126228   2.468   4.468   3.606
 8443SOL    HW226229   2.500   4.627   3.588
 8444SOL     OW26230   3.100   6.519   4.340
 8444SOL    HW126231   3.178   6.520   4.278
 8444SOL    HW226232   3.129   6.553   4.430
 8445SOL     OW26233   2.523   0.103   0.930
 8445SOL    HW126234   2.549   0.133   0.838
 8445SOL    HW226235   2.495   0.183   0.984
 8446SOL     OW26236   5.880   5.292   5.855
 8446SOL    HW126237   5.824   5.357   5.907
 8446SOL    HW226238   5.937   5.342   5.790
 8447SOL     OW26239   4.657   1.386   1.551
 8447SOL    HW126240   4.719   1.400   1.473
 8447SOL    HW226241   4.563   1.389   1.519
 8448SOL     OW26242   4.436   6.071   3.404
 8448SOL    HW126243   4.434   6.036   3.310
 8448SOL    HW226244   4.442   6.171   3.402
 8449SOL     OW26245   0.148   3.252   3.158
 8449SOL    HW126246   0.093   3.204   3.226
 8449SOL    HW226247   0.200   3.185   3.104
 8450SOL     OW26248   0.721   0.821   1.504
 8450SOL    HW126249   0.746   0.806   1.599
 8450SOL    HW226250   0.794   0.873   1.458
 8451SOL     OW26251   3.470   1.454   6.904
 8451SOL    HW126252   3.548   1.429   6.961
 8451SOL    HW226253   3.409   1.375   6.896
 8452SOL     OW26254   6.181   2.952   3.711
 8452SOL    HW126255   6.124   3.034   3.716
 8452SOL    HW226256   6.277   2.978   3.718
 8453SOL     OW26257   0.270   5.351   0.084
 8453SOL    HW126258   0.269   5.448   0.059
 8453SOL    HW226259   0.300   5.341   0.179
 8454SOL     OW26260   0.328   5.480   1.102
 8454SOL    HW126261   0.338   5.566   1.152
 8454SOL    HW226262   0.407   5.421   1.121
 8455SOL     OW26263   0.499   2.009   1.854
 8455SOL    HW126264   0.581   2.067   1.848
 8455SOL    HW226265   0.474   1.996   1.950
 8456SOL     OW26266   4.582   6.701   3.218
 8456SOL    HW126267   4.585   6.687   3.119
 8456SOL    HW226268   4.580   6.799   3.237
 8457SOL     OW26269   6.831   6.564   4.089
 8457SOL    HW126270   6.823   6.654   4.133
 8457SOL    HW226271   6.923   6.527   4.105
 8458SOL     OW26272   2.483   0.653   0.279
 8458SOL    HW126273   2.551   0.719   0.312
 8458SOL    HW226274   2.506   0.624   0.186
 8459SOL     OW26275   2.848   5.747   2.075
 8459SOL    HW126276   2.793   5.675   2.118
 8459SOL    HW226277   2.794   5.830   2.068
 8460SOL     OW26278   4.660   4.253   5.053
 8460SOL    HW126279   4.612   4.233   5.138
 8460SOL    HW226280   4.697   4.169   5.014
 8461SOL     OW26281   0.888   3.137   4.509
 8461SOL    HW126282   0.816   3.160   4.575
 8461SOL    HW226283   0.900   3.038   4.507
 8462SOL     OW26284   2.036   2.948   6.768
 8462SOL    HW126285   2.104   2.884   6.733
 8462SOL    HW226286   1.947   2.904   6.770
 8463SOL     OW26287   0.047   0.205   1.761
 8463SOL    HW126288   0.035   0.278   1.828
 8463SOL    HW226289   7.011   0.225   1.679
 8464SOL     OW26290   5.080   4.825   4.546
 8464SOL    HW126291   5.007   4.889   4.571
 8464SOL    HW226292   5.130   4.861   4.467
 8465SOL     OW26293   0.736   2.817   0.551
 8465SOL    HW126294   0.818   2.862   0.517
 8465SOL    HW226295   0.717   2.847   0.645
 8466SOL     OW26296   0.830   6.807   3.979
 8466SOL    HW126297   0.837   6.898   4.021
 8466SOL    HW226298   0.920   6.779   3.946
 8467SOL     OW26299   3.015   5.986   0.455
 8467SOL    HW126300   2.972   5.968   0.544
 8467SOL    HW226301   2.947   6.027   0.393
 8468SOL     OW26302   3.290   1.476   0.300
 8468SOL    HW126303   3.370   1.528   0.327
 8468SOL    HW226304   3.298   1.382   0.333
 8469SOL     OW26305   3.176   3.048   0.200
 8469SOL    HW126306   3.256   2.995   0.230
 8469SOL    HW226307   3.095   3.016   0.249
 8470SOL     OW26308   1.728   3.797   0.583
 8470SOL    HW126309   1.733   3.721   0.647
 8470SOL    HW226310   1.805   3.793   0.519
 8471SOL     OW26311   2.952   1.450   2.316
 8471SOL    HW126312   2.987   1.411   2.402
 8471SOL    HW226313   2.853   1.462   2.323
 8472SOL     OW26314   0.652   0.244   4.108
 8472SOL    HW126315   0.663   0.331   4.157
 8472SOL    HW226316   0.581   0.254   4.039
 8473SOL     OW26317   6.687   5.441   6.823
 8473SOL    HW126318   6.711   5.419   6.917
 8473SOL    HW226319   6.735   5.524   6.794
 8474SOL     OW26320   3.412   2.936   2.207
 8474SOL    HW126321   3.324   2.979   2.189
 8474SOL    HW226322   3.418   2.910   2.303
 8475SOL     OW26323   0.470   1.159   3.073
 8475SOL    HW126324   0.489   1.140   2.976
 8475SOL    HW226325   0.458   1.258   3.085
 8476SOL     OW26326   6.730   1.036   0.990
 8476SOL    HW126327   6.798   1.071   1.054
 8476SOL    HW226328   6.659   1.105   0.975
 8477SOL     OW26329   3.707   6.164   1.942
 8477SOL    HW126330   3.793   6.112   1.950
 8477SOL    HW226331   3.706   6.235   2.012
 8478SOL     OW26332   1.546   0.307   5.806
 8478SOL    HW126333   1.637   0.278   5.834
 8478SOL    HW226334   1.521   0.265   5.719
 8479SOL     OW26335   6.193   2.982   1.160
 8479SOL    HW126336   6.185   2.892   1.117
 8479SOL    HW226337   6.240   3.045   1.098
 8480SOL     OW26338   3.466   0.808   0.535
 8480SOL    HW126339   3.418   0.876   0.591
 8480SOL    HW226340   3.559   0.795   0.571
 8481SOL     OW26341   4.104   1.549   3.845
 8481SOL    HW126342   4.152   1.623   3.891
 8481SOL    HW226343   4.138   1.541   3.751
 8482SOL     OW26344   3.584   0.029   2.833
 8482SOL    HW126345   3.587   0.082   2.918
 8482SOL    HW226346   3.611   6.951   2.852
 8483SOL     OW26347   4.110   5.765   1.939
 8483SOL    HW126348   4.207   5.747   1.928
 8483SOL    HW226349   4.091   5.860   1.916
 8484SOL     OW26350   6.981   5.233   3.024
 8484SOL    HW126351   6.951   5.290   2.947
 8484SOL    HW226352   6.903   5.216   3.085
 8485SOL     OW26353   2.804   3.500   6.298
 8485SOL    HW126354   2.717   3.463   6.265
 8485SOL    HW226355   2.832   3.450   6.380
 8486SOL     OW26356   4.847   1.422   3.284
 8486SOL    HW126357   4.935   1.401   3.328
 8486SOL    HW226358   4.857   1.504   3.228
 8487SOL     OW26359   5.524   0.578   0.371
 8487SOL    HW126360   5.514   0.479   0.360
 8487SOL    HW226361   5.617   0.600   0.399
 8488SOL     OW26362   5.649   4.970   4.867
 8488SOL    HW126363   5.734   4.973   4.814
 8488SOL    HW226364   5.653   5.040   4.938
 8489SOL     OW26365   6.689   0.632   1.504
 8489SOL    HW126366   6.690   0.711   1.443
 8489SOL    HW226367   6.595   0.597   1.512
 8490SOL     OW26368   4.012   6.591   4.193
 8490SOL    HW126369   3.931   6.610   4.249
 8490SOL    HW226370   3.998   6.506   4.143
 8491SOL     OW26371   1.986   0.179   1.695
 8491SOL    HW126372   2.051   0.188   1.619
 8491SOL    HW226373   1.988   0.261   1.751
 8492SOL     OW26374   4.548   4.244   6.508
 8492SOL    HW126375   4.516   4.159   6.550
 8492SOL    HW226376   4.616   4.223   6.438
 8493SOL     OW26377   3.014   1.822   6.133
 8493SOL    HW126378   2.921   1.820   6.096
 8493SOL    HW226379   3.031   1.911   6.177
 8494SOL     OW26380   2.610   4.663   0.415
 8494SOL    HW126381   2.617   4.620   0.505
 8494SOL    HW226382   2.694   4.715   0.396
 8495SOL     OW26383   6.613   3.734   0.182
 8495SOL    HW126384   6.525   3.729   0.229
 8495SOL    HW226385   6.680   3.679   0.231
 8496SOL     OW26386   0.518   1.848   1.636
 8496SOL    HW126387   0.617   1.840   1.621
 8496SOL    HW226388   0.501   1.890   1.725
 8497SOL     OW26389   6.465   0.404   4.454
 8497SOL    HW126390   6.413   0.320   4.442
 8497SOL    HW226391   6.537   0.410   4.385
 8498SOL     OW26392   0.296   6.007   2.824
 8498SOL    HW126393   0.295   6.088   2.883
 8498SOL    HW226394   0.391   5.985   2.801
 8499SOL     OW26395   2.095   5.541   6.716
 8499SOL    HW126396   2.032   5.562   6.790
 8499SOL    HW226397   2.068   5.456   6.671
 8500SOL     OW26398   1.661   0.723   5.896
 8500SOL    HW126399   1.671   0.675   5.983
 8500SOL    HW226400   1.677   0.821   5.909
 8501SOL     OW26401   1.012   2.618   0.572
 8501SOL    HW126402   1.013   2.710   0.533
 8501SOL    HW226403   0.918   2.590   0.589
 8502SOL     OW26404   1.752   4.838   1.159
 8502SOL    HW126405   1.687   4.819   1.232
 8502SOL    HW226406   1.845   4.822   1.192
 8503SOL     OW26407   1.118   5.721   2.942
 8503SOL    HW126408   1.086   5.811   2.913
 8503SOL    HW226409   1.179   5.731   3.021
 8504SOL     OW26410   2.047   6.189   3.803
 8504SOL    HW126411   2.126   6.129   3.813
 8504SOL    HW226412   2.078   6.283   3.788
 8505SOL     OW26413   4.861   3.886   3.945
 8505SOL    HW126414   4.817   3.975   3.952
 8505SOL    HW226415   4.807   3.818   3.995
 8506SOL     OW26416   6.993   0.675   0.947
 8506SOL    HW126417   6.925   0.603   0.934
 8506SOL    HW226418   6.968   0.731   1.026
 8507SOL     OW26419   3.268   0.897   5.472
 8507SOL    HW126420   3.308   0.807   5.490
 8507SOL    HW226421   3.307   0.964   5.536
 8508SOL     OW26422   6.675   2.427   4.586
 8508SOL    HW126423   6.742   2.361   4.550
 8508SOL    HW226424   6.671   2.507   4.526
 8509SOL     OW26425   5.336   1.377   3.972
 8509SOL    HW126426   5.275   1.318   4.025
 8509SOL    HW226427   5.330   1.471   4.006
 8510SOL     OW26428   5.351   4.557   3.156
 8510SOL    HW126429   5.446   4.560   3.127
 8510SOL    HW226430   5.307   4.475   3.118
 8511SOL     OW26431   5.722   3.437   1.452
 8511SOL    HW126432   5.803   3.380   1.436
 8511SOL    HW226433   5.672   3.403   1.531
 8512SOL     OW26434   2.518   2.437   0.488
 8512SOL    HW126435   2.461   2.364   0.524
 8512SOL    HW226436   2.609   2.433   0.529
 8513SOL     OW26437   4.617   3.813   1.409
 8513SOL    HW126438   4.686   3.877   1.373
 8513SOL    HW226439   4.631   3.723   1.368
 8514SOL     OW26440   2.746   2.358   3.654
 8514SOL    HW126441   2.712   2.425   3.720
 8514SOL    HW226442   2.709   2.381   3.563
 8515SOL     OW26443   6.260   0.806   6.769
 8515SOL    HW126444   6.289   0.746   6.844
 8515SOL    HW226445   6.244   0.752   6.687
 8516SOL     OW26446   6.674   2.591   1.710
 8516SOL    HW126447   6.669   2.572   1.808
 8516SOL    HW226448   6.767   2.617   1.686
 8517SOL     OW26449   2.106   2.358   5.806
 8517SOL    HW126450   2.062   2.334   5.719
 8517SOL    HW226451   2.080   2.451   5.832
 8518SOL     OW26452   4.775   4.430   5.983
 8518SOL    HW126453   4.778   4.493   6.061
 8518SOL    HW226454   4.822   4.346   6.007
 8519SOL     OW26455   1.476   5.271   1.637
 8519SOL    HW126456   1.382   5.266   1.603
 8519SOL    HW226457   1.539   5.274   1.559
 8520SOL     OW26458   3.081   2.836   6.728
 8520SOL    HW126459   3.011   2.862   6.796
 8520SOL    HW226460   3.147   2.910   6.719
 8521SOL     OW26461   2.132   5.164   5.878
 8521SOL    HW126462   2.210   5.171   5.815
 8521SOL    HW226463   2.162   5.189   5.970
 8522SOL     OW26464   0.674   0.155   1.379
 8522SOL    HW126465   0.735   0.076   1.390
 8522SOL    HW226466   0.583   0.131   1.412
 8523SOL     OW26467   2.125   6.283   6.802
 8523SOL    HW126468   2.067   6.316   6.727
 8523SOL    HW226469   2.167   6.197   6.775
 8524SOL     OW26470   0.449   3.029   5.827
 8524SOL    HW126471   0.375   2.969   5.856
 8524SOL    HW226472   0.535   2.978   5.825
 8525SOL     OW26473   6.502   5.273   1.797
 8525SOL    HW126474   6.470   5.179   1.808
 8525SOL    HW226475   6.425   5.331   1.772
 8526SOL     OW26476   3.555   6.235   0.814
 8526SOL    HW126477   3.457   6.243   0.793
 8526SOL    HW226478   3.568   6.236   0.913
 8527SOL     OW26479   2.830   1.172   6.774
 8527SOL    HW126480   2.747   1.226   6.789
 8527SOL    HW226481   2.843   1.110   6.852
 8528SOL     OW26482   4.080   1.220   6.836
 8528SOL    HW126483   4.163   1.257   6.878
 8528SOL    HW226484   4.024   1.176   6.906
 8529SOL     OW26485   1.047   0.595   0.890
 8529SOL    HW126486   1.075   0.679   0.935
 8529SOL    HW226487   0.998   0.617   0.806
 8530SOL     OW26488   4.272   3.855   5.328
 8530SOL    HW126489   4.256   3.943   5.372
 8530SOL    HW226490   4.217   3.849   5.245
 8531SOL     OW26491   0.256   5.104   2.626
 8531SOL    HW126492   0.214   5.146   2.545
 8531SOL    HW226493   0.350   5.077   2.605
 8532SOL     OW26494   4.378   5.380   4.464
 8532SOL    HW126495   4.392   5.283   4.445
 8532SOL    HW226496   4.321   5.420   4.392
 8533SOL     OW26497   1.943   5.755   0.233
 8533SOL    HW126498   1.923   5.723   0.325
 8533SOL    HW226499   2.037   5.790   0.228
 8534SOL     OW26500   5.458   2.255   4.609
 8534SOL    HW126501   5.499   2.294   4.692
 8534SOL    HW226502   5.378   2.201   4.633
 8535SOL     OW26503   5.947   1.189   3.442
 8535SOL    HW126504   5.926   1.243   3.523
 8535SOL    HW226505   5.998   1.107   3.468
 8536SOL     OW26506   0.024   1.573   4.687
 8536SOL    HW126507   0.038   1.550   4.591
 8536SOL    HW226508   0.011   1.671   4.697
 8537SOL     OW26509   5.252   0.793   3.217
 8537SOL    HW126510   5.301   0.853   3.154
 8537SOL    HW226511   5.234   0.842   3.303
 8538SOL     OW26512   1.774   0.859   0.392
 8538SOL    HW126513   1.791   0.838   0.488
 8538SOL    HW226514   1.846   0.919   0.358
 8539SOL     OW26515   6.493   0.983   3.021
 8539SOL    HW126516   6.414   1.031   2.982
 8539SOL    HW226517   6.506   1.012   3.116
 8540SOL     OW26518   5.610   0.122   6.329
 8540SOL    HW126519   5.552   0.043   6.349
 8540SOL    HW226520   5.670   0.101   6.252
 8541SOL     OW26521   3.246   2.160   3.482
 8541SOL    HW126522   3.331   2.138   3.435
 8541SOL    HW226523   3.177   2.188   3.416
 8542SOL     OW26524   4.069   5.195   6.214
 8542SOL    HW126525   4.141   5.132   6.242
 8542SOL    HW226526   4.010   5.151   6.146
 8543SOL     OW26527   2.177   2.009   1.272
 8543SOL    HW126528   2.092   1.957   1.268
 8543SOL    HW226529   2.184   2.066   1.189
 8544SOL     OW26530   5.484   3.556   4.128
 8544SOL    HW126531   5.580   3.535   4.111
 8544SOL    HW226532   5.477   3.636   4.188
 8545SOL     OW26533   4.115   0.433   5.415
 8545SOL    HW126534   4.133   0.344   5.375
 8545SOL    HW226535   4.074   0.493   5.346
 8546SOL     OW26536   5.621   2.158   4.378
 8546SOL    HW126537   5.713   2.172   4.414
 8546SOL    HW226538   5.554   2.186   4.446
 8547SOL     OW26539   1.100   6.579   5.912
 8547SOL    HW126540   1.097   6.596   6.010
 8547SOL    HW226541   1.007   6.581   5.875
 8548SOL     OW26542   6.170   2.760   5.695
 8548SOL    HW126543   6.150   2.817   5.616
 8548SOL    HW226544   6.230   2.685   5.668
 8549SOL     OW26545   0.605   3.454   4.061
 8549SOL    HW126546   0.607   3.485   4.156
 8549SOL    HW226547   0.697   3.465   4.022
 8550SOL     OW26548   1.959   4.967   6.981
 8550SOL    HW126549   1.929   5.001   6.892
 8550SOL    HW226550   2.056   4.943   6.977
 8551SOL     OW26551   3.760   3.934   5.828
 8551SOL    HW126552   3.692   3.860   5.830
 8551SOL    HW226553   3.785   3.954   5.734
 8552SOL     OW26554   2.695   6.421   3.562
 8552SOL    HW126555   2.648   6.507   3.543
 8552SOL    HW226556   2.687   6.361   3.482
 8553SOL     OW26557   4.954   5.143   5.784
 8553SOL    HW126558   4.946   5.099   5.873
 8553SOL    HW226559   4.991   5.235   5.795
 8554SOL     OW26560   0.824   5.180   0.248
 8554SOL    HW126561   0.731   5.153   0.270
 8554SOL    HW226562   0.862   5.116   0.181
 8555SOL     OW26563   0.997   6.988   2.863
 8555SOL    HW126564   1.021   0.034   2.789
 8555SOL    HW226565   0.968   0.023   2.943
 8556SOL     OW26566   0.689   6.592   4.106
 8556SOL    HW126567   0.740   6.667   4.065
 8556SOL    HW226568   0.752   6.527   4.148
 8557SOL     OW26569   6.194   0.536   2.583
 8557SOL    HW126570   6.191   0.595   2.664
 8557SOL    HW226571   6.186   0.592   2.500
 8558SOL     OW26572   2.640   5.680   3.487
 8558SOL    HW126573   2.731   5.679   3.445
 8558SOL    HW226574   2.613   5.774   3.508
 8559SOL     OW26575   6.393   0.890   2.514
 8559SOL    HW126576   6.297   0.916   2.504
 8559SOL    HW226577   6.433   0.871   2.424
 8560SOL     OW26578   0.235   6.586   1.786
 8560SOL    HW126579   0.280   6.672   1.760
 8560SOL    HW226580   0.180   6.601   1.868
 8561SOL     OW26581   3.666   6.571   1.869
 8561SOL    HW126582   3.624   6.543   1.955
 8561SOL    HW226583   3.734   6.503   1.842
 8562SOL     OW26584   5.013   6.333   4.778
 8562SOL    HW126585   4.958   6.315   4.859
 8562SOL    HW226586   4.988   6.422   4.741
 8563SOL     OW26587   2.771   4.638   6.764
 8563SOL    HW126588   2.801   4.733   6.765
 8563SOL    HW226589   2.700   4.626   6.695
 8564SOL     OW26590   2.780   1.204   3.672
 8564SOL    HW126591   2.864   1.182   3.721
 8564SOL    HW226592   2.764   1.137   3.600
 8565SOL     OW26593   4.758   6.286   1.347
 8565SOL    HW126594   4.719   6.373   1.375
 8565SOL    HW226595   4.733   6.267   1.251
 8566SOL     OW26596   1.182   0.591   1.803
 8566SOL    HW126597   1.225   0.677   1.828
 8566SOL    HW226598   1.245   0.515   1.822
 8567SOL     OW26599   6.818   1.198   2.549
 8567SOL    HW126600   6.837   1.188   2.451
 8567SOL    HW226601   6.727   1.162   2.569
 8568SOL     OW26602   5.097   1.293   5.978
 8568SOL    HW126603   5.045   1.365   6.025
 8568SOL    HW226604   5.184   1.279   6.024
 8569SOL     OW26605   5.137   1.595   5.545
 8569SOL    HW126606   5.073   1.646   5.603
 8569SOL    HW226607   5.115   1.613   5.449
 8570SOL     OW26608   1.136   2.467   5.268
 8570SOL    HW126609   1.047   2.505   5.290
 8570SOL    HW226610   1.183   2.527   5.203
 8571SOL     OW26611   0.795   5.457   6.045
 8571SOL    HW126612   0.789   5.555   6.065
 8571SOL    HW226613   0.706   5.424   6.013
 8572SOL     OW26614   3.227   5.090   6.228
 8572SOL    HW126615   3.259   5.184   6.233
 8572SOL    HW226616   3.134   5.085   6.265
 8573SOL     OW26617   3.558   0.134   6.231
 8573SOL    HW126618   3.540   0.082   6.314
 8573SOL    HW226619   3.548   0.232   6.250
 8574SOL     OW26620   0.167   5.791   5.822
 8574SOL    HW126621   0.237   5.720   5.809
 8574SOL    HW226622   0.086   5.769   5.768
 8575SOL     OW26623   3.146   2.755   6.251
 8575SOL    HW126624   3.099   2.819   6.189
 8575SOL    HW226625   3.090   2.741   6.332
 8576SOL     OW26626   0.952   6.274   0.395
 8576SOL    HW126627   1.001   6.348   0.442
 8576SOL    HW226628   0.951   6.291   0.297
 8577SOL     OW26629   6.781   5.487   4.248
 8577SOL    HW126630   6.692   5.503   4.204
 8577SOL    HW226631   6.826   5.575   4.264
 8578SOL     OW26632   4.745   0.466   4.563
 8578SOL    HW126633   4.798   0.391   4.523
 8578SOL    HW226634   4.731   0.537   4.494
 8579SOL     OW26635   1.607   6.319   3.636
 8579SOL    HW126636   1.552   6.317   3.719
 8579SOL    HW226637   1.573   6.250   3.572
 8580SOL     OW26638   2.077   6.726   2.284
 8580SOL    HW126639   2.055   6.816   2.245
 8580SOL    HW226640   2.167   6.697   2.252
 8581SOL     OW26641   3.415   3.018   1.723
 8581SOL    HW126642   3.344   2.990   1.658
 8581SOL    HW226643   3.416   2.955   1.801
 8582SOL     OW26644   4.236   4.945   2.026
 8582SOL    HW126645   4.224   4.851   1.996
 8582SOL    HW226646   4.146   4.984   2.048
 8583SOL     OW26647   5.608   0.907   5.774
 8583SOL    HW126648   5.522   0.933   5.817
 8583SOL    HW226649   5.652   0.989   5.737
 8584SOL     OW26650   0.129   3.809   6.124
 8584SOL    HW126651   0.102   3.904   6.140
 8584SOL    HW226652   0.220   3.794   6.161
 8585SOL     OW26653   0.139   6.769   5.895
 8585SOL    HW126654   0.054   6.788   5.845
 8585SOL    HW226655   0.169   6.675   5.876
 8586SOL     OW26656   2.710   6.890   3.836
 8586SOL    HW126657   2.617   6.912   3.808
 8586SOL    HW226658   2.750   6.969   3.883
 8587SOL     OW26659   1.629   0.364   2.866
 8587SOL    HW126660   1.649   0.462   2.868
 8587SOL    HW226661   1.530   0.350   2.861
 8588SOL     OW26662   2.432   0.764   6.667
 8588SOL    HW126663   2.396   0.856   6.678
 8588SOL    HW226664   2.358   0.701   6.643
 8589SOL     OW26665   4.625   2.726   4.315
 8589SOL    HW126666   4.560   2.677   4.256
 8589SOL    HW226667   4.590   2.726   4.409
 8590SOL     OW26668   6.385   6.173   4.243
 8590SOL    HW126669   6.286   6.188   4.244
 8590SOL    HW226670   6.420   6.192   4.152
 8591SOL     OW26671   1.167   4.888   6.393
 8591SOL    HW126672   1.234   4.819   6.420
 8591SOL    HW226673   1.103   4.903   6.469
 8592SOL     OW26674   6.962   3.838   0.369
 8592SOL    HW126675   6.899   3.872   0.439
 8592SOL    HW226676   0.035   3.880   0.381
 8593SOL     OW26677   1.343   0.337   2.446
 8593SOL    HW126678   1.345   0.419   2.389
 8593SOL    HW226679   1.340   0.256   2.387
 8594SOL     OW26680   3.506   2.962   5.076
 8594SOL    HW126681   3.586   2.903   5.066
 8594SOL    HW226682   3.531   3.056   5.051
 8595SOL     OW26683   2.148   1.690   2.925
 8595SOL    HW126684   2.236   1.647   2.905
 8595SOL    HW226685   2.161   1.788   2.939
 8596SOL     OW26686   6.101   5.786   3.399
 8596SOL    HW126687   6.125   5.784   3.302
 8596SOL    HW226688   6.055   5.873   3.420
 8597SOL     OW26689   4.586   1.916   0.999
 8597SOL    HW126690   4.543   1.943   1.085
 8597SOL    HW226691   4.655   1.983   0.973
 8598SOL     OW26692   6.847   5.750   1.289
 8598SOL    HW126693   6.774   5.777   1.225
 8598SOL    HW226694   6.808   5.697   1.364
 8599SOL     OW26695   0.658   3.000   4.056
 8599SOL    HW126696   0.615   3.082   4.092
 8599SOL    HW226697   0.699   3.020   3.967
 8600SOL     OW26698   5.021   5.147   6.279
 8600SOL    HW126699   4.955   5.204   6.230
 8600SOL    HW226700   5.070   5.089   6.213
 8601SOL     OW26701   1.257   0.628   5.351
 8601SOL    HW126702   1.173   0.576   5.334
 8601SOL    HW226703   1.240   0.725   5.336
 8602SOL     OW26704   3.001   5.905   3.286
 8602SOL    HW126705   3.001   5.962   3.369
 8602SOL    HW226706   3.043   5.956   3.211
 8603SOL     OW26707   3.530   4.750   0.100
 8603SOL    HW126708   3.463   4.750   0.174
 8603SOL    HW226709   3.519   4.667   0.045
 8604SOL     OW26710   0.220   2.913   3.551
 8604SOL    HW126711   0.308   2.934   3.509
 8604SOL    HW226712   0.198   2.982   3.620
 8605SOL     OW26713   3.094   4.831   3.942
 8605SOL    HW126714   3.061   4.925   3.942
 8605SOL    HW226715   3.060   4.784   4.023
 8606SOL     OW26716   2.136   4.402   5.431
 8606SOL    HW126717   2.181   4.486   5.462
 8606SOL    HW226718   2.204   4.341   5.390
 8607SOL     OW26719   3.422   5.210   0.359
 8607SOL    HW126720   3.491   5.151   0.318
 8607SOL    HW226721   3.452   5.241   0.449
 8608SOL     OW26722   4.376   5.013   3.047
 8608SOL    HW126723   4.337   4.970   2.965
 8608SOL    HW226724   4.471   4.983   3.059
 8609SOL     OW26725   4.793   0.759   3.691
 8609SOL    HW126726   4.713   0.758   3.751
 8609SOL    HW226727   4.873   0.729   3.742
 8610SOL     OW26728   1.670   1.023   3.056
 8610SOL    HW126729   1.689   1.051   3.150
 8610SOL    HW226730   1.574   1.044   3.034
 8611SOL     OW26731   2.235   2.518   4.036
 8611SOL    HW126732   2.198   2.469   4.116
 8611SOL    HW226733   2.276   2.452   3.973
 8612SOL     OW26734   2.935   3.448   0.118
 8612SOL    HW126735   2.937   3.417   0.023
 8612SOL    HW226736   2.913   3.371   0.178
 8613SOL     OW26737   2.726   2.393   1.722
 8613SOL    HW126738   2.805   2.403   1.783
 8613SOL    HW226739   2.676   2.480   1.718
 8614SOL     OW26740   0.470   3.216   2.598
 8614SOL    HW126741   0.385   3.222   2.545
 8614SOL    HW226742   0.545   3.188   2.537
 8615SOL     OW26743   5.038   1.656   5.280
 8615SOL    HW126744   4.993   1.610   5.204
 8615SOL    HW226745   4.999   1.747   5.292
 8616SOL     OW26746   2.070   5.186   1.199
 8616SOL    HW126747   2.121   5.137   1.270
 8616SOL    HW226748   1.989   5.133   1.175
 8617SOL     OW26749   6.423   0.954   6.587
 8617SOL    HW126750   6.451   1.042   6.624
 8617SOL    HW226751   6.390   0.896   6.661
 8618SOL     OW26752   5.277   6.825   0.773
 8618SOL    HW126753   5.310   6.736   0.806
 8618SOL    HW226754   5.230   6.812   0.686
 8619SOL     OW26755   3.298   5.205   1.561
 8619SOL    HW126756   3.398   5.192   1.563
 8619SOL    HW226757   3.260   5.180   1.649
 8620SOL     OW26758   6.747   0.030   3.204
 8620SOL    HW126759   6.822   0.087   3.169
 8620SOL    HW226760   6.682   0.088   3.254
 8621SOL     OW26761   6.180   1.840   3.008
 8621SOL    HW126762   6.258   1.779   3.019
 8621SOL    HW226763   6.170   1.896   3.090
 8622SOL     OW26764   4.803   4.038   0.564
 8622SOL    HW126765   4.834   4.016   0.471
 8622SOL    HW226766   4.878   4.022   0.628
 8623SOL     OW26767   0.911   3.955   3.491
 8623SOL    HW126768   0.899   3.856   3.478
 8623SOL    HW226769   0.883   4.003   3.408
 8624SOL     OW26770   1.217   3.918   3.589
 8624SOL    HW126771   1.140   3.981   3.578
 8624SOL    HW226772   1.219   3.884   3.683
 8625SOL     OW26773   4.818   6.771   4.787
 8625SOL    HW126774   4.848   6.866   4.789
 8625SOL    HW226775   4.899   6.711   4.788
 8626SOL     OW26776   3.736   2.784   5.112
 8626SOL    HW126777   3.770   2.870   5.151
 8626SOL    HW226778   3.767   2.776   5.017
 8627SOL     OW26779   0.607   0.534   3.463
 8627SOL    HW126780   0.674   0.574   3.525
 8627SOL    HW226781   0.629   0.562   3.369
 8628SOL     OW26782   6.216   6.885   1.377
 8628SOL    HW126783   6.186   6.964   1.324
 8628SOL    HW226784   6.305   6.905   1.418
 8629SOL     OW26785   1.404   5.551   5.291
 8629SOL    HW126786   1.376   5.560   5.386
 8629SOL    HW226787   1.359   5.621   5.236
 8630SOL     OW26788   5.841   4.083   4.508
 8630SOL    HW126789   5.834   3.999   4.562
 8630SOL    HW226790   5.759   4.093   4.453
 8631SOL     OW26791   3.257   5.547   6.315
 8631SOL    HW126792   3.306   5.462   6.295
 8631SOL    HW226793   3.173   5.526   6.366
 8632SOL     OW26794   3.353   6.468   4.226
 8632SOL    HW126795   3.341   6.392   4.162
 8632SOL    HW226796   3.421   6.444   4.295
 8633SOL     OW26797   5.085   1.219   4.916
 8633SOL    HW126798   5.014   1.168   4.867
 8633SOL    HW226799   5.094   1.182   5.009
 8634SOL     OW26800   5.743   3.058   0.506
 8634SOL    HW126801   5.650   3.050   0.541
 8634SOL    HW226802   5.807   3.069   0.582
 8635SOL     OW26803   6.001   4.189   6.308
 8635SOL    HW126804   5.912   4.223   6.338
 8635SOL    HW226805   6.047   4.259   6.254
 8636SOL     OW26806   5.345   5.901   0.015
 8636SOL    HW126807   5.253   5.926   7.001
 8636SOL    HW226808   5.412   5.946   6.973
 8637SOL     OW26809   1.966   1.039   0.302
 8637SOL    HW126810   2.050   1.038   0.248
 8637SOL    HW226811   1.986   1.062   0.397
 8638SOL     OW26812   1.968   3.197   6.706
 8638SOL    HW126813   1.999   3.104   6.723
 8638SOL    HW226814   1.878   3.210   6.746
 8639SOL     OW26815   6.093   1.901   1.880
 8639SOL    HW126816   6.066   1.819   1.829
 8639SOL    HW226817   6.104   1.977   1.816
 8640SOL     OW26818   4.501   3.852   0.372
 8640SOL    HW126819   4.409   3.824   0.344
 8640SOL    HW226820   4.527   3.935   0.323
 8641SOL     OW26821   6.463   4.660   4.145
 8641SOL    HW126822   6.471   4.619   4.054
 8641SOL    HW226823   6.554   4.664   4.187
 8642SOL     OW26824   3.959   1.085   2.221
 8642SOL    HW126825   4.052   1.050   2.207
 8642SOL    HW226826   3.923   1.121   2.135
 8643SOL     OW26827   3.947   0.133   0.157
 8643SOL    HW126828   3.900   0.196   0.096
 8643SOL    HW226829   4.003   0.070   0.104
 8644SOL     OW26830   4.818   2.421   5.856
 8644SOL    HW126831   4.861   2.337   5.891
 8644SOL    HW226832   4.869   2.501   5.888
 8645SOL     OW26833   5.208   4.263   1.513
 8645SOL    HW126834   5.286   4.200   1.515
 8645SOL    HW226835   5.179   4.277   1.419
 8646SOL     OW26836   6.711   1.716   1.151
 8646SOL    HW126837   6.792   1.658   1.159
 8646SOL    HW226838   6.667   1.724   1.240
 8647SOL     OW26839   2.492   5.125   6.306
 8647SOL    HW126840   2.452   5.213   6.279
 8647SOL    HW226841   2.581   5.140   6.348
 8648SOL     OW26842   5.997   0.809   4.251
 8648SOL    HW126843   5.929   0.805   4.178
 8648SOL    HW226844   6.087   0.830   4.213
 8649SOL     OW26845   5.726   4.782   6.678
 8649SOL    HW126846   5.752   4.686   6.674
 8649SOL    HW226847   5.734   4.823   6.587
 8650SOL     OW26848   1.557   4.335   5.622
 8650SOL    HW126849   1.588   4.367   5.533
 8650SOL    HW226850   1.588   4.397   5.693
 8651SOL     OW26851   3.576   0.478   0.611
 8651SOL    HW126852   3.476   0.482   0.602
 8651SOL    HW226853   3.609   0.564   0.651
 8652SOL     OW26854   1.213   3.846   3.080
 8652SOL    HW126855   1.282   3.905   3.123
 8652SOL    HW226856   1.144   3.903   3.035
 8653SOL     OW26857   6.101   1.491   5.611
 8653SOL    HW126858   6.010   1.528   5.631
 8653SOL    HW226859   6.121   1.501   5.513
 8654SOL     OW26860   1.503   5.865   1.874
 8654SOL    HW126861   1.511   5.770   1.904
 8654SOL    HW226862   1.528   5.871   1.777
 8655SOL     OW26863   5.843   0.913   4.029
 8655SOL    HW126864   5.795   0.877   3.949
 8655SOL    HW226865   5.792   0.991   4.066
 8656SOL     OW26866   6.559   0.798   0.895
 8656SOL    HW126867   6.634   0.856   0.926
 8656SOL    HW226868   6.525   0.831   0.807
 8657SOL     OW26869   4.538   4.890   6.710
 8657SOL    HW126870   4.509   4.984   6.691
 8657SOL    HW226871   4.635   4.888   6.732
 8658SOL     OW26872   4.203   6.279   0.068
 8658SOL    HW126873   4.145   6.345   0.116
 8658SOL    HW226874   4.297   6.314   0.066
 8659SOL     OW26875   4.310   1.321   3.468
 8659SOL    HW126876   4.402   1.358   3.459
 8659SOL    HW226877   4.290   1.261   3.391
 8660SOL     OW26878   5.560   3.559   0.851
 8660SOL    HW126879   5.615   3.588   0.929
 8660SOL    HW226880   5.463   3.559   0.876
 8661SOL     OW26881   6.029   3.968   1.186
 8661SOL    HW126882   5.991   3.983   1.278
 8661SOL    HW226883   5.959   3.926   1.128
 8662SOL     OW26884   5.053   5.685   1.468
 8662SOL    HW126885   4.964   5.640   1.478
 8662SOL    HW226886   5.098   5.651   1.385
 8663SOL     OW26887   2.384   6.212   1.037
 8663SOL    HW126888   2.379   6.312   1.029
 8663SOL    HW226889   2.301   6.172   0.998
 8664SOL     OW26890   3.466   5.952   1.019
 8664SOL    HW126891   3.425   5.943   0.929
 8664SOL    HW226892   3.515   5.868   1.043
 8665SOL     OW26893   5.689   5.796   5.337
 8665SOL    HW126894   5.613   5.744   5.298
 8665SOL    HW226895   5.669   5.894   5.331
 8666SOL     OW26896   4.929   1.730   4.986
 8666SOL    HW126897   5.025   1.760   4.988
 8666SOL    HW226898   4.886   1.761   4.901
 8667SOL     OW26899   4.751   2.357   3.064
 8667SOL    HW126900   4.727   2.376   2.968
 8667SOL    HW226901   4.713   2.268   3.090
 8668SOL     OW26902   5.693   3.042   3.039
 8668SOL    HW126903   5.714   3.022   2.943
 8668SOL    HW226904   5.637   3.125   3.044
 8669SOL     OW26905   2.639   6.327   6.891
 8669SOL    HW126906   2.687   6.353   6.975
 8669SOL    HW226907   2.657   6.394   6.819
 8670SOL     OW26908   3.827   4.459   5.731
 8670SOL    HW126909   3.919   4.480   5.763
 8670SOL    HW226910   3.832   4.418   5.640
 8671SOL     OW26911   5.620   1.953   3.318
 8671SOL    HW126912   5.563   1.877   3.351
 8671SOL    HW226913   5.713   1.920   3.303
 8672SOL     OW26914   2.586   5.243   3.806
 8672SOL    HW126915   2.561   5.158   3.760
 8672SOL    HW226916   2.633   5.303   3.742
 8673SOL     OW26917   6.670   1.937   6.656
 8673SOL    HW126918   6.704   1.918   6.748
 8673SOL    HW226919   6.708   1.870   6.592
 8674SOL     OW26920   6.002   5.771   1.766
 8674SOL    HW126921   5.969   5.680   1.790
 8674SOL    HW226922   6.097   5.766   1.735
 8675SOL     OW26923   3.756   2.066   5.016
 8675SOL    HW126924   3.666   2.074   4.974
 8675SOL    HW226925   3.827   2.085   4.949
 8676SOL     OW26926   4.088   6.707   2.946
 8676SOL    HW126927   4.177   6.662   2.942
 8676SOL    HW226928   4.015   6.640   2.932
 8677SOL     OW26929   2.358   6.364   5.450
 8677SOL    HW126930   2.336   6.328   5.540
 8677SOL    HW226931   2.439   6.317   5.414
 8678SOL     OW26932   0.149   0.449   0.954
 8678SOL    HW126933   0.106   0.365   0.918
 8678SOL    HW226934   0.085   0.525   0.945
 8679SOL     OW26935   6.454   3.116   4.525
 8679SOL    HW126936   6.449   3.198   4.468
 8679SOL    HW226937   6.418   3.038   4.475
 8680SOL     OW26938   0.520   4.461   1.500
 8680SOL    HW126939   0.584   4.404   1.553
 8680SOL    HW226940   0.443   4.405   1.471
 8681SOL     OW26941   4.565   5.228   6.714
 8681SOL    HW126942   4.633   5.259   6.648
 8681SOL    HW226943   4.515   5.307   6.750
 8682SOL     OW26944   4.442   6.669   1.607
 8682SOL    HW126945   4.387   6.596   1.648
 8682SOL    HW226946   4.407   6.757   1.637
 8683SOL     OW26947   1.455   2.288   2.353
 8683SOL    HW126948   1.516   2.212   2.330
 8683SOL    HW226949   1.482   2.325   2.442
 8684SOL     OW26950   0.851   2.809   5.068
 8684SOL    HW126951   0.895   2.899   5.067
 8684SOL    HW226952   0.757   2.818   5.102
 8685SOL     OW26953   0.791   2.626   5.714
 8685SOL    HW126954   0.765   2.532   5.696
 8685SOL    HW226955   0.878   2.646   5.669
 8686SOL     OW26956   0.191   1.662   1.183
 8686SOL    HW126957   0.146   1.617   1.106
 8686SOL    HW226958   0.286   1.682   1.159
 8687SOL     OW26959   3.538   5.740   2.902
 8687SOL    HW126960   3.635   5.761   2.915
 8687SOL    HW226961   3.497   5.717   2.990
 8688SOL     OW26962   3.431   6.780   6.807
 8688SOL    HW126963   3.333   6.789   6.823
 8688SOL    HW226964   3.447   6.751   6.713
 8689SOL     OW26965   3.330   4.499   1.012
 8689SOL    HW126966   3.244   4.448   1.008
 8689SOL    HW226967   3.381   4.484   0.928
 8690SOL     OW26968   2.224   2.448   2.923
 8690SOL    HW126969   2.269   2.393   2.853
 8690SOL    HW226970   2.254   2.543   2.915
 8691SOL     OW26971   3.482   2.207   6.685
 8691SOL    HW126972   3.421   2.244   6.755
 8691SOL    HW226973   3.524   2.282   6.634
 8692SOL     OW26974   3.539   2.105   3.123
 8692SOL    HW126975   3.509   2.074   3.213
 8692SOL    HW226976   3.639   2.110   3.121
 8693SOL     OW26977   6.370   1.266   0.573
 8693SOL    HW126978   6.379   1.358   0.609
 8693SOL    HW226979   6.282   1.257   0.525
 8694SOL     OW26980   3.519   1.349   4.992
 8694SOL    HW126981   3.528   1.316   5.086
 8694SOL    HW226982   3.607   1.339   4.945
 8695SOL     OW26983   4.339   2.998   6.293
 8695SOL    HW126984   4.430   3.039   6.278
 8695SOL    HW226985   4.278   3.025   6.219
 8696SOL     OW26986   2.892   5.896   0.682
 8696SOL    HW126987   2.893   5.845   0.768
 8696SOL    HW226988   2.838   5.846   0.614
 8697SOL     OW26989   6.384   3.215   6.941
 8697SOL    HW126990   6.462   3.275   6.958
 8697SOL    HW226991   6.355   3.224   6.845
 8698SOL     OW26992   5.828   5.708   4.331
 8698SOL    HW126993   5.841   5.714   4.232
 8698SOL    HW226994   5.801   5.615   4.356
 8699SOL     OW26995   2.020   2.756   5.591
 8699SOL    HW126996   1.971   2.672   5.568
 8699SOL    HW226997   2.112   2.733   5.624
 8700SOL     OW26998   1.249   0.958   4.630
 8700SOL    HW126999   1.187   1.035   4.613
 8700SOL    HW227000   1.309   0.945   4.551
 8701SOL     OW27001   1.359   0.370   6.926
 8701SOL    HW127002   1.308   0.308   6.987
 8701SOL    HW227003   1.457   0.358   6.942
 8702SOL     OW27004   5.442   4.560   0.591
 8702SOL    HW127005   5.518   4.513   0.635
 8702SOL    HW227006   5.401   4.501   0.522
 8703SOL     OW27007   2.933   5.543   1.106
 8703SOL    HW127008   2.926   5.620   1.042
 8703SOL    HW227009   2.978   5.574   1.190
 8704SOL     OW27010   6.604   3.541   3.034
 8704SOL    HW127011   6.548   3.557   3.116
 8704SOL    HW227012   6.684   3.601   3.037
 8705SOL     OW27013   5.351   0.611   0.644
 8705SOL    HW127014   5.411   0.532   0.628
 8705SOL    HW227015   5.393   0.670   0.713
 8706SOL     OW27016   4.855   1.967   6.274
 8706SOL    HW127017   4.777   1.958   6.212
 8706SOL    HW227018   4.847   1.900   6.348
 8707SOL     OW27019   6.239   2.337   6.968
 8707SOL    HW127020   6.229   2.279   0.032
 8707SOL    HW227021   6.174   2.413   6.973
 8708SOL     OW27022   4.143   1.925   2.381
 8708SOL    HW127023   4.084   2.000   2.354
 8708SOL    HW227024   4.108   1.885   2.467
 8709SOL     OW27025   6.729   5.937   6.579
 8709SOL    HW127026   6.788   5.894   6.511
 8709SOL    HW227027   6.640   5.956   6.538
 8710SOL     OW27028   2.033   3.338   3.649
 8710SOL    HW127029   2.090   3.421   3.644
 8710SOL    HW227030   2.001   3.315   3.558
 8711SOL     OW27031   0.831   5.721   2.828
 8711SOL    HW127032   0.784   5.773   2.757
 8711SOL    HW227033   0.822   5.623   2.809
 8712SOL     OW27034   3.986   2.067   4.834
 8712SOL    HW127035   4.026   2.005   4.902
 8712SOL    HW227036   4.051   2.139   4.812
 8713SOL     OW27037   0.340   3.957   3.636
 8713SOL    HW127038   0.418   3.928   3.582
 8713SOL    HW227039   0.360   3.945   3.733
 8714SOL     OW27040   1.042   1.398   6.186
 8714SOL    HW127041   1.012   1.431   6.276
 8714SOL    HW227042   1.052   1.475   6.123
 8715SOL     OW27043   5.131   0.308   0.771
 8715SOL    HW127044   5.048   0.260   0.744
 8715SOL    HW227045   5.157   0.373   0.700
 8716SOL     OW27046   0.778   0.050   0.979
 8716SOL    HW127047   0.688   0.018   1.008
 8716SOL    HW227048   0.829   6.991   0.940
 8717SOL     OW27049   3.762   3.513   3.494
 8717SOL    HW127050   3.759   3.498   3.593
 8717SOL    HW227051   3.687   3.464   3.450
 8718SOL     OW27052   0.241   3.577   4.456
 8718SOL    HW127053   0.218   3.561   4.552
 8718SOL    HW227054   0.300   3.503   4.423
 8719SOL     OW27055   2.121   0.058   6.424
 8719SOL    HW127056   2.204   0.056   6.480
 8719SOL    HW227057   2.145   0.042   6.328
 8720SOL     OW27058   6.578   4.712   5.360
 8720SOL    HW127059   6.498   4.763   5.393
 8720SOL    HW227060   6.616   4.658   5.436
 8721SOL     OW27061   6.153   2.028   3.204
 8721SOL    HW127062   6.223   2.029   3.276
 8721SOL    HW227063   6.168   2.104   3.141
 8722SOL     OW27064   4.210   1.110   0.164
 8722SOL    HW127065   4.120   1.142   0.192
 8722SOL    HW227066   4.256   1.068   0.242
 8723SOL     OW27067   4.857   5.331   1.219
 8723SOL    HW127068   4.784   5.279   1.176
 8723SOL    HW227069   4.859   5.310   1.317
 8724SOL     OW27070   6.106   6.983   5.817
 8724SOL    HW127071   6.052   0.048   5.834
 8724SOL    HW227072   6.178   6.975   5.886
 8725SOL     OW27073   2.135   0.348   6.668
 8725SOL    HW127074   2.233   0.335   6.677
 8725SOL    HW227075   2.111   0.360   6.572
 8726SOL     OW27076   6.100   0.622   1.644
 8726SOL    HW127077   6.059   0.668   1.723
 8726SOL    HW227078   6.051   0.649   1.561
 8727SOL     OW27079   6.819   6.361   1.966
 8727SOL    HW127080   6.808   6.270   1.925
 8727SOL    HW227081   6.748   6.376   2.034
 8728SOL     OW27082   3.892   0.442   4.345
 8728SOL    HW127083   3.986   0.416   4.367
 8728SOL    HW227084   3.856   0.382   4.273
 8729SOL     OW27085   4.638   5.611   3.400
 8729SOL    HW127086   4.662   5.705   3.377
 8729SOL    HW227087   4.682   5.587   3.487
 8730SOL     OW27088   6.639   4.316   2.517
 8730SOL    HW127089   6.662   4.223   2.544
 8730SOL    HW227090   6.720   4.362   2.480
 8731SOL     OW27091   1.877   2.533   2.459
 8731SOL    HW127092   1.955   2.595   2.463
 8731SOL    HW227093   1.798   2.576   2.505
 8732SOL     OW27094   5.667   3.953   1.749
 8732SOL    HW127095   5.693   4.050   1.752
 8732SOL    HW227096   5.723   3.902   1.814
 8733SOL     OW27097   2.039   5.806   2.477
 8733SOL    HW127098   2.045   5.855   2.564
 8733SOL    HW227099   1.972   5.732   2.485
 8734SOL     OW27100   0.989   4.526   1.825
 8734SOL    HW127101   0.970   4.520   1.923
 8734SOL    HW227102   1.086   4.541   1.811
 8735SOL     OW27103   0.894   1.873   6.912
 8735SOL    HW127104   0.850   1.862   6.823
 8735SOL    HW227105   0.833   1.922   6.974
 8736SOL     OW27106   0.414   6.511   5.910
 8736SOL    HW127107   0.319   6.505   5.880
 8736SOL    HW227108   0.460   6.423   5.895
 8737SOL     OW27109   2.093   6.817   6.016
 8737SOL    HW127110   2.126   6.802   5.923
 8737SOL    HW227111   2.086   6.729   6.064
 8738SOL     OW27112   2.118   5.615   4.574
 8738SOL    HW127113   2.179   5.551   4.620
 8738SOL    HW227114   2.024   5.581   4.578
 8739SOL     OW27115   6.071   5.359   6.054
 8739SOL    HW127116   6.008   5.311   5.994
 8739SOL    HW227117   6.020   5.428   6.106
 8740SOL     OW27118   4.996   0.801   4.927
 8740SOL    HW127119   4.978   0.786   5.024
 8740SOL    HW227120   5.079   0.751   4.900
 8741SOL     OW27121   2.630   0.925   1.837
 8741SOL    HW127122   2.620   0.990   1.912
 8741SOL    HW227123   2.561   0.944   1.767
 8742SOL     OW27124   5.527   6.226   1.826
 8742SOL    HW127125   5.441   6.176   1.835
 8742SOL    HW227126   5.603   6.165   1.850
 8743SOL     OW27127   1.645   0.452   2.359
 8743SOL    HW127128   1.656   0.355   2.378
 8743SOL    HW227129   1.725   0.485   2.308
 8744SOL     OW27130   3.557   2.635   6.271
 8744SOL    HW127131   3.625   2.564   6.256
 8744SOL    HW227132   3.466   2.600   6.247
 8745SOL     OW27133   6.183   3.096   5.769
 8745SOL    HW127134   6.111   3.035   5.740
 8745SOL    HW227135   6.191   3.173   5.705
 8746SOL     OW27136   4.926   3.840   5.159
 8746SOL    HW127137   4.878   3.761   5.122
 8746SOL    HW227138   5.020   3.814   5.181
 8747SOL     OW27139   0.099   2.404   2.708
 8747SOL    HW127140   0.066   2.485   2.757
 8747SOL    HW227141   0.199   2.400   2.716
 8748SOL     OW27142   0.723   1.511   5.780
 8748SOL    HW127143   0.807   1.466   5.812
 8748SOL    HW227144   0.679   1.455   5.710
 8749SOL     OW27145   2.669   0.439   6.557
 8749SOL    HW127146   2.647   0.483   6.644
 8749SOL    HW227147   2.587   0.393   6.522
 8750SOL     OW27148   3.241   3.237   5.644
 8750SOL    HW127149   3.338   3.221   5.626
 8750SOL    HW227150   3.186   3.176   5.587
 8751SOL     OW27151   6.368   0.159   2.911
 8751SOL    HW127152   6.357   0.244   2.859
 8751SOL    HW227153   6.444   0.106   2.872
 8752SOL     OW27154   2.753   5.063   6.683
 8752SOL    HW127155   2.673   5.112   6.716
 8752SOL    HW227156   2.798   5.016   6.759
 8753SOL     OW27157   4.689   1.737   5.114
 8753SOL    HW127158   4.772   1.724   5.060
 8753SOL    HW227159   4.713   1.750   5.210
 8754SOL     OW27160   1.114   2.292   5.038
 8754SOL    HW127161   1.073   2.354   4.971
 8754SOL    HW227162   1.142   2.344   5.119
 8755SOL     OW27163   2.486   1.142   6.426
 8755SOL    HW127164   2.406   1.196   6.398
 8755SOL    HW227165   2.508   1.161   6.522
 8756SOL     OW27166   1.954   3.409   3.356
 8756SOL    HW127167   1.947   3.508   3.345
 8756SOL    HW227168   1.988   3.369   3.270
 8757SOL     OW27169   5.334   6.565   5.837
 8757SOL    HW127170   5.351   6.654   5.794
 8757SOL    HW227171   5.279   6.509   5.775
 8758SOL     OW27172   4.738   6.596   1.867
 8758SOL    HW127173   4.766   6.575   1.960
 8758SOL    HW227174   4.707   6.691   1.862
 8759SOL     OW27175   3.757   2.522   6.981
 8759SOL    HW127176   3.796   2.491   6.895
 8759SOL    HW227177   3.674   2.576   6.962
 8760SOL     OW27178   1.616   1.594   4.903
 8760SOL    HW127179   1.611   1.500   4.869
 8760SOL    HW227180   1.711   1.617   4.922
 8761SOL     OW27181   4.659   1.445   2.010
 8761SOL    HW127182   4.611   1.450   1.922
 8761SOL    HW227183   4.680   1.350   2.031
 8762SOL     OW27184   0.624   4.244   2.331
 8762SOL    HW127185   0.586   4.292   2.252
 8762SOL    HW227186   0.626   4.307   2.410
 8763SOL     OW27187   5.765   5.989   5.790
 8763SOL    HW127188   5.856   5.954   5.767
 8763SOL    HW227189   5.765   6.026   5.883
 8764SOL     OW27190   4.715   1.029   4.503
 8764SOL    HW127191   4.745   0.996   4.413
 8764SOL    HW227192   4.777   1.100   4.535
 8765SOL     OW27193   6.067   6.490   4.985
 8765SOL    HW127194   6.165   6.482   4.963
 8765SOL    HW227195   6.042   6.416   5.048
 8766SOL     OW27196   4.022   5.138   2.953
 8766SOL    HW127197   4.113   5.176   2.940
 8766SOL    HW227198   4.022   5.042   2.928
 8767SOL     OW27199   3.852   7.004   3.045
 8767SOL    HW127200   3.896   0.047   2.978
 8767SOL    HW227201   3.753   7.016   3.041
 8768SOL     OW27202   0.783   3.347   0.561
 8768SOL    HW127203   0.706   3.291   0.532
 8768SOL    HW227204   0.839   3.294   0.626
 8769SOL     OW27205   1.672   7.017   3.923
 8769SOL    HW127206   1.664   6.949   3.850
 8769SOL    HW227207   1.617   6.987   4.002
 8770SOL     OW27208   5.105   3.449   2.079
 8770SOL    HW127209   5.029   3.513   2.069
 8770SOL    HW227210   5.111   3.391   1.997
 8771SOL     OW27211   1.031   0.384   5.764
 8771SOL    HW127212   1.042   0.475   5.803
 8771SOL    HW227213   1.115   0.331   5.778
 8772SOL     OW27214   5.573   6.743   6.705
 8772SOL    HW127215   5.631   6.821   6.683
 8772SOL    HW227216   5.622   6.683   6.768
 8773SOL     OW27217   4.547   2.549   4.080
 8773SOL    HW127218   4.485   2.612   4.033
 8773SOL    HW227219   4.505   2.458   4.085
 8774SOL     OW27220   2.407   1.812   0.544
 8774SOL    HW127221   2.458   1.821   0.458
 8774SOL    HW227222   2.464   1.767   0.613
 8775SOL     OW27223   6.631   0.198   5.383
 8775SOL    HW127224   6.731   0.195   5.371
 8775SOL    HW227225   6.606   0.142   5.462
 8776SOL     OW27226   3.220   4.128   4.233
 8776SOL    HW127227   3.126   4.152   4.256
 8776SOL    HW227228   3.256   4.064   4.301
 8777SOL     OW27229   0.177   4.107   1.553
 8777SOL    HW127230   0.140   4.086   1.462
 8777SOL    HW227231   0.114   4.073   1.623
 8778SOL     OW27232   5.805   1.931   4.595
 8778SOL    HW127233   5.865   1.911   4.672
 8778SOL    HW227234   5.832   2.018   4.554
 8779SOL     OW27235   2.939   5.145   1.823
 8779SOL    HW127236   2.963   5.068   1.764
 8779SOL    HW227237   2.959   5.230   1.775
 8780SOL     OW27238   1.300   5.359   3.487
 8780SOL    HW127239   1.268   5.453   3.472
 8780SOL    HW227240   1.388   5.362   3.535
 8781SOL     OW27241   6.320   1.658   4.074
 8781SOL    HW127242   6.389   1.675   4.004
 8781SOL    HW227243   6.331   1.565   4.110
 8782SOL     OW27244   5.266   0.295   1.819
 8782SOL    HW127245   5.361   0.296   1.852
 8782SOL    HW227246   5.215   0.367   1.866
 8783SOL     OW27247   6.625   4.528   3.723
 8783SOL    HW127248   6.618   4.433   3.751
 8783SOL    HW227249   6.698   4.538   3.655
 8784SOL     OW27250   5.846   3.994   5.943
 8784SOL    HW127251   5.773   4.038   5.995
 8784SOL    HW227252   5.806   3.939   5.869
 8785SOL     OW27253   6.713   3.530   6.606
 8785SOL    HW127254   6.790   3.572   6.557
 8785SOL    HW227255   6.731   3.433   6.619
 8786SOL     OW27256   2.566   6.397   0.453
 8786SOL    HW127257   2.483   6.364   0.407
 8786SOL    HW227258   2.545   6.478   0.507
 8787SOL     OW27259   1.963   2.947   2.316
 8787SOL    HW127260   1.938   2.977   2.408
 8787SOL    HW227261   2.055   2.979   2.294
 8788SOL     OW27262   6.976   2.190   5.590
 8788SOL    HW127263   6.968   2.264   5.656
 8788SOL    HW227264   6.938   2.220   5.502
 8789SOL     OW27265   6.093   6.812   5.504
 8789SOL    HW127266   6.075   6.897   5.454
 8789SOL    HW227267   6.008   6.763   5.521
 8790SOL     OW27268   0.173   1.147   0.065
 8790SOL    HW127269   0.158   1.243   0.042
 8790SOL    HW227270   0.261   1.136   0.109
 8791SOL     OW27271   5.490   6.881   4.974
 8791SOL    HW127272   5.561   6.838   5.030
 8791SOL    HW227273   5.416   6.913   5.033
 8792SOL     OW27274   3.678   6.122   3.874
 8792SOL    HW127275   3.716   6.038   3.835
 8792SOL    HW227276   3.648   6.182   3.800
 8793SOL     OW27277   1.673   5.703   4.002
 8793SOL    HW127278   1.647   5.676   3.909
 8793SOL    HW227279   1.757   5.757   3.999
 8794SOL     OW27280   4.126   6.892   1.387
 8794SOL    HW127281   4.104   6.970   1.446
 8794SOL    HW227282   4.065   6.816   1.408
 8795SOL     OW27283   1.133   6.702   4.581
 8795SOL    HW127284   1.192   6.624   4.599
 8795SOL    HW227285   1.105   6.744   4.668
 8796SOL     OW27286   3.915   0.622   4.656
 8796SOL    HW127287   3.921   0.535   4.607
 8796SOL    HW227288   3.860   0.686   4.602
 8797SOL     OW27289   1.230   7.004   5.053
 8797SOL    HW127290   1.237   0.073   5.103
 8797SOL    HW227291   1.321   6.973   5.026
 8798SOL     OW27292   5.104   5.056   4.796
 8798SOL    HW127293   5.095   4.969   4.844
 8798SOL    HW227294   5.029   5.064   4.729
 8799SOL     OW27295   1.909   4.260   3.705
 8799SOL    HW127296   1.857   4.208   3.773
 8799SOL    HW227297   2.007   4.255   3.727
 8800SOL     OW27298   6.074   4.265   5.370
 8800SOL    HW127299   6.103   4.183   5.321
 8800SOL    HW227300   6.052   4.240   5.465
 8801SOL     OW27301   0.901   1.319   4.397
 8801SOL    HW127302   0.975   1.265   4.437
 8801SOL    HW227303   0.935   1.408   4.369
 8802SOL     OW27304   1.791   0.316   0.540
 8802SOL    HW127305   1.799   0.389   0.471
 8802SOL    HW227306   1.826   0.231   0.502
 8803SOL     OW27307   0.402   5.465   5.684
 8803SOL    HW127308   0.322   5.410   5.662
 8803SOL    HW227309   0.430   5.448   5.778
 8804SOL     OW27310   3.332   0.010   1.742
 8804SOL    HW127311   3.334   7.015   1.841
 8804SOL    HW227312   3.318   0.107   1.720
 8805SOL     OW27313   2.504   0.487   4.254
 8805SOL    HW127314   2.482   0.398   4.212
 8805SOL    HW227315   2.516   0.475   4.352
 8806SOL     OW27316   2.110   5.126   1.581
 8806SOL    HW127317   2.170   5.153   1.656
 8806SOL    HW227318   2.164   5.098   1.502
 8807SOL     OW27319   6.227   6.697   6.508
 8807SOL    HW127320   6.138   6.708   6.463
 8807SOL    HW227321   6.258   6.602   6.499
 8808SOL     OW27322   5.551   2.352   0.890
 8808SOL    HW127323   5.529   2.255   0.879
 8808SOL    HW227324   5.514   2.385   0.977
 8809SOL     OW27325   4.640   4.861   3.006
 8809SOL    HW127326   4.712   4.870   3.074
 8809SOL    HW227327   4.579   4.786   3.032
 8810SOL     OW27328   5.708   1.085   6.524
 8810SOL    HW127329   5.780   1.039   6.471
 8810SOL    HW227330   5.624   1.030   6.520
 8811SOL     OW27331   3.021   1.819   3.618
 8811SOL    HW127332   3.102   1.769   3.647
 8811SOL    HW227333   3.028   1.841   3.521
 8812SOL     OW27334   1.649   0.498   0.910
 8812SOL    HW127335   1.671   0.435   0.985
 8812SOL    HW227336   1.586   0.452   0.847
 8813SOL     OW27337   1.240   4.411   1.643
 8813SOL    HW127338   1.265   4.378   1.552
 8813SOL    HW227339   1.272   4.505   1.653
 8814SOL     OW27340   6.227   0.840   0.533
 8814SOL    HW127341   6.238   0.751   0.578
 8814SOL    HW227342   6.160   0.894   0.584
 8815SOL     OW27343   6.413   6.264   0.682
 8815SOL    HW127344   6.357   6.203   0.739
 8815SOL    HW227345   6.470   6.321   0.741
 8816SOL     OW27346   2.069   0.851   0.546
 8816SOL    HW127347   2.094   0.946   0.566
 8816SOL    HW227348   2.149   0.803   0.509
 8817SOL     OW27349   0.653   6.102   5.558
 8817SOL    HW127350   0.599   6.170   5.607
 8817SOL    HW227351   0.745   6.096   5.598
 8818SOL     OW27352   0.077   2.982   4.114
 8818SOL    HW127353   0.172   3.011   4.115
 8818SOL    HW227354   0.070   2.889   4.149
 8819SOL     OW27355   4.473   5.120   4.410
 8819SOL    HW127356   4.465   5.107   4.312
 8819SOL    HW227357   4.409   5.059   4.457
 8820SOL     OW27358   2.440   1.403   4.704
 8820SOL    HW127359   2.449   1.477   4.637
 8820SOL    HW227360   2.365   1.342   4.677
 8821SOL     OW27361   3.003   6.429   0.110
 8821SOL    HW127362   2.917   6.475   0.132
 8821SOL    HW227363   3.014   6.349   0.169
 8822SOL     OW27364   0.845   0.064   4.071
 8822SOL    HW127365   0.764   0.122   4.083
 8822SOL    HW227366   0.924   0.106   4.116
 8823SOL     OW27367   1.904   0.927   0.836
 8823SOL    HW127368   1.854   0.863   0.778
 8823SOL    HW227369   1.948   0.876   0.910
 8824SOL     OW27370   1.142   3.100   1.329
 8824SOL    HW127371   1.169   3.161   1.255
 8824SOL    HW227372   1.166   3.006   1.306
 8825SOL     OW27373   1.878   0.140   2.972
 8825SOL    HW127374   1.804   0.164   3.035
 8825SOL    HW227375   1.961   0.188   2.999
 8826SOL     OW27376   6.538   2.961   0.380
 8826SOL    HW127377   6.638   2.964   0.371
 8826SOL    HW227378   6.495   2.990   0.295
 8827SOL     OW27379   3.471   1.186   2.832
 8827SOL    HW127380   3.493   1.096   2.795
 8827SOL    HW227381   3.513   1.196   2.923
 8828SOL     OW27382   4.259   5.497   4.872
 8828SOL    HW127383   4.220   5.509   4.781
 8828SOL    HW227384   4.358   5.503   4.867
 8829SOL     OW27385   0.147   2.154   0.406
 8829SOL    HW127386   0.246   2.153   0.391
 8829SOL    HW227387   0.127   2.189   0.498
 8830SOL     OW27388   0.444   1.583   1.538
 8830SOL    HW127389   0.485   1.660   1.587
 8830SOL    HW227390   0.466   1.498   1.586
 8831SOL     OW27391   5.301   0.819   3.657
 8831SOL    HW127392   5.274   0.870   3.738
 8831SOL    HW227393   5.368   0.872   3.604
 8832SOL     OW27394   6.827   6.052   3.018
 8832SOL    HW127395   6.829   6.017   2.924
 8832SOL    HW227396   6.791   6.145   3.019
 8833SOL     OW27397   2.290   6.528   5.819
 8833SOL    HW127398   2.268   6.456   5.752
 8833SOL    HW227399   2.366   6.583   5.785
 8834SOL     OW27400   5.413   3.089   4.412
 8834SOL    HW127401   5.509   3.117   4.404
 8834SOL    HW227402   5.356   3.170   4.423
 8835SOL     OW27403   6.333   1.415   6.017
 8835SOL    HW127404   6.243   1.455   5.998
 8835SOL    HW227405   6.324   1.316   6.023
 8836SOL     OW27406   4.618   1.863   6.592
 8836SOL    HW127407   4.593   1.848   6.496
 8836SOL    HW227408   4.590   1.955   6.619
 8837SOL     OW27409   0.275   6.291   3.003
 8837SOL    HW127410   0.326   6.337   3.076
 8837SOL    HW227411   0.219   6.218   3.042
 8838SOL     OW27412   2.861   4.742   2.792
 8838SOL    HW127413   2.791   4.761   2.723
 8838SOL    HW227414   2.822   4.685   2.864
 8839SOL     OW27415   4.804   5.315   2.112
 8839SOL    HW127416   4.796   5.247   2.184
 8839SOL    HW227417   4.861   5.279   2.038
 8840SOL     OW27418   6.508   1.678   1.747
 8840SOL    HW127419   6.465   1.654   1.834
 8840SOL    HW227420   6.458   1.636   1.672
 8841SOL     OW27421   1.222   0.300   4.889
 8841SOL    HW127422   1.259   0.241   4.960
 8841SOL    HW227423   1.145   0.353   4.926
 8842SOL     OW27424   3.112   3.125   1.778
 8842SOL    HW127425   3.115   3.084   1.687
 8842SOL    HW227426   3.204   3.153   1.805
 8843SOL     OW27427   1.732   3.296   5.081
 8843SOL    HW127428   1.710   3.199   5.073
 8843SOL    HW227429   1.828   3.310   5.054
 8844SOL     OW27430   6.011   1.927   6.784
 8844SOL    HW127431   5.951   1.849   6.800
 8844SOL    HW227432   5.995   1.962   6.692
 8845SOL     OW27433   4.431   3.595   6.784
 8845SOL    HW127434   4.406   3.642   6.869
 8845SOL    HW227435   4.380   3.634   6.708
 8846SOL     OW27436   2.975   5.726   3.558
 8846SOL    HW127437   2.947   5.648   3.613
 8846SOL    HW227438   3.075   5.734   3.559
 8847SOL     OW27439   3.257   1.105   2.348
 8847SOL    HW127440   3.241   1.125   2.444
 8847SOL    HW227441   3.340   1.150   2.317
 8848SOL     OW27442   2.501   7.002   2.049
 8848SOL    HW127443   2.533   6.957   2.133
 8848SOL    HW227444   2.475   0.079   2.070
 8849SOL     OW27445   3.310   5.749   2.723
 8849SOL    HW127446   3.380   5.741   2.793
 8849SOL    HW227447   3.350   5.790   2.641
 8850SOL     OW27448   1.449   2.312   0.099
 8850SOL    HW127449   1.368   2.367   0.121
 8850SOL    HW227450   1.528   2.373   0.088
 8851SOL     OW27451   1.876   4.140   2.585
 8851SOL    HW127452   1.869   4.053   2.633
 8851SOL    HW227453   1.787   4.186   2.585
 8852SOL     OW27454   0.635   2.074   4.766
 8852SOL    HW127455   0.643   2.107   4.860
 8852SOL    HW227456   0.540   2.080   4.736
 8853SOL     OW27457   2.883   0.336   1.588
 8853SOL    HW127458   2.792   0.294   1.590
 8853SOL    HW227459   2.920   0.333   1.496
 8854SOL     OW27460   2.167   3.401   4.809
 8854SOL    HW127461   2.110   3.389   4.891
 8854SOL    HW227462   2.159   3.494   4.775
 8855SOL     OW27463   6.703   5.127   1.146
 8855SOL    HW127464   6.800   5.121   1.169
 8855SOL    HW227465   6.671   5.037   1.114
 8856SOL     OW27466   0.678   6.255   6.406
 8856SOL    HW127467   0.658   6.302   6.320
 8856SOL    HW227468   0.603   6.269   6.470
 8857SOL     OW27469   6.473   1.441   4.527
 8857SOL    HW127470   6.570   1.458   4.509
 8857SOL    HW227471   6.460   1.346   4.556
 8858SOL     OW27472   0.152   4.039   4.327
 8858SOL    HW127473   0.168   4.135   4.348
 8858SOL    HW227474   0.173   4.022   4.231
 8859SOL     OW27475   1.105   1.138   3.844
 8859SOL    HW127476   1.027   1.105   3.896
 8859SOL    HW227477   1.114   1.085   3.760
 8860SOL     OW27478   6.700   1.912   1.504
 8860SOL    HW127479   6.776   1.863   1.546
 8860SOL    HW227480   6.660   1.976   1.570
 8861SOL     OW27481   4.145   1.114   6.585
 8861SOL    HW127482   4.077   1.074   6.524
 8861SOL    HW227483   4.101   1.144   6.670
 8862SOL     OW27484   5.565   6.787   3.948
 8862SOL    HW127485   5.592   6.691   3.936
 8862SOL    HW227486   5.528   6.799   4.040
 8863SOL     OW27487   2.351   4.724   3.106
 8863SOL    HW127488   2.345   4.733   3.007
 8863SOL    HW227489   2.361   4.628   3.130
 8864SOL     OW27490   3.844   4.513   6.137
 8864SOL    HW127491   3.755   4.469   6.124
 8864SOL    HW227492   3.894   4.465   6.209
 8865SOL     OW27493   3.709   0.834   4.740
 8865SOL    HW127494   3.742   0.913   4.688
 8865SOL    HW227495   3.612   0.819   4.720
 8866SOL     OW27496   5.699   6.639   2.997
 8866SOL    HW127497   5.762   6.598   2.932
 8866SOL    HW227498   5.656   6.568   3.052
 8867SOL     OW27499   5.725   4.459   3.406
 8867SOL    HW127500   5.667   4.391   3.450
 8867SOL    HW227501   5.743   4.432   3.312
 8868SOL     OW27502   6.839   3.297   2.345
 8868SOL    HW127503   6.867   3.201   2.347
 8868SOL    HW227504   6.919   3.356   2.356
 8869SOL     OW27505   4.308   5.887   5.259
 8869SOL    HW127506   4.265   5.949   5.193
 8869SOL    HW227507   4.383   5.838   5.215
 8870SOL     OW27508   1.650   6.544   1.863
 8870SOL    HW127509   1.749   6.536   1.873
 8870SOL    HW227510   1.607   6.548   1.953
 8871SOL     OW27511   2.241   0.569   3.545
 8871SOL    HW127512   2.225   0.655   3.594
 8871SOL    HW227513   2.323   0.578   3.488
 8872SOL     OW27514   1.010   4.997   6.052
 8872SOL    HW127515   0.994   5.089   6.019
 8872SOL    HW227516   0.973   4.987   6.144
 8873SOL     OW27517   1.759   6.914   2.027
 8873SOL    HW127518   1.827   6.910   1.954
 8873SOL    HW227519   1.776   6.841   2.093
 8874SOL     OW27520   1.558   5.749   2.369
 8874SOL    HW127521   1.528   5.763   2.463
 8874SOL    HW227522   1.531   5.658   2.338
 8875SOL     OW27523   6.960   3.314   4.664
 8875SOL    HW127524   0.028   3.366   4.656
 8875SOL    HW227525   6.916   3.334   4.751
 8876SOL     OW27526   2.665   0.937   6.470
 8876SOL    HW127527   2.573   0.962   6.441
 8876SOL    HW227528   2.723   1.019   6.469
 8877SOL     OW27529   1.865   2.865   3.257
 8877SOL    HW127530   1.853   2.766   3.263
 8877SOL    HW227531   1.951   2.885   3.209
 8878SOL     OW27532   3.474   5.158   1.226
 8878SOL    HW127533   3.502   5.114   1.311
 8878SOL    HW227534   3.542   5.226   1.199
 8879SOL     OW27535   5.437   4.921   2.438
 8879SOL    HW127536   5.525   4.876   2.425
 8879SOL    HW227537   5.436   4.968   2.526
 8880SOL     OW27538   4.113   6.228   5.235
 8880SOL    HW127539   4.063   6.277   5.307
 8880SOL    HW227540   4.210   6.252   5.240
 8881SOL     OW27541   5.148   5.618   4.285
 8881SOL    HW127542   5.112   5.624   4.378
 8881SOL    HW227543   5.238   5.575   4.287
 8882SOL     OW27544   4.342   1.028   1.064
 8882SOL    HW127545   4.365   1.094   0.992
 8882SOL    HW227546   4.424   0.978   1.091
 8883SOL     OW27547   1.294   6.388   5.996
 8883SOL    HW127548   1.228   6.456   5.964
 8883SOL    HW227549   1.255   6.297   5.986
 8884SOL     OW27550   6.055   3.720   5.861
 8884SOL    HW127551   6.138   3.774   5.847
 8884SOL    HW227552   5.982   3.755   5.803
 8885SOL     OW27553   4.776   4.726   0.857
 8885SOL    HW127554   4.678   4.749   0.856
 8885SOL    HW227555   4.789   4.635   0.817
 8886SOL     OW27556   3.553   5.864   6.022
 8886SOL    HW127557   3.609   5.798   5.971
 8886SOL    HW227558   3.613   5.930   6.067
 8887SOL     OW27559   3.850   0.901   0.961
 8887SOL    HW127560   3.888   0.968   0.898
 8887SOL    HW227561   3.920   0.835   0.987
 8888SOL     OW27562   1.903   2.467   4.713
 8888SOL    HW127563   1.952   2.545   4.750
 8888SOL    HW227564   1.831   2.439   4.776
 8889SOL     OW27565   0.298   6.201   6.315
 8889SOL    HW127566   0.301   6.102   6.332
 8889SOL    HW227567   0.204   6.228   6.293
 8890SOL     OW27568   1.124   6.104   6.163
 8890SOL    HW127569   1.097   6.137   6.072
 8890SOL    HW227570   1.043   6.096   6.221
 8891SOL     OW27571   4.064   4.598   0.212
 8891SOL    HW127572   4.119   4.515   0.216
 8891SOL    HW227573   4.100   4.665   0.277
 8892SOL     OW27574   3.767   5.012   3.290
 8892SOL    HW127575   3.672   4.990   3.310
 8892SOL    HW227576   3.826   4.970   3.359
 8893SOL     OW27577   1.251   5.193   4.975
 8893SOL    HW127578   1.260   5.216   5.072
 8893SOL    HW227579   1.171   5.134   4.962
 8894SOL     OW27580   3.519   1.888   6.779
 8894SOL    HW127581   3.526   1.923   6.872
 8894SOL    HW227582   3.543   1.960   6.714
 8895SOL     OW27583   0.224   2.338   1.134
 8895SOL    HW127584   0.261   2.313   1.224
 8895SOL    HW227585   0.146   2.399   1.146
 8896SOL     OW27586   1.577   3.432   4.370
 8896SOL    HW127587   1.514   3.359   4.396
 8896SOL    HW227588   1.615   3.412   4.280
 8897SOL     OW27589   2.012   2.658   3.577
 8897SOL    HW127590   2.052   2.698   3.495
 8897SOL    HW227591   1.955   2.726   3.623
 8898SOL     OW27592   5.572   3.388   2.212
 8898SOL    HW127593   5.637   3.313   2.208
 8898SOL    HW227594   5.613   3.470   2.174
 8899SOL     OW27595   1.417   4.640   0.299
 8899SOL    HW127596   1.444   4.554   0.256
 8899SOL    HW227597   1.328   4.629   0.343
 8900SOL     OW27598   5.388   2.920   3.304
 8900SOL    HW127599   5.313   2.956   3.247
 8900SOL    HW227600   5.440   2.996   3.343
 8901SOL     OW27601   0.651   1.180   3.942
 8901SOL    HW127602   0.708   1.200   4.022
 8901SOL    HW227603   0.596   1.260   3.918
 8902SOL     OW27604   1.271   5.800   6.950
 8902SOL    HW127605   1.245   5.782   6.855
 8902SOL    HW227606   1.371   5.812   6.955
 8903SOL     OW27607   0.772   2.151   4.528
 8903SOL    HW127608   0.731   2.127   4.616
 8903SOL    HW227609   0.865   2.184   4.543
 8904SOL     OW27610   0.580   1.472   4.187
 8904SOL    HW127611   0.597   1.491   4.091
 8904SOL    HW227612   0.619   1.545   4.243
 8905SOL     OW27613   2.154   2.991   2.601
 8905SOL    HW127614   2.184   3.073   2.650
 8905SOL    HW227615   2.068   2.959   2.639
 8906SOL     OW27616   1.501   5.946   0.922
 8906SOL    HW127617   1.532   5.954   1.017
 8906SOL    HW227618   1.443   6.024   0.899
 8907SOL     OW27619   3.466   2.795   5.315
 8907SOL    HW127620   3.457   2.851   5.232
 8907SOL    HW227621   3.525   2.842   5.380
 8908SOL     OW27622   1.719   5.802   6.789
 8908SOL    HW127623   1.754   5.735   6.855
 8908SOL    HW227624   1.740   5.895   6.822
 8909SOL     OW27625   2.901   1.178   6.164
 8909SOL    HW127626   2.860   1.088   6.181
 8909SOL    HW227627   2.837   1.250   6.190
 8910SOL     OW27628   0.502   2.567   5.514
 8910SOL    HW127629   0.573   2.529   5.573
 8910SOL    HW227630   0.437   2.496   5.490
 8911SOL     OW27631   5.157   3.427   4.766
 8911SOL    HW127632   5.148   3.457   4.861
 8911SOL    HW227633   5.192   3.502   4.710
 8912SOL     OW27634   2.430   3.111   6.361
 8912SOL    HW127635   2.355   3.173   6.340
 8912SOL    HW227636   2.395   3.018   6.372
 8913SOL     OW27637   4.238   5.191   6.552
 8913SOL    HW127638   4.304   5.203   6.625
 8913SOL    HW227639   4.286   5.179   6.465
 8914SOL     OW27640   4.966   6.864   4.462
 8914SOL    HW127641   4.960   6.878   4.561
 8914SOL    HW227642   4.969   6.953   4.416
 8915SOL     OW27643   1.095   1.987   4.310
 8915SOL    HW127644   1.187   1.975   4.347
 8915SOL    HW227645   1.077   2.084   4.294
 8916SOL     OW27646   6.533   2.683   6.927
 8916SOL    HW127647   6.512   2.768   6.881
 8916SOL    HW227648   6.525   2.607   6.863
 8917SOL     OW27649   5.637   2.791   1.282
 8917SOL    HW127650   5.552   2.743   1.306
 8917SOL    HW227651   5.698   2.792   1.361
 8918SOL     OW27652   1.025   5.210   0.468
 8918SOL    HW127653   1.051   5.116   0.493
 8918SOL    HW227654   0.945   5.208   0.409
 8919SOL     OW27655   5.377   4.355   6.667
 8919SOL    HW127656   5.426   4.314   6.744
 8919SOL    HW227657   5.381   4.455   6.674
 8920SOL     OW27658   0.591   2.357   0.438
 8920SOL    HW127659   0.572   2.455   0.430
 8920SOL    HW227660   0.690   2.341   0.431
 8921SOL     OW27661   1.761   3.303   2.025
 8921SOL    HW127662   1.742   3.377   2.089
 8921SOL    HW227663   1.727   3.217   2.062
 8922SOL     OW27664   4.300   6.024   1.966
 8922SOL    HW127665   4.263   6.116   1.976
 8922SOL    HW227666   4.302   5.978   2.055
 8923SOL     OW27667   1.589   0.937   6.350
 8923SOL    HW127668   1.580   0.866   6.420
 8923SOL    HW227669   1.644   0.902   6.274
 8924SOL     OW27670   4.579   5.220   5.105
 8924SOL    HW127671   4.502   5.263   5.151
 8924SOL    HW227672   4.617   5.148   5.163
 8925SOL     OW27673   6.903   0.498   2.862
 8925SOL    HW127674   6.893   0.465   2.768
 8925SOL    HW227675   6.843   0.576   2.876
 8926SOL     OW27676   0.041   3.130   5.037
 8926SOL    HW127677   6.976   3.077   5.016
 8926SOL    HW227678   0.096   3.081   5.104
 8927SOL     OW27679   6.091   1.496   4.791
 8927SOL    HW127680   6.139   1.409   4.801
 8927SOL    HW227681   6.133   1.564   4.851
 8928SOL     OW27682   1.720   0.235   6.069
 8928SOL    HW127683   1.770   0.238   6.155
 8928SOL    HW227684   1.622   0.224   6.088
 8929SOL     OW27685   6.382   1.874   5.384
 8929SOL    HW127686   6.354   1.944   5.318
 8929SOL    HW227687   6.334   1.888   5.470
 8930SOL     OW27688   0.600   2.596   3.058
 8930SOL    HW127689   0.599   2.557   3.150
 8930SOL    HW227690   0.671   2.552   3.004
 8931SOL     OW27691   3.096   3.885   1.487
 8931SOL    HW127692   3.139   3.825   1.554
 8931SOL    HW227693   2.997   3.873   1.490
 8932SOL     OW27694   6.429   1.930   2.516
 8932SOL    HW127695   6.338   1.904   2.484
 8932SOL    HW227696   6.492   1.931   2.439
 8933SOL     OW27697   2.935   2.487   6.299
 8933SOL    HW127698   2.965   2.581   6.317
 8933SOL    HW227699   2.855   2.490   6.239
 8934SOL     OW27700   3.554   4.948   5.093
 8934SOL    HW127701   3.457   4.972   5.084
 8934SOL    HW227702   3.565   4.877   5.162
 8935SOL     OW27703   0.198   3.947   0.360
 8935SOL    HW127704   0.245   3.859   0.373
 8935SOL    HW227705   0.175   3.986   0.449
 8936SOL     OW27706   1.704   4.121   1.726
 8936SOL    HW127707   1.627   4.084   1.676
 8936SOL    HW227708   1.699   4.221   1.726
 8937SOL     OW27709   0.165   0.416   5.289
 8937SOL    HW127710   0.130   0.486   5.350
 8937SOL    HW227711   0.230   0.458   5.225
 8938SOL     OW27712   0.437   5.449   0.764
 8938SOL    HW127713   0.362   5.506   0.798
 8938SOL    HW227714   0.427   5.356   0.798
 8939SOL     OW27715   4.766   2.883   4.139
 8939SOL    HW127716   4.826   2.827   4.082
 8939SOL    HW227717   4.714   2.824   4.201
 8940SOL     OW27718   0.217   1.128   3.237
 8940SOL    HW127719   0.316   1.115   3.229
 8940SOL    HW227720   0.182   1.170   3.153
 8941SOL     OW27721   6.268   2.660   5.285
 8941SOL    HW127722   6.265   2.739   5.223
 8941SOL    HW227723   6.175   2.630   5.306
 8942SOL     OW27724   0.044   4.489   5.043
 8942SOL    HW127725   0.072   4.490   5.139
 8942SOL    HW227726   6.971   4.533   5.035
 8943SOL     OW27727   4.009   4.560   6.726
 8943SOL    HW127728   3.937   4.531   6.789
 8943SOL    HW227729   4.085   4.495   6.729
 8944SOL     OW27730   5.456   4.759   5.192
 8944SOL    HW127731   5.447   4.763   5.292
 8944SOL    HW227732   5.434   4.667   5.160
 8945SOL     OW27733   1.361   0.781   3.689
 8945SOL    HW127734   1.312   0.864   3.663
 8945SOL    HW227735   1.295   0.711   3.715
 8946SOL     OW27736   3.179   1.069   5.020
 8946SOL    HW127737   3.273   1.059   4.988
 8946SOL    HW227738   3.175   1.143   5.087
 8947SOL     OW27739   1.766   3.545   4.784
 8947SOL    HW127740   1.821   3.605   4.842
 8947SOL    HW227741   1.693   3.503   4.839
 8948SOL     OW27742   6.591   6.398   4.049
 8948SOL    HW127743   6.528   6.469   4.018
 8948SOL    HW227744   6.682   6.438   4.064
 8949SOL     OW27745   2.347   6.904   0.810
 8949SOL    HW127746   2.422   6.958   0.848
 8949SOL    HW227747   2.354   6.810   0.843
 8950SOL     OW27748   4.811   3.781   6.290
 8950SOL    HW127749   4.727   3.771   6.343
 8950SOL    HW227750   4.821   3.704   6.228
 8951SOL     OW27751   0.462   2.025   5.018
 8951SOL    HW127752   0.478   1.933   5.054
 8951SOL    HW227753   0.369   2.032   4.983
 8952SOL     OW27754   1.462   6.964   2.425
 8952SOL    HW127755   1.533   6.895   2.433
 8952SOL    HW227756   1.387   6.942   2.487
 8953SOL     OW27757   1.157   3.988   6.719
 8953SOL    HW127758   1.153   4.001   6.620
 8953SOL    HW227759   1.250   4.007   6.751
 8954SOL     OW27760   1.492   6.767   5.867
 8954SOL    HW127761   1.512   6.759   5.964
 8954SOL    HW227762   1.493   6.863   5.840
 8955SOL     OW27763   0.567   4.908   2.157
 8955SOL    HW127764   0.509   4.896   2.076
 8955SOL    HW227765   0.662   4.889   2.133
 8956SOL     OW27766   0.309   1.559   6.696
 8956SOL    HW127767   0.325   1.464   6.669
 8956SOL    HW227768   0.249   1.561   6.776
 8957SOL     OW27769   3.131   4.406   1.701
 8957SOL    HW127770   3.063   4.435   1.768
 8957SOL    HW227771   3.140   4.306   1.704
 8958SOL     OW27772   1.138   0.293   4.469
 8958SOL    HW127773   1.140   0.231   4.548
 8958SOL    HW227774   1.088   0.376   4.493
 8959SOL     OW27775   1.556   4.624   1.781
 8959SOL    HW127776   1.528   4.626   1.877
 8959SOL    HW227777   1.476   4.637   1.723
 8960SOL     OW27778   4.581   5.684   2.924
 8960SOL    HW127779   4.671   5.726   2.925
 8960SOL    HW227780   4.522   5.732   2.858
 8961SOL     OW27781   2.387   2.250   4.389
 8961SOL    HW127782   2.474   2.293   4.413
 8961SOL    HW227783   2.316   2.320   4.384
 8962SOL     OW27784   6.732   6.571   2.482
 8962SOL    HW127785   6.694   6.603   2.395
 8962SOL    HW227786   6.832   6.578   2.479
 8963SOL     OW27787   5.173   6.653   4.158
 8963SOL    HW127788   5.094   6.592   4.159
 8963SOL    HW227789   5.215   6.651   4.067
 8964SOL     OW27790   5.370   3.681   3.222
 8964SOL    HW127791   5.329   3.755   3.170
 8964SOL    HW227792   5.298   3.625   3.264
 8965SOL     OW27793   2.316   4.732   0.583
 8965SOL    HW127794   2.254   4.718   0.660
 8965SOL    HW227795   2.365   4.647   0.564
 8966SOL     OW27796   0.566   4.273   5.773
 8966SOL    HW127797   0.550   4.289   5.676
 8966SOL    HW227798   0.561   4.175   5.792
 8967SOL     OW27799   3.714   6.400   2.122
 8967SOL    HW127800   3.644   6.455   2.169
 8967SOL    HW227801   3.802   6.413   2.168
 8968SOL     OW27802   5.102   4.620   3.046
 8968SOL    HW127803   5.091   4.661   2.955
 8968SOL    HW227804   5.188   4.651   3.087
 8969SOL     OW27805   6.677   0.414   4.286
 8969SOL    HW127806   6.738   0.492   4.301
 8969SOL    HW227807   6.659   0.403   4.189
 8970SOL     OW27808   2.383   2.918   0.394
 8970SOL    HW127809   2.283   2.911   0.403
 8970SOL    HW227810   2.407   2.915   0.297
 8971SOL     OW27811   4.811   5.281   1.798
 8971SOL    HW127812   4.730   5.269   1.741
 8971SOL    HW227813   4.841   5.193   1.834
 8972SOL     OW27814   5.125   4.878   6.668
 8972SOL    HW127815   5.168   4.798   6.711
 8972SOL    HW227816   5.142   4.959   6.725
 8973SOL     OW27817   1.168   3.462   2.203
 8973SOL    HW127818   1.221   3.413   2.273
 8973SOL    HW227819   1.072   3.465   2.230
 8974SOL     OW27820   1.681   4.628   5.673
 8974SOL    HW127821   1.764   4.683   5.664
 8974SOL    HW227822   1.635   4.652   5.758
 8975SOL     OW27823   2.572   0.164   6.810
 8975SOL    HW127824   2.564   0.258   6.843
 8975SOL    HW227825   2.526   0.102   6.873
 8976SOL     OW27826   0.157   4.660   4.889
 8976SOL    HW127827   0.092   4.687   4.818
 8976SOL    HW227828   0.119   4.583   4.942
 8977SOL     OW27829   5.572   1.556   7.007
 8977SOL    HW127830   5.517   1.499   6.946
 8977SOL    HW227831   5.655   1.506   0.016
 8978SOL     OW27832   5.498   6.901   5.961
 8978SOL    HW127833   5.586   6.873   5.999
 8978SOL    HW227834   5.424   6.867   6.019
 8979SOL     OW27835   1.533   2.910   4.828
 8979SOL    HW127836   1.487   2.822   4.830
 8979SOL    HW227837   1.605   2.912   4.897
 8980SOL     OW27838   2.233   2.964   5.295
 8980SOL    HW127839   2.230   2.920   5.205
 8980SOL    HW227840   2.308   3.030   5.297
 8981SOL     OW27841   4.610   1.847   5.438
 8981SOL    HW127842   4.698   1.834   5.484
 8981SOL    HW227843   4.589   1.945   5.432
 8982SOL     OW27844   1.823   1.647   0.725
 8982SOL    HW127845   1.914   1.608   0.739
 8982SOL    HW227846   1.801   1.707   0.803
 8983SOL     OW27847   1.689   6.129   6.568
 8983SOL    HW127848   1.686   6.227   6.589
 8983SOL    HW227849   1.599   6.099   6.539
 8984SOL     OW27850   0.555   0.049   4.293
 8984SOL    HW127851   0.597   6.976   4.280
 8984SOL    HW227852   0.597   0.115   4.230
 8985SOL     OW27853   2.591   3.363   0.673
 8985SOL    HW127854   2.641   3.348   0.587
 8985SOL    HW227855   2.552   3.277   0.704
 8986SOL     OW27856   4.351   5.575   2.272
 8986SOL    HW127857   4.338   5.611   2.364
 8986SOL    HW227858   4.261   5.556   2.231
 8987SOL     OW27859   4.391   6.942   1.665
 8987SOL    HW127860   4.381   6.985   1.576
 8987SOL    HW227861   4.356   7.003   1.736
 8988SOL     OW27862   1.199   4.385   5.108
 8988SOL    HW127863   1.141   4.387   5.026
 8988SOL    HW227864   1.141   4.385   5.189
 8989SOL     OW27865   5.073   3.360   0.505
 8989SOL    HW127866   5.033   3.305   0.432
 8989SOL    HW227867   5.167   3.383   0.481
 8990SOL     OW27868   1.522   5.500   4.730
 8990SOL    HW127869   1.427   5.484   4.756
 8990SOL    HW227870   1.576   5.521   4.811
 8991SOL     OW27871   1.314   2.541   5.776
 8991SOL    HW127872   1.315   2.530   5.677
 8991SOL    HW227873   1.377   2.613   5.803
 8992SOL     OW27874   4.972   1.116   0.107
 8992SOL    HW127875   5.034   1.052   0.061
 8992SOL    HW227876   4.904   1.064   0.159
 8993SOL     OW27877   4.987   2.519   1.747
 8993SOL    HW127878   5.039   2.465   1.681
 8993SOL    HW227879   5.026   2.611   1.753
 8994SOL     OW27880   0.759   3.898   4.678
 8994SOL    HW127881   0.829   3.851   4.733
 8994SOL    HW227882   0.784   3.995   4.669
 8995SOL     OW27883   1.690   2.481   0.063
 8995SOL    HW127884   1.691   2.581   0.069
 8995SOL    HW227885   1.706   2.453   6.985
 8996SOL     OW27886   5.245   4.645   0.324
 8996SOL    HW127887   5.228   4.682   0.416
 8996SOL    HW227888   5.179   4.573   0.304
 8997SOL     OW27889   5.232   1.770   6.201
 8997SOL    HW127890   5.299   1.720   6.147
 8997SOL    HW227891   5.235   1.738   6.296
 8998SOL     OW27892   6.540   3.558   3.753
 8998SOL    HW127893   6.474   3.510   3.696
 8998SOL    HW227894   6.614   3.593   3.695
 8999SOL     OW27895   4.502   6.364   6.352
 8999SOL    HW127896   4.590   6.400   6.322
 8999SOL    HW227897   4.466   6.422   6.426
 9000SOL     OW27898   1.393   3.397   1.633
 9000SOL    HW127899   1.451   3.422   1.711
 9000SOL    HW227900   1.383   3.297   1.629
 9001SOL     OW27901   1.110   5.450   2.532
 9001SOL    HW127902   1.124   5.545   2.560
 9001SOL    HW227903   1.148   5.389   2.602
 9002SOL     OW27904   1.317   5.052   5.281
 9002SOL    HW127905   1.308   5.151   5.291
 9002SOL    HW227906   1.225   5.011   5.277
 9003SOL     OW27907   5.900   3.150   1.836
 9003SOL    HW127908   5.925   3.101   1.920
 9003SOL    HW227909   5.879   3.245   1.859
 9004SOL     OW27910   3.948   5.890   1.153
 9004SOL    HW127911   3.932   5.987   1.168
 9004SOL    HW227912   4.045   5.869   1.165
 9005SOL     OW27913   6.016   2.442   4.607
 9005SOL    HW127914   6.114   2.447   4.586
 9005SOL    HW227915   5.981   2.534   4.624
 9006SOL     OW27916   2.160   5.602   1.054
 9006SOL    HW127917   2.226   5.540   1.013
 9006SOL    HW227918   2.172   5.603   1.154
 9007SOL     OW27919   3.359   0.917   3.395
 9007SOL    HW127920   3.441   0.960   3.356
 9007SOL    HW227921   3.343   0.953   3.486
 9008SOL     OW27922   1.521   5.542   3.763
 9008SOL    HW127923   1.429   5.524   3.798
 9008SOL    HW227924   1.545   5.472   3.696
 9009SOL     OW27925   3.013   6.420   0.505
 9009SOL    HW127926   3.052   6.507   0.475
 9009SOL    HW227927   2.959   6.433   0.588
 9010SOL     OW27928   1.400   6.509   4.027
 9010SOL    HW127929   1.416   6.457   3.943
 9010SOL    HW227930   1.487   6.521   4.076
 9011SOL     OW27931   5.115   1.744   1.620
 9011SOL    HW127932   5.118   1.646   1.641
 9011SOL    HW227933   5.200   1.771   1.576
 9012SOL     OW27934   1.846   4.357   0.290
 9012SOL    HW127935   1.774   4.390   0.228
 9012SOL    HW227936   1.933   4.354   0.240
 9013SOL     OW27937   0.534   6.621   5.600
 9013SOL    HW127938   0.552   6.648   5.695
 9013SOL    HW227939   0.516   6.702   5.545
 9014SOL     OW27940   6.834   2.412   0.647
 9014SOL    HW127941   6.842   2.422   0.747
 9014SOL    HW227942   6.737   2.403   0.623
 9015SOL     OW27943   4.496   2.246   1.463
 9015SOL    HW127944   4.470   2.175   1.528
 9015SOL    HW227945   4.439   2.239   1.381
 9016SOL     OW27946   0.058   6.686   6.349
 9016SOL    HW127947   0.024   6.776   6.321
 9016SOL    HW227948   0.114   6.647   6.276
 9017SOL     OW27949   4.582   2.007   3.722
 9017SOL    HW127950   4.593   1.917   3.678
 9017SOL    HW227951   4.638   2.010   3.805
 9018SOL     OW27952   3.297   2.980   6.946
 9018SOL    HW127953   3.304   3.000   0.027
 9018SOL    HW227954   3.341   3.053   6.894
 9019SOL     OW27955   1.545   5.413   2.557
 9019SOL    HW127956   1.514   5.460   2.640
 9019SOL    HW227957   1.508   5.460   2.477
 9020SOL     OW27958   6.898   4.136   0.831
 9020SOL    HW127959   6.982   4.107   0.876
 9020SOL    HW227960   6.819   4.098   0.880
 9021SOL     OW27961   0.131   0.095   3.845
 9021SOL    HW127962   0.133   0.111   3.944
 9021SOL    HW227963   0.129   0.183   3.798
 9022SOL     OW27964   3.161   1.349   6.543
 9022SOL    HW127965   3.239   1.398   6.582
 9022SOL    HW227966   3.091   1.336   6.614
 9023SOL     OW27967   3.752   2.933   2.411
 9023SOL    HW127968   3.666   2.971   2.378
 9023SOL    HW227969   3.748   2.920   2.510
 9024SOL     OW27970   0.796   3.832   5.084
 9024SOL    HW127971   0.704   3.844   5.045
 9024SOL    HW227972   0.815   3.907   5.148
 9025SOL     OW27973   0.951   5.555   0.841
 9025SOL    HW127974   0.974   5.650   0.821
 9025SOL    HW227975   0.853   5.547   0.859
 9026SOL     OW27976   3.909   2.872   0.814
 9026SOL    HW127977   3.847   2.937   0.856
 9026SOL    HW227978   3.896   2.781   0.854
 9027SOL     OW27979   1.437   2.685   3.215
 9027SOL    HW127980   1.488   2.771   3.207
 9027SOL    HW227981   1.479   2.628   3.286
 9028SOL     OW27982   2.899   3.209   5.265
 9028SOL    HW127983   2.925   3.301   5.295
 9028SOL    HW227984   2.924   3.197   5.169
 9029SOL     OW27985   3.859   6.709   4.823
 9029SOL    HW127986   3.778   6.760   4.852
 9029SOL    HW227987   3.927   6.773   4.787
 9030SOL     OW27988   2.928   1.709   3.183
 9030SOL    HW127989   2.902   1.617   3.212
 9030SOL    HW227990   2.984   1.752   3.255
 9031SOL     OW27991   4.367   5.913   4.371
 9031SOL    HW127992   4.401   5.954   4.287
 9031SOL    HW227993   4.283   5.862   4.351
 9032SOL     OW27994   3.752   3.846   1.024
 9032SOL    HW127995   3.728   3.769   1.083
 9032SOL    HW227996   3.852   3.859   1.025
 9033SOL     OW27997   7.011   4.331   3.223
 9033SOL    HW127998   6.958   4.407   3.260
 9033SOL    HW227999   0.088   4.362   3.204
 9034SOL     OW28000   3.120   6.264   4.513
 9034SOL    HW128001   3.128   6.353   4.468
 9034SOL    HW228002   3.206   6.214   4.504
 9035SOL     OW28003   2.585   4.170   0.106
 9035SOL    HW128004   2.615   4.150   0.013
 9035SOL    HW228005   2.634   4.250   0.141
 9036SOL     OW28006   2.164   2.472   5.489
 9036SOL    HW128007   2.204   2.541   5.428
 9036SOL    HW228008   2.068   2.494   5.505
 9037SOL     OW28009   0.965   3.832   4.858
 9037SOL    HW128010   0.916   3.832   4.946
 9037SOL    HW228011   1.041   3.895   4.862
 9038SOL     OW28012   4.092   0.769   6.327
 9038SOL    HW128013   4.021   0.711   6.289
 9038SOL    HW228014   4.160   0.791   6.256
 9039SOL     OW28015   2.169   5.502   5.850
 9039SOL    HW128016   2.214   5.566   5.788
 9039SOL    HW228017   2.237   5.438   5.886
 9040SOL     OW28018   3.124   2.007   2.944
 9040SOL    HW128019   3.051   2.061   2.986
 9040SOL    HW228020   3.153   2.051   2.859
 9041SOL     OW28021   1.034   1.783   1.674
 9041SOL    HW128022   1.095   1.776   1.753
 9041SOL    HW228023   1.087   1.813   1.595
 9042SOL     OW28024   3.976   6.495   4.939
 9042SOL    HW128025   3.937   6.580   4.902
 9042SOL    HW228026   3.986   6.504   5.038
 9043SOL     OW28027   1.148   0.537   7.002
 9043SOL    HW128028   1.091   0.469   0.032
 9043SOL    HW228029   1.242   0.503   6.995
 9044SOL     OW28030   6.243   0.255   0.699
 9044SOL    HW128031   6.265   0.159   0.681
 9044SOL    HW228032   6.220   0.301   0.613
 9045SOL     OW28033   3.065   1.950   2.482
 9045SOL    HW128034   3.148   1.896   2.474
 9045SOL    HW228035   3.045   1.995   2.394
 9046SOL     OW28036   3.474   3.873   2.858
 9046SOL    HW128037   3.418   3.794   2.835
 9046SOL    HW228038   3.553   3.844   2.912
 9047SOL     OW28039   1.837   3.818   5.200
 9047SOL    HW128040   1.889   3.887   5.251
 9047SOL    HW228041   1.897   3.772   5.135
 9048SOL     OW28042   5.825   3.171   5.624
 9048SOL    HW128043   5.807   3.117   5.706
 9048SOL    HW228044   5.742   3.176   5.569
 9049SOL     OW28045   3.539   6.804   5.886
 9049SOL    HW128046   3.527   6.744   5.808
 9049SOL    HW228047   3.550   6.899   5.855
 9050SOL     OW28048   1.247   3.337   0.794
 9050SOL    HW128049   1.270   3.434   0.782
 9050SOL    HW228050   1.243   3.293   0.704
 9051SOL     OW28051   3.782   7.014   1.265
 9051SOL    HW128052   3.823   0.041   1.185
 9051SOL    HW228053   3.836   0.017   1.346
 9052SOL     OW28054   2.491   2.149   3.522
 9052SOL    HW128055   2.491   2.056   3.485
 9052SOL    HW228056   2.400   2.189   3.508
 9053SOL     OW28057   1.675   1.280   2.689
 9053SOL    HW128058   1.609   1.230   2.633
 9053SOL    HW228059   1.760   1.227   2.696
 9054SOL     OW28060   2.929   5.860   3.997
 9054SOL    HW128061   2.845   5.841   3.947
 9054SOL    HW228062   3.000   5.888   3.933
 9055SOL     OW28063   5.953   2.847   4.369
 9055SOL    HW128064   5.865   2.807   4.396
 9055SOL    HW228065   6.002   2.783   4.310
 9056SOL     OW28066   0.708   2.534   2.079
 9056SOL    HW128067   0.673   2.618   2.120
 9056SOL    HW228068   0.633   2.484   2.036
 9057SOL     OW28069   5.224   3.305   5.912
 9057SOL    HW128070   5.259   3.265   5.827
 9057SOL    HW228071   5.215   3.404   5.901
 9058SOL     OW28072   2.116   0.746   1.843
 9058SOL    HW128073   2.059   0.671   1.810
 9058SOL    HW228074   2.098   0.828   1.790
 9059SOL     OW28075   1.866   1.477   3.322
 9059SOL    HW128076   1.946   1.505   3.269
 9059SOL    HW228077   1.786   1.528   3.290
 9060SOL     OW28078   6.411   2.886   4.351
 9060SOL    HW128079   6.490   2.904   4.293
 9060SOL    HW228080   6.400   2.787   4.363
 9061SOL     OW28081   2.130   5.465   2.070
 9061SOL    HW128082   2.141   5.406   1.990
 9061SOL    HW228083   2.156   5.559   2.046
 9062SOL     OW28084   1.566   6.567   2.141
 9062SOL    HW128085   1.551   6.475   2.176
 9062SOL    HW228086   1.649   6.606   2.182
 9063SOL     OW28087   3.207   0.609   4.056
 9063SOL    HW128088   3.306   0.598   4.066
 9063SOL    HW228089   3.188   0.668   3.978
 9064SOL     OW28090   6.166   2.345   5.966
 9064SOL    HW128091   6.206   2.436   5.951
 9064SOL    HW228092   6.140   2.335   6.062
 9065SOL     OW28093   3.757   1.009   6.754
 9065SOL    HW128094   3.746   1.019   6.853
 9065SOL    HW228095   3.766   0.912   6.731
 9066SOL     OW28096   5.220   6.792   0.488
 9066SOL    HW128097   5.311   6.834   0.491
 9066SOL    HW228098   5.216   6.726   0.413
 9067SOL     OW28099   0.997   0.504   4.308
 9067SOL    HW128100   1.040   0.590   4.278
 9067SOL    HW228101   1.015   0.433   4.240
 9068SOL     OW28102   1.817   6.274   4.271
 9068SOL    HW128103   1.906   6.316   4.289
 9068SOL    HW228104   1.827   6.205   4.199
 9069SOL     OW28105   1.464   2.881   1.690
 9069SOL    HW128106   1.485   2.785   1.671
 9069SOL    HW228107   1.536   2.919   1.748
 9070SOL     OW28108   1.307   3.015   5.081
 9070SOL    HW128109   1.231   3.080   5.080
 9070SOL    HW228110   1.324   2.982   4.988
 9071SOL     OW28111   6.616   6.980   1.887
 9071SOL    HW128112   6.595   6.918   1.962
 9071SOL    HW228113   6.539   6.983   1.823
 9072SOL     OW28114   0.331   2.272   0.876
 9072SOL    HW128115   0.281   2.326   0.945
 9072SOL    HW228116   0.424   2.306   0.869
 9073SOL     OW28117   2.811   6.631   2.465
 9073SOL    HW128118   2.799   6.587   2.376
 9073SOL    HW228119   2.852   6.566   2.529
 9074SOL     OW28120   1.061   0.548   2.223
 9074SOL    HW128121   1.141   0.607   2.239
 9074SOL    HW228122   1.014   0.578   2.140
 9075SOL     OW28123   6.924   0.771   2.149
 9075SOL    HW128124   6.914   0.759   2.050
 9075SOL    HW228125   0.001   0.800   2.169
 9076SOL     OW28126   0.314   2.109   5.958
 9076SOL    HW128127   0.222   2.117   5.996
 9076SOL    HW228128   0.308   2.090   5.859
 9077SOL     OW28129   5.019   0.599   0.729
 9077SOL    HW128130   5.110   0.556   0.733
 9077SOL    HW228131   4.960   0.545   0.669
 9078SOL     OW28132   3.698   3.629   5.063
 9078SOL    HW128133   3.752   3.558   5.107
 9078SOL    HW228134   3.752   3.714   5.058
 9079SOL     OW28135   2.535   0.651   4.542
 9079SOL    HW128136   2.440   0.641   4.571
 9079SOL    HW228137   2.574   0.561   4.523
 9080SOL     OW28138   5.101   2.574   6.584
 9080SOL    HW128139   5.010   2.537   6.562
 9080SOL    HW228140   5.113   2.576   6.683
 9081SOL     OW28141   4.137   6.748   2.414
 9081SOL    HW128142   4.053   6.776   2.367
 9081SOL    HW228143   4.164   6.819   2.479
 9082SOL     OW28144   2.414   0.184   5.492
 9082SOL    HW128145   2.377   0.204   5.401
 9082SOL    HW228146   2.380   0.095   5.523
 9083SOL     OW28147   3.658   5.302   6.004
 9083SOL    HW128148   3.671   5.358   6.086
 9083SOL    HW228149   3.597   5.226   6.025
 9084SOL     OW28150   3.264   3.702   3.035
 9084SOL    HW128151   3.279   3.676   2.940
 9084SOL    HW228152   3.341   3.671   3.091
 9085SOL     OW28153   2.250   0.309   1.153
 9085SOL    HW128154   2.180   0.306   1.225
 9085SOL    HW228155   2.224   0.248   1.079
 9086SOL     OW28156   0.649   4.530   0.335
 9086SOL    HW128157   0.732   4.502   0.287
 9086SOL    HW228158   0.625   4.624   0.308
 9087SOL     OW28159   4.737   2.403   1.171
 9087SOL    HW128160   4.673   2.440   1.238
 9087SOL    HW228161   4.814   2.466   1.160
 9088SOL     OW28162   6.532   6.911   1.222
 9088SOL    HW128163   6.519   6.814   1.244
 9088SOL    HW228164   6.526   6.965   1.306
 9089SOL     OW28165   5.233   6.068   5.588
 9089SOL    HW128166   5.269   6.123   5.513
 9089SOL    HW228167   5.145   6.028   5.561
 9090SOL     OW28168   6.125   1.049   5.350
 9090SOL    HW128169   6.070   0.981   5.400
 9090SOL    HW228170   6.070   1.091   5.278
 9091SOL     OW28171   2.867   4.004   0.098
 9091SOL    HW128172   2.796   4.021   0.166
 9091SOL    HW228173   2.916   4.089   0.079
 9092SOL     OW28174   6.577   0.577   6.616
 9092SOL    HW128175   6.498   0.529   6.654
 9092SOL    HW228176   6.549   0.631   6.537
 9093SOL     OW28177   1.515   6.068   5.220
 9093SOL    HW128178   1.505   6.159   5.262
 9093SOL    HW228179   1.435   6.048   5.164
 9094SOL     OW28180   6.323   4.704   2.890
 9094SOL    HW128181   6.239   4.756   2.879
 9094SOL    HW228182   6.329   4.671   2.985
 9095SOL     OW28183   4.833   4.889   6.750
 9095SOL    HW128184   4.879   4.919   6.834
 9095SOL    HW228185   4.901   4.872   6.679
 9096SOL     OW28186   6.250   5.356   2.891
 9096SOL    HW128187   6.282   5.318   2.979
 9096SOL    HW228188   6.153   5.337   2.880
 9097SOL     OW28189   2.051   2.258   0.416
 9097SOL    HW128190   1.966   2.274   0.466
 9097SOL    HW228191   2.046   2.170   0.368
 9098SOL     OW28192   2.862   1.878   4.791
 9098SOL    HW128193   2.831   1.841   4.704
 9098SOL    HW228194   2.890   1.973   4.779
 9099SOL     OW28195   2.642   3.218   6.205
 9099SOL    HW128196   2.602   3.291   6.150
 9099SOL    HW228197   2.570   3.174   6.259
 9100SOL     OW28198   0.884   3.599   3.083
 9100SOL    HW128199   0.975   3.639   3.089
 9100SOL    HW228200   0.868   3.539   3.161
 9101SOL     OW28201   2.665   1.434   2.278
 9101SOL    HW128202   2.602   1.465   2.207
 9101SOL    HW228203   2.615   1.425   2.365
 9102SOL     OW28204   3.148   6.361   1.735
 9102SOL    HW128205   3.112   6.444   1.778
 9102SOL    HW228206   3.082   6.326   1.669
 9103SOL     OW28207   5.635   1.534   0.345
 9103SOL    HW128208   5.535   1.540   0.349
 9103SOL    HW228209   5.672   1.625   0.326
 9104SOL     OW28210   0.111   6.833   1.493
 9104SOL    HW128211   0.145   6.915   1.539
 9104SOL    HW228212   0.173   6.809   1.418
 9105SOL     OW28213   1.305   0.190   5.203
 9105SOL    HW128214   1.244   0.224   5.275
 9105SOL    HW228215   1.373   0.129   5.244
 9106SOL     OW28216   6.881   2.991   0.824
 9106SOL    HW128217   6.883   2.968   0.726
 9106SOL    HW228218   6.898   2.908   0.877
 9107SOL     OW28219   1.962   0.655   0.004
 9107SOL    HW128220   1.920   0.732   0.050
 9107SOL    HW228221   1.891   0.593   6.987
 9108SOL     OW28222   4.528   4.163   5.713
 9108SOL    HW128223   4.481   4.099   5.652
 9108SOL    HW228224   4.462   4.202   5.777
 9109SOL     OW28225   4.922   3.342   3.171
 9109SOL    HW128226   4.893   3.395   3.091
 9109SOL    HW228227   5.018   3.317   3.162
 9110SOL     OW28228   1.415   5.411   4.027
 9110SOL    HW128229   1.506   5.390   3.992
 9110SOL    HW228230   1.417   5.497   4.078
 9111SOL     OW28231   4.395   2.845   0.088
 9111SOL    HW128232   4.485   2.872   0.124
 9111SOL    HW228233   4.367   2.910   0.018
 9112SOL     OW28234   1.412   5.197   2.644
 9112SOL    HW128235   1.368   5.168   2.559
 9112SOL    HW228236   1.485   5.262   2.623
 9113SOL     OW28237   5.032   2.577   3.534
 9113SOL    HW128238   5.094   2.531   3.470
 9113SOL    HW228239   4.937   2.562   3.505
 9114SOL     OW28240   0.739   5.571   4.080
 9114SOL    HW128241   0.668   5.508   4.109
 9114SOL    HW228242   0.701   5.664   4.073
 9115SOL     OW28243   5.992   5.428   4.541
 9115SOL    HW128244   6.030   5.409   4.632
 9115SOL    HW228245   6.065   5.424   4.473
 9116SOL     OW28246   6.636   0.396   3.000
 9116SOL    HW128247   6.725   0.440   2.987
 9116SOL    HW228248   6.583   0.448   3.067
 9117SOL     OW28249   4.691   2.284   6.567
 9117SOL    HW128250   4.721   2.378   6.551
 9117SOL    HW228251   4.645   2.249   6.486
 9118SOL     OW28252   6.267   3.518   0.157
 9118SOL    HW128253   6.289   3.514   0.060
 9118SOL    HW228254   6.183   3.466   0.175
 9119SOL     OW28255   4.190   0.764   1.652
 9119SOL    HW128256   4.181   0.827   1.575
 9119SOL    HW228257   4.193   0.670   1.617
 9120SOL     OW28258   6.649   2.738   5.536
 9120SOL    HW128259   6.679   2.652   5.578
 9120SOL    HW228260   6.589   2.719   5.459
 9121SOL     OW28261   4.112   6.639   5.418
 9121SOL    HW128262   4.048   6.564   5.397
 9121SOL    HW228263   4.144   6.631   5.512
 9122SOL     OW28264   2.238   4.005   2.025
 9122SOL    HW128265   2.210   4.019   2.120
 9122SOL    HW228266   2.334   4.027   2.014
 9123SOL     OW28267   1.567   0.234   4.111
 9123SOL    HW128268   1.665   0.238   4.130
 9123SOL    HW228269   1.523   0.169   4.173
 9124SOL     OW28270   3.889   5.619   1.937
 9124SOL    HW128271   3.895   5.561   2.018
 9124SOL    HW228272   3.978   5.659   1.918
 9125SOL     OW28273   3.471   4.241   1.020
 9125SOL    HW128274   3.537   4.309   0.989
 9125SOL    HW228275   3.423   4.275   1.101
 9126SOL     OW28276   4.788   3.887   0.826
 9126SOL    HW128277   4.758   3.900   0.921
 9126SOL    HW228278   4.887   3.896   0.821
 9127SOL     OW28279   6.343   2.736   5.002
 9127SOL    HW128280   6.339   2.772   4.909
 9127SOL    HW228281   6.346   2.636   4.999
 9128SOL     OW28282   6.286   2.465   4.591
 9128SOL    HW128283   6.330   2.407   4.659
 9128SOL    HW228284   6.328   2.450   4.502
 9129SOL     OW28285   1.011   2.652   0.860
 9129SOL    HW128286   0.993   2.650   0.761
 9129SOL    HW228287   1.109   2.665   0.875
 9130SOL     OW28288   0.728   4.329   5.997
 9130SOL    HW128289   0.665   4.326   5.920
 9130SOL    HW228290   0.813   4.282   5.974
 9131SOL     OW28291   5.553   3.002   0.107
 9131SOL    HW128292   5.576   2.974   0.014
 9131SOL    HW228293   5.551   2.921   0.166
 9132SOL     OW28294   0.674   4.896   4.028
 9132SOL    HW128295   0.673   4.798   4.011
 9132SOL    HW228296   0.760   4.935   3.995
 9133SOL     OW28297   3.267   1.170   1.138
 9133SOL    HW128298   3.178   1.211   1.157
 9133SOL    HW228299   3.316   1.226   1.072
 9134SOL     OW28300   4.315   5.489   0.782
 9134SOL    HW128301   4.309   5.490   0.682
 9134SOL    HW228302   4.245   5.428   0.819
 9135SOL     OW28303   1.509   6.538   1.645
 9135SOL    HW128304   1.438   6.581   1.701
 9135SOL    HW228305   1.589   6.517   1.701
 9136SOL     OW28306   4.414   5.729   5.453
 9136SOL    HW128307   4.361   5.792   5.398
 9136SOL    HW228308   4.427   5.767   5.545
 9137SOL     OW28309   4.485   6.579   5.479
 9137SOL    HW128310   4.438   6.613   5.398
 9137SOL    HW228311   4.482   6.648   5.551
 9138SOL     OW28312   1.917   3.487   0.721
 9138SOL    HW128313   1.914   3.486   0.621
 9138SOL    HW228314   2.013   3.493   0.751
 9139SOL     OW28315   0.784   1.212   1.655
 9139SOL    HW128316   0.773   1.188   1.559
 9139SOL    HW228317   0.840   1.294   1.664
 9140SOL     OW28318   0.366   4.834   1.980
 9140SOL    HW128319   0.266   4.831   1.969
 9140SOL    HW228320   0.402   4.741   1.979
 9141SOL     OW28321   6.772   6.075   6.829
 9141SOL    HW128322   6.761   6.026   6.743
 9141SOL    HW228323   6.858   6.125   6.829
 9142SOL     OW28324   0.382   2.640   2.873
 9142SOL    HW128325   0.458   2.635   2.938
 9142SOL    HW228326   0.299   2.667   2.922
 9143SOL     OW28327   0.101   3.727   1.305
 9143SOL    HW128328   0.180   3.777   1.339
 9143SOL    HW228329   0.130   3.635   1.278
 9144SOL     OW28330   2.716   4.758   4.744
 9144SOL    HW128331   2.780   4.700   4.796
 9144SOL    HW228332   2.668   4.819   4.806
 9145SOL     OW28333   1.263   0.123   6.695
 9145SOL    HW128334   1.325   0.051   6.725
 9145SOL    HW228335   1.193   0.138   6.765
 9146SOL     OW28336   5.772   2.393   3.530
 9146SOL    HW128337   5.752   2.371   3.626
 9146SOL    HW228338   5.687   2.394   3.478
 9147SOL     OW28339   5.652   0.441   5.251
 9147SOL    HW128340   5.696   0.408   5.334
 9147SOL    HW228341   5.710   0.512   5.209
 9148SOL     OW28342   6.117   0.111   1.930
 9148SOL    HW128343   6.169   0.189   1.966
 9148SOL    HW228344   6.095   0.127   1.834
 9149SOL     OW28345   5.698   2.914   2.084
 9149SOL    HW128346   5.668   2.819   2.085
 9149SOL    HW228347   5.671   2.956   1.997
 9150SOL     OW28348   3.043   4.728   0.076
 9150SOL    HW128349   3.100   4.766   0.003
 9150SOL    HW228350   3.096   4.721   0.160
 9151SOL     OW28351   2.261   4.116   4.075
 9151SOL    HW128352   2.262   4.042   4.142
 9151SOL    HW228353   2.281   4.202   4.121
 9152SOL     OW28354   1.587   4.018   4.528
 9152SOL    HW128355   1.676   4.038   4.569
 9152SOL    HW228356   1.584   4.054   4.435
 9153SOL     OW28357   0.809   2.750   6.442
 9153SOL    HW128358   0.852   2.761   6.353
 9153SOL    HW228359   0.757   2.833   6.465
 9154SOL     OW28360   5.012   5.035   2.999
 9154SOL    HW128361   4.964   4.955   2.962
 9154SOL    HW228362   4.946   5.109   3.013
 9155SOL     OW28363   2.006   4.768   2.316
 9155SOL    HW128364   2.003   4.759   2.416
 9155SOL    HW228365   2.035   4.681   2.276
 9156SOL     OW28366   6.876   2.840   1.237
 9156SOL    HW128367   6.948   2.893   1.282
 9156SOL    HW228368   6.804   2.819   1.303
 9157SOL     OW28369   3.256   4.245   6.291
 9157SOL    HW128370   3.275   4.181   6.216
 9157SOL    HW228371   3.197   4.201   6.359
 9158SOL     OW28372   6.248   4.211   4.030
 9158SOL    HW128373   6.265   4.294   3.977
 9158SOL    HW228374   6.253   4.131   3.970
 9159SOL     OW28375   2.650   7.005   3.219
 9159SOL    HW128376   2.732   0.029   3.259
 9159SOL    HW228377   2.666   6.985   3.123
 9160SOL     OW28378   0.129   4.987   6.730
 9160SOL    HW128379   0.078   4.916   6.779
 9160SOL    HW228380   0.077   5.072   6.730
 9161SOL     OW28381   5.910   4.199   2.340
 9161SOL    HW128382   5.867   4.289   2.340
 9161SOL    HW228383   6.008   4.209   2.357
 9162SOL     OW28384   3.847   1.333   3.015
 9162SOL    HW128385   3.834   1.397   3.090
 9162SOL    HW228386   3.906   1.258   3.046
 9163SOL     OW28387   6.922   2.298   1.789
 9163SOL    HW128388   6.937   2.355   1.869
 9163SOL    HW228389   6.831   2.314   1.752
 9164SOL     OW28390   2.498   0.592   0.021
 9164SOL    HW128391   2.533   0.504   0.052
 9164SOL    HW228392   2.505   0.598   6.938
 9165SOL     OW28393   4.941   2.144   5.704
 9165SOL    HW128394   4.972   2.049   5.703
 9165SOL    HW228395   4.980   2.193   5.626
 9166SOL     OW28396   4.117   5.548   1.172
 9166SOL    HW128397   4.178   5.479   1.212
 9166SOL    HW228398   4.159   5.638   1.182
 9167SOL     OW28399   1.149   1.819   6.636
 9167SOL    HW128400   1.117   1.726   6.652
 9167SOL    HW228401   1.204   1.849   6.714
 9168SOL     OW28402   6.018   4.725   6.360
 9168SOL    HW128403   5.930   4.700   6.403
 9168SOL    HW228404   6.001   4.791   6.287
 9169SOL     OW28405   6.705   6.404   6.485
 9169SOL    HW128406   6.779   6.348   6.450
 9169SOL    HW228407   6.648   6.351   6.547
 9170SOL     OW28408   1.974   1.584   5.970
 9170SOL    HW128409   1.954   1.678   5.941
 9170SOL    HW228410   2.067   1.580   6.006
 9171SOL     OW28411   2.817   5.075   1.081
 9171SOL    HW128412   2.854   5.164   1.055
 9171SOL    HW228413   2.746   5.088   1.151
 9172SOL     OW28414   4.953   1.469   5.055
 9172SOL    HW128415   5.034   1.426   5.016
 9172SOL    HW228416   4.945   1.562   5.019
 9173SOL     OW28417   6.821   2.704   4.051
 9173SOL    HW128418   6.917   2.695   4.078
 9173SOL    HW228419   6.815   2.754   3.965
 9174SOL     OW28420   0.475   5.956   0.309
 9174SOL    HW128421   0.502   5.862   0.329
 9174SOL    HW228422   0.538   5.997   0.243
 9175SOL     OW28423   1.571   6.605   0.363
 9175SOL    HW128424   1.486   6.554   0.379
 9175SOL    HW228425   1.641   6.542   0.329
 9176SOL     OW28426   2.288   0.860   2.817
 9176SOL    HW128427   2.379   0.901   2.824
 9176SOL    HW228428   2.245   0.890   2.731
 9177SOL     OW28429   0.974   3.341   3.631
 9177SOL    HW128430   0.938   3.272   3.568
 9177SOL    HW228431   1.046   3.300   3.687
 9178SOL     OW28432   1.966   6.326   6.583
 9178SOL    HW128433   1.873   6.363   6.584
 9178SOL    HW228434   1.971   6.251   6.516
 9179SOL     OW28435   3.596   5.950   5.174
 9179SOL    HW128436   3.502   5.923   5.154
 9179SOL    HW228437   3.659   5.882   5.135
 9180SOL     OW28438   6.526   1.940   4.256
 9180SOL    HW128439   6.557   1.914   4.348
 9180SOL    HW228440   6.592   2.001   4.214
 9181SOL     OW28441   4.654   2.400   3.836
 9181SOL    HW128442   4.637   2.401   3.935
 9181SOL    HW228443   4.636   2.490   3.798
 9182SOL     OW28444   1.989   1.146   2.739
 9182SOL    HW128445   2.031   1.058   2.762
 9182SOL    HW228446   1.964   1.148   2.642
 9183SOL     OW28447   4.767   2.994   6.810
 9183SOL    HW128448   4.777   3.022   6.905
 9183SOL    HW228449   4.695   2.926   6.802
 9184SOL     OW28450   3.182   2.658   1.177
 9184SOL    HW128451   3.136   2.690   1.094
 9184SOL    HW228452   3.116   2.608   1.234
 9185SOL     OW28453   6.903   0.177   5.934
 9185SOL    HW128454   6.910   0.277   5.930
 9185SOL    HW228455   6.915   0.147   6.029
 9186SOL     OW28456   4.579   0.418   6.105
 9186SOL    HW128457   4.632   0.502   6.095
 9186SOL    HW228458   4.618   0.347   6.046
 9187SOL     OW28459   4.863   1.908   6.842
 9187SOL    HW128460   4.815   1.996   6.837
 9187SOL    HW228461   4.928   1.909   6.918
 9188SOL     OW28462   1.426   0.229   1.044
 9188SOL    HW128463   1.448   0.256   1.138
 9188SOL    HW228464   1.330   0.247   1.025
 9189SOL     OW28465   2.902   1.217   3.164
 9189SOL    HW128466   2.969   1.236   3.091
 9189SOL    HW228467   2.906   1.121   3.189
 9190SOL     OW28468   5.780   3.494   5.265
 9190SOL    HW128469   5.710   3.545   5.215
 9190SOL    HW228470   5.786   3.401   5.229
 9191SOL     OW28471   5.371   6.341   6.780
 9191SOL    HW128472   5.282   6.370   6.746
 9191SOL    HW228473   5.365   6.321   6.878
 9192SOL     OW28474   6.291   3.984   5.504
 9192SOL    HW128475   6.239   4.023   5.429
 9192SOL    HW228476   6.235   3.916   5.552
 9193SOL     OW28477   3.368   3.014   4.006
 9193SOL    HW128478   3.420   3.032   3.923
 9193SOL    HW228479   3.282   2.968   3.983
 9194SOL     OW28480   3.434   6.021   2.155
 9194SOL    HW128481   3.403   6.060   2.069
 9194SOL    HW228482   3.483   5.935   2.137
 9195SOL     OW28483   0.871   2.944   3.535
 9195SOL    HW128484   0.878   2.921   3.438
 9195SOL    HW228485   0.840   2.865   3.586
 9196SOL     OW28486   3.650   0.154   3.860
 9196SOL    HW128487   3.711   0.092   3.910
 9196SOL    HW228488   3.566   0.105   3.836
 9197SOL     OW28489   2.514   3.408   0.255
 9197SOL    HW128490   2.491   3.319   0.215
 9197SOL    HW228491   2.566   3.462   0.189
 9198SOL     OW28492   5.607   4.178   5.976
 9198SOL    HW128493   5.563   4.229   5.902
 9198SOL    HW228494   5.537   4.137   6.034
 9199SOL     OW28495   0.944   3.754   5.940
 9199SOL    HW128496   0.984   3.845   5.954
 9199SOL    HW228497   0.980   3.715   5.855
 9200SOL     OW28498   0.543   6.024   0.931
 9200SOL    HW128499   0.503   6.116   0.940
 9200SOL    HW228500   0.480   5.966   0.878
 9201SOL     OW28501   0.220   4.457   1.926
 9201SOL    HW128502   0.177   4.536   1.969
 9201SOL    HW228503   0.296   4.487   1.868
 9202SOL     OW28504   2.114   5.277   4.485
 9202SOL    HW128505   2.015   5.283   4.471
 9202SOL    HW228506   2.137   5.189   4.526
 9203SOL     OW28507   5.171   1.516   6.381
 9203SOL    HW128508   5.267   1.489   6.391
 9203SOL    HW228509   5.115   1.435   6.364
 9204SOL     OW28510   5.777   3.930   2.904
 9204SOL    HW128511   5.787   3.942   3.003
 9204SOL    HW228512   5.860   3.889   2.867
 9205SOL     OW28513   5.147   3.328   2.698
 9205SOL    HW128514   5.068   3.377   2.663
 9205SOL    HW228515   5.169   3.252   2.638
 9206SOL     OW28516   2.736   6.275   4.871
 9206SOL    HW128517   2.656   6.238   4.823
 9206SOL    HW228518   2.812   6.284   4.806
 9207SOL     OW28519   3.743   6.268   5.975
 9207SOL    HW128520   3.839   6.249   5.955
 9207SOL    HW228521   3.717   6.355   5.934
 9208SOL     OW28522   5.009   3.364   2.349
 9208SOL    HW128523   4.975   3.276   2.316
 9208SOL    HW228524   5.109   3.365   2.345
 9209SOL     OW28525   4.289   0.790   2.442
 9209SOL    HW128526   4.338   0.773   2.528
 9209SOL    HW228527   4.230   0.712   2.421
 9210SOL     OW28528   2.289   6.567   1.630
 9210SOL    HW128529   2.192   6.563   1.605
 9210SOL    HW228530   2.340   6.500   1.577
 9211SOL     OW28531   5.665   1.588   6.162
 9211SOL    HW128532   5.741   1.553   6.108
 9211SOL    HW228533   5.691   1.588   6.259
 9212SOL     OW28534   4.615   4.348   4.728
 9212SOL    HW128535   4.602   4.446   4.746
 9212SOL    HW228536   4.565   4.295   4.796
 9213SOL     OW28537   5.788   6.993   4.552
 9213SOL    HW128538   5.826   6.942   4.475
 9213SOL    HW228539   5.862   0.018   4.604
 9214SOL     OW28540   1.407   2.211   5.084
 9214SOL    HW128541   1.465   2.276   5.132
 9214SOL    HW228542   1.317   2.251   5.067
 9215SOL     OW28543   0.231   4.319   2.329
 9215SOL    HW128544   0.235   4.408   2.285
 9215SOL    HW228545   0.259   4.328   2.425
 9216SOL     OW28546   2.765   5.985   4.621
 9216SOL    HW128547   2.751   5.899   4.671
 9216SOL    HW228548   2.732   6.062   4.675
 9217SOL     OW28549   4.855   1.037   6.299
 9217SOL    HW128550   4.755   1.027   6.301
 9217SOL    HW228551   4.896   0.987   6.375
 9218SOL     OW28552   4.709   0.077   6.597
 9218SOL    HW128553   4.632   0.013   6.601
 9218SOL    HW228554   4.677   0.165   6.563
 9219SOL     OW28555   3.911   3.161   5.343
 9219SOL    HW128556   3.843   3.135   5.412
 9219SOL    HW228557   3.999   3.178   5.388
 9220SOL     OW28558   2.252   6.277   3.019
 9220SOL    HW128559   2.306   6.315   2.944
 9220SOL    HW228560   2.268   6.330   3.102
 9221SOL     OW28561   2.476   0.397   5.881
 9221SOL    HW128562   2.568   0.365   5.860
 9221SOL    HW228563   2.482   0.482   5.934
 9222SOL     OW28564   2.735   4.707   4.178
 9222SOL    HW128565   2.771   4.619   4.212
 9222SOL    HW228566   2.684   4.752   4.251
 9223SOL     OW28567   0.939   3.928   4.211
 9223SOL    HW128568   0.976   3.985   4.138
 9223SOL    HW228569   0.841   3.913   4.195
 9224SOL     OW28570   1.013   4.112   4.021
 9224SOL    HW128571   1.103   4.153   4.038
 9224SOL    HW228572   0.985   4.133   3.927
 9225SOL     OW28573   3.645   6.359   5.696
 9225SOL    HW128574   3.642   6.336   5.599
 9225SOL    HW228575   3.740   6.376   5.724
 9226SOL     OW28576   0.779   0.307   1.146
 9226SOL    HW128577   0.737   0.281   1.233
 9226SOL    HW228578   0.771   0.232   1.081
 9227SOL     OW28579   1.627   5.504   1.027
 9227SOL    HW128580   1.608   5.463   0.937
 9227SOL    HW228581   1.715   5.551   1.024
 9228SOL     OW28582   2.038   2.588   5.898
 9228SOL    HW128583   1.964   2.654   5.910
 9228SOL    HW228584   2.117   2.634   5.856
 9229SOL     OW28585   0.663   4.695   6.545
 9229SOL    HW128586   0.576   4.719   6.502
 9229SOL    HW228587   0.669   4.740   6.634
 9230SOL     OW28588   5.052   2.538   4.551
 9230SOL    HW128589   5.000   2.609   4.504
 9230SOL    HW228590   5.038   2.450   4.506
 9231SOL     OW28591   0.429   4.950   5.522
 9231SOL    HW128592   0.345   4.994   5.490
 9231SOL    HW228593   0.490   5.020   5.560
 9232SOL     OW28594   1.948   5.408   1.833
 9232SOL    HW128595   2.043   5.375   1.828
 9232SOL    HW228596   1.892   5.341   1.881
 9233SOL     OW28597   0.699   6.311   0.577
 9233SOL    HW128598   0.665   6.346   0.490
 9233SOL    HW228599   0.684   6.212   0.581
 9234SOL     OW28600   2.355   5.313   1.423
 9234SOL    HW128601   2.320   5.249   1.354
 9234SOL    HW228602   2.418   5.264   1.484
 9235SOL     OW28603   2.106   2.510   3.162
 9235SOL    HW128604   2.131   2.481   3.070
 9235SOL    HW228605   2.189   2.521   3.217
 9236SOL     OW28606   2.110   4.229   6.978
 9236SOL    HW128607   2.054   4.218   6.896
 9236SOL    HW228608   2.185   4.163   6.976
 9237SOL     OW28609   6.772   5.513   2.948
 9237SOL    HW128610   6.830   5.591   2.969
 9237SOL    HW228611   6.814   5.458   2.875
 9238SOL     OW28612   1.860   3.175   5.355
 9238SOL    HW128613   1.896   3.084   5.334
 9238SOL    HW228614   1.803   3.206   5.279
 9239SOL     OW28615   6.777   4.323   0.275
 9239SOL    HW128616   6.695   4.300   0.222
 9239SOL    HW228617   6.787   4.422   0.278
 9240SOL     OW28618   5.188   3.150   2.939
 9240SOL    HW128619   5.154   3.223   2.879
 9240SOL    HW228620   5.214   3.071   2.884
 9241SOL     OW28621   0.004   5.684   6.940
 9241SOL    HW128622   0.034   5.679   0.018
 9241SOL    HW228623   0.030   5.773   6.901
 9242SOL     OW28624   1.825   2.337   1.709
 9242SOL    HW128625   1.917   2.335   1.748
 9242SOL    HW228626   1.792   2.431   1.707
 9243SOL     OW28627   0.543   6.520   1.633
 9243SOL    HW128628   0.605   6.513   1.711
 9243SOL    HW228629   0.548   6.437   1.578
 9244SOL     OW28630   3.144   6.506   5.759
 9244SOL    HW128631   3.235   6.471   5.780
 9244SOL    HW228632   3.139   6.603   5.784
 9245SOL     OW28633   1.008   4.136   3.752
 9245SOL    HW128634   1.044   4.223   3.717
 9245SOL    HW228635   0.925   4.112   3.701
 9246SOL     OW28636   6.028   0.068   4.646
 9246SOL    HW128637   6.100   7.017   4.653
 9246SOL    HW228638   6.054   0.138   4.579
 9247SOL     OW28639   3.459   5.407   2.994
 9247SOL    HW128640   3.378   5.456   2.961
 9247SOL    HW228641   3.523   5.472   3.036
 9248SOL     OW28642   2.940   1.157   4.892
 9248SOL    HW128643   2.856   1.127   4.937
 9248SOL    HW228644   3.019   1.116   4.939
 9249SOL     OW28645   3.733   4.749   1.695
 9249SOL    HW128646   3.686   4.836   1.710
 9249SOL    HW228647   3.676   4.675   1.730
 9250SOL     OW28648   6.663   4.681   3.960
 9250SOL    HW128649   6.686   4.777   3.942
 9250SOL    HW228650   6.652   4.633   3.873
 9251SOL     OW28651   3.769   2.728   1.480
 9251SOL    HW128652   3.739   2.742   1.385
 9251SOL    HW228653   3.713   2.657   1.522
 9252SOL     OW28654   4.304   0.458   5.091
 9252SOL    HW128655   4.270   0.389   5.155
 9252SOL    HW228656   4.310   0.419   5.000
 9253SOL     OW28657   6.032   4.894   5.819
 9253SOL    HW128658   6.097   4.869   5.891
 9253SOL    HW228659   6.079   4.894   5.731
 9254SOL     OW28660   5.658   4.785   2.430
 9254SOL    HW128661   5.726   4.757   2.498
 9254SOL    HW228662   5.609   4.705   2.397
 9255SOL     OW28663   6.329   3.691   6.656
 9255SOL    HW128664   6.255   3.748   6.692
 9255SOL    HW228665   6.293   3.633   6.582
 9256SOL     OW28666   1.940   6.958   1.809
 9256SOL    HW128667   1.991   0.025   1.791
 9256SOL    HW228668   2.000   6.891   1.854
 9257SOL     OW28669   5.927   5.582   3.367
 9257SOL    HW128670   5.860   5.605   3.297
 9257SOL    HW228671   6.002   5.649   3.365
 9258SOL     OW28672   3.339   3.849   0.185
 9258SOL    HW128673   3.382   3.761   0.204
 9258SOL    HW228674   3.297   3.885   0.268
 9259SOL     OW28675   2.017   1.705   0.120
 9259SOL    HW128676   2.000   1.802   0.105
 9259SOL    HW228677   2.072   1.693   0.202
 9260SOL     OW28678   6.527   3.140   5.604
 9260SOL    HW128679   6.453   3.206   5.598
 9260SOL    HW228680   6.534   3.090   5.517
 9261SOL     OW28681   4.553   1.419   0.548
 9261SOL    HW128682   4.494   1.342   0.522
 9261SOL    HW228683   4.549   1.489   0.477
 9262SOL     OW28684   0.267   6.388   4.407
 9262SOL    HW128685   0.283   6.289   4.407
 9262SOL    HW228686   0.192   6.409   4.344
 9263SOL     OW28687   3.217   5.496   2.857
 9263SOL    HW128688   3.234   5.542   2.770
 9263SOL    HW228689   3.119   5.481   2.867
 9264SOL     OW28690   5.492   3.767   6.579
 9264SOL    HW128691   5.448   3.677   6.576
 9264SOL    HW228692   5.444   3.825   6.645
 9265SOL     OW28693   3.351   2.181   6.397
 9265SOL    HW128694   3.401   2.156   6.480
 9265SOL    HW228695   3.381   2.124   6.321
 9266SOL     OW28696   0.535   4.996   1.699
 9266SOL    HW128697   0.580   5.071   1.748
 9266SOL    HW228698   0.497   4.931   1.765
 9267SOL     OW28699   0.539   1.841   3.973
 9267SOL    HW128700   0.498   1.914   3.918
 9267SOL    HW228701   0.611   1.880   4.031
 9268SOL     OW28702   0.281   6.378   2.044
 9268SOL    HW128703   0.362   6.320   2.031
 9268SOL    HW228704   0.212   6.354   1.975
 9269SOL     OW28705   4.714   0.511   0.017
 9269SOL    HW128706   4.719   0.437   6.967
 9269SOL    HW228707   4.768   0.589   7.002
 9270SOL     OW28708   3.589   1.579   5.674
 9270SOL    HW128709   3.644   1.661   5.661
 9270SOL    HW228710   3.539   1.558   5.589
 9271SOL     OW28711   1.075   0.647   0.342
 9271SOL    HW128712   1.073   0.690   0.252
 9271SOL    HW228713   1.166   0.658   0.383
 9272SOL     OW28714   0.805   6.440   5.575
 9272SOL    HW128715   0.830   6.508   5.644
 9272SOL    HW228716   0.714   6.461   5.538
 9273SOL     OW28717   5.334   5.928   4.022
 9273SOL    HW128718   5.415   5.882   3.986
 9273SOL    HW228719   5.358   6.019   4.055
 9274SOL     OW28720   0.292   3.286   0.264
 9274SOL    HW128721   0.325   3.375   0.233
 9274SOL    HW228722   0.342   3.213   0.217
 9275SOL     OW28723   0.988   6.575   1.036
 9275SOL    HW128724   0.994   6.659   1.090
 9275SOL    HW228725   0.948   6.503   1.093
 9276SOL     OW28726   3.470   4.941   6.424
 9276SOL    HW128727   3.417   4.881   6.364
 9276SOL    HW228728   3.526   4.885   6.485
 9277SOL     OW28729   3.962   4.816   2.439
 9277SOL    HW128730   3.963   4.869   2.523
 9277SOL    HW228731   3.867   4.804   2.409
 9278SOL     OW28732   0.419   0.190   4.739
 9278SOL    HW128733   0.498   0.135   4.712
 9278SOL    HW228734   0.335   0.141   4.718
 9279SOL     OW28735   3.510   5.869   1.547
 9279SOL    HW128736   3.485   5.815   1.627
 9279SOL    HW228737   3.610   5.875   1.541
 9280SOL     OW28738   1.734   1.688   2.397
 9280SOL    HW128739   1.810   1.751   2.381
 9280SOL    HW228740   1.649   1.739   2.407
 9281SOL     OW28741   3.361   3.975   6.053
 9281SOL    HW128742   3.373   3.924   6.139
 9281SOL    HW228743   3.315   3.916   5.986
 9282SOL     OW28744   3.776   0.700   4.357
 9282SOL    HW128745   3.825   0.619   4.326
 9282SOL    HW228746   3.816   0.782   4.316
 9283SOL     OW28747   5.467   6.927   6.353
 9283SOL    HW128748   5.370   6.933   6.377
 9283SOL    HW228749   5.489   6.833   6.326
 9284SOL     OW28750   3.455   3.747   5.136
 9284SOL    HW128751   3.374   3.696   5.106
 9284SOL    HW228752   3.537   3.698   5.108
 9285SOL     OW28753   5.351   3.137   1.955
 9285SOL    HW128754   5.441   3.115   1.918
 9285SOL    HW228755   5.360   3.200   2.031
 9286SOL     OW28756   4.960   6.308   0.416
 9286SOL    HW128757   4.975   6.260   0.329
 9286SOL    HW228758   5.047   6.317   0.464
 9287SOL     OW28759   2.368   4.379   5.979
 9287SOL    HW128760   2.439   4.427   6.032
 9287SOL    HW228761   2.405   4.356   5.889
 9288SOL     OW28762   4.434   2.485   3.481
 9288SOL    HW128763   4.389   2.396   3.473
 9288SOL    HW228764   4.490   2.502   3.400
 9289SOL     OW28765   4.224   0.044   5.914
 9289SOL    HW128766   4.160   0.011   5.984
 9289SOL    HW228767   4.317   0.021   5.942
 9290SOL     OW28768   5.470   0.832   4.577
 9290SOL    HW128769   5.435   0.906   4.635
 9290SOL    HW228770   5.410   0.821   4.498
 9291SOL     OW28771   1.567   6.526   5.484
 9291SOL    HW128772   1.489   6.573   5.442
 9291SOL    HW228773   1.575   6.555   5.579
 9292SOL     OW28774   1.666   1.329   6.048
 9292SOL    HW128775   1.732   1.265   6.088
 9292SOL    HW228776   1.603   1.280   5.988
 9293SOL     OW28777   4.708   2.857   6.398
 9293SOL    HW128778   4.674   2.847   6.305
 9293SOL    HW228779   4.807   2.839   6.399
 9294SOL     OW28780   4.783   1.274   0.544
 9294SOL    HW128781   4.716   1.348   0.552
 9294SOL    HW228782   4.754   1.198   0.602
 9295SOL     OW28783   1.304   0.636   5.054
 9295SOL    HW128784   1.211   0.673   5.053
 9295SOL    HW228785   1.370   0.709   5.072
 9296SOL     OW28786   2.512   3.666   1.289
 9296SOL    HW128787   2.421   3.704   1.280
 9296SOL    HW228788   2.565   3.685   1.207
 9297SOL     OW28789   0.490   5.503   2.978
 9297SOL    HW128790   0.572   5.486   3.031
 9297SOL    HW228791   0.409   5.482   3.033
 9298SOL     OW28792   1.239   6.854   5.812
 9298SOL    HW128793   1.196   6.863   5.902
 9298SOL    HW228794   1.312   6.786   5.818
 9299SOL     OW28795   2.205   1.605   3.989
 9299SOL    HW128796   2.119   1.554   3.977
 9299SOL    HW228797   2.185   1.696   4.026
 9300SOL     OW28798   1.297   5.942   4.999
 9300SOL    HW128799   1.219   5.971   5.054
 9300SOL    HW228800   1.275   5.856   4.954
 9301SOL     OW28801   0.116   4.121   4.644
 9301SOL    HW128802   0.043   4.132   4.577
 9301SOL    HW228803   0.090   4.166   4.729
 9302SOL     OW28804   1.918   3.060   5.055
 9302SOL    HW128805   1.995   2.996   5.058
 9302SOL    HW228806   1.944   3.141   5.003
 9303SOL     OW28807   2.972   4.118   6.830
 9303SOL    HW128808   2.964   4.176   6.911
 9303SOL    HW228809   3.038   4.045   6.848
 9304SOL     OW28810   4.868   5.247   0.488
 9304SOL    HW128811   4.907   5.155   0.476
 9304SOL    HW228812   4.939   5.315   0.475
 9305SOL     OW28813   2.892   1.694   1.300
 9305SOL    HW128814   2.888   1.779   1.352
 9305SOL    HW228815   2.986   1.661   1.297
 9306SOL     OW28816   6.938   3.976   4.459
 9306SOL    HW128817   6.852   4.012   4.423
 9306SOL    HW228818   7.012   3.995   4.395
 9307SOL     OW28819   1.868   4.091   0.775
 9307SOL    HW128820   1.943   4.143   0.733
 9307SOL    HW228821   1.786   4.100   0.720
 9308SOL     OW28822   1.459   4.949   1.741
 9308SOL    HW128823   1.495   4.942   1.648
 9308SOL    HW228824   1.463   5.045   1.771
 9309SOL     OW28825   5.134   6.134   6.174
 9309SOL    HW128826   5.144   6.096   6.082
 9309SOL    HW228827   5.056   6.197   6.175
 9310SOL     OW28828   4.801   5.558   5.819
 9310SOL    HW128829   4.707   5.548   5.849
 9310SOL    HW228830   4.808   5.532   5.722
 9311SOL     OW28831   4.485   3.361   1.369
 9311SOL    HW128832   4.546   3.297   1.321
 9311SOL    HW228833   4.476   3.332   1.465
 9312SOL     OW28834   1.537   2.061   0.869
 9312SOL    HW128835   1.480   1.998   0.921
 9312SOL    HW228836   1.614   2.011   0.830
 9313SOL     OW28837   1.463   0.698   1.862
 9313SOL    HW128838   1.485   0.601   1.851
 9313SOL    HW228839   1.464   0.742   1.772
 9314SOL     OW28840   5.504   3.037   0.694
 9314SOL    HW128841   5.499   2.949   0.742
 9314SOL    HW228842   5.470   3.110   0.752
 9315SOL     OW28843   5.880   0.908   6.375
 9315SOL    HW128844   5.897   0.817   6.337
 9315SOL    HW228845   5.966   0.947   6.408
 9316SOL     OW28846   5.289   0.063   5.106
 9316SOL    HW128847   5.253   0.060   5.199
 9316SOL    HW228848   5.345   0.145   5.094
 9317SOL     OW28849   3.335   5.251   3.318
 9317SOL    HW128850   3.313   5.209   3.406
 9317SOL    HW228851   3.305   5.191   3.243
 9318SOL     OW28852   5.531   5.801   0.214
 9318SOL    HW128853   5.604   5.870   0.218
 9318SOL    HW228854   5.447   5.844   0.183
 9319SOL     OW28855   2.637   3.725   1.066
 9319SOL    HW128856   2.667   3.658   0.998
 9319SOL    HW228857   2.704   3.800   1.071
 9320SOL     OW28858   5.173   0.424   6.367
 9320SOL    HW128859   5.083   0.410   6.327
 9320SOL    HW228860   5.218   0.501   6.322
 9321SOL     OW28861   0.613   2.141   5.825
 9321SOL    HW128862   0.588   2.155   5.921
 9321SOL    HW228863   0.536   2.103   5.776
 9322SOL     OW28864   6.446   4.520   6.092
 9322SOL    HW128865   6.379   4.539   6.164
 9322SOL    HW228866   6.408   4.546   6.004
 9323SOL     OW28867   1.973   2.897   4.092
 9323SOL    HW128868   1.992   2.819   4.152
 9323SOL    HW228869   2.024   2.977   4.124
 9324SOL     OW28870   1.066   3.946   0.544
 9324SOL    HW128871   1.005   3.941   0.466
 9324SOL    HW228872   1.016   3.983   0.623
 9325SOL     OW28873   2.153   5.778   1.641
 9325SOL    HW128874   2.188   5.809   1.552
 9325SOL    HW228875   2.185   5.841   1.712
 9326SOL     OW28876   3.929   5.007   0.749
 9326SOL    HW128877   3.972   5.019   0.839
 9326SOL    HW228878   3.984   5.054   0.680
 9327SOL     OW28879   4.494   0.574   3.107
 9327SOL    HW128880   4.507   0.575   3.008
 9327SOL    HW228881   4.462   0.484   3.136
 9328SOL     OW28882   3.081   6.717   4.795
 9328SOL    HW128883   3.077   6.754   4.888
 9328SOL    HW228884   2.999   6.746   4.745
 9329SOL     OW28885   0.010   5.925   6.511
 9329SOL    HW128886   0.028   5.881   6.598
 9329SOL    HW228887   6.974   5.864   6.452
 9330SOL     OW28888   0.275   0.024   6.211
 9330SOL    HW128889   0.360   0.069   6.239
 9330SOL    HW228890   0.288   6.941   6.213
 9331SOL     OW28891   1.752   2.855   4.996
 9331SOL    HW128892   1.734   2.843   5.094
 9331SOL    HW228893   1.822   2.925   4.983
 9332SOL     OW28894   4.238   5.772   0.460
 9332SOL    HW128895   4.295   5.837   0.410
 9332SOL    HW228896   4.201   5.816   0.542
 9333SOL     OW28897   3.427   5.339   0.598
 9333SOL    HW128898   3.337   5.370   0.626
 9333SOL    HW228899   3.456   5.261   0.654
 9334SOL     OW28900   4.781   6.706   4.252
 9334SOL    HW128901   4.730   6.651   4.319
 9334SOL    HW228902   4.856   6.753   4.298
 9335SOL     OW28903   1.547   2.537   0.885
 9335SOL    HW128904   1.639   2.576   0.890
 9335SOL    HW228905   1.525   2.493   0.972
 9336SOL     OW28906   6.006   0.130   4.905
 9336SOL    HW128907   6.002   0.117   4.806
 9336SOL    HW228908   6.035   0.044   4.948
 9337SOL     OW28909   4.396   0.026   6.842
 9337SOL    HW128910   4.432   6.951   6.862
 9337SOL    HW228911   4.395   0.040   6.744
 9338SOL     OW28912   0.114   6.081   0.077
 9338SOL    HW128913   0.161   6.158   0.120
 9338SOL    HW228914   0.017   6.102   0.067
 9339SOL     OW28915   5.585   5.178   6.583
 9339SOL    HW128916   5.560   5.092   6.540
 9339SOL    HW228917   5.528   5.193   6.664
 9340SOL     OW28918   3.685   6.008   2.626
 9340SOL    HW128919   3.714   5.914   2.615
 9340SOL    HW228920   3.597   6.010   2.674
 9341SOL     OW28921   6.236   4.609   6.277
 9341SOL    HW128922   6.248   4.551   6.357
 9341SOL    HW228923   6.148   4.656   6.283
 9342SOL     OW28924   2.870   0.316   4.639
 9342SOL    HW128925   2.819   0.342   4.721
 9342SOL    HW228926   2.840   0.372   4.562
 9343SOL     OW28927   4.702   3.884   1.794
 9343SOL    HW128928   4.737   3.933   1.874
 9343SOL    HW228929   4.743   3.793   1.789
 9344SOL     OW28930   5.685   5.228   6.321
 9344SOL    HW128931   5.772   5.195   6.283
 9344SOL    HW228932   5.675   5.196   6.415
 9345SOL     OW28933   6.719   6.039   0.068
 9345SOL    HW128934   6.735   6.030   6.987
 9345SOL    HW228935   6.759   6.124   0.101
 9346SOL     OW28936   5.125   6.337   2.692
 9346SOL    HW128937   5.123   6.388   2.778
 9346SOL    HW228938   5.113   6.240   2.711
 9347SOL     OW28939   3.571   5.524   0.949
 9347SOL    HW128940   3.504   5.546   0.878
 9347SOL    HW228941   3.644   5.468   0.909
 9348SOL     OW28942   2.726   5.814   3.161
 9348SOL    HW128943   2.657   5.816   3.233
 9348SOL    HW228944   2.816   5.801   3.202
 9349SOL     OW28945   6.938   5.590   2.200
 9349SOL    HW128946   7.012   5.545   2.252
 9349SOL    HW228947   6.948   5.689   2.207
 9350SOL     OW28948   6.816   1.192   4.583
 9350SOL    HW128949   6.827   1.144   4.496
 9350SOL    HW228950   6.807   1.291   4.566
 9351SOL     OW28951   2.105   1.105   5.542
 9351SOL    HW128952   2.034   1.087   5.610
 9351SOL    HW228953   2.180   1.040   5.553
 9352SOL     OW28954   1.241   2.862   5.609
 9352SOL    HW128955   1.307   2.936   5.623
 9352SOL    HW228956   1.220   2.854   5.511
 9353SOL     OW28957   1.443   4.025   1.962
 9353SOL    HW128958   1.359   3.984   1.928
 9353SOL    HW228959   1.455   4.003   2.059
 9354SOL     OW28960   6.530   2.097   0.981
 9354SOL    HW128961   6.616   2.148   0.975
 9354SOL    HW228962   6.533   2.036   1.061
 9355SOL     OW28963   6.256   1.151   4.176
 9355SOL    HW128964   6.240   1.052   4.172
 9355SOL    HW228965   6.183   1.194   4.229
 9356SOL     OW28966   4.979   5.035   1.821
 9356SOL    HW128967   5.078   5.033   1.806
 9356SOL    HW228968   4.954   4.964   1.888
 9357SOL     OW28969   2.422   4.067   0.318
 9357SOL    HW128970   2.500   4.102   0.266
 9357SOL    HW228971   2.393   3.980   0.279
 9358SOL     OW28972   5.687   3.626   2.121
 9358SOL    HW128973   5.619   3.692   2.155
 9358SOL    HW228974   5.775   3.643   2.165
 9359SOL     OW28975   6.641   3.755   5.724
 9359SOL    HW128976   6.651   3.663   5.685
 9359SOL    HW228977   6.732   3.795   5.737
 9360SOL     OW28978   1.774   0.058   5.860
 9360SOL    HW128979   1.685   0.034   5.822
 9360SOL    HW228980   1.762   0.128   5.931
 9361SOL     OW28981   3.023   6.721   3.065
 9361SOL    HW128982   2.949   6.654   3.071
 9361SOL    HW228983   2.984   6.813   3.059
 9362SOL     OW28984   1.761   1.180   2.068
 9362SOL    HW128985   1.729   1.113   2.000
 9362SOL    HW228986   1.861   1.182   2.068
 9363SOL     OW28987   3.789   5.814   1.572
 9363SOL    HW128988   3.874   5.866   1.580
 9363SOL    HW228989   3.779   5.754   1.652
 9364SOL     OW28990   3.672   3.221   6.249
 9364SOL    HW128991   3.666   3.277   6.331
 9364SOL    HW228992   3.745   3.153   6.260
 9365SOL     OW28993   2.398   2.554   4.630
 9365SOL    HW128994   2.347   2.584   4.711
 9365SOL    HW228995   2.464   2.484   4.655
 9366SOL     OW28996   3.073   1.923   0.047
 9366SOL    HW128997   3.058   2.018   0.020
 9366SOL    HW228998   3.041   1.862   6.992
 9367SOL     OW28999   6.758   5.657   3.852
 9367SOL    HW129000   6.685   5.621   3.792
 9367SOL    HW229001   6.823   5.584   3.872
 9368SOL     OW29002   3.470   1.970   2.901
 9368SOL    HW129003   3.509   2.014   2.981
 9368SOL    HW229004   3.434   2.039   2.838
 9369SOL     OW29005   0.151   1.067   5.976
 9369SOL    HW129006   0.088   1.008   5.926
 9369SOL    HW229007   0.121   1.162   5.968
 9370SOL     OW29008   5.424   0.479   2.447
 9370SOL    HW129009   5.467   0.400   2.491
 9370SOL    HW229010   5.469   0.563   2.478
 9371SOL     OW29011   1.841   5.655   6.995
 9371SOL    HW129012   1.894   5.684   0.058
 9371SOL    HW229013   1.757   5.609   0.008
 9372SOL     OW29014   6.326   6.397   2.812
 9372SOL    HW129015   6.418   6.372   2.844
 9372SOL    HW229016   6.303   6.489   2.844
 9373SOL     OW29017   4.510   2.179   2.878
 9373SOL    HW129018   4.542   2.237   2.803
 9373SOL    HW229019   4.503   2.233   2.962
 9374SOL     OW29020   6.237   2.972   6.896
 9374SOL    HW129021   6.287   3.055   6.920
 9374SOL    HW229022   6.288   2.921   6.826
 9375SOL     OW29023   6.911   1.645   3.450
 9375SOL    HW129024   6.841   1.601   3.507
 9375SOL    HW229025   6.997   1.597   3.460
 9376SOL     OW29026   2.884   3.751   0.715
 9376SOL    HW129027   2.947   3.766   0.791
 9376SOL    HW229028   2.824   3.674   0.736
 9377SOL     OW29029   0.812   5.211   3.572
 9377SOL    HW129030   0.730   5.183   3.523
 9377SOL    HW229031   0.859   5.282   3.520
 9378SOL     OW29032   1.471   0.272   5.556
 9378SOL    HW129033   1.423   0.356   5.581
 9378SOL    HW229034   1.404   0.202   5.529
 9379SOL     OW29035   4.971   4.703   5.061
 9379SOL    HW129036   4.954   4.786   5.008
 9379SOL    HW229037   5.044   4.650   5.016
 9380SOL     OW29038   6.136   5.224   4.932
 9380SOL    HW129039   6.186   5.275   5.001
 9380SOL    HW229040   6.057   5.180   4.973
 9381SOL     OW29041   2.696   3.089   5.955
 9381SOL    HW129042   2.707   3.104   6.053
 9381SOL    HW229043   2.603   3.114   5.927
 9382SOL     OW29044   3.322   1.334   2.652
 9382SOL    HW129045   3.388   1.284   2.709
 9382SOL    HW229046   3.347   1.431   2.650
 9383SOL     OW29047   3.335   6.118   5.037
 9383SOL    HW129048   3.245   6.125   4.993
 9383SOL    HW229049   3.368   6.209   5.060
 9384SOL     OW29050   4.194   6.486   1.264
 9384SOL    HW129051   4.259   6.549   1.307
 9384SOL    HW229052   4.244   6.414   1.216
 9385SOL     OW29053   4.037   1.580   2.003
 9385SOL    HW129054   4.136   1.584   2.014
 9385SOL    HW229055   3.996   1.536   2.083
 9386SOL     OW29056   2.270   6.111   5.083
 9386SOL    HW129057   2.197   6.104   5.152
 9386SOL    HW229058   2.340   6.175   5.116
 9387SOL     OW29059   4.251   0.301   0.148
 9387SOL    HW129060   4.234   0.203   0.155
 9387SOL    HW229061   4.182   0.343   0.088
 9388SOL     OW29062   1.839   6.100   2.480
 9388SOL    HW129063   1.834   6.049   2.394
 9388SOL    HW229064   1.820   6.039   2.557
 9389SOL     OW29065   2.331   0.393   5.657
 9389SOL    HW129066   2.380   0.331   5.595
 9389SOL    HW229067   2.372   0.387   5.749
 9390SOL     OW29068   3.858   6.323   4.425
 9390SOL    HW129069   3.853   6.227   4.398
 9390SOL    HW229070   3.953   6.349   4.442
 9391SOL     OW29071   2.351   0.952   5.557
 9391SOL    HW129072   2.451   0.958   5.552
 9391SOL    HW229073   2.324   0.857   5.572
 9392SOL     OW29074   0.174   0.020   5.005
 9392SOL    HW129075   0.239   0.073   5.059
 9392SOL    HW229076   0.224   6.967   4.952
 9393SOL     OW29077   3.652   1.359   4.624
 9393SOL    HW129078   3.748   1.330   4.624
 9393SOL    HW229079   3.647   1.453   4.657
 9394SOL     OW29080   6.364   1.390   2.983
 9394SOL    HW129081   6.381   1.292   2.983
 9394SOL    HW229082   6.309   1.414   2.903
 9395SOL     OW29083   2.744   2.382   0.094
 9395SOL    HW129084   2.704   2.290   0.099
 9395SOL    HW229085   2.750   2.410   7.015
 9396SOL     OW29086   0.432   5.790   4.198
 9396SOL    HW129087   0.428   5.757   4.293
 9396SOL    HW229088   0.382   5.877   4.191
 9397SOL     OW29089   2.868   0.331   0.195
 9397SOL    HW129090   2.954   0.309   0.150
 9397SOL    HW229091   2.802   0.258   0.177
 9398SOL     OW29092   2.007   0.408   5.774
 9398SOL    HW129093   2.060   0.387   5.692
 9398SOL    HW229094   2.016   0.333   5.839
 9399SOL     OW29095   0.708   1.469   6.781
 9399SOL    HW129096   0.760   1.545   6.742
 9399SOL    HW229097   0.645   1.505   6.850
 9400SOL     OW29098   5.308   3.086   1.496
 9400SOL    HW129099   5.286   3.049   1.405
 9400SOL    HW229100   5.324   3.184   1.488
 9401SOL     OW29101   3.766   6.275   3.245
 9401SOL    HW129102   3.701   6.199   3.258
 9401SOL    HW229103   3.816   6.291   3.330
 9402SOL     OW29104   1.080   5.084   4.665
 9402SOL    HW129105   1.002   5.127   4.618
 9402SOL    HW229106   1.071   5.097   4.763
 9403SOL     OW29107   5.097   2.076   3.064
 9403SOL    HW129108   5.179   2.114   3.022
 9403SOL    HW229109   5.117   1.984   3.099
 9404SOL     OW29110   0.636   4.320   6.325
 9404SOL    HW129111   0.686   4.264   6.260
 9404SOL    HW229112   0.562   4.368   6.278
 9405SOL     OW29113   0.115   6.807   2.780
 9405SOL    HW129114   0.097   6.853   2.867
 9405SOL    HW229115   0.184   6.857   2.729
 9406SOL     OW29116   6.851   2.058   5.904
 9406SOL    HW129117   6.933   2.078   5.958
 9406SOL    HW229118   6.769   2.075   5.960
 9407SOL     OW29119   2.452   5.384   3.361
 9407SOL    HW129120   2.367   5.380   3.414
 9407SOL    HW229121   2.529   5.402   3.423
 9408SOL     OW29122   3.856   1.869   6.316
 9408SOL    HW129123   3.807   1.956   6.318
 9408SOL    HW229124   3.811   1.804   6.378
 9409SOL     OW29125   5.392   4.509   5.632
 9409SOL    HW129126   5.443   4.568   5.695
 9409SOL    HW229127   5.417   4.414   5.647
 9410SOL     OW29128   4.302   5.689   1.666
 9410SOL    HW129129   4.355   5.691   1.751
 9410SOL    HW229130   4.292   5.594   1.636
 9411SOL     OW29131   3.948   4.094   1.188
 9411SOL    HW129132   4.001   4.021   1.145
 9411SOL    HW229133   3.961   4.179   1.137
 9412SOL     OW29134   0.300   3.612   1.956
 9412SOL    HW129135   0.332   3.632   1.863
 9412SOL    HW229136   0.228   3.677   1.980
 9413SOL     OW29137   4.102   5.515   4.606
 9413SOL    HW129138   4.021   5.563   4.573
 9413SOL    HW229139   4.172   5.515   4.534
 9414SOL     OW29140   3.285   1.134   3.671
 9414SOL    HW129141   3.334   1.049   3.655
 9414SOL    HW229142   3.347   1.202   3.709
 9415SOL     OW29143   2.556   6.728   2.585
 9415SOL    HW129144   2.473   6.673   2.592
 9415SOL    HW229145   2.623   6.680   2.529
 9416SOL     OW29146   0.676   1.570   1.771
 9416SOL    HW129147   0.743   1.585   1.699
 9416SOL    HW229148   0.701   1.489   1.824
 9417SOL     OW29149   4.001   0.041   5.783
 9417SOL    HW129150   3.993   0.111   5.712
 9417SOL    HW229151   4.084   0.057   5.836
 9418SOL     OW29152   3.205   6.666   0.858
 9418SOL    HW129153   3.113   6.703   0.851
 9418SOL    HW229154   3.263   6.730   0.908
 9419SOL     OW29155   3.390   5.102   5.761
 9419SOL    HW129156   3.324   5.037   5.799
 9419SOL    HW229157   3.479   5.057   5.750
 9420SOL     OW29158   0.297   2.325   4.422
 9420SOL    HW129159   0.232   2.348   4.350
 9420SOL    HW229160   0.390   2.328   4.385
 9421SOL     OW29161   2.455   6.334   5.144
 9421SOL    HW129162   2.393   6.404   5.106
 9421SOL    HW229163   2.542   6.337   5.095
 9422SOL     OW29164   4.832   6.446   2.960
 9422SOL    HW129165   4.756   6.451   2.894
 9422SOL    HW229166   4.795   6.427   3.051
 9423SOL     OW29167   3.368   0.259   3.452
 9423SOL    HW129168   3.291   0.303   3.405
 9423SOL    HW229169   3.451   0.312   3.438
 9424SOL     OW29170   4.807   0.699   4.788
 9424SOL    HW129171   4.870   0.735   4.856
 9424SOL    HW229172   4.745   0.772   4.758
 9425SOL     OW29173   6.872   3.892   5.833
 9425SOL    HW129174   6.870   3.879   5.932
 9425SOL    HW229175   6.845   3.986   5.811
 9426SOL     OW29176   2.903   1.864   0.274
 9426SOL    HW129177   2.838   1.939   0.287
 9426SOL    HW229178   2.971   1.891   0.206
 9427SOL     OW29179   3.048   5.356   4.856
 9427SOL    HW129180   3.002   5.297   4.922
 9427SOL    HW229181   3.137   5.316   4.832
 9428SOL     OW29182   5.448   1.147   1.505
 9428SOL    HW129183   5.367   1.166   1.560
 9428SOL    HW229184   5.435   1.061   1.454
 9429SOL     OW29185   1.627   4.907   1.991
 9429SOL    HW129186   1.582   4.948   2.070
 9429SOL    HW229187   1.564   4.908   1.913
 9430SOL     OW29188   0.676   5.286   2.140
 9430SOL    HW129189   0.670   5.378   2.104
 9430SOL    HW229190   0.739   5.284   2.218
 9431SOL     OW29191   5.603   4.767   0.964
 9431SOL    HW129192   5.628   4.863   0.951
 9431SOL    HW229193   5.571   4.754   1.058
 9432SOL     OW29194   5.866   0.693   2.901
 9432SOL    HW129195   5.791   0.630   2.918
 9432SOL    HW229196   5.953   0.646   2.918
 9433SOL     OW29197   3.236   5.182   3.868
 9433SOL    HW129198   3.158   5.229   3.909
 9433SOL    HW229199   3.306   5.166   3.938
 9434SOL     OW29200   5.627   4.559   3.068
 9434SOL    HW129201   5.658   4.474   3.111
 9434SOL    HW229202   5.682   4.636   3.102
 9435SOL     OW29203   0.674   1.616   3.948
 9435SOL    HW129204   0.730   1.613   3.865
 9435SOL    HW229205   0.608   1.690   3.940
 9436SOL     OW29206   0.911   4.577   2.844
 9436SOL    HW129207   0.816   4.549   2.830
 9436SOL    HW229208   0.948   4.530   2.923
 9437SOL     OW29209   1.430   6.294   3.840
 9437SOL    HW129210   1.467   6.255   3.924
 9437SOL    HW229211   1.339   6.257   3.823
 9438SOL     OW29212   0.994   6.820   1.188
 9438SOL    HW129213   1.034   6.903   1.150
 9438SOL    HW229214   0.920   6.844   1.251
 9439SOL     OW29215   6.918   3.009   2.377
 9439SOL    HW129216   6.870   2.956   2.307
 9439SOL    HW229217   7.015   3.013   2.353
 9440SOL     OW29218   4.429   6.127   4.178
 9440SOL    HW129219   4.476   6.152   4.094
 9440SOL    HW229220   4.334   6.157   4.174
 9441SOL     OW29221   1.224   4.330   4.739
 9441SOL    HW129222   1.144   4.294   4.787
 9441SOL    HW229223   1.281   4.255   4.707
 9442SOL     OW29224   5.786   3.217   0.254
 9442SOL    HW129225   5.731   3.216   0.171
 9442SOL    HW229226   5.766   3.136   0.309
 9443SOL     OW29227   2.706   5.159   1.348
 9443SOL    HW129228   2.639   5.165   1.423
 9443SOL    HW229229   2.729   5.251   1.316
 9444SOL     OW29230   0.808   3.938   6.223
 9444SOL    HW129231   0.780   3.894   6.308
 9444SOL    HW229232   0.905   3.960   6.228
 9445SOL     OW29233   5.582   3.248   2.504
 9445SOL    HW129234   5.555   3.285   2.593
 9445SOL    HW229235   5.617   3.323   2.446
 9446SOL     OW29236   6.191   6.569   4.141
 9446SOL    HW129237   6.160   6.663   4.151
 9446SOL    HW229238   6.154   6.531   4.056
 9447SOL     OW29239   5.935   3.355   3.282
 9447SOL    HW129240   6.009   3.405   3.327
 9447SOL    HW229241   5.848   3.400   3.303
 9448SOL     OW29242   6.605   6.594   5.962
 9448SOL    HW129243   6.564   6.665   5.905
 9448SOL    HW229244   6.565   6.596   6.053
 9449SOL     OW29245   0.279   5.969   6.510
 9449SOL    HW129246   0.181   5.970   6.489
 9449SOL    HW229247   0.302   5.883   6.556
 9450SOL     OW29248   3.427   4.899   4.507
 9450SOL    HW129249   3.328   4.891   4.521
 9450SOL    HW229250   3.461   4.978   4.558
 9451SOL     OW29251   3.731   6.054   6.119
 9451SOL    HW129252   3.706   6.131   6.061
 9451SOL    HW229253   3.801   6.082   6.184
 9452SOL     OW29254   0.414   3.461   0.619
 9452SOL    HW129255   0.400   3.532   0.550
 9452SOL    HW229256   0.430   3.373   0.573
 9453SOL     OW29257   1.996   4.801   3.447
 9453SOL    HW129258   2.033   4.806   3.540
 9453SOL    HW229259   1.968   4.707   3.428
 9454SOL     OW29260   1.687   3.335   5.775
 9454SOL    HW129261   1.776   3.350   5.816
 9454SOL    HW229262   1.695   3.271   5.699
 9455SOL     OW29263   3.457   1.566   2.679
 9455SOL    HW129264   3.395   1.644   2.688
 9455SOL    HW229265   3.534   1.577   2.742
 9456SOL     OW29266   0.814   3.654   6.641
 9456SOL    HW129267   0.888   3.716   6.666
 9456SOL    HW229268   0.850   3.564   6.618
 9457SOL     OW29269   1.971   3.981   5.935
 9457SOL    HW129270   1.914   4.058   5.907
 9457SOL    HW229271   1.976   3.914   5.861
 9458SOL     OW29272   1.113   3.179   5.867
 9458SOL    HW129273   1.199   3.230   5.872
 9458SOL    HW229274   1.037   3.243   5.860
 9459SOL     OW29275   5.597   4.387   2.629
 9459SOL    HW129276   5.618   4.290   2.639
 9459SOL    HW229277   5.522   4.411   2.691
 9460SOL     OW29278   6.972   1.269   4.166
 9460SOL    HW129279   7.002   1.258   4.261
 9460SOL    HW229280   6.890   1.214   4.151
 9461SOL     OW29281   6.296   1.574   3.414
 9461SOL    HW129282   6.353   1.495   3.390
 9461SOL    HW229283   6.201   1.545   3.421
 9462SOL     OW29284   2.142   3.586   3.592
 9462SOL    HW129285   2.198   3.623   3.518
 9462SOL    HW229286   2.148   3.646   3.672
 9463SOL     OW29287   6.966   0.981   1.524
 9463SOL    HW129288   6.903   0.994   1.601
 9463SOL    HW229289   0.018   1.053   1.526
 9464SOL     OW29290   5.741   6.245   0.124
 9464SOL    HW129291   5.785   6.318   0.176
 9464SOL    HW229292   5.750   6.159   0.175
 9465SOL     OW29293   0.183   6.615   3.296
 9465SOL    HW129294   0.239   6.629   3.378
 9465SOL    HW229295   0.145   6.703   3.266
 9466SOL     OW29296   3.927   3.994   5.232
 9466SOL    HW129297   3.869   4.068   5.199
 9466SOL    HW229298   3.953   4.012   5.327
 9467SOL     OW29299   1.157   2.647   1.946
 9467SOL    HW129300   1.170   2.708   1.868
 9467SOL    HW229301   1.064   2.610   1.944
 9468SOL     OW29302   5.982   2.344   6.205
 9468SOL    HW129303   5.932   2.262   6.177
 9468SOL    HW229304   6.055   2.318   6.267
 9469SOL     OW29305   5.803   5.840   1.262
 9469SOL    HW129306   5.883   5.791   1.297
 9469SOL    HW229307   5.720   5.789   1.285
 9470SOL     OW29308   4.940   3.476   5.549
 9470SOL    HW129309   4.935   3.547   5.620
 9470SOL    HW229310   4.891   3.507   5.467
 9471SOL     OW29311   5.857   1.978   4.975
 9471SOL    HW129312   5.841   2.060   4.920
 9471SOL    HW229313   5.911   1.913   4.921
 9472SOL     OW29314   6.200   3.321   4.433
 9472SOL    HW129315   6.120   3.265   4.453
 9472SOL    HW229316   6.258   3.273   4.366
 9473SOL     OW29317   2.805   5.581   6.152
 9473SOL    HW129318   2.767   5.493   6.124
 9473SOL    HW229319   2.903   5.582   6.135
 9474SOL     OW29320   6.701   3.253   0.205
 9474SOL    HW129321   6.683   3.279   0.111
 9474SOL    HW229322   6.633   3.296   0.266
 9475SOL     OW29323   2.724   3.339   0.448
 9475SOL    HW129324   2.651   3.369   0.387
 9475SOL    HW229325   2.785   3.417   0.467
 9476SOL     OW29326   3.176   3.477   4.987
 9476SOL    HW129327   3.079   3.479   5.015
 9476SOL    HW229328   3.185   3.425   4.903
 9477SOL     OW29329   0.270   3.294   2.408
 9477SOL    HW129330   0.355   3.277   2.358
 9477SOL    HW229331   0.200   3.229   2.377
 9478SOL     OW29332   5.233   3.284   6.191
 9478SOL    HW129333   5.222   3.263   6.094
 9478SOL    HW229334   5.286   3.368   6.201
 9479SOL     OW29335   5.724   6.636   6.453
 9479SOL    HW129336   5.710   6.540   6.430
 9479SOL    HW229337   5.654   6.665   6.518
 9480SOL     OW29338   5.007   4.418   0.297
 9480SOL    HW129339   5.032   4.327   0.330
 9480SOL    HW229340   4.929   4.410   0.235
 9481SOL     OW29341   5.774   3.065   1.380
 9481SOL    HW129342   5.830   2.986   1.355
 9481SOL    HW229343   5.815   3.148   1.341
 9482SOL     OW29344   5.916   1.362   2.986
 9482SOL    HW129345   5.970   1.314   3.054
 9482SOL    HW229346   5.959   1.450   2.965
 9483SOL     OW29347   1.617   1.986   0.539
 9483SOL    HW129348   1.622   2.057   0.468
 9483SOL    HW229349   1.522   1.960   0.553
 9484SOL     OW29350   4.486   1.469   3.098
 9484SOL    HW129351   4.533   1.394   3.145
 9484SOL    HW229352   4.391   1.443   3.081
 9485SOL     OW29353   0.903   0.059   2.234
 9485SOL    HW129354   0.973   7.006   2.246
 9485SOL    HW229355   0.947   0.144   2.203
 9486SOL     OW29356   2.213   4.865   1.562
 9486SOL    HW129357   2.154   4.941   1.590
 9486SOL    HW229358   2.284   4.851   1.631
 9487SOL     OW29359   2.867   3.437   2.655
 9487SOL    HW129360   2.947   3.378   2.659
 9487SOL    HW229361   2.892   3.524   2.612
 9488SOL     OW29362   2.710   6.327   1.047
 9488SOL    HW129363   2.786   6.377   1.005
 9488SOL    HW229364   2.627   6.345   0.994
 9489SOL     OW29365   3.957   4.196   1.529
 9489SOL    HW129366   3.929   4.102   1.509
 9489SOL    HW229367   4.003   4.199   1.618
 9490SOL     OW29368   6.364   6.375   0.443
 9490SOL    HW129369   6.372   6.333   0.534
 9490SOL    HW229370   6.444   6.432   0.426
 9491SOL     OW29371   0.083   4.423   3.627
 9491SOL    HW129372   0.134   4.338   3.632
 9491SOL    HW229373   0.135   4.491   3.577
 9492SOL     OW29374   3.449   3.591   2.855
 9492SOL    HW129375   3.517   3.559   2.921
 9492SOL    HW229376   3.430   3.519   2.789
 9493SOL     OW29377   4.184   4.985   3.903
 9493SOL    HW129378   4.165   4.926   3.825
 9493SOL    HW229379   4.143   5.075   3.888
 9494SOL     OW29380   4.276   4.260   1.408
 9494SOL    HW129381   4.257   4.172   1.452
 9494SOL    HW229382   4.248   4.256   1.313
 9495SOL     OW29383   5.391   1.724   4.352
 9495SOL    HW129384   5.446   1.795   4.307
 9495SOL    HW229385   5.310   1.765   4.391
 9496SOL     OW29386   5.169   4.876   1.009
 9496SOL    HW129387   5.092   4.909   1.063
 9496SOL    HW229388   5.140   4.860   0.915
 9497SOL     OW29389   5.623   4.850   0.463
 9497SOL    HW129390   5.618   4.912   0.541
 9497SOL    HW229391   5.533   4.840   0.422
 9498SOL     OW29392   5.422   1.043   5.933
 9498SOL    HW129393   5.418   1.012   6.027
 9498SOL    HW229394   5.451   1.139   5.930
 9499SOL     OW29395   2.479   3.623   5.827
 9499SOL    HW129396   2.534   3.544   5.802
 9499SOL    HW229397   2.525   3.676   5.898
 9500SOL     OW29398   3.651   6.815   1.430
 9500SOL    HW129399   3.597   6.865   1.498
 9500SOL    HW229400   3.697   6.880   1.370
 9501SOL     OW29401   2.543   0.951   4.794
 9501SOL    HW129402   2.457   0.930   4.748
 9501SOL    HW229403   2.615   0.966   4.726
 9502SOL     OW29404   0.083   1.571   4.364
 9502SOL    HW129405   0.178   1.593   4.344
 9502SOL    HW229406   0.027   1.584   4.282
 9503SOL     OW29407   0.956   1.422   1.723
 9503SOL    HW129408   0.996   1.382   1.806
 9503SOL    HW229409   1.028   1.464   1.668
 9504SOL     OW29410   0.767   1.730   1.183
 9504SOL    HW129411   0.687   1.756   1.129
 9504SOL    HW229412   0.850   1.761   1.137
 9505SOL     OW29413   5.528   4.280   3.526
 9505SOL    HW129414   5.547   4.202   3.586
 9505SOL    HW229415   5.450   4.331   3.563
 9506SOL     OW29416   0.200   3.349   6.463
 9506SOL    HW129417   0.208   3.256   6.429
 9506SOL    HW229418   0.287   3.397   6.451
 9507SOL     OW29419   1.175   1.169   3.429
 9507SOL    HW129420   1.144   1.214   3.345
 9507SOL    HW229421   1.225   1.234   3.486
 9508SOL     OW29422   5.949   2.922   0.743
 9508SOL    HW129423   5.884   2.974   0.798
 9508SOL    HW229424   6.038   2.967   0.747
 9509SOL     OW29425   1.299   0.066   5.666
 9509SOL    HW129426   1.242   0.088   5.586
 9509SOL    HW229427   1.264   7.000   5.710
 9510SOL     OW29428   0.978   4.475   1.527
 9510SOL    HW129429   0.898   4.415   1.533
 9510SOL    HW229430   1.041   4.453   1.601
 9511SOL     OW29431   0.790   1.361   0.419
 9511SOL    HW129432   0.859   1.335   0.487
 9511SOL    HW229433   0.784   1.290   0.349
 9512SOL     OW29434   5.760   1.283   2.446
 9512SOL    HW129435   5.688   1.214   2.434
 9512SOL    HW229436   5.795   1.278   2.540
 9513SOL     OW29437   1.343   3.769   4.868
 9513SOL    HW129438   1.372   3.708   4.794
 9513SOL    HW229439   1.422   3.793   4.924
 9514SOL     OW29440   1.847   3.718   6.629
 9514SOL    HW129441   1.921   3.758   6.682
 9514SOL    HW229442   1.848   3.755   6.536
 9515SOL     OW29443   1.552   5.557   0.098
 9515SOL    HW129444   1.563   5.469   0.052
 9515SOL    HW229445   1.616   5.562   0.175
 9516SOL     OW29446   5.127   3.689   4.616
 9516SOL    HW129447   5.062   3.722   4.685
 9516SOL    HW229448   5.217   3.728   4.633
 9517SOL     OW29449   1.795   4.847   0.169
 9517SOL    HW129450   1.830   4.753   0.168
 9517SOL    HW229451   1.840   4.901   0.098
 9518SOL     OW29452   0.465   2.160   6.630
 9518SOL    HW129453   0.393   2.141   6.564
 9518SOL    HW229454   0.541   2.208   6.585
 9519SOL     OW29455   4.134   3.482   3.899
 9519SOL    HW129456   4.128   3.520   3.991
 9519SOL    HW229457   4.101   3.388   3.898
 9520SOL     OW29458   6.821   0.748   3.205
 9520SOL    HW129459   6.775   0.837   3.209
 9520SOL    HW229460   6.892   0.744   3.276
 9521SOL     OW29461   3.316   4.271   1.382
 9521SOL    HW129462   3.332   4.173   1.394
 9521SOL    HW229463   3.400   4.321   1.403
 9522SOL     OW29464   4.170   6.141   2.663
 9522SOL    HW129465   4.239   6.107   2.726
 9522SOL    HW229466   4.090   6.172   2.714
 9523SOL     OW29467   2.586   4.824   5.126
 9523SOL    HW129468   2.564   4.748   5.066
 9523SOL    HW229469   2.656   4.795   5.193
 9524SOL     OW29470   1.850   2.586   0.634
 9524SOL    HW129471   1.825   2.489   0.636
 9524SOL    HW229472   1.768   2.642   0.648
 9525SOL     OW29473   1.800   2.465   5.219
 9525SOL    HW129474   1.861   2.524   5.166
 9525SOL    HW229475   1.827   2.369   5.206
 9526SOL     OW29476   6.295   4.505   1.431
 9526SOL    HW129477   6.254   4.519   1.341
 9526SOL    HW229478   6.373   4.443   1.423
 9527SOL     OW29479   2.904   0.463   5.126
 9527SOL    HW129480   2.926   0.393   5.194
 9527SOL    HW229481   2.901   0.552   5.169
 9528SOL     OW29482   6.524   1.637   0.955
 9528SOL    HW129483   6.588   1.686   1.014
 9528SOL    HW229484   6.563   1.550   0.927
 9529SOL     OW29485   5.762   3.516   0.016
 9529SOL    HW129486   5.792   3.421   0.024
 9529SOL    HW229487   5.841   3.577   0.030
 9530SOL     OW29488   0.939   3.613   3.644
 9530SOL    HW129489   0.921   3.646   3.552
 9530SOL    HW229490   0.946   3.513   3.643
 9531SOL     OW29491   5.076   3.904   2.160
 9531SOL    HW129492   4.990   3.873   2.201
 9531SOL    HW229493   5.133   3.825   2.138
 9532SOL     OW29494   0.251   5.180   0.629
 9532SOL    HW129495   0.234   5.276   0.605
 9532SOL    HW229496   0.316   5.175   0.705
 9533SOL     OW29497   1.019   5.522   4.034
 9533SOL    HW129498   0.921   5.536   4.046
 9533SOL    HW229499   1.045   5.434   4.075
 9534SOL     OW29500   5.632   4.278   4.903
 9534SOL    HW129501   5.708   4.296   4.841
 9534SOL    HW229502   5.661   4.294   4.997
 9535SOL     OW29503   1.954   0.670   5.913
 9535SOL    HW129504   1.988   0.579   5.891
 9535SOL    HW229505   1.856   0.675   5.893
 9536SOL     OW29506   3.149   3.837   5.207
 9536SOL    HW129507   3.076   3.791   5.156
 9536SOL    HW229508   3.185   3.912   5.152
 9537SOL     OW29509   2.142   0.853   4.178
 9537SOL    HW129510   2.190   0.925   4.129
 9537SOL    HW229511   2.111   0.887   4.267
 9538SOL     OW29512   4.994   0.687   4.578
 9538SOL    HW129513   4.970   0.633   4.497
 9538SOL    HW229514   4.914   0.694   4.637
 9539SOL     OW29515   3.073   3.954   4.409
 9539SOL    HW129516   3.145   3.982   4.473
 9539SOL    HW229517   3.010   3.892   4.455
 9540SOL     OW29518   5.278   4.776   4.276
 9540SOL    HW129519   5.254   4.686   4.311
 9540SOL    HW229520   5.327   4.768   4.190
 9541SOL     OW29521   2.852   0.796   6.320
 9541SOL    HW129522   2.780   0.857   6.351
 9541SOL    HW229523   2.864   0.807   6.221
 9542SOL     OW29524   5.183   4.596   4.953
 9542SOL    HW129525   5.229   4.637   4.873
 9542SOL    HW229526   5.249   4.544   5.006
 9543SOL     OW29527   3.726   0.852   6.266
 9543SOL    HW129528   3.669   0.832   6.346
 9543SOL    HW229529   3.785   0.774   6.247
 9544SOL     OW29530   5.828   3.034   3.665
 9544SOL    HW129531   5.896   3.041   3.592
 9544SOL    HW229532   5.750   2.981   3.632
 9545SOL     OW29533   5.482   5.445   2.767
 9545SOL    HW129534   5.396   5.471   2.724
 9545SOL    HW229535   5.553   5.512   2.742
 9546SOL     OW29536   4.150   1.644   6.080
 9546SOL    HW129537   4.128   1.700   6.000
 9546SOL    HW229538   4.190   1.702   6.151
 9547SOL     OW29539   2.659   5.566   4.051
 9547SOL    HW129540   2.674   5.645   3.992
 9547SOL    HW229541   2.697   5.484   4.008
 9548SOL     OW29542   0.011   4.745   4.662
 9548SOL    HW129543   6.960   4.746   4.588
 9548SOL    HW229544   0.086   4.807   4.638
 9549SOL     OW29545   3.451   1.887   1.595
 9549SOL    HW129546   3.435   1.833   1.678
 9549SOL    HW229547   3.381   1.864   1.527
 9550SOL     OW29548   6.931   1.180   0.228
 9550SOL    HW129549   6.956   1.152   0.321
 9550SOL    HW229550   7.002   1.150   0.165
 9551SOL     OW29551   6.070   3.321   6.039
 9551SOL    HW129552   6.000   3.269   6.088
 9551SOL    HW229553   6.140   3.257   6.005
 9552SOL     OW29554   2.648   5.860   5.150
 9552SOL    HW129555   2.666   5.776   5.099
 9552SOL    HW229556   2.669   5.845   5.247
 9553SOL     OW29557   5.807   2.230   0.214
 9553SOL    HW129558   5.781   2.325   0.230
 9553SOL    HW229559   5.850   2.222   0.124
 9554SOL     OW29560   1.992   6.335   2.875
 9554SOL    HW129561   1.974   6.420   2.826
 9554SOL    HW229562   2.085   6.336   2.912
 9555SOL     OW29563   0.513   1.184   2.816
 9555SOL    HW129564   0.528   1.166   2.719
 9555SOL    HW229565   0.417   1.209   2.830
 9556SOL     OW29566   1.476   4.303   1.896
 9556SOL    HW129567   1.508   4.209   1.902
 9556SOL    HW229568   1.546   4.360   1.853
 9557SOL     OW29569   6.239   6.428   1.209
 9557SOL    HW129570   6.197   6.359   1.268
 9557SOL    HW229571   6.214   6.410   1.114
 9558SOL     OW29572   6.051   5.915   5.816
 9558SOL    HW129573   6.037   5.816   5.824
 9558SOL    HW229574   6.066   5.938   5.720
 9559SOL     OW29575   0.623   5.083   0.590
 9559SOL    HW129576   0.581   5.172   0.572
 9559SOL    HW229577   0.624   5.029   0.505
 9560SOL     OW29578   2.693   1.308   2.689
 9560SOL    HW129579   2.721   1.290   2.783
 9560SOL    HW229580   2.754   1.260   2.626
 9561SOL     OW29581   1.424   0.769   1.596
 9561SOL    HW129582   1.340   0.732   1.556
 9561SOL    HW229583   1.471   0.825   1.529
 9562SOL     OW29584   3.337   0.408   4.962
 9562SOL    HW129585   3.346   0.497   5.005
 9562SOL    HW229586   3.245   0.397   4.925
 9563SOL     OW29587   0.140   6.713   0.662
 9563SOL    HW129588   0.162   6.800   0.617
 9563SOL    HW229589   0.069   6.665   0.610
 9564SOL     OW29590   2.865   1.243   0.577
 9564SOL    HW129591   2.879   1.234   0.478
 9564SOL    HW229592   2.846   1.339   0.599
 9565SOL     OW29593   4.267   0.533   4.575
 9565SOL    HW129594   4.334   0.546   4.648
 9565SOL    HW229595   4.256   0.619   4.525
 9566SOL     OW29596   3.324   5.567   6.665
 9566SOL    HW129597   3.310   5.481   6.615
 9566SOL    HW229598   3.364   5.635   6.605
 9567SOL     OW29599   5.053   4.810   0.757
 9567SOL    HW129600   5.076   4.864   0.676
 9567SOL    HW229601   4.955   4.819   0.776
 9568SOL     OW29602   4.461   2.558   6.417
 9568SOL    HW129603   4.495   2.473   6.378
 9568SOL    HW229604   4.427   2.617   6.343
 9569SOL     OW29605   6.514   0.660   2.616
 9569SOL    HW129606   6.442   0.725   2.594
 9569SOL    HW229607   6.480   0.594   2.683
 9570SOL     OW29608   0.369   3.213   1.522
 9570SOL    HW129609   0.323   3.183   1.439
 9570SOL    HW229610   0.305   3.266   1.579
 9571SOL     OW29611   3.420   3.481   6.343
 9571SOL    HW129612   3.517   3.478   6.321
 9571SOL    HW229613   3.385   3.388   6.354
 9572SOL     OW29614   2.224   5.056   1.865
 9572SOL    HW129615   2.303   5.112   1.890
 9572SOL    HW229616   2.226   4.970   1.916
 9573SOL     OW29617   1.047   2.254   6.684
 9573SOL    HW129618   1.073   2.172   6.736
 9573SOL    HW229619   1.033   2.330   6.747
 9574SOL     OW29620   4.116   3.609   3.320
 9574SOL    HW129621   4.082   3.519   3.295
 9574SOL    HW229622   4.152   3.607   3.414
 9575SOL     OW29623   0.584   1.050   1.693
 9575SOL    HW129624   0.605   0.953   1.699
 9575SOL    HW229625   0.667   1.100   1.667
 9576SOL     OW29626   2.128   1.588   0.733
 9576SOL    HW129627   2.139   1.624   0.825
 9576SOL    HW229628   2.147   1.659   0.666
 9577SOL     OW29629   1.267   0.234   5.884
 9577SOL    HW129630   1.324   0.306   5.845
 9577SOL    HW229631   1.269   0.154   5.825
 9578SOL     OW29632   0.750   3.968   3.012
 9578SOL    HW129633   0.661   4.013   3.009
 9578SOL    HW229634   0.746   3.881   2.963
 9579SOL     OW29635   0.602   4.533   3.221
 9579SOL    HW129636   0.617   4.465   3.149
 9579SOL    HW229637   0.620   4.491   3.310
 9580SOL     OW29638   4.366   3.511   0.558
 9580SOL    HW129639   4.440   3.523   0.492
 9580SOL    HW229640   4.382   3.569   0.637
 9581SOL     OW29641   0.622   0.021   5.714
 9581SOL    HW129642   0.676   0.044   5.633
 9581SOL    HW229643   0.564   0.099   5.738
 9582SOL     OW29644   4.893   4.676   5.335
 9582SOL    HW129645   4.927   4.723   5.253
 9582SOL    HW229646   4.854   4.588   5.309
 9583SOL     OW29647   3.342   3.957   1.381
 9583SOL    HW129648   3.413   3.895   1.415
 9583SOL    HW229649   3.252   3.919   1.402
 9584SOL     OW29650   0.096   4.961   6.393
 9584SOL    HW129651   0.063   4.875   6.353
 9584SOL    HW229652   0.115   4.947   6.490
 9585SOL     OW29653   6.439   6.565   4.299
 9585SOL    HW129654   6.370   6.546   4.229
 9585SOL    HW229655   6.526   6.523   4.272
 9586SOL     OW29656   5.230   4.925   2.211
 9586SOL    HW129657   5.242   4.871   2.128
 9586SOL    HW229658   5.288   4.887   2.284
 9587SOL     OW29659   1.040   0.523   1.340
 9587SOL    HW129660   0.990   0.508   1.254
 9587SOL    HW229661   1.007   0.458   1.408
 9588SOL     OW29662   6.435   0.522   1.565
 9588SOL    HW129663   6.454   0.427   1.589
 9588SOL    HW229664   6.362   0.525   1.497
 9589SOL     OW29665   2.257   4.695   6.661
 9589SOL    HW129666   2.314   4.705   6.743
 9589SOL    HW229667   2.222   4.785   6.635
 9590SOL     OW29668   6.174   2.859   2.064
 9590SOL    HW129669   6.222   2.889   2.147
 9590SOL    HW229670   6.210   2.771   2.035
 9591SOL     OW29671   3.245   5.696   5.532
 9591SOL    HW129672   3.209   5.641   5.608
 9591SOL    HW229673   3.317   5.645   5.485
 9592SOL     OW29674   3.301   4.591   0.262
 9592SOL    HW129675   3.380   4.535   0.286
 9592SOL    HW229676   3.239   4.538   0.204
 9593SOL     OW29677   0.365   0.711   5.650
 9593SOL    HW129678   0.362   0.618   5.614
 9593SOL    HW229679   0.416   0.770   5.588
 9594SOL     OW29680   1.846   5.015   3.112
 9594SOL    HW129681   1.931   4.998   3.162
 9594SOL    HW229682   1.785   4.937   3.122
 9595SOL     OW29683   0.558   2.982   5.069
 9595SOL    HW129684   0.646   2.989   5.022
 9595SOL    HW229685   0.503   2.910   5.026
 9596SOL     OW29686   0.410   5.366   5.967
 9596SOL    HW129687   0.403   5.358   6.066
 9596SOL    HW229688   0.392   5.277   5.925
 9597SOL     OW29689   0.961   4.507   0.999
 9597SOL    HW129690   0.965   4.459   1.087
 9597SOL    HW229691   1.052   4.507   0.957
 9598SOL     OW29692   1.177   4.344   3.688
 9598SOL    HW129693   1.270   4.309   3.677
 9598SOL    HW229694   1.177   4.414   3.760
 9599SOL     OW29695   3.041   0.120   4.503
 9599SOL    HW129696   3.070   0.056   4.574
 9599SOL    HW229697   2.978   0.187   4.542
 9600SOL     OW29698   2.723   6.471   6.679
 9600SOL    HW129699   2.686   6.561   6.656
 9600SOL    HW229700   2.823   6.474   6.674
 9601SOL     OW29701   4.563   3.660   0.679
 9601SOL    HW129702   4.527   3.661   0.772
 9601SOL    HW229703   4.623   3.581   0.667
 9602SOL     OW29704   6.408   4.560   5.612
 9602SOL    HW129705   6.478   4.491   5.632
 9602SOL    HW229706   6.346   4.525   5.542
 9603SOL     OW29707   4.118   1.620   4.774
 9603SOL    HW129708   4.028   1.659   4.788
 9603SOL    HW229709   4.170   1.678   4.711
 9604SOL     OW29710   4.725   0.257   6.818
 9604SOL    HW129711   4.679   0.344   6.799
 9604SOL    HW229712   4.739   0.207   6.733
 9605SOL     OW29713   0.500   5.929   3.825
 9605SOL    HW129714   0.548   5.861   3.881
 9605SOL    HW229715   0.445   5.883   3.756
 9606SOL     OW29716   1.682   6.398   6.566
 9606SOL    HW129717   1.622   6.424   6.490
 9606SOL    HW229718   1.699   6.478   6.623
 9607SOL     OW29719   1.711   1.876   0.035
 9607SOL    HW129720   1.690   1.823   0.117
 9607SOL    HW229721   1.783   1.942   0.055
 9608SOL     OW29722   6.898   5.316   2.782
 9608SOL    HW129723   6.940   5.321   2.691
 9608SOL    HW229724   6.829   5.243   2.782
 9609SOL     OW29725   2.419   3.769   6.948
 9609SOL    HW129726   2.505   3.722   6.967
 9609SOL    HW229727   2.435   3.848   6.889
 9610SOL     OW29728   1.590   4.575   3.846
 9610SOL    HW129729   1.559   4.670   3.848
 9610SOL    HW229730   1.623   4.553   3.754
 9611SOL     OW29731   0.883   6.639   6.774
 9611SOL    HW129732   0.948   6.678   6.839
 9611SOL    HW229733   0.933   6.600   6.697
 9612SOL     OW29734   0.337   4.251   1.411
 9612SOL    HW129735   0.276   4.199   1.471
 9612SOL    HW229736   0.421   4.200   1.396
 9613SOL     OW29737   5.556   0.128   3.310
 9613SOL    HW129738   5.642   0.154   3.265
 9613SOL    HW229739   5.479   0.173   3.264
 9614SOL     OW29740   3.374   2.439   1.084
 9614SOL    HW129741   3.375   2.397   1.175
 9614SOL    HW229742   3.303   2.509   1.080
 9615SOL     OW29743   2.095   6.649   6.883
 9615SOL    HW129744   2.079   6.600   6.969
 9615SOL    HW229745   2.015   6.640   6.824
 9616SOL     OW29746   4.319   3.959   1.221
 9616SOL    HW129747   4.416   3.977   1.237
 9616SOL    HW229748   4.269   3.970   1.307
 9617SOL     OW29749   1.601   2.916   3.218
 9617SOL    HW129750   1.600   2.953   3.125
 9617SOL    HW229751   1.695   2.899   3.246
 9618SOL     OW29752   4.022   6.785   5.791
 9618SOL    HW129753   4.025   6.884   5.774
 9618SOL    HW229754   3.930   6.751   5.774
 9619SOL     OW29755   1.195   6.865   0.519
 9619SOL    HW129756   1.110   6.916   0.501
 9619SOL    HW229757   1.174   6.788   0.579
 9620SOL     OW29758   4.808   1.346   6.511
 9620SOL    HW129759   4.771   1.438   6.524
 9620SOL    HW229760   4.732   1.280   6.508
 9621SOL     OW29761   0.807   1.230   2.109
 9621SOL    HW129762   0.804   1.144   2.160
 9621SOL    HW229763   0.828   1.305   2.172
 9622SOL     OW29764   6.652   1.208   0.273
 9622SOL    HW129765   6.608   1.288   0.314
 9622SOL    HW229766   6.750   1.225   0.264
 9623SOL     OW29767   3.047   4.567   5.821
 9623SOL    HW129768   3.108   4.498   5.783
 9623SOL    HW229769   2.952   4.537   5.813
 9624SOL     OW29770   0.021   4.615   2.617
 9624SOL    HW129771   6.984   4.684   2.570
 9624SOL    HW229772   0.017   4.630   2.715
 9625SOL     OW29773   5.454   5.174   6.851
 9625SOL    HW129774   5.384   5.160   6.920
 9625SOL    HW229775   5.484   5.085   6.816
 9626SOL     OW29776   3.443   5.626   0.101
 9626SOL    HW129777   3.448   5.571   0.018
 9626SOL    HW229778   3.405   5.570   0.175
 9627SOL     OW29779   6.363   6.242   3.687
 9627SOL    HW129780   6.288   6.308   3.681
 9627SOL    HW229781   6.450   6.291   3.694
 9628SOL     OW29782   5.153   4.663   0.040
 9628SOL    HW129783   5.214   4.584   0.029
 9628SOL    HW229784   5.158   4.696   0.134
 9629SOL     OW29785   0.269   6.834   2.344
 9629SOL    HW129786   0.364   6.815   2.367
 9629SOL    HW229787   0.264   6.864   2.248
 9630SOL     OW29788   6.368   6.525   5.463
 9630SOL    HW129789   6.298   6.463   5.428
 9630SOL    HW229790   6.406   6.487   5.547
 9631SOL     OW29791   6.987   6.938   6.796
 9631SOL    HW129792   0.030   6.935   6.716
 9631SOL    HW229793   6.912   7.002   6.778
 9632SOL     OW29794   1.407   6.832   2.803
 9632SOL    HW129795   1.424   6.733   2.809
 9632SOL    HW229796   1.361   6.852   2.717
 9633SOL     OW29797   5.501   4.933   6.514
 9633SOL    HW129798   5.409   4.945   6.552
 9633SOL    HW229799   5.503   4.852   6.456
 9634SOL     OW29800   1.344   5.925   3.500
 9634SOL    HW129801   1.293   5.844   3.527
 9634SOL    HW229802   1.284   5.986   3.447
 9635SOL     OW29803   1.745   5.047   5.728
 9635SOL    HW129804   1.684   5.028   5.651
 9635SOL    HW229805   1.838   5.062   5.693
 9636SOL     OW29806   3.939   1.326   6.176
 9636SOL    HW129807   3.949   1.392   6.251
 9636SOL    HW229808   3.886   1.247   6.207
 9637SOL     OW29809   2.860   2.131   5.825
 9637SOL    HW129810   2.829   2.041   5.795
 9637SOL    HW229811   2.959   2.131   5.837
 9638SOL     OW29812   6.481   3.430   6.502
 9638SOL    HW129813   6.543   3.495   6.545
 9638SOL    HW229814   6.507   3.417   6.406
 9639SOL     OW29815   3.625   1.572   2.028
 9639SOL    HW129816   3.697   1.635   2.058
 9639SOL    HW229817   3.550   1.573   2.095
 9640SOL     OW29818   2.484   2.109   3.155
 9640SOL    HW129819   2.392   2.132   3.187
 9640SOL    HW229820   2.517   2.028   3.203
 9641SOL     OW29821   4.681   6.536   0.478
 9641SOL    HW129822   4.679   6.442   0.445
 9641SOL    HW229823   4.679   6.599   0.401
 9642SOL     OW29824   3.404   6.373   5.089
 9642SOL    HW129825   3.450   6.449   5.042
 9642SOL    HW229826   3.315   6.404   5.122
 9643SOL     OW29827   5.586   5.203   4.161
 9643SOL    HW129828   5.678   5.242   4.149
 9643SOL    HW229829   5.524   5.275   4.192
 9644SOL     OW29830   1.025   4.376   5.594
 9644SOL    HW129831   1.102   4.437   5.612
 9644SOL    HW229832   0.939   4.425   5.612
 9645SOL     OW29833   4.030   4.802   2.961
 9645SOL    HW129834   4.105   4.781   3.024
 9645SOL    HW229835   3.953   4.840   3.012
 9646SOL     OW29836   2.812   4.817   2.185
 9646SOL    HW129837   2.834   4.746   2.118
 9646SOL    HW229838   2.826   4.907   2.144
 9647SOL     OW29839   6.301   5.586   1.223
 9647SOL    HW129840   6.283   5.599   1.125
 9647SOL    HW229841   6.376   5.645   1.251
 9648SOL     OW29842   4.020   1.993   6.753
 9648SOL    HW129843   4.072   1.977   6.669
 9648SOL    HW229844   4.040   1.922   6.820
 9649SOL     OW29845   2.916   5.955   6.975
 9649SOL    HW129846   2.958   5.894   0.026
 9649SOL    HW229847   2.953   6.047   6.986
 9650SOL     OW29848   5.459   4.975   2.698
 9650SOL    HW129849   5.430   4.927   2.780
 9650SOL    HW229850   5.402   5.057   2.685
 9651SOL     OW29851   0.178   0.899   6.238
 9651SOL    HW129852   0.266   0.853   6.246
 9651SOL    HW229853   0.179   0.958   6.157
 9652SOL     OW29854   2.344   5.001   0.550
 9652SOL    HW129855   2.330   4.902   0.556
 9652SOL    HW229856   2.272   5.048   0.601
 9653SOL     OW29857   3.778   5.315   4.759
 9653SOL    HW129858   3.734   5.248   4.819
 9653SOL    HW229859   3.729   5.319   4.672
 9654SOL     OW29860   3.641   3.160   1.179
 9654SOL    HW129861   3.721   3.102   1.167
 9654SOL    HW229862   3.565   3.105   1.212
 9655SOL     OW29863   0.078   1.660   6.895
 9655SOL    HW129864   0.054   1.672   6.991
 9655SOL    HW229865   7.013   1.636   6.843
 9656SOL     OW29866   2.926   2.608   1.308
 9656SOL    HW129867   2.906   2.702   1.280
 9656SOL    HW229868   2.933   2.605   1.408
 9657SOL     OW29869   6.564   1.154   3.881
 9657SOL    HW129870   6.514   1.221   3.937
 9657SOL    HW229871   6.584   1.194   3.792
 9658SOL     OW29872   5.868   1.884   3.008
 9658SOL    HW129873   5.963   1.869   2.978
 9658SOL    HW229874   5.864   1.963   3.069
 9659SOL     OW29875   6.539   4.518   0.032
 9659SOL    HW129876   6.590   4.510   6.964
 9659SOL    HW229877   6.557   4.438   0.089
 9660SOL     OW29878   0.374   6.101   1.323
 9660SOL    HW129879   0.407   6.184   1.367
 9660SOL    HW229880   0.451   6.054   1.280
 9661SOL     OW29881   4.001   6.066   2.192
 9661SOL    HW129882   4.039   6.134   2.130
 9661SOL    HW229883   3.964   6.112   2.273
 9662SOL     OW29884   4.916   2.599   5.407
 9662SOL    HW129885   4.881   2.578   5.315
 9662SOL    HW229886   4.947   2.694   5.410
 9663SOL     OW29887   0.844   5.502   4.328
 9663SOL    HW129888   0.806   5.521   4.238
 9663SOL    HW229889   0.935   5.544   4.335
 9664SOL     OW29890   6.167   6.718   3.786
 9664SOL    HW129891   6.156   6.754   3.693
 9664SOL    HW229892   6.112   6.771   3.849
 9665SOL     OW29893   5.523   6.134   6.257
 9665SOL    HW129894   5.452   6.199   6.230
 9665SOL    HW229895   5.481   6.058   6.307
 9666SOL     OW29896   6.235   4.280   1.610
 9666SOL    HW129897   6.242   4.374   1.578
 9666SOL    HW229898   6.253   4.218   1.533
 9667SOL     OW29899   2.996   3.788   3.905
 9667SOL    HW129900   2.964   3.695   3.887
 9667SOL    HW229901   3.005   3.802   4.003
 9668SOL     OW29902   5.760   1.339   0.015
 9668SOL    HW129903   5.854   1.369   7.016
 9668SOL    HW229904   5.738   1.264   6.969
 9669SOL     OW29905   0.889   0.043   1.900
 9669SOL    HW129906   0.821   0.115   1.910
 9669SOL    HW229907   0.929   0.022   1.989
 9670SOL     OW29908   5.303   4.608   6.552
 9670SOL    HW129909   5.387   4.637   6.505
 9670SOL    HW229910   5.297   4.654   6.640
 9671SOL     OW29911   6.640   5.248   6.583
 9671SOL    HW129912   6.649   5.289   6.674
 9671SOL    HW229913   6.724   5.199   6.560
 9672SOL     OW29914   1.084   5.661   4.619
 9672SOL    HW129915   1.027   5.598   4.673
 9672SOL    HW229916   1.099   5.623   4.528
 9673SOL     OW29917   5.686   4.025   0.044
 9673SOL    HW129918   5.591   4.053   0.031
 9673SOL    HW229919   5.696   3.979   0.132
 9674SOL     OW29920   2.734   6.111   3.406
 9674SOL    HW129921   2.811   6.102   3.469
 9674SOL    HW229922   2.678   6.028   3.409
 9675SOL     OW29923   6.233   2.114   1.153
 9675SOL    HW129924   6.279   2.134   1.066
 9675SOL    HW229925   6.156   2.175   1.165
 9676SOL     OW29926   1.334   3.696   5.348
 9676SOL    HW129927   1.318   3.679   5.251
 9676SOL    HW229928   1.431   3.718   5.363
 9677SOL     OW29929   1.989   5.929   5.475
 9677SOL    HW129930   2.079   5.890   5.494
 9677SOL    HW229931   1.933   5.863   5.425
 9678SOL     OW29932   3.295   3.412   2.678
 9678SOL    HW129933   3.248   3.488   2.634
 9678SOL    HW229934   3.229   3.358   2.731
 9679SOL     OW29935   2.153   0.928   2.584
 9679SOL    HW129936   2.114   0.837   2.571
 9679SOL    HW229937   2.197   0.958   2.499
 9680SOL     OW29938   6.053   0.322   3.937
 9680SOL    HW129939   6.042   0.236   3.988
 9680SOL    HW229940   6.005   0.395   3.986
 9681SOL     OW29941   3.475   1.072   0.711
 9681SOL    HW129942   3.558   1.117   0.679
 9681SOL    HW229943   3.395   1.122   0.677
 9682SOL     OW29944   4.943   5.141   3.889
 9682SOL    HW129945   4.959   5.049   3.924
 9682SOL    HW229946   5.022   5.170   3.835
 9683SOL     OW29947   2.647   5.655   0.882
 9683SOL    HW129948   2.732   5.698   0.914
 9683SOL    HW229949   2.574   5.723   0.879
 9684SOL     OW29950   0.156   2.010   4.934
 9684SOL    HW129951   0.103   1.950   4.993
 9684SOL    HW229952   0.111   2.099   4.926
 9685SOL     OW29953   1.888   3.496   0.985
 9685SOL    HW129954   1.865   3.490   0.888
 9685SOL    HW229955   1.904   3.592   1.009
 9686SOL     OW29956   6.234   2.481   0.825
 9686SOL    HW129957   6.199   2.465   0.917
 9686SOL    HW229958   6.186   2.559   0.784
 9687SOL     OW29959   1.962   1.309   3.723
 9687SOL    HW129960   1.978   1.233   3.785
 9687SOL    HW229961   1.921   1.275   3.638
 9688SOL     OW29962   6.722   2.190   3.218
 9688SOL    HW129963   6.646   2.161   3.159
 9688SOL    HW229964   6.686   2.218   3.307
 9689SOL     OW29965   1.704   6.162   0.798
 9689SOL    HW129966   1.668   6.225   0.867
 9689SOL    HW229967   1.685   6.068   0.825
 9690SOL     OW29968   5.698   5.708   6.420
 9690SOL    HW129969   5.599   5.696   6.412
 9690SOL    HW229970   5.718   5.780   6.488
 9691SOL     OW29971   2.903   4.943   1.663
 9691SOL    HW129972   2.968   4.866   1.665
 9691SOL    HW229973   2.824   4.920   1.719
 9692SOL     OW29974   3.057   5.352   2.237
 9692SOL    HW129975   2.957   5.360   2.230
 9692SOL    HW229976   3.100   5.429   2.190
 9693SOL     OW29977   6.277   5.603   0.941
 9693SOL    HW129978   6.337   5.652   0.877
 9693SOL    HW229979   6.182   5.631   0.926
 9694SOL     OW29980   2.170   1.216   6.094
 9694SOL    HW129981   2.165   1.144   6.163
 9694SOL    HW229982   2.210   1.180   6.010
 9695SOL     OW29983   6.784   4.014   1.697
 9695SOL    HW129984   6.800   3.965   1.611
 9695SOL    HW229985   6.844   3.976   1.768
 9696SOL     OW29986   5.244   2.911   1.005
 9696SOL    HW129987   5.208   2.876   1.092
 9696SOL    HW229988   5.209   3.004   0.990
 9697SOL     OW29989   6.698   6.169   0.343
 9697SOL    HW129990   6.637   6.117   0.283
 9697SOL    HW229991   6.776   6.113   0.370
 9698SOL     OW29992   5.510   1.847   6.212
 9698SOL    HW129993   5.558   1.836   6.299
 9698SOL    HW229994   5.508   1.759   6.165
 9699SOL     OW29995   0.122   4.447   6.962
 9699SOL    HW129996   0.119   4.389   0.027
 9699SOL    HW229997   0.214   4.486   6.952
 9700SOL     OW29998   4.243   5.089   5.076
 9700SOL    HW129999   4.262   5.095   4.978
 9700SOL    HW230000   4.237   5.182   5.114
 9701SOL     OW30001   3.830   4.896   4.819
 9701SOL    HW130002   3.764   4.845   4.874
 9701SOL    HW230003   3.889   4.949   4.880
 9702SOL     OW30004   4.702   0.775   0.273
 9702SOL    HW130005   4.793   0.741   0.299
 9702SOL    HW230006   4.712   0.856   0.216
 9703SOL     OW30007   3.908   5.331   3.974
 9703SOL    HW130008   3.810   5.355   3.974
 9703SOL    HW230009   3.927   5.270   4.051
 9704SOL     OW30010   2.870   1.137   2.578
 9704SOL    HW130011   2.836   1.065   2.639
 9704SOL    HW230012   2.904   1.096   2.494
 9705SOL     OW30013   5.017   5.685   6.734
 9705SOL    HW130014   5.041   5.766   6.787
 9705SOL    HW230015   4.958   5.626   6.789
 9706SOL     OW30016   0.741   2.564   0.612
 9706SOL    HW130017   0.668   2.530   0.672
 9706SOL    HW230018   0.720   2.658   0.585
 9707SOL     OW30019   6.858   4.254   1.634
 9707SOL    HW130020   6.841   4.157   1.652
 9707SOL    HW230021   6.925   4.288   1.700
 9708SOL     OW30022   1.238   2.082   2.565
 9708SOL    HW130023   1.236   1.983   2.579
 9708SOL    HW230024   1.205   2.103   2.473
 9709SOL     OW30025   5.883   5.665   2.263
 9709SOL    HW130026   5.966   5.671   2.206
 9709SOL    HW230027   5.839   5.576   2.248
 9710SOL     OW30028   0.524   1.540   2.400
 9710SOL    HW130029   0.544   1.634   2.369
 9710SOL    HW230030   0.607   1.499   2.436
 9711SOL     OW30031   1.600   3.213   5.990
 9711SOL    HW130032   1.626   3.253   5.902
 9711SOL    HW230033   1.510   3.246   6.016
 9712SOL     OW30034   5.772   4.183   5.629
 9712SOL    HW130035   5.861   4.193   5.673
 9712SOL    HW230036   5.762   4.251   5.557
 9713SOL     OW30037   1.018   4.759   3.564
 9713SOL    HW130038   1.096   4.754   3.626
 9713SOL    HW230039   1.020   4.681   3.502
 9714SOL     OW30040   2.736   1.585   1.721
 9714SOL    HW130041   2.653   1.622   1.680
 9714SOL    HW230042   2.766   1.646   1.795
 9715SOL     OW30043   5.487   5.064   6.147
 9715SOL    HW130044   5.481   5.099   6.053
 9715SOL    HW230045   5.541   5.128   6.203
 9716SOL     OW30046   3.956   2.521   6.473
 9716SOL    HW130047   3.898   2.558   6.400
 9716SOL    HW230048   3.939   2.572   6.557
 9717SOL     OW30049   5.718   5.476   5.443
 9717SOL    HW130050   5.717   5.560   5.498
 9717SOL    HW230051   5.782   5.486   5.367
 9718SOL     OW30052   4.637   2.784   1.768
 9718SOL    HW130053   4.630   2.880   1.794
 9718SOL    HW230054   4.644   2.727   1.850
 9719SOL     OW30055   0.411   1.998   0.118
 9719SOL    HW130056   0.357   1.914   0.107
 9719SOL    HW230057   0.421   2.019   0.215
 9720SOL     OW30058   0.312   5.703   1.660
 9720SOL    HW130059   0.258   5.779   1.624
 9720SOL    HW230060   0.276   5.676   1.750
 9721SOL     OW30061   0.823   3.281   0.943
 9721SOL    HW130062   0.734   3.277   0.898
 9721SOL    HW230063   0.814   3.245   1.036
 9722SOL     OW30064   0.346   0.443   3.481
 9722SOL    HW130065   0.333   0.352   3.441
 9722SOL    HW230066   0.441   0.472   3.466
 9723SOL     OW30067   2.226   5.983   3.788
 9723SOL    HW130068   2.291   6.012   3.718
 9723SOL    HW230069   2.229   5.884   3.797
 9724SOL     OW30070   2.283   3.546   0.351
 9724SOL    HW130071   2.218   3.482   0.393
 9724SOL    HW230072   2.352   3.494   0.300
 9725SOL     OW30073   4.172   4.334   6.713
 9725SOL    HW130074   4.156   4.300   6.620
 9725SOL    HW230075   4.198   4.258   6.772
 9726SOL     OW30076   4.443   6.842   3.975
 9726SOL    HW130077   4.505   6.882   4.043
 9726SOL    HW230078   4.383   6.776   4.020
 9727SOL     OW30079   0.402   3.165   5.223
 9727SOL    HW130080   0.371   3.237   5.161
 9727SOL    HW230081   0.469   3.108   5.177
 9728SOL     OW30082   0.713   0.348   5.918
 9728SOL    HW130083   0.716   0.267   5.977
 9728SOL    HW230084   0.739   0.322   5.825
 9729SOL     OW30085   1.055   4.448   3.034
 9729SOL    HW130086   1.053   4.475   3.130
 9729SOL    HW230087   1.110   4.365   3.024
 9730SOL     OW30088   0.125   3.405   2.650
 9730SOL    HW130089   0.181   3.421   2.569
 9730SOL    HW230090   0.139   3.479   2.716
 9731SOL     OW30091   4.449   3.984   0.674
 9731SOL    HW130092   4.402   3.998   0.761
 9731SOL    HW230093   4.435   4.064   0.615
 9732SOL     OW30094   5.110   5.959   3.252
 9732SOL    HW130095   5.202   5.927   3.229
 9732SOL    HW230096   5.095   6.049   3.211
 9733SOL     OW30097   5.541   4.903   6.828
 9733SOL    HW130098   5.617   4.907   6.893
 9733SOL    HW230099   5.576   4.882   6.737
 9734SOL     OW30100   5.566   2.087   3.563
 9734SOL    HW130101   5.643   2.139   3.599
 9734SOL    HW230102   5.595   2.037   3.481
 9735SOL     OW30103   1.568   4.546   2.728
 9735SOL    HW130104   1.607   4.531   2.818
 9735SOL    HW230105   1.469   4.555   2.735
 9736SOL     OW30106   5.910   1.815   6.435
 9736SOL    HW130107   5.987   1.777   6.385
 9736SOL    HW230108   5.933   1.906   6.469
 9737SOL     OW30109   6.794   3.039   4.952
 9737SOL    HW130110   6.750   3.118   4.993
 9737SOL    HW230111   6.762   3.027   4.858
 9738SOL     OW30112   2.246   6.897   2.873
 9738SOL    HW130113   2.335   6.939   2.894
 9738SOL    HW230114   2.244   6.803   2.909
 9739SOL     OW30115   6.623   5.386   2.001
 9739SOL    HW130116   6.571   5.358   1.921
 9739SOL    HW230117   6.719   5.398   1.977
 9740SOL     OW30118   6.467   2.913   3.962
 9740SOL    HW130119   6.499   2.918   4.057
 9740SOL    HW230120   6.372   2.884   3.960
 9741SOL     OW30121   4.575   1.546   2.540
 9741SOL    HW130122   4.644   1.506   2.479
 9741SOL    HW230123   4.485   1.510   2.516
 9742SOL     OW30124   3.982   0.084   2.223
 9742SOL    HW130125   4.080   0.073   2.241
 9742SOL    HW230126   3.959   0.041   2.136
 9743SOL     OW30127   1.433   1.752   4.459
 9743SOL    HW130128   1.455   1.704   4.544
 9743SOL    HW230129   1.411   1.685   4.388
 9744SOL     OW30130   0.402   0.289   3.077
 9744SOL    HW130131   0.338   0.311   3.003
 9744SOL    HW230132   0.350   0.263   3.159
 9745SOL     OW30133   6.661   2.808   6.151
 9745SOL    HW130134   6.705   2.737   6.096
 9745SOL    HW230135   6.721   2.887   6.158
 9746SOL     OW30136   6.244   0.814   6.195
 9746SOL    HW130137   6.152   0.824   6.156
 9746SOL    HW230138   6.281   0.904   6.216
 9747SOL     OW30139   2.112   0.352   1.933
 9747SOL    HW130140   2.073   0.431   1.885
 9747SOL    HW230141   2.048   0.320   2.003
 9748SOL     OW30142   1.151   1.561   3.539
 9748SOL    HW130143   1.155   1.651   3.495
 9748SOL    HW230144   1.220   1.557   3.612
 9749SOL     OW30145   2.224   1.997   4.789
 9749SOL    HW130146   2.270   1.961   4.870
 9749SOL    HW230147   2.293   2.028   4.723
 9750SOL     OW30148   5.364   4.750   3.381
 9750SOL    HW130149   5.361   4.690   3.300
 9750SOL    HW230150   5.440   4.723   3.440
 9751SOL     OW30151   2.234   1.196   0.948
 9751SOL    HW130152   2.257   1.253   0.869
 9751SOL    HW230153   2.159   1.238   0.999
 9752SOL     OW30154   5.226   1.022   6.981
 9752SOL    HW130155   5.314   0.998   0.004
 9752SOL    HW230156   5.163   0.945   6.992
 9753SOL     OW30157   5.557   5.158   5.165
 9753SOL    HW130158   5.628   5.092   5.189
 9753SOL    HW230159   5.484   5.111   5.114
 9754SOL     OW30160   0.793   1.610   0.284
 9754SOL    HW130161   0.886   1.639   0.304
 9754SOL    HW230162   0.779   1.516   0.317
 9755SOL     OW30163   4.070   3.654   5.051
 9755SOL    HW130164   4.014   3.737   5.056
 9755SOL    HW230165   4.102   3.631   5.143
 9756SOL     OW30166   6.154   3.116   0.453
 9756SOL    HW130167   6.095   3.042   0.421
 9756SOL    HW230168   6.196   3.163   0.375
 9757SOL     OW30169   5.677   3.479   3.283
 9757SOL    HW130170   5.656   3.558   3.226
 9757SOL    HW230171   5.592   3.442   3.320
 9758SOL     OW30172   2.753   0.088   0.058
 9758SOL    HW130173   2.759   0.061   0.154
 9758SOL    HW230174   2.661   0.067   0.024
 9759SOL     OW30175   2.464   0.049   0.017
 9759SOL    HW130176   2.505   6.982   0.055
 9759SOL    HW230177   2.373   0.062   0.057
 9760SOL     OW30178   4.513   3.463   5.331
 9760SOL    HW130179   4.578   3.510   5.271
 9760SOL    HW230180   4.560   3.390   5.380
 9761SOL     OW30181   6.002   6.702   1.639
 9761SOL    HW130182   5.981   6.619   1.587
 9761SOL    HW230183   6.096   6.730   1.619
 9762SOL     OW30184   2.571   2.526   4.332
 9762SOL    HW130185   2.616   2.488   4.251
 9762SOL    HW230186   2.604   2.478   4.414
 9763SOL     OW30187   4.552   2.484   1.358
 9763SOL    HW130188   4.487   2.549   1.397
 9763SOL    HW230189   4.556   2.401   1.414
 9764SOL     OW30190   1.327   2.629   2.645
 9764SOL    HW130191   1.370   2.663   2.562
 9764SOL    HW230192   1.229   2.622   2.632
 9765SOL     OW30193   6.481   1.861   3.205
 9765SOL    HW130194   6.408   1.865   3.274
 9765SOL    HW230195   6.465   1.785   3.144
 9766SOL     OW30196   2.861   0.650   3.172
 9766SOL    HW130197   2.861   0.555   3.202
 9766SOL    HW230198   2.955   0.682   3.161
 9767SOL     OW30199   4.969   2.057   5.031
 9767SOL    HW130200   5.003   2.148   5.008
 9767SOL    HW230201   5.032   1.988   4.998
 9768SOL     OW30202   4.294   1.580   2.054
 9768SOL    HW130203   4.367   1.568   1.987
 9768SOL    HW230204   4.319   1.651   2.119
 9769SOL     OW30205   2.068   1.213   2.100
 9769SOL    HW130206   2.157   1.166   2.094
 9769SOL    HW230207   2.079   1.307   2.070
 9770SOL     OW30208   5.355   0.026   6.949
 9770SOL    HW130209   5.453   0.017   6.933
 9770SOL    HW230210   5.334   0.120   6.975
 9771SOL     OW30211   4.039   5.222   1.425
 9771SOL    HW130212   4.029   5.321   1.440
 9771SOL    HW230213   3.950   5.184   1.401
 9772SOL     OW30214   0.975   6.398   2.518
 9772SOL    HW130215   0.995   6.482   2.467
 9772SOL    HW230216   1.007   6.407   2.612
 9773SOL     OW30217   5.503   6.843   4.256
 9773SOL    HW130218   5.442   6.870   4.330
 9773SOL    HW230219   5.580   6.791   4.292
 9774SOL     OW30220   6.424   5.032   2.093
 9774SOL    HW130221   6.500   5.082   2.135
 9774SOL    HW230222   6.458   4.978   2.016
 9775SOL     OW30223   3.362   1.414   3.536
 9775SOL    HW130224   3.448   1.462   3.522
 9775SOL    HW230225   3.338   1.416   3.633
 9776SOL     OW30226   6.797   5.214   4.392
 9776SOL    HW130227   6.798   5.308   4.428
 9776SOL    HW230228   6.826   5.151   4.464
 9777SOL     OW30229   5.897   5.028   6.260
 9777SOL    HW130230   5.981   5.079   6.240
 9777SOL    HW230231   5.849   5.007   6.175
 9778SOL     OW30232   6.745   0.561   3.750
 9778SOL    HW130233   6.650   0.573   3.780
 9778SOL    HW230234   6.767   0.463   3.748
 9779SOL     OW30235   2.483   1.707   4.648
 9779SOL    HW130236   2.446   1.750   4.730
 9779SOL    HW230237   2.563   1.652   4.672
 9780SOL     OW30238   2.080   1.862   0.963
 9780SOL    HW130239   2.176   1.850   0.990
 9780SOL    HW230240   2.074   1.931   0.891
 9781SOL     OW30241   1.453   3.973   3.684
 9781SOL    HW130242   1.436   3.907   3.757
 9781SOL    HW230243   1.387   3.957   3.610
 9782SOL     OW30244   0.041   0.690   1.330
 9782SOL    HW130245   0.095   0.607   1.320
 9782SOL    HW230246   6.968   0.676   1.288
 9783SOL     OW30247   4.638   2.002   1.881
 9783SOL    HW130248   4.564   1.978   1.943
 9783SOL    HW230249   4.695   1.922   1.864
 9784SOL     OW30250   4.439   1.453   3.925
 9784SOL    HW130251   4.506   1.452   3.850
 9784SOL    HW230252   4.408   1.547   3.940
 9785SOL     OW30253   0.306   4.325   4.842
 9785SOL    HW130254   0.341   4.339   4.934
 9785SOL    HW230255   0.217   4.279   4.847
 9786SOL     OW30256   2.124   4.969   6.621
 9786SOL    HW130257   2.142   5.013   6.709
 9786SOL    HW230258   2.169   5.019   6.548
 9787SOL     OW30259   5.100   3.462   1.543
 9787SOL    HW130260   5.117   3.408   1.625
 9787SOL    HW230261   5.083   3.557   1.568
 9788SOL     OW30262   0.773   0.516   3.953
 9788SOL    HW130263   0.729   0.498   4.041
 9788SOL    HW230264   0.868   0.541   3.967
 9789SOL     OW30265   1.499   5.893   6.373
 9789SOL    HW130266   1.457   5.832   6.305
 9789SOL    HW230267   1.525   5.839   6.453
 9790SOL     OW30268   5.775   3.922   5.682
 9790SOL    HW130269   5.772   4.017   5.651
 9790SOL    HW230270   5.684   3.895   5.714
 9791SOL     OW30271   0.478   0.971   3.272
 9791SOL    HW130272   0.490   1.030   3.352
 9791SOL    HW230273   0.479   1.026   3.189
 9792SOL     OW30274   5.097   4.992   1.248
 9792SOL    HW130275   5.052   5.075   1.217
 9792SOL    HW230276   5.193   5.011   1.270
 9793SOL     OW30277   5.348   5.785   3.484
 9793SOL    HW130278   5.249   5.769   3.487
 9793SOL    HW230279   5.366   5.882   3.469
 9794SOL     OW30280   6.340   3.774   6.296
 9794SOL    HW130281   6.258   3.831   6.304
 9794SOL    HW230282   6.315   3.685   6.257
 9795SOL     OW30283   1.363   1.999   4.350
 9795SOL    HW130284   1.376   1.910   4.393
 9795SOL    HW230285   1.445   2.022   4.298
 9796SOL     OW30286   3.413   3.862   0.630
 9796SOL    HW130287   3.507   3.896   0.623
 9796SOL    HW230288   3.381   3.872   0.724
 9797SOL     OW30289   3.559   4.295   6.399
 9797SOL    HW130290   3.522   4.376   6.354
 9797SOL    HW230291   3.583   4.227   6.329
 9798SOL     OW30292   2.360   0.559   0.849
 9798SOL    HW130293   2.278   0.505   0.831
 9798SOL    HW230294   2.333   0.649   0.884
 9799SOL     OW30295   3.505   3.558   3.165
 9799SOL    HW130296   3.528   3.647   3.204
 9799SOL    HW230297   3.579   3.527   3.107
 9800SOL     OW30298   3.236   6.201   5.579
 9800SOL    HW130299   3.277   6.237   5.663
 9800SOL    HW230300   3.196   6.276   5.526
 9801SOL     OW30301   4.620   4.956   0.480
 9801SOL    HW130302   4.666   5.009   0.408
 9801SOL    HW230303   4.613   5.012   0.563
 9802SOL     OW30304   6.980   2.705   2.356
 9802SOL    HW130305   0.046   2.701   2.412
 9802SOL    HW230306   6.933   2.617   2.361
 9803SOL     OW30307   6.414   1.070   0.089
 9803SOL    HW130308   6.374   1.030   0.171
 9803SOL    HW230309   6.475   1.146   0.114
 9804SOL     OW30310   0.427   5.647   3.449
 9804SOL    HW130311   0.353   5.713   3.464
 9804SOL    HW230312   0.389   5.554   3.446
 9805SOL     OW30313   1.308   5.781   6.238
 9805SOL    HW130314   1.247   5.776   6.159
 9805SOL    HW230315   1.290   5.705   6.300
 9806SOL     OW30316   1.088   1.549   0.795
 9806SOL    HW130317   1.165   1.505   0.749
 9806SOL    HW230318   1.065   1.498   0.878
 9807SOL     OW30319   2.498   2.625   6.872
 9807SOL    HW130320   2.454   2.595   6.957
 9807SOL    HW230321   2.596   2.635   6.887
 9808SOL     OW30322   5.473   0.709   5.599
 9808SOL    HW130323   5.380   0.686   5.629
 9808SOL    HW230324   5.518   0.765   5.669
 9809SOL     OW30325   0.652   1.469   6.089
 9809SOL    HW130326   0.584   1.462   6.162
 9809SOL    HW230327   0.702   1.383   6.083
 9810SOL     OW30328   2.557   2.353   3.050
 9810SOL    HW130329   2.533   2.258   3.072
 9810SOL    HW230330   2.596   2.356   2.958
 9811SOL     OW30331   5.735   5.191   3.842
 9811SOL    HW130332   5.808   5.147   3.895
 9811SOL    HW230333   5.771   5.222   3.754
 9812SOL     OW30334   3.241   2.237   6.081
 9812SOL    HW130335   3.294   2.318   6.107
 9812SOL    HW230336   3.301   2.173   6.032
 9813SOL     OW30337   5.615   6.435   6.762
 9813SOL    HW130338   5.523   6.405   6.786
 9813SOL    HW230339   5.664   6.361   6.718
 9814SOL     OW30340   0.794   0.832   6.070
 9814SOL    HW130341   0.866   0.849   6.003
 9814SOL    HW230342   0.722   0.776   6.028
 9815SOL     OW30343   7.009   2.132   2.070
 9815SOL    HW130344   0.002   2.111   1.973
 9815SOL    HW230345   6.953   2.061   2.114
 9816SOL     OW30346   6.888   1.105   6.815
 9816SOL    HW130347   6.898   1.153   6.727
 9816SOL    HW230348   6.823   1.029   6.804
 9817SOL     OW30349   2.961   5.404   1.723
 9817SOL    HW130350   2.932   5.433   1.632
 9817SOL    HW230351   2.926   5.468   1.792
 9818SOL     OW30352   1.415   1.318   3.305
 9818SOL    HW130353   1.450   1.296   3.396
 9818SOL    HW230354   1.373   1.237   3.265
 9819SOL     OW30355   5.098   3.586   4.999
 9819SOL    HW130356   5.120   3.605   5.095
 9819SOL    HW230357   5.000   3.594   4.985
 9820SOL     OW30358   3.095   2.154   6.674
 9820SOL    HW130359   3.079   2.214   6.595
 9820SOL    HW230360   3.146   2.073   6.645
 9821SOL     OW30361   4.008   1.811   0.727
 9821SOL    HW130362   3.961   1.760   0.799
 9821SOL    HW230363   3.943   1.836   0.656
 9822SOL     OW30364   3.954   5.657   3.918
 9822SOL    HW130365   3.960   5.582   3.983
 9822SOL    HW230366   4.016   5.731   3.945
 9823SOL     OW30367   1.262   0.102   2.292
 9823SOL    HW130368   1.207   0.051   2.225
 9823SOL    HW230369   1.308   0.037   2.352
 9824SOL     OW30370   2.611   5.803   5.639
 9824SOL    HW130371   2.539   5.743   5.677
 9824SOL    HW230372   2.682   5.817   5.708
 9825SOL     OW30373   5.865   5.504   4.965
 9825SOL    HW130374   5.953   5.499   4.918
 9825SOL    HW230375   5.807   5.572   4.921
 9826SOL     OW30376   3.697   6.358   5.197
 9826SOL    HW130377   3.755   6.280   5.175
 9826SOL    HW230378   3.611   6.350   5.146
 9827SOL     OW30379   2.077   4.763   3.188
 9827SOL    HW130380   2.034   4.798   3.271
 9827SOL    HW230381   2.174   4.745   3.206
 9828SOL     OW30382   3.404   1.943   4.949
 9828SOL    HW130383   3.414   1.902   5.040
 9828SOL    HW230384   3.482   1.917   4.892
 9829SOL     OW30385   4.768   6.408   6.545
 9829SOL    HW130386   4.756   6.322   6.596
 9829SOL    HW230387   4.758   6.390   6.447
 9830SOL     OW30388   5.452   1.136   2.060
 9830SOL    HW130389   5.490   1.069   2.123
 9830SOL    HW230390   5.492   1.226   2.077
 9831SOL     OW30391   0.388   4.606   1.676
 9831SOL    HW130392   0.444   4.592   1.758
 9831SOL    HW230393   0.435   4.569   1.596
 9832SOL     OW30394   4.729   5.499   3.920
 9832SOL    HW130395   4.719   5.560   3.999
 9832SOL    HW230396   4.751   5.553   3.839
 9833SOL     OW30397   3.619   3.327   3.395
 9833SOL    HW130398   3.681   3.252   3.372
 9833SOL    HW230399   3.541   3.291   3.446
 9834SOL     OW30400   1.865   4.977   6.184
 9834SOL    HW130401   1.958   4.999   6.154
 9834SOL    HW230402   1.807   4.964   6.103
 9835SOL     OW30403   4.032   3.230   3.946
 9835SOL    HW130404   4.066   3.173   4.021
 9835SOL    HW230405   3.935   3.250   3.960
 9836SOL     OW30406   0.403   4.397   5.099
 9836SOL    HW130407   0.397   4.443   5.188
 9836SOL    HW230408   0.342   4.444   5.035
 9837SOL     OW30409   5.577   1.764   2.517
 9837SOL    HW130410   5.651   1.794   2.457
 9837SOL    HW230411   5.542   1.676   2.486
 9838SOL     OW30412   1.369   6.821   1.040
 9838SOL    HW130413   1.308   6.899   1.054
 9838SOL    HW230414   1.392   6.815   0.943
 9839SOL     OW30415   4.682   0.591   3.463
 9839SOL    HW130416   4.719   0.635   3.545
 9839SOL    HW230417   4.609   0.528   3.491
 9840SOL     OW30418   4.454   1.830   6.814
 9840SOL    HW130419   4.422   1.925   6.820
 9840SOL    HW230420   4.495   1.815   6.724
 9841SOL     OW30421   0.568   4.916   3.594
 9841SOL    HW130422   0.565   4.959   3.685
 9841SOL    HW230423   0.590   4.985   3.526
 9842SOL     OW30424   3.345   3.571   0.243
 9842SOL    HW130425   3.351   3.472   0.226
 9842SOL    HW230426   3.355   3.588   0.341
 9843SOL     OW30427   0.054   0.500   2.157
 9843SOL    HW130428   0.003   0.582   2.131
 9843SOL    HW230429   7.011   0.439   2.210
 9844SOL     OW30430   6.061   0.380   4.544
 9844SOL    HW130431   6.135   0.386   4.477
 9844SOL    HW230432   6.080   0.442   4.620
 9845SOL     OW30433   0.958   2.395   2.606
 9845SOL    HW130434   1.007   2.479   2.583
 9845SOL    HW230435   1.024   2.321   2.620
 9846SOL     OW30436   4.819   1.696   0.583
 9846SOL    HW130437   4.906   1.716   0.628
 9846SOL    HW230438   4.752   1.668   0.652
 9847SOL     OW30439   4.209   3.297   2.055
 9847SOL    HW130440   4.153   3.270   2.134
 9847SOL    HW230441   4.306   3.296   2.080
 9848SOL     OW30442   3.610   4.436   5.287
 9848SOL    HW130443   3.604   4.374   5.365
 9848SOL    HW230444   3.651   4.389   5.209
 9849SOL     OW30445   0.692   6.935   6.464
 9849SOL    HW130446   0.660   7.000   6.395
 9849SOL    HW230447   0.661   6.963   6.554
 9850SOL     OW30448   0.270   0.324   4.166
 9850SOL    HW130449   0.326   0.407   4.158
 9850SOL    HW230450   0.174   0.347   4.149
 9851SOL     OW30451   2.823   5.746   4.785
 9851SOL    HW130452   2.882   5.671   4.815
 9851SOL    HW230453   2.749   5.760   4.850
 9852SOL     OW30454   1.282   1.760   5.065
 9852SOL    HW130455   1.270   1.826   5.140
 9852SOL    HW230456   1.376   1.765   5.031
 9853SOL     OW30457   0.138   3.384   5.088
 9853SOL    HW130458   0.235   3.366   5.073
 9853SOL    HW230459   0.085   3.301   5.070
 9854SOL     OW30460   0.754   5.495   5.019
 9854SOL    HW130461   0.678   5.547   5.057
 9854SOL    HW230462   0.747   5.400   5.050
 9855SOL     OW30463   1.189   3.673   0.965
 9855SOL    HW130464   1.200   3.619   1.049
 9855SOL    HW230465   1.092   3.677   0.941
 9856SOL     OW30466   5.613   4.510   4.129
 9856SOL    HW130467   5.623   4.600   4.173
 9856SOL    HW230468   5.682   4.500   4.058
 9857SOL     OW30469   5.691   2.616   3.013
 9857SOL    HW130470   5.657   2.701   3.053
 9857SOL    HW230471   5.746   2.636   2.932
 9858SOL     OW30472   0.687   6.530   1.871
 9858SOL    HW130473   0.744   6.602   1.913
 9858SOL    HW230474   0.746   6.457   1.838
 9859SOL     OW30475   6.382   4.917   4.956
 9859SOL    HW130476   6.446   4.994   4.958
 9859SOL    HW230477   6.431   4.833   4.983
 9860SOL     OW30478   1.900   2.242   5.044
 9860SOL    HW130479   1.998   2.236   5.021
 9860SOL    HW230480   1.856   2.311   4.986
 9861SOL     OW30481   3.400   1.372   3.790
 9861SOL    HW130482   3.368   1.437   3.860
 9861SOL    HW230483   3.499   1.358   3.801
 9862SOL     OW30484   2.569   4.206   0.996
 9862SOL    HW130485   2.549   4.279   1.062
 9862SOL    HW230486   2.539   4.118   1.034
 9863SOL     OW30487   3.175   5.789   0.967
 9863SOL    HW130488   3.215   5.834   0.887
 9863SOL    HW230489   3.195   5.692   0.964
 9864SOL     OW30490   2.875   6.888   5.417
 9864SOL    HW130491   2.831   6.962   5.367
 9864SOL    HW230492   2.874   6.805   5.361
 9865SOL     OW30493   0.593   6.677   4.982
 9865SOL    HW130494   0.687   6.644   4.974
 9865SOL    HW230495   0.561   6.667   5.076
 9866SOL     OW30496   6.284   4.394   5.099
 9866SOL    HW130497   6.199   4.410   5.149
 9866SOL    HW230498   6.275   4.431   5.006
 9867SOL     OW30499   5.018   2.512   3.019
 9867SOL    HW130500   4.943   2.449   3.040
 9867SOL    HW230501   5.038   2.568   3.099
 9868SOL     OW30502   0.514   3.808   3.490
 9868SOL    HW130503   0.582   3.802   3.416
 9868SOL    HW230504   0.561   3.813   3.578
 9869SOL     OW30505   0.345   2.601   1.504
 9869SOL    HW130506   0.404   2.674   1.538
 9869SOL    HW230507   0.382   2.512   1.533
 9870SOL     OW30508   4.376   1.164   1.793
 9870SOL    HW130509   4.451   1.223   1.819
 9870SOL    HW230510   4.375   1.082   1.851
 9871SOL     OW30511   6.809   2.607   6.012
 9871SOL    HW130512   6.755   2.585   5.930
 9871SOL    HW230513   6.904   2.581   5.997
 9872SOL     OW30514   2.192   5.341   5.516
 9872SOL    HW130515   2.235   5.285   5.588
 9872SOL    HW230516   2.197   5.292   5.429
 9873SOL     OW30517   1.916   2.187   5.356
 9873SOL    HW130518   1.880   2.205   5.448
 9873SOL    HW230519   1.841   2.157   5.297
 9874SOL     OW30520   0.661   3.115   4.689
 9874SOL    HW130521   0.630   3.026   4.655
 9874SOL    HW230522   0.603   3.187   4.651
 9875SOL     OW30523   0.113   6.093   1.285
 9875SOL    HW130524   0.211   6.110   1.286
 9875SOL    HW230525   0.069   6.145   1.358
 9876SOL     OW30526   3.806   7.012   3.411
 9876SOL    HW130527   3.718   0.029   3.376
 9876SOL    HW230528   3.851   6.958   3.340
 9877SOL     OW30529   6.794   4.036   3.825
 9877SOL    HW130530   6.869   3.975   3.798
 9877SOL    HW230531   6.791   4.115   3.763
 9878SOL     OW30532   1.663   3.281   6.812
 9878SOL    HW130533   1.611   3.237   6.738
 9878SOL    HW230534   1.666   3.220   6.891
 9879SOL     OW30535   1.050   4.658   5.904
 9879SOL    HW130536   1.112   4.696   5.973
 9879SOL    HW230537   1.062   4.707   5.817
 9880SOL     OW30538   2.678   0.886   6.755
 9880SOL    HW130539   2.586   0.905   6.790
 9880SOL    HW230540   2.678   0.892   6.656
 9881SOL     OW30541   5.680   0.413   4.465
 9881SOL    HW130542   5.731   0.378   4.544
 9881SOL    HW230543   5.639   0.337   4.416
 9882SOL     OW30544   3.419   3.376   4.394
 9882SOL    HW130545   3.395   3.319   4.315
 9882SOL    HW230546   3.426   3.318   4.475
 9883SOL     OW30547   1.892   6.174   1.802
 9883SOL    HW130548   1.837   6.110   1.855
 9883SOL    HW230549   1.851   6.185   1.711
 9884SOL     OW30550   2.199   3.034   6.981
 9884SOL    HW130551   2.237   3.127   6.989
 9884SOL    HW230552   2.106   3.039   6.946
 9885SOL     OW30553   0.489   3.217   3.966
 9885SOL    HW130554   0.490   3.231   3.867
 9885SOL    HW230555   0.516   3.302   4.011
 9886SOL     OW30556   6.333   6.686   1.666
 9886SOL    HW130557   6.303   6.592   1.653
 9886SOL    HW230558   6.423   6.699   1.624
 9887SOL     OW30559   3.960   0.111   0.636
 9887SOL    HW130560   3.900   0.041   0.597
 9887SOL    HW230561   4.017   0.149   0.564
 9888SOL     OW30562   5.816   5.824   3.094
 9888SOL    HW130563   5.805   5.921   3.114
 9888SOL    HW230564   5.771   5.769   3.165
 9889SOL     OW30565   0.388   4.668   3.129
 9889SOL    HW130566   0.453   4.634   3.197
 9889SOL    HW230567   0.417   4.639   3.038
 9890SOL     OW30568   6.366   2.914   0.884
 9890SOL    HW130569   6.465   2.913   0.869
 9890SOL    HW230570   6.320   2.929   0.797
 9891SOL     OW30571   5.387   4.997   1.340
 9891SOL    HW130572   5.453   5.048   1.397
 9891SOL    HW230573   5.432   4.916   1.303
 9892SOL     OW30574   2.034   4.807   3.718
 9892SOL    HW130575   1.938   4.807   3.747
 9892SOL    HW230576   2.068   4.713   3.714
 9893SOL     OW30577   6.177   5.736   3.147
 9893SOL    HW130578   6.187   5.807   3.077
 9893SOL    HW230579   6.268   5.703   3.173
 9894SOL     OW30580   3.121   2.150   5.849
 9894SOL    HW130581   3.194   2.160   5.781
 9894SOL    HW230582   3.150   2.190   5.936
 9895SOL     OW30583   5.867   2.337   6.501
 9895SOL    HW130584   5.798   2.269   6.525
 9895SOL    HW230585   5.840   2.383   6.416
 9896SOL     OW30586   3.865   3.465   1.063
 9896SOL    HW130587   3.818   3.449   1.149
 9896SOL    HW230588   3.850   3.387   1.001
 9897SOL     OW30589   5.372   1.376   3.025
 9897SOL    HW130590   5.382   1.475   3.040
 9897SOL    HW230591   5.277   1.350   3.043
 9898SOL     OW30592   1.070   4.897   5.625
 9898SOL    HW130593   1.069   4.911   5.526
 9898SOL    HW230594   0.989   4.939   5.666
 9899SOL     OW30595   5.826   4.491   2.226
 9899SOL    HW130596   5.885   4.566   2.197
 9899SOL    HW230597   5.830   4.482   2.326
 9900SOL     OW30598   1.401   1.923   3.063
 9900SOL    HW130599   1.311   1.963   3.078
 9900SOL    HW230600   1.452   1.979   2.999
 9901SOL     OW30601   1.426   1.618   6.446
 9901SOL    HW130602   1.328   1.606   6.437
 9901SOL    HW230603   1.464   1.548   6.507
 9902SOL     OW30604   3.864   3.234   0.893
 9902SOL    HW130605   3.794   3.177   0.851
 9902SOL    HW230606   3.945   3.236   0.833
 9903SOL     OW30607   4.804   0.545   2.241
 9903SOL    HW130608   4.888   0.591   2.212
 9903SOL    HW230609   4.734   0.556   2.170
 9904SOL     OW30610   0.050   3.732   6.640
 9904SOL    HW130611   0.024   3.737   6.544
 9904SOL    HW230612   0.122   3.664   6.652
 9905SOL     OW30613   1.578   6.468   0.067
 9905SOL    HW130614   1.653   6.508   0.120
 9905SOL    HW230615   1.595   6.370   0.055
 9906SOL     OW30616   1.426   3.040   6.415
 9906SOL    HW130617   1.373   2.977   6.358
 9906SOL    HW230618   1.430   3.130   6.371
 9907SOL     OW30619   2.527   6.353   3.765
 9907SOL    HW130620   2.600   6.365   3.698
 9907SOL    HW230621   2.457   6.292   3.728
 9908SOL     OW30622   0.693   3.026   6.420
 9908SOL    HW130623   0.731   3.078   6.496
 9908SOL    HW230624   0.638   3.087   6.362
 9909SOL     OW30625   3.395   0.813   3.035
 9909SOL    HW130626   3.432   0.722   3.016
 9909SOL    HW230627   3.453   0.860   3.101
 9910SOL     OW30628   0.568   4.915   1.128
 9910SOL    HW130629   0.497   4.852   1.094
 9910SOL    HW230630   0.601   4.971   1.052
 9911SOL     OW30631   5.092   5.027   2.676
 9911SOL    HW130632   5.133   5.080   2.751
 9911SOL    HW230633   4.996   5.009   2.697
 9912SOL     OW30634   3.898   0.540   2.659
 9912SOL    HW130635   3.834   0.559   2.585
 9912SOL    HW230636   3.863   0.466   2.716
 9913SOL     OW30637   5.664   2.730   2.483
 9913SOL    HW130638   5.658   2.659   2.413
 9913SOL    HW230639   5.694   2.816   2.442
 9914SOL     OW30640   1.360   0.679   5.824
 9914SOL    HW130641   1.455   0.700   5.849
 9914SOL    HW230642   1.359   0.602   5.761
 9915SOL     OW30643   5.641   3.805   3.901
 9915SOL    HW130644   5.669   3.713   3.872
 9915SOL    HW230645   5.543   3.817   3.882
 9916SOL     OW30646   2.394   2.505   3.241
 9916SOL    HW130647   2.452   2.517   3.322
 9916SOL    HW230648   2.446   2.460   3.169
 9917SOL     OW30649   3.640   3.860   4.735
 9917SOL    HW130650   3.619   3.898   4.825
 9917SOL    HW230651   3.679   3.931   4.677
 9918SOL     OW30652   2.024   1.338   6.706
 9918SOL    HW130653   2.028   1.419   6.765
 9918SOL    HW230654   1.938   1.339   6.655
 9919SOL     OW30655   1.978   5.387   2.491
 9919SOL    HW130656   2.066   5.417   2.526
 9919SOL    HW230657   1.912   5.462   2.498
 9920SOL     OW30658   3.584   6.867   2.027
 9920SOL    HW130659   3.629   6.850   2.114
 9920SOL    HW230660   3.643   6.839   1.951
 9921SOL     OW30661   6.244   6.461   3.593
 9921SOL    HW130662   6.310   6.460   3.518
 9921SOL    HW230663   6.234   6.554   3.628
 9922SOL     OW30664   4.507   4.287   0.860
 9922SOL    HW130665   4.447   4.258   0.934
 9922SOL    HW230666   4.584   4.338   0.898
 9923SOL     OW30667   6.795   2.454   6.917
 9923SOL    HW130668   6.750   2.488   7.000
 9923SOL    HW230669   6.867   2.517   6.890
 9924SOL     OW30670   5.619   1.569   1.906
 9924SOL    HW130671   5.644   1.492   1.965
 9924SOL    HW230672   5.522   1.589   1.916
 9925SOL     OW30673   2.005   3.683   5.419
 9925SOL    HW130674   1.954   3.758   5.378
 9925SOL    HW230675   1.983   3.598   5.373
 9926SOL     OW30676   2.522   1.891   1.086
 9926SOL    HW130677   2.521   1.988   1.111
 9926SOL    HW230678   2.471   1.878   1.001
 9927SOL     OW30679   1.037   2.194   1.905
 9927SOL    HW130680   1.059   2.139   1.985
 9927SOL    HW230681   1.093   2.277   1.905
 9928SOL     OW30682   6.649   4.690   1.969
 9928SOL    HW130683   6.642   4.595   1.940
 9928SOL    HW230684   6.625   4.696   2.066
 9929SOL     OW30685   3.129   4.326   5.459
 9929SOL    HW130686   3.055   4.374   5.412
 9929SOL    HW230687   3.214   4.337   5.406
 9930SOL     OW30688   0.078   0.614   5.459
 9930SOL    HW130689   0.068   0.612   5.559
 9930SOL    HW230690   0.106   0.706   5.430
 9931SOL     OW30691   0.647   6.180   4.572
 9931SOL    HW130692   0.625   6.093   4.529
 9931SOL    HW230693   0.731   6.171   4.625
 9932SOL     OW30694   1.823   2.013   0.718
 9932SOL    HW130695   1.814   1.938   0.783
 9932SOL    HW230696   1.753   2.003   0.647
 9933SOL     OW30697   2.716   1.026   3.451
 9933SOL    HW130698   2.674   1.031   3.361
 9933SOL    HW230699   2.649   0.992   3.518
 9934SOL     OW30700   5.723   1.711   0.601
 9934SOL    HW130701   5.631   1.676   0.579
 9934SOL    HW230702   5.741   1.793   0.546
 9935SOL     OW30703   2.751   2.474   1.073
 9935SOL    HW130704   2.763   2.376   1.091
 9935SOL    HW230705   2.806   2.527   1.138
 9936SOL     OW30706   5.264   4.941   6.251
 9936SOL    HW130707   5.350   4.978   6.216
 9936SOL    HW230708   5.251   4.848   6.216
 9937SOL     OW30709   6.905   0.221   3.122
 9937SOL    HW130710   6.946   0.310   3.143
 9937SOL    HW230711   6.874   0.220   3.027
 9938SOL     OW30712   6.106   0.634   4.414
 9938SOL    HW130713   6.192   0.661   4.457
 9938SOL    HW230714   6.071   0.709   4.359
 9939SOL     OW30715   1.339   3.629   0.746
 9939SOL    HW130716   1.299   3.666   0.831
 9939SOL    HW230717   1.438   3.638   0.749
 9940SOL     OW30718   6.984   0.025   3.599
 9940SOL    HW130719   6.958   0.100   3.660
 9940SOL    HW230720   0.007   6.968   3.653
 9941SOL     OW30721   3.642   4.958   5.718
 9941SOL    HW130722   3.667   4.961   5.621
 9941SOL    HW230723   3.702   5.020   5.770
 9942SOL     OW30724   4.816   5.120   2.329
 9942SOL    HW130725   4.907   5.082   2.347
 9942SOL    HW230726   4.764   5.124   2.414
 9943SOL     OW30727   1.508   4.029   6.075
 9943SOL    HW130728   1.521   3.987   6.165
 9943SOL    HW230729   1.412   4.021   6.049
 9944SOL     OW30730   0.534   4.934   6.330
 9944SOL    HW130731   0.622   4.888   6.315
 9944SOL    HW230732   0.539   4.990   6.413
 9945SOL     OW30733   5.935   3.937   6.608
 9945SOL    HW130734   5.952   3.844   6.576
 9945SOL    HW230735   6.000   3.959   6.681
 9946SOL     OW30736   5.955   0.211   3.111
 9946SOL    HW130737   5.914   0.277   3.173
 9946SOL    HW230738   5.886   0.143   3.084
 9947SOL     OW30739   1.148   1.710   4.190
 9947SOL    HW130740   1.136   1.806   4.217
 9947SOL    HW230741   1.058   1.666   4.183
 9948SOL     OW30742   6.825   6.276   4.875
 9948SOL    HW130743   6.788   6.366   4.857
 9948SOL    HW230744   6.809   6.216   4.796
 9949SOL     OW30745   6.932   4.633   4.394
 9949SOL    HW130746   6.888   4.685   4.320
 9949SOL    HW230747   0.014   4.648   4.391
 9950SOL     OW30748   6.404   4.804   6.205
 9950SOL    HW130749   6.353   4.725   6.240
 9950SOL    HW230750   6.474   4.830   6.272
 9951SOL     OW30751   1.316   2.877   2.771
 9951SOL    HW130752   1.311   2.785   2.730
 9951SOL    HW230753   1.268   2.877   2.858
 9952SOL     OW30754   0.870   3.842   1.735
 9952SOL    HW130755   0.922   3.787   1.801
 9952SOL    HW230756   0.868   3.795   1.647
 9953SOL     OW30757   6.475   2.535   3.770
 9953SOL    HW130758   6.532   2.458   3.743
 9953SOL    HW230759   6.399   2.546   3.705
 9954SOL     OW30760   2.611   1.674   5.019
 9954SOL    HW130761   2.695   1.723   5.042
 9954SOL    HW230762   2.620   1.632   4.929
 9955SOL     OW30763   4.439   3.312   0.050
 9955SOL    HW130764   4.470   3.372   6.994
 9955SOL    HW230765   4.341   3.295   0.040
 9956SOL     OW30766   0.290   4.575   2.207
 9956SOL    HW130767   0.226   4.619   2.145
 9956SOL    HW230768   0.294   4.626   2.293
 9957SOL     OW30769   5.607   6.809   1.399
 9957SOL    HW130770   5.645   6.864   1.473
 9957SOL    HW230771   5.532   6.859   1.355
 9958SOL     OW30772   3.373   5.307   6.304
 9958SOL    HW130773   3.464   5.271   6.280
 9958SOL    HW230774   3.345   5.270   6.393
 9959SOL     OW30775   4.240   3.552   1.697
 9959SOL    HW130776   4.320   3.612   1.697
 9959SOL    HW230777   4.175   3.584   1.627
 9960SOL     OW30778   6.488   6.173   1.254
 9960SOL    HW130779   6.524   6.118   1.329
 9960SOL    HW230780   6.483   6.269   1.282
 9961SOL     OW30781   1.523   4.607   2.079
 9961SOL    HW130782   1.426   4.596   2.057
 9961SOL    HW230783   1.535   4.607   2.178
 9962SOL     OW30784   3.638   0.210   1.833
 9962SOL    HW130785   3.600   0.164   1.914
 9962SOL    HW230786   3.619   0.308   1.838
 9963SOL     OW30787   2.773   2.346   0.608
 9963SOL    HW130788   2.761   2.249   0.587
 9963SOL    HW230789   2.843   2.384   0.548
 9964SOL     OW30790   3.965   5.010   5.997
 9964SOL    HW130791   3.899   5.069   5.951
 9964SOL    HW230792   3.995   4.939   5.933
 9965SOL     OW30793   3.731   5.492   4.996
 9965SOL    HW130794   3.637   5.513   4.968
 9965SOL    HW230795   3.779   5.448   4.920
 9966SOL     OW30796   2.915   5.068   2.111
 9966SOL    HW130797   2.975   5.118   2.173
 9966SOL    HW230798   2.899   5.123   2.029
 9967SOL     OW30799   6.223   5.890   2.924
 9967SOL    HW130800   6.171   5.964   2.966
 9967SOL    HW230801   6.313   5.923   2.897
 9968SOL     OW30802   4.357   5.750   6.980
 9968SOL    HW130803   4.441   5.696   6.986
 9968SOL    HW230804   4.290   5.716   0.029
 9969SOL     OW30805   0.938   4.301   4.294
 9969SOL    HW130806   1.016   4.244   4.270
 9969SOL    HW230807   0.952   4.343   4.384
 9970SOL     OW30808   5.843   4.803   1.602
 9970SOL    HW130809   5.904   4.738   1.556
 9970SOL    HW230810   5.897   4.860   1.664
 9971SOL     OW30811   1.067   2.558   1.688
 9971SOL    HW130812   1.120   2.641   1.669
 9971SOL    HW230813   1.013   2.571   1.771
 9972SOL     OW30814   2.900   4.160   1.210
 9972SOL    HW130815   2.877   4.072   1.167
 9972SOL    HW230816   2.832   4.228   1.184
 9973SOL     OW30817   4.660   2.954   5.179
 9973SOL    HW130818   4.683   2.879   5.117
 9973SOL    HW230819   4.710   2.942   5.265
 9974SOL     OW30820   6.772   1.712   3.095
 9974SOL    HW130821   6.723   1.755   3.020
 9974SOL    HW230822   6.871   1.724   3.083
 9975SOL     OW30823   0.474   5.104   6.553
 9975SOL    HW130824   0.415   5.024   6.553
 9975SOL    HW230825   0.419   5.187   6.564
 9976SOL     OW30826   0.772   4.970   5.638
 9976SOL    HW130827   0.686   5.020   5.642
 9976SOL    HW230828   0.799   4.942   5.730
 9977SOL     OW30829   5.084   4.970   5.623
 9977SOL    HW130830   5.024   4.894   5.599
 9977SOL    HW230831   5.034   5.035   5.681
 9978SOL     OW30832   0.175   2.074   5.721
 9978SOL    HW130833   0.091   2.120   5.690
 9978SOL    HW230834   0.163   1.975   5.713
 9979SOL     OW30835   5.436   4.239   5.738
 9979SOL    HW130836   5.342   4.238   5.772
 9979SOL    HW230837   5.450   4.162   5.676
 9980SOL     OW30838   2.096   0.447   0.858
 9980SOL    HW130839   1.998   0.471   0.853
 9980SOL    HW230840   2.124   0.403   0.773
 9981SOL     OW30841   1.670   2.188   1.096
 9981SOL    HW130842   1.625   2.153   1.015
 9981SOL    HW230843   1.632   2.278   1.119
 9982SOL     OW30844   2.061   0.906   4.486
 9982SOL    HW130845   2.028   0.878   4.577
 9982SOL    HW230846   2.022   0.995   4.463
 9983SOL     OW30847   6.737   2.248   2.535
 9983SOL    HW130848   6.797   2.174   2.506
 9983SOL    HW230849   6.681   2.277   2.458
 9984SOL     OW30850   0.089   5.942   0.443
 9984SOL    HW130851   0.089   5.945   0.543
 9984SOL    HW230852   7.012   5.931   0.410
 9985SOL     OW30853   2.944   5.291   1.010
 9985SOL    HW130854   3.042   5.275   0.997
 9985SOL    HW230855   2.930   5.381   1.050
 9986SOL     OW30856   6.187   4.656   0.559
 9986SOL    HW130857   6.238   4.615   0.484
 9986SOL    HW230858   6.160   4.750   0.534
 9987SOL     OW30859   5.030   2.816   1.773
 9987SOL    HW130860   5.121   2.849   1.750
 9987SOL    HW230861   4.978   2.890   1.816
 9988SOL     OW30862   0.143   5.003   4.314
 9988SOL    HW130863   0.144   4.987   4.412
 9988SOL    HW230864   0.081   4.939   4.269
 9989SOL     OW30865   6.029   3.670   2.052
 9989SOL    HW130866   6.113   3.721   2.033
 9989SOL    HW230867   6.003   3.683   2.148
 9990SOL     OW30868   1.618   6.207   3.182
 9990SOL    HW130869   1.689   6.201   3.111
 9990SOL    HW230870   1.634   6.288   3.239
 9991SOL     OW30871   2.164   3.409   4.184
 9991SOL    HW130872   2.159   3.332   4.248
 9991SOL    HW230873   2.181   3.374   4.091
 9992SOL     OW30874   3.198   3.580   1.095
 9992SOL    HW130875   3.207   3.611   1.001
 9992SOL    HW230876   3.280   3.530   1.122
 9993SOL     OW30877   3.299   6.231   4.076
 9993SOL    HW130878   3.275   6.144   4.120
 9993SOL    HW230879   3.237   6.249   4.000
 9994SOL     OW30880   6.895   3.864   3.469
 9994SOL    HW130881   6.865   3.788   3.410
 9994SOL    HW230882   6.870   3.951   3.426
 9995SOL     OW30883   3.609   0.971   3.275
 9995SOL    HW130884   3.693   0.953   3.224
 9995SOL    HW230885   3.617   1.058   3.324
 9996SOL     OW30886   2.814   3.933   1.043
 9996SOL    HW130887   2.779   4.006   0.985
 9996SOL    HW230888   2.901   3.900   1.007
 9997SOL     OW30889   5.086   1.382   3.433
 9997SOL    HW130890   5.152   1.457   3.433
 9997SOL    HW230891   5.129   1.300   3.471
 9998SOL     OW30892   4.816   3.873   2.268
 9998SOL    HW130893   4.725   3.909   2.246
 9998SOL    HW230894   4.855   3.924   2.344
 9999SOL     OW30895   0.458   6.261   4.052
 9999SOL    HW130896   0.497   6.239   4.142
 9999SOL    HW230897   0.528   6.303   3.995
10000SOL     OW30898   5.919   1.980   1.287
10000SOL    HW130899   5.993   1.958   1.223
10000SOL    HW230900   5.840   2.014   1.236
10001SOL     OW30901   3.249   6.649   1.893
10001SOL    HW130902   3.150   6.638   1.886
10001SOL    HW230903   3.285   6.689   1.809
10002SOL     OW30904   2.653   1.274   1.198
10002SOL    HW130905   2.653   1.355   1.257
10002SOL    HW230906   2.561   1.235   1.195
10003SOL     OW30907   3.164   1.480   2.136
10003SOL    HW130908   3.254   1.513   2.166
10003SOL    HW230909   3.104   1.471   2.215
10004SOL     OW30910   5.233   3.825   4.951
10004SOL    HW130911   5.194   3.733   4.962
10004SOL    HW230912   5.333   3.817   4.948
10005SOL     OW30913   3.590   5.305   2.795
10005SOL    HW130914   3.556   5.350   2.878
10005SOL    HW230915   3.609   5.374   2.725
10006SOL     OW30916   5.437   6.989   5.482
10006SOL    HW130917   5.371   0.030   5.434
10006SOL    HW230918   5.443   6.900   5.436
10007SOL     OW30919   0.880   3.421   4.686
10007SOL    HW130920   0.911   3.379   4.772
10007SOL    HW230921   0.813   3.492   4.706
10008SOL     OW30922   5.292   1.884   3.563
10008SOL    HW130923   5.324   1.804   3.614
10008SOL    HW230924   5.354   1.960   3.579
10009SOL     OW30925   2.002   4.538   1.733
10009SOL    HW130926   1.959   4.611   1.681
10009SOL    HW230927   1.949   4.520   1.816
10010SOL     OW30928   3.036   5.640   0.040
10010SOL    HW130929   3.087   5.650   6.971
10010SOL    HW230930   3.097   5.657   0.117
10011SOL     OW30931   0.250   4.106   6.786
10011SOL    HW130932   0.156   4.141   6.785
10011SOL    HW230933   0.297   4.138   6.704
10012SOL     OW30934   5.057   6.974   2.461
10012SOL    HW130935   5.033   6.883   2.495
10012SOL    HW230936   4.984   0.022   2.483
10013SOL     OW30937   1.072   3.544   3.999
10013SOL    HW130938   1.000   3.549   4.068
10013SOL    HW230939   1.151   3.597   4.029
10014SOL     OW30940   0.824   6.772   1.933
10014SOL    HW130941   0.922   6.750   1.934
10014SOL    HW230942   0.811   6.861   1.891
10015SOL     OW30943   4.135   5.316   0.197
10015SOL    HW130944   4.157   5.340   0.102
10015SOL    HW230945   4.115   5.399   0.249
10016SOL     OW30946   2.669   1.136   4.957
10016SOL    HW130947   2.631   1.075   4.888
10016SOL    HW230948   2.640   1.230   4.938
10017SOL     OW30949   1.512   1.623   2.715
10017SOL    HW130950   1.610   1.636   2.731
10017SOL    HW230951   1.488   1.656   2.624
10018SOL     OW30952   6.303   4.258   5.595
10018SOL    HW130953   6.382   4.293   5.646
10018SOL    HW230954   6.325   4.167   5.559
10019SOL     OW30955   0.024   1.683   3.043
10019SOL    HW130956   0.075   1.749   2.988
10019SOL    HW230957   7.007   1.610   2.984
10020SOL     OW30958   0.177   0.826   2.139
10020SOL    HW130959   0.188   0.830   2.040
10020SOL    HW230960   0.245   0.764   2.178
10021SOL     OW30961   0.672   3.142   2.439
10021SOL    HW130962   0.750   3.101   2.487
10021SOL    HW230963   0.700   3.229   2.398
10022SOL     OW30964   3.151   5.779   0.321
10022SOL    HW130965   3.105   5.845   0.381
10022SOL    HW230966   3.220   5.730   0.373
10023SOL     OW30967   2.073   5.357   4.942
10023SOL    HW130968   2.054   5.259   4.929
10023SOL    HW230969   2.129   5.390   4.866
10024SOL     OW30970   0.878   5.280   3.000
10024SOL    HW130971   0.928   5.354   2.956
10024SOL    HW230972   0.943   5.216   3.041
10025SOL     OW30973   1.434   3.219   1.915
10025SOL    HW130974   1.438   3.317   1.896
10025SOL    HW230975   1.526   3.181   1.911
10026SOL     OW30976   4.854   6.986   3.462
10026SOL    HW130977   4.899   6.896   3.457
10026SOL    HW230978   4.888   0.019   3.542
10027SOL     OW30979   0.899   2.022   5.412
10027SOL    HW130980   0.951   2.065   5.485
10027SOL    HW230981   0.838   1.952   5.452
10028SOL     OW30982   2.123   1.588   1.600
10028SOL    HW130983   2.148   1.629   1.512
10028SOL    HW230984   2.054   1.645   1.644
10029SOL     OW30985   1.502   3.126   3.610
10029SOL    HW130986   1.553   3.181   3.677
10029SOL    HW230987   1.430   3.182   3.569
10030SOL     OW30988   3.588   0.637   5.123
10030SOL    HW130989   3.492   0.610   5.113
10030SOL    HW230990   3.612   0.639   5.220
10031SOL     OW30991   5.090   5.207   4.451
10031SOL    HW130992   5.101   5.220   4.352
10031SOL    HW230993   5.179   5.195   4.493
10032SOL     OW30994   4.430   0.501   5.694
10032SOL    HW130995   4.390   0.546   5.615
10032SOL    HW230996   4.414   0.402   5.689
10033SOL     OW30997   4.236   2.274   4.489
10033SOL    HW130998   4.187   2.261   4.575
10033SOL    HW230999   4.309   2.341   4.501
10034SOL     OW31000   2.602   0.549   3.723
10034SOL    HW131001   2.593   0.594   3.634
10034SOL    HW231002   2.658   0.607   3.783
10035SOL     OW31003   6.104   4.190   0.606
10035SOL    HW131004   6.121   4.267   0.667
10035SOL    HW231005   6.179   4.181   0.542
10036SOL     OW31006   0.236   0.503   0.492
10036SOL    HW131007   0.172   0.427   0.504
10036SOL    HW231008   0.285   0.519   0.577
10037SOL     OW31009   6.138   0.473   0.047
10037SOL    HW131010   6.213   0.410   0.070
10037SOL    HW231011   6.119   0.467   6.967
10038SOL     OW31012   4.428   0.057   6.125
10038SOL    HW131013   4.434   6.975   6.138
10038SOL    HW231014   4.376   0.097   6.200
10039SOL     OW31015   5.426   6.799   5.715
10039SOL    HW131016   5.459   6.836   5.802
10039SOL    HW231017   5.380   6.871   5.663
10040SOL     OW31018   4.449   5.777   5.737
10040SOL    HW131019   4.378   5.815   5.796
10040SOL    HW231020   4.487   5.849   5.679
10041SOL     OW31021   5.424   5.719   6.332
10041SOL    HW131022   5.414   5.620   6.342
10041SOL    HW231023   5.410   5.744   6.236
10042SOL     OW31024   0.864   1.173   5.367
10042SOL    HW131025   0.950   1.132   5.337
10042SOL    HW231026   0.849   1.258   5.317
10043SOL     OW31027   0.493   1.385   3.882
10043SOL    HW131028   0.408   1.338   3.906
10043SOL    HW231029   0.473   1.477   3.848
10044SOL     OW31030   2.790   2.112   3.415
10044SOL    HW131031   2.753   2.105   3.508
10044SOL    HW231032   2.872   2.054   3.407
10045SOL     OW31033   4.947   0.069   3.692
10045SOL    HW131034   4.937   0.143   3.758
10045SOL    HW231035   4.935   6.998   3.739
10046SOL     OW31036   1.596   2.648   1.236
10046SOL    HW131037   1.613   2.745   1.216
10046SOL    HW231038   1.632   2.626   1.326
10047SOL     OW31039   5.460   3.416   4.952
10047SOL    HW131040   5.401   3.419   4.871
10047SOL    HW231041   5.417   3.359   5.022
10048SOL     OW31042   3.807   1.856   2.428
10048SOL    HW131043   3.803   1.954   2.412
10048SOL    HW231044   3.794   1.836   2.525
10049SOL     OW31045   0.330   0.432   6.340
10049SOL    HW131046   0.337   0.489   6.422
10049SOL    HW231047   0.421   0.409   6.307
10050SOL     OW31048   6.269   2.358   5.192
10050SOL    HW131049   6.289   2.444   5.240
10050SOL    HW231050   6.267   2.283   5.257
10051SOL     OW31051   6.206   1.940   5.070
10051SOL    HW131052   6.143   1.953   5.147
10051SOL    HW231053   6.229   2.028   5.030
10052SOL     OW31054   2.521   1.982   2.917
10052SOL    HW131055   2.528   2.041   2.997
10052SOL    HW231056   2.611   1.943   2.897
10053SOL     OW31057   3.701   5.582   1.701
10053SOL    HW131058   3.737   5.575   1.794
10053SOL    HW231059   3.621   5.524   1.691
10054SOL     OW31060   4.538   5.553   5.878
10054SOL    HW131061   4.499   5.617   5.812
10054SOL    HW231062   4.507   5.576   5.970
10055SOL     OW31063   5.766   2.167   5.402
10055SOL    HW131064   5.813   2.160   5.313
10055SOL    HW231065   5.672   2.136   5.392
10056SOL     OW31066   6.544   4.901   1.154
10056SOL    HW131067   6.456   4.854   1.164
10056SOL    HW231068   6.614   4.849   1.203
10057SOL     OW31069   3.851   1.917   4.635
10057SOL    HW131070   3.897   1.848   4.578
10057SOL    HW231071   3.920   1.969   4.686
10058SOL     OW31072   0.301   3.854   4.505
10058SOL    HW131073   0.282   3.774   4.449
10058SOL    HW231074   0.258   3.935   4.465
10059SOL     OW31075   5.399   6.384   0.701
10059SOL    HW131076   5.481   6.416   0.654
10059SOL    HW231077   5.424   6.318   0.771
10060SOL     OW31078   2.170   1.821   1.911
10060SOL    HW131079   2.244   1.754   1.905
10060SOL    HW231080   2.132   1.820   2.003
10061SOL     OW31081   5.306   1.034   4.692
10061SOL    HW131082   5.292   1.132   4.678
10061SOL    HW231083   5.263   0.984   4.617
10062SOL     OW31084   6.406   0.025   4.769
10062SOL    HW131085   6.489   7.017   4.819
10062SOL    HW231086   6.383   0.121   4.790
10063SOL     OW31087   1.604   1.860   3.966
10063SOL    HW131088   1.520   1.814   3.940
10063SOL    HW231089   1.598   1.958   3.944
10064SOL     OW31090   5.027   6.213   6.745
10064SOL    HW131091   5.029   6.313   6.757
10064SOL    HW231092   5.054   6.191   6.651
10065SOL     OW31093   2.362   0.467   2.669
10065SOL    HW131094   2.269   0.464   2.632
10065SOL    HW231095   2.365   0.530   2.746
10066SOL     OW31096   1.348   1.302   3.589
10066SOL    HW131097   1.440   1.269   3.609
10066SOL    HW231098   1.332   1.388   3.637
10067SOL     OW31099   6.246   3.864   4.775
10067SOL    HW131100   6.254   3.963   4.788
10067SOL    HW231101   6.320   3.831   4.717
10068SOL     OW31102   5.991   3.093   3.425
10068SOL    HW131103   5.972   3.182   3.384
10068SOL    HW231104   6.068   3.050   3.378
10069SOL     OW31105   1.769   5.193   3.724
10069SOL    HW131106   1.850   5.183   3.781
10069SOL    HW231107   1.781   5.141   3.640
10070SOL     OW31108   6.653   6.999   4.933
10070SOL    HW131109   6.745   0.020   4.932
10070SOL    HW231110   6.594   0.038   4.991
10071SOL     OW31111   5.529   5.393   3.791
10071SOL    HW131112   5.496   5.363   3.702
10071SOL    HW231113   5.612   5.342   3.815
10072SOL     OW31114   0.235   5.798   3.696
10072SOL    HW131115   0.137   5.815   3.688
10072SOL    HW231116   0.254   5.702   3.675
10073SOL     OW31117   5.889   4.943   4.714
10073SOL    HW131118   5.958   4.905   4.775
10073SOL    HW231119   5.934   4.982   4.633
10074SOL     OW31120   1.433   1.249   5.124
10074SOL    HW131121   1.407   1.244   5.027
10074SOL    HW231122   1.351   1.261   5.180
10075SOL     OW31123   1.047   2.569   3.153
10075SOL    HW131124   1.104   2.487   3.143
10075SOL    HW231125   1.100   2.641   3.197
10076SOL     OW31126   6.596   0.172   3.607
10076SOL    HW131127   6.499   0.148   3.603
10076SOL    HW231128   6.651   0.092   3.587
10077SOL     OW31129   3.606   3.345   6.004
10077SOL    HW131130   3.567   3.436   6.019
10077SOL    HW231131   3.618   3.299   6.092
10078SOL     OW31132   0.200   5.422   3.757
10078SOL    HW131133   0.128   5.353   3.754
10078SOL    HW231134   0.259   5.405   3.836
10079SOL     OW31135   0.401   3.725   2.283
10079SOL    HW131136   0.432   3.676   2.201
10079SOL    HW231137   0.476   3.782   2.317
10080SOL     OW31138   3.490   1.412   5.312
10080SOL    HW131139   3.460   1.365   5.395
10080SOL    HW231140   3.430   1.490   5.294
10081SOL     OW31141   0.555   0.799   0.445
10081SOL    HW131142   0.567   0.709   0.487
10081SOL    HW231143   0.498   0.790   0.364
10082SOL     OW31144   0.142   5.128   2.371
10082SOL    HW131145   0.234   5.105   2.338
10082SOL    HW231146   0.077   5.117   2.296
10083SOL     OW31147   4.895   0.796   3.084
10083SOL    HW131148   4.882   0.726   3.154
10083SOL    HW231149   4.806   0.821   3.045
10084SOL     OW31150   3.183   1.340   5.999
10084SOL    HW131151   3.093   1.307   5.972
10084SOL    HW231152   3.175   1.432   6.037
10085SOL     OW31153   0.810   6.558   2.302
10085SOL    HW131154   0.744   6.578   2.374
10085SOL    HW231155   0.761   6.548   2.215
10086SOL     OW31156   5.667   5.321   1.675
10086SOL    HW131157   5.667   5.421   1.666
10086SOL    HW231158   5.622   5.297   1.761
10087SOL     OW31159   0.201   6.568   3.718
10087SOL    HW131160   0.107   6.543   3.695
10087SOL    HW231161   0.261   6.549   3.640
10088SOL     OW31162   6.842   0.539   0.177
10088SOL    HW131163   6.889   0.462   0.133
10088SOL    HW231164   6.867   0.624   0.131
10089SOL     OW31165   2.795   2.100   2.797
10089SOL    HW131166   2.786   2.000   2.789
10089SOL    HW231167   2.845   2.135   2.718
10090SOL     OW31168   0.930   5.086   0.765
10090SOL    HW131169   1.010   5.113   0.819
10090SOL    HW231170   0.847   5.102   0.818
10091SOL     OW31171   1.335   3.796   5.740
10091SOL    HW131172   1.314   3.698   5.736
10091SOL    HW231173   1.434   3.808   5.734
10092SOL     OW31174   1.533   3.479   4.973
10092SOL    HW131175   1.525   3.547   5.046
10092SOL    HW231176   1.570   3.394   5.011
10093SOL     OW31177   0.182   3.807   4.734
10093SOL    HW131178   0.222   3.829   4.645
10093SOL    HW231179   0.084   3.828   4.732
10094SOL     OW31180   1.731   6.010   1.979
10094SOL    HW131181   1.737   5.991   2.077
10094SOL    HW231182   1.644   5.976   1.944
10095SOL     OW31183   6.140   1.646   5.025
10095SOL    HW131184   6.058   1.659   5.081
10095SOL    HW231185   6.199   1.726   5.034
10096SOL     OW31186   5.385   5.184   2.329
10096SOL    HW131187   5.387   5.086   2.353
10096SOL    HW231188   5.413   5.196   2.234
10097SOL     OW31189   1.288   0.954   0.163
10097SOL    HW131190   1.332   0.920   0.246
10097SOL    HW231191   1.210   0.895   0.140
10098SOL     OW31192   2.650   0.561   5.471
10098SOL    HW131193   2.576   0.604   5.522
10098SOL    HW231194   2.614   0.487   5.414
10099SOL     OW31195   6.938   4.881   0.537
10099SOL    HW131196   6.943   4.922   0.628
10099SOL    HW231197   6.963   4.949   0.468
10100SOL     OW31198   4.884   0.105   4.380
10100SOL    HW131199   4.790   0.118   4.348
10100SOL    HW231200   4.927   0.193   4.397
10101SOL     OW31201   6.055   3.694   1.266
10101SOL    HW131202   6.101   3.727   1.184
10101SOL    HW231203   6.080   3.750   1.344
10102SOL     OW31204   1.496   0.618   2.536
10102SOL    HW131205   1.567   0.562   2.494
10102SOL    HW231206   1.494   0.708   2.493
10103SOL     OW31207   2.334   1.794   6.251
10103SOL    HW131208   2.367   1.710   6.207
10103SOL    HW231209   2.385   1.809   6.336
10104SOL     OW31210   1.207   2.590   4.089
10104SOL    HW131211   1.242   2.545   4.007
10104SOL    HW231212   1.107   2.589   4.087
10105SOL     OW31213   0.902   0.633   0.657
10105SOL    HW131214   0.958   0.567   0.606
10105SOL    HW231215   0.894   0.717   0.604
10106SOL     OW31216   4.403   6.896   0.593
10106SOL    HW131217   4.489   6.945   0.578
10106SOL    HW231218   4.420   6.797   0.589
10107SOL     OW31219   0.520   0.834   6.546
10107SOL    HW131220   0.516   0.736   6.566
10107SOL    HW231221   0.435   0.862   6.501
10108SOL     OW31222   6.848   6.696   0.184
10108SOL    HW131223   6.810   6.610   0.217
10108SOL    HW231224   6.783   6.740   0.123
10109SOL     OW31225   4.520   0.319   0.887
10109SOL    HW131226   4.437   0.296   0.837
10109SOL    HW231227   4.496   0.366   0.972
10110SOL     OW31228   4.508   6.094   4.701
10110SOL    HW131229   4.599   6.133   4.685
10110SOL    HW231230   4.504   6.003   4.658
10111SOL     OW31231   5.342   3.797   3.737
10111SOL    HW131232   5.255   3.804   3.688
10111SOL    HW231233   5.394   3.719   3.703
10112SOL     OW31234   5.536   3.948   3.411
10112SOL    HW131235   5.519   4.004   3.330
10112SOL    HW231236   5.449   3.911   3.444
10113SOL     OW31237   4.441   0.230   5.691
10113SOL    HW131238   4.379   0.164   5.648
10113SOL    HW231239   4.511   0.258   5.625
10114SOL     OW31240   5.937   1.220   1.053
10114SOL    HW131241   5.932   1.305   1.106
10114SOL    HW231242   5.846   1.179   1.046
10115SOL     OW31243   3.427   1.366   4.132
10115SOL    HW131244   3.417   1.268   4.117
10115SOL    HW231245   3.449   1.383   4.228
10116SOL     OW31246   6.857   5.918   0.357
10116SOL    HW131247   6.836   5.899   0.453
10116SOL    HW231248   6.804   5.857   0.298
10117SOL     OW31249   0.335   6.297   4.844
10117SOL    HW131250   0.350   6.375   4.783
10117SOL    HW231251   0.260   6.317   4.907
10118SOL     OW31252   1.846   5.129   2.836
10118SOL    HW131253   1.835   5.108   2.934
10118SOL    HW231254   1.791   5.209   2.813
10119SOL     OW31255   0.568   5.911   4.557
10119SOL    HW131256   0.645   5.850   4.538
10119SOL    HW231257   0.565   5.930   4.656
10120SOL     OW31258   1.911   4.120   5.102
10120SOL    HW131259   1.924   4.188   5.030
10120SOL    HW231260   1.978   4.046   5.089
10121SOL     OW31261   6.390   4.146   6.431
10121SOL    HW131262   6.465   4.099   6.384
10121SOL    HW231263   6.307   4.090   6.427
10122SOL     OW31264   6.272   2.645   1.543
10122SOL    HW131265   6.276   2.590   1.627
10122SOL    HW231266   6.295   2.587   1.465
10123SOL     OW31267   5.959   6.783   0.416
10123SOL    HW131268   5.992   6.869   0.454
10123SOL    HW231269   5.998   6.706   0.467
10124SOL     OW31270   1.768   4.063   6.901
10124SOL    HW131271   1.698   4.123   6.937
10124SOL    HW231272   1.803   4.099   6.814
10125SOL     OW31273   1.951   1.192   2.467
10125SOL    HW131274   1.990   1.284   2.455
10125SOL    HW231275   1.973   1.136   2.387
10126SOL     OW31276   0.611   6.740   5.845
10126SOL    HW131277   0.608   6.839   5.827
10126SOL    HW231278   0.540   6.716   5.911
10127SOL     OW31279   2.478   4.590   6.519
10127SOL    HW131280   2.399   4.611   6.576
10127SOL    HW231281   2.538   4.670   6.513
10128SOL     OW31282   2.156   1.130   1.409
10128SOL    HW131283   2.088   1.071   1.452
10128SOL    HW231284   2.118   1.170   1.326
10129SOL     OW31285   5.571   2.399   2.925
10129SOL    HW131286   5.602   2.471   2.987
10129SOL    HW231287   5.481   2.367   2.953
10130SOL     OW31288   1.246   3.878   2.456
10130SOL    HW131289   1.309   3.812   2.415
10130SOL    HW231290   1.154   3.865   2.420
10131SOL     OW31291   0.980   0.239   3.809
10131SOL    HW131292   1.032   0.189   3.740
10131SOL    HW231293   0.884   0.213   3.804
10132SOL     OW31294   3.383   0.011   4.868
10132SOL    HW131295   3.389   0.064   4.953
10132SOL    HW231296   3.461   0.034   4.810
10133SOL     OW31297   4.561   6.485   1.197
10133SOL    HW131298   4.597   6.503   1.288
10133SOL    HW231299   4.500   6.559   1.169
10134SOL     OW31300   0.012   6.028   3.880
10134SOL    HW131301   0.111   6.030   3.895
10134SOL    HW231302   7.002   5.939   3.843
10135SOL     OW31303   4.882   3.275   3.587
10135SOL    HW131304   4.857   3.239   3.677
10135SOL    HW231305   4.829   3.227   3.517
10136SOL     OW31306   4.867   0.571   3.243
10136SOL    HW131307   4.824   0.547   3.330
10136SOL    HW231308   4.830   0.515   3.170
10137SOL     OW31309   5.920   4.366   3.655
10137SOL    HW131310   5.852   4.318   3.710
10137SOL    HW231311   5.880   4.389   3.566
10138SOL     OW31312   5.391   3.180   0.456
10138SOL    HW131313   5.390   3.266   0.506
10138SOL    HW231314   5.404   3.104   0.521
10139SOL     OW31315   3.740   4.062   3.354
10139SOL    HW131316   3.747   3.962   3.353
10139SOL    HW231317   3.648   4.089   3.381
10140SOL     OW31318   6.071   6.068   6.686
10140SOL    HW131319   5.993   6.124   6.658
10140SOL    HW231320   6.104   6.015   6.609
10141SOL     OW31321   4.216   1.894   4.961
10141SOL    HW131322   4.284   1.884   5.033
10141SOL    HW231323   4.261   1.897   4.872
10142SOL     OW31324   6.424   6.795   5.016
10142SOL    HW131325   6.384   6.736   5.086
10142SOL    HW231326   6.378   6.884   5.016
10143SOL     OW31327   4.408   1.131   6.692
10143SOL    HW131328   4.395   1.172   6.783
10143SOL    HW231329   4.320   1.125   6.646
10144SOL     OW31330   3.514   0.260   6.510
10144SOL    HW131331   3.481   0.354   6.522
10144SOL    HW231332   3.484   0.204   6.587
10145SOL     OW31333   3.020   5.641   5.007
10145SOL    HW131334   3.049   5.559   4.958
10145SOL    HW231335   3.013   5.621   5.105
10146SOL     OW31336   4.271   5.126   4.809
10146SOL    HW131337   4.206   5.202   4.802
10146SOL    HW231338   4.272   5.077   4.722
10147SOL     OW31339   5.327   3.833   5.319
10147SOL    HW131340   5.323   3.843   5.219
10147SOL    HW231341   5.310   3.922   5.362
10148SOL     OW31342   4.893   5.488   6.890
10148SOL    HW131343   4.800   5.495   6.853
10148SOL    HW231344   4.930   5.398   6.869
10149SOL     OW31345   6.210   3.086   0.721
10149SOL    HW131346   6.226   3.164   0.781
10149SOL    HW231347   6.194   3.118   0.628
10150SOL     OW31348   3.981   4.188   0.250
10150SOL    HW131349   3.891   4.150   0.272
10150SOL    HW231350   4.051   4.138   0.301
10151SOL     OW31351   0.593   7.008   6.707
10151SOL    HW131352   0.661   6.983   6.775
10151SOL    HW231353   0.503   6.975   6.735
10152SOL     OW31354   6.504   5.933   4.397
10152SOL    HW131355   6.484   5.837   4.375
10152SOL    HW231356   6.460   5.992   4.330
10153SOL     OW31357   4.988   6.415   4.108
10153SOL    HW131358   4.925   6.467   4.050
10153SOL    HW231359   4.969   6.317   4.099
10154SOL     OW31360   5.017   6.839   5.533
10154SOL    HW131361   5.097   6.878   5.487
10154SOL    HW231362   4.972   6.773   5.473
10155SOL     OW31363   3.786   2.718   5.895
10155SOL    HW131364   3.782   2.808   5.938
10155SOL    HW231365   3.869   2.710   5.840
10156SOL     OW31366   5.904   0.907   2.707
10156SOL    HW131367   5.878   0.986   2.762
10156SOL    HW231368   5.901   0.824   2.763
10157SOL     OW31369   0.087   2.606   0.519
10157SOL    HW131370   0.129   2.642   0.436
10157SOL    HW231371   7.012   2.572   0.498
10158SOL     OW31372   5.825   4.312   0.818
10158SOL    HW131373   5.888   4.242   0.851
10158SOL    HW231374   5.731   4.281   0.833
10159SOL     OW31375   2.667   3.538   0.076
10159SOL    HW131376   2.760   3.505   0.095
10159SOL    HW231377   2.659   3.559   6.996
10160SOL     OW31378   1.760   3.090   2.217
10160SOL    HW131379   1.697   3.024   2.176
10160SOL    HW231380   1.843   3.043   2.247
10161SOL     OW31381   2.695   3.005   6.621
10161SOL    HW131382   2.620   3.071   6.622
10161SOL    HW231383   2.740   3.008   6.532
10162SOL     OW31384   3.727   4.544   0.780
10162SOL    HW131385   3.703   4.506   0.691
10162SOL    HW231386   3.672   4.626   0.797
10163SOL     OW31387   5.719   4.581   6.279
10163SOL    HW131388   5.754   4.488   6.291
10163SOL    HW231389   5.652   4.583   6.205
10164SOL     OW31390   5.886   3.791   4.903
10164SOL    HW131391   5.846   3.876   4.937
10164SOL    HW231392   5.885   3.791   4.803
10165SOL     OW31393   6.922   2.008   3.126
10165SOL    HW131394   6.966   1.950   3.195
10165SOL    HW231395   6.837   2.046   3.163
10166SOL     OW31396   3.271   2.026   1.879
10166SOL    HW131397   3.194   2.090   1.881
10166SOL    HW231398   3.355   2.077   1.859
10167SOL     OW31399   2.282   3.532   7.003
10167SOL    HW131400   2.229   3.516   6.920
10167SOL    HW231401   2.335   3.616   6.993
10168SOL     OW31402   5.493   3.547   6.252
10168SOL    HW131403   5.577   3.595   6.226
10168SOL    HW231404   5.517   3.459   6.293
10169SOL     OW31405   6.501   4.261   3.795
10169SOL    HW131406   6.461   4.172   3.773
10169SOL    HW231407   6.574   4.249   3.862
10170SOL     OW31408   0.616   5.505   5.326
10170SOL    HW131409   0.552   5.582   5.328
10170SOL    HW231410   0.707   5.537   5.354
10171SOL     OW31411   6.630   2.163   4.688
10171SOL    HW131412   6.659   2.174   4.784
10171SOL    HW231413   6.705   2.193   4.628
10172SOL     OW31414   7.008   6.108   4.970
10172SOL    HW131415   6.940   6.174   4.937
10172SOL    HW231416   6.970   6.056   5.046
10173SOL     OW31417   1.162   3.502   1.172
10173SOL    HW131418   1.137   3.486   1.268
10173SOL    HW231419   1.173   3.415   1.125
10174SOL     OW31420   5.200   5.223   2.855
10174SOL    HW131421   5.135   5.168   2.909
10174SOL    HW231422   5.264   5.268   2.917
10175SOL     OW31423   5.561   1.408   3.588
10175SOL    HW131424   5.514   1.353   3.519
10175SOL    HW231425   5.565   1.357   3.674
10176SOL     OW31426   0.674   3.480   5.416
10176SOL    HW131427   0.718   3.458   5.503
10176SOL    HW231428   0.583   3.517   5.433
10177SOL     OW31429   2.489   0.479   1.182
10177SOL    HW131430   2.409   0.432   1.146
10177SOL    HW231431   2.527   0.539   1.112
10178SOL     OW31432   0.871   0.585   6.141
10178SOL    HW131433   0.856   0.682   6.122
10178SOL    HW231434   0.900   0.538   6.058
10179SOL     OW31435   0.683   2.038   6.998
10179SOL    HW131436   0.583   2.032   6.995
10179SOL    HW231437   0.712   2.132   6.984
10180SOL     OW31438   4.308   0.839   5.679
10180SOL    HW131439   4.332   0.862   5.774
10180SOL    HW231440   4.268   0.747   5.677
10181SOL     OW31441   6.405   3.587   1.409
10181SOL    HW131442   6.389   3.526   1.331
10181SOL    HW231443   6.329   3.576   1.474
10182SOL     OW31444   4.476   1.030   1.440
10182SOL    HW131445   4.520   1.062   1.524
10182SOL    HW231446   4.535   0.964   1.394
10183SOL     OW31447   6.972   2.240   6.660
10183SOL    HW131448   6.999   2.201   6.748
10183SOL    HW231449   6.985   2.339   6.662
10184SOL     OW31450   4.569   1.131   5.951
10184SOL    HW131451   4.612   1.041   5.960
10184SOL    HW231452   4.477   1.121   5.914
10185SOL     OW31453   6.073   6.084   2.560
10185SOL    HW131454   6.031   6.000   2.593
10185SOL    HW231455   6.139   6.118   2.627
10186SOL     OW31456   6.025   3.365   3.684
10186SOL    HW131457   6.001   3.399   3.775
10186SOL    HW231458   6.089   3.289   3.693
10187SOL     OW31459   0.870   3.630   0.507
10187SOL    HW131460   0.969   3.619   0.518
10187SOL    HW231461   0.825   3.542   0.525
10188SOL     OW31462   3.937   5.525   0.571
10188SOL    HW131463   3.922   5.450   0.636
10188SOL    HW231464   3.916   5.612   0.616
10189SOL     OW31465   1.452   1.448   6.233
10189SOL    HW131466   1.456   1.532   6.286
10189SOL    HW231467   1.459   1.469   6.135
10190SOL     OW31468   4.941   3.054   1.954
10190SOL    HW131469   4.858   3.003   1.977
10190SOL    HW231470   4.919   3.126   1.888
10191SOL     OW31471   5.379   5.739   6.071
10191SOL    HW131472   5.397   5.836   6.058
10191SOL    HW231473   5.429   5.686   6.003
10192SOL     OW31474   4.266   1.208   5.299
10192SOL    HW131475   4.243   1.277   5.367
10192SOL    HW231476   4.300   1.126   5.345
10193SOL     OW31477   3.931   3.569   1.969
10193SOL    HW131478   3.832   3.567   1.983
10193SOL    HW231479   3.960   3.486   1.923
10194SOL     OW31480   5.606   6.077   5.455
10194SOL    HW131481   5.690   6.127   5.480
10194SOL    HW231482   5.563   6.041   5.537
10195SOL     OW31483   5.771   5.917   0.674
10195SOL    HW131484   5.794   5.980   0.600
10195SOL    HW231485   5.848   5.856   0.691
10196SOL     OW31486   4.936   1.493   3.971
10196SOL    HW131487   4.838   1.512   3.963
10196SOL    HW231488   4.988   1.577   3.955
10197SOL     OW31489   5.916   1.721   5.201
10197SOL    HW131490   5.898   1.820   5.202
10197SOL    HW231491   5.830   1.672   5.192
10198SOL     OW31492   2.546   6.866   2.268
10198SOL    HW131493   2.475   6.859   2.338
10198SOL    HW231494   2.635   6.877   2.312
10199SOL     OW31495   2.053   3.583   0.189
10199SOL    HW131496   2.071   3.643   0.111
10199SOL    HW231497   2.134   3.579   0.247
10200SOL     OW31498   5.292   2.343   6.594
10200SOL    HW131499   5.204   2.386   6.611
10200SOL    HW231500   5.347   2.402   6.534
10201SOL     OW31501   1.368   4.919   0.958
10201SOL    HW131502   1.284   4.884   1.000
10201SOL    HW231503   1.444   4.858   0.981
10202SOL     OW31504   3.698   4.376   0.991
10202SOL    HW131505   3.694   4.432   0.909
10202SOL    HW231506   3.789   4.382   1.032
10203SOL     OW31507   6.260   2.711   3.102
10203SOL    HW131508   6.265   2.667   3.012
10203SOL    HW231509   6.352   2.724   3.139
10204SOL     OW31510   4.794   6.388   0.053
10204SOL    HW131511   4.737   6.338   7.004
10204SOL    HW231512   4.804   6.483   0.022
10205SOL     OW31513   1.717   6.983   1.564
10205SOL    HW131514   1.700   6.931   1.481
10205SOL    HW231515   1.809   6.962   1.597
10206SOL     OW31516   6.540   0.403   6.929
10206SOL    HW131517   6.564   0.341   7.004
10206SOL    HW231518   6.578   0.494   6.947
10207SOL     OW31519   1.203   2.002   0.379
10207SOL    HW131520   1.279   1.973   0.437
10207SOL    HW231521   1.186   2.100   0.394
10208SOL     OW31522   6.141   4.540   3.707
10208SOL    HW131523   6.128   4.639   3.707
10208SOL    HW231524   6.052   4.495   3.711
10209SOL     OW31525   0.591   6.819   0.551
10209SOL    HW131526   0.557   6.776   0.635
10209SOL    HW231527   0.645   6.900   0.574
10210SOL     OW31528   4.892   6.757   1.654
10210SOL    HW131529   4.808   6.759   1.600
10210SOL    HW231530   4.874   6.714   1.742
10211SOL     OW31531   4.224   6.089   4.657
10211SOL    HW131532   4.186   6.031   4.729
10211SOL    HW231533   4.324   6.091   4.665
10212SOL     OW31534   1.012   0.505   5.231
10212SOL    HW131535   1.006   0.604   5.213
10212SOL    HW231536   0.948   0.481   5.303
10213SOL     OW31537   5.997   2.681   1.824
10213SOL    HW131538   6.066   2.680   1.897
10213SOL    HW231539   6.002   2.767   1.774
10214SOL     OW31540   1.256   1.550   2.228
10214SOL    HW131541   1.172   1.570   2.178
10214SOL    HW231542   1.264   1.451   2.243
10215SOL     OW31543   4.089   3.320   3.516
10215SOL    HW131544   4.107   3.407   3.563
10215SOL    HW231545   4.068   3.338   3.420
10216SOL     OW31546   0.135   1.208   1.519
10216SOL    HW131547   0.123   1.302   1.488
10216SOL    HW231548   0.152   1.207   1.618
10217SOL     OW31549   3.111   1.425   3.006
10217SOL    HW131550   3.072   1.483   2.936
10217SOL    HW231551   3.204   1.399   2.981
10218SOL     OW31552   1.747   1.581   1.688
10218SOL    HW131553   1.809   1.657   1.669
10218SOL    HW231554   1.777   1.500   1.639
10219SOL     OW31555   0.750   1.766   3.146
10219SOL    HW131556   0.673   1.704   3.133
10219SOL    HW231557   0.835   1.720   3.120
10220SOL     OW31558   5.307   1.988   0.886
10220SOL    HW131559   5.301   2.082   0.852
10220SOL    HW231560   5.276   1.925   0.814
10221SOL     OW31561   0.947   5.035   3.710
10221SOL    HW131562   0.891   5.110   3.676
10221SOL    HW231563   0.956   4.965   3.638
10222SOL     OW31564   2.961   4.090   5.500
10222SOL    HW131565   3.017   4.172   5.490
10222SOL    HW231566   2.960   4.060   5.595
10223SOL     OW31567   1.496   4.995   1.451
10223SOL    HW131568   1.536   5.087   1.459
10223SOL    HW231569   1.403   5.002   1.416
10224SOL     OW31570   6.380   2.993   5.068
10224SOL    HW131571   6.409   2.897   5.062
10224SOL    HW231572   6.329   3.017   4.985
10225SOL     OW31573   0.996   5.270   6.004
10225SOL    HW131574   1.049   5.312   6.077
10225SOL    HW231575   0.913   5.324   5.987
10226SOL     OW31576   2.754   0.944   6.088
10226SOL    HW131577   2.765   0.872   6.020
10226SOL    HW231578   2.656   0.962   6.100
10227SOL     OW31579   5.605   5.051   0.964
10227SOL    HW131580   5.518   5.098   0.983
10227SOL    HW231581   5.668   5.114   0.919
10228SOL     OW31582   0.147   6.671   2.051
10228SOL    HW131583   0.058   6.659   2.007
10228SOL    HW231584   0.170   6.590   2.104
10229SOL     OW31585   1.227   3.038   4.787
10229SOL    HW131586   1.257   2.944   4.778
10229SOL    HW231587   1.296   3.100   4.749
10230SOL     OW31588   5.702   6.094   3.154
10230SOL    HW131589   5.622   6.046   3.190
10230SOL    HW231590   5.684   6.122   3.060
10231SOL     OW31591   6.895   5.114   5.603
10231SOL    HW131592   6.915   5.144   5.696
10231SOL    HW231593   6.964   5.046   5.575
10232SOL     OW31594   3.053   1.157   3.483
10232SOL    HW131595   3.142   1.150   3.527
10232SOL    HW231596   3.005   1.238   3.516
10233SOL     OW31597   3.953   4.002   4.818
10233SOL    HW131598   3.885   3.996   4.745
10233SOL    HW231599   3.969   4.098   4.840
10234SOL     OW31600   6.286   1.033   1.286
10234SOL    HW131601   6.245   1.074   1.204
10234SOL    HW231602   6.351   0.962   1.259
10235SOL     OW31603   2.329   2.710   1.687
10235SOL    HW131604   2.313   2.807   1.704
10235SOL    HW231605   2.301   2.688   1.593
10236SOL     OW31606   2.666   0.839   0.394
10236SOL    HW131607   2.712   0.882   0.316
10236SOL    HW231608   2.696   0.883   0.479
10237SOL     OW31609   0.387   3.821   6.716
10237SOL    HW131610   0.332   3.902   6.735
10237SOL    HW231611   0.409   3.819   6.618
10238SOL     OW31612   3.713   4.337   1.704
10238SOL    HW131613   3.664   4.408   1.756
10238SOL    HW231614   3.717   4.253   1.759
10239SOL     OW31615   1.191   3.322   5.221
10239SOL    HW131616   1.274   3.268   5.206
10239SOL    HW231617   1.216   3.411   5.258
10240SOL     OW31618   2.313   5.352   2.258
10240SOL    HW131619   2.252   5.408   2.202
10240SOL    HW231620   2.356   5.410   2.328
10241SOL     OW31621   6.341   6.809   2.425
10241SOL    HW131622   6.375   6.747   2.354
10241SOL    HW231623   6.358   6.769   2.515
10242SOL     OW31624   0.557   1.784   1.044
10242SOL    HW131625   0.486   1.847   1.078
10242SOL    HW231626   0.597   1.822   0.961
10243SOL     OW31627   2.341   4.327   2.437
10243SOL    HW131628   2.387   4.362   2.355
10243SOL    HW231629   2.247   4.303   2.413
10244SOL     OW31630   1.768   4.581   0.471
10244SOL    HW131631   1.800   4.494   0.433
10244SOL    HW231632   1.841   4.649   0.465
10245SOL     OW31633   3.379   3.730   1.556
10245SOL    HW131634   3.384   3.724   1.655
10245SOL    HW231635   3.332   3.650   1.520
10246SOL     OW31636   3.392   3.630   4.104
10246SOL    HW131637   3.388   3.700   4.034
10246SOL    HW231638   3.300   3.596   4.123
10247SOL     OW31639   6.512   3.849   5.407
10247SOL    HW131640   6.507   3.754   5.439
10247SOL    HW231641   6.435   3.900   5.445
10248SOL     OW31642   1.681   6.320   2.320
10248SOL    HW131643   1.745   6.263   2.373
10248SOL    HW231644   1.705   6.315   2.223
10249SOL     OW31645   3.570   6.084   6.501
10249SOL    HW131646   3.634   6.012   6.475
10249SOL    HW231647   3.504   6.048   6.566
10250SOL     OW31648   6.905   3.578   1.861
10250SOL    HW131649   6.891   3.513   1.935
10250SOL    HW231650   6.852   3.550   1.782
10251SOL     OW31651   1.979   1.877   4.886
10251SOL    HW131652   2.043   1.925   4.825
10251SOL    HW231653   1.989   1.912   4.979
10252SOL     OW31654   4.401   4.510   6.683
10252SOL    HW131655   4.483   4.480   6.733
10252SOL    HW231656   4.330   4.441   6.691
10253SOL     OW31657   2.864   5.706   0.493
10253SOL    HW131658   2.885   5.611   0.513
10253SOL    HW231659   2.941   5.748   0.444
10254SOL     OW31660   4.948   1.043   5.519
10254SOL    HW131661   4.956   1.141   5.538
10254SOL    HW231662   4.923   1.029   5.424
10255SOL     OW31663   2.453   6.391   1.530
10255SOL    HW131664   2.376   6.327   1.523
10255SOL    HW231665   2.488   6.410   1.438
10256SOL     OW31666   4.377   1.929   1.977
10256SOL    HW131667   4.312   1.899   1.907
10256SOL    HW231668   4.349   2.017   2.013
10257SOL     OW31669   2.268   5.125   4.055
10257SOL    HW131670   2.297   5.178   3.976
10257SOL    HW231671   2.295   5.172   4.139
10258SOL     OW31672   3.944   2.101   3.782
10258SOL    HW131673   4.007   2.163   3.736
10258SOL    HW231674   3.856   2.147   3.796
10259SOL     OW31675   0.567   4.027   2.758
10259SOL    HW131676   0.658   4.021   2.717
10259SOL    HW231677   0.515   3.944   2.738
10260SOL     OW31678   1.235   1.554   3.203
10260SOL    HW131679   1.218   1.548   3.302
10260SOL    HW231680   1.333   1.566   3.187
10261SOL     OW31681   6.697   5.307   1.408
10261SOL    HW131682   6.651   5.223   1.379
10261SOL    HW231683   6.796   5.290   1.416
10262SOL     OW31684   2.690   0.187   5.585
10262SOL    HW131685   2.683   0.102   5.636
10262SOL    HW231686   2.614   0.192   5.519
10263SOL     OW31687   5.627   0.129   0.575
10263SOL    HW131688   5.615   0.121   0.476
10263SOL    HW231689   5.583   0.051   0.621
10264SOL     OW31690   6.561   6.843   6.811
10264SOL    HW131691   6.484   6.780   6.812
10264SOL    HW231692   6.599   6.848   6.719
10265SOL     OW31693   3.016   2.749   1.676
10265SOL    HW131694   2.927   2.771   1.635
10265SOL    HW231695   3.020   2.651   1.694
10266SOL     OW31696   3.702   2.883   3.932
10266SOL    HW131697   3.737   2.791   3.911
10266SOL    HW231698   3.668   2.885   4.026
10267SOL     OW31699   5.368   2.489   0.341
10267SOL    HW131700   5.309   2.568   0.356
10267SOL    HW231701   5.345   2.446   0.254
10268SOL     OW31702   6.467   6.315   2.117
10268SOL    HW131703   6.503   6.333   2.025
10268SOL    HW231704   6.543   6.311   2.181
10269SOL     OW31705   0.379   4.176   6.562
10269SOL    HW131706   0.368   4.136   6.471
10269SOL    HW231707   0.476   4.172   6.589
10270SOL     OW31708   3.218   4.942   2.256
10270SOL    HW131709   3.194   4.917   2.350
10270SOL    HW231710   3.151   4.904   2.193
10271SOL     OW31711   3.450   2.752   7.002
10271SOL    HW131712   3.412   2.666   6.967
10271SOL    HW231713   3.386   2.827   6.984
10272SOL     OW31714   1.396   0.939   5.563
10272SOL    HW131715   1.403   0.943   5.663
10272SOL    HW231716   1.486   0.951   5.523
10273SOL     OW31717   2.923   5.651   2.784
10273SOL    HW131718   2.881   5.563   2.807
10273SOL    HW231719   2.920   5.664   2.685
10274SOL     OW31720   0.446   4.687   6.126
10274SOL    HW131721   0.497   4.751   6.069
10274SOL    HW231722   0.355   4.724   6.145
10275SOL     OW31723   0.500   6.213   2.003
10275SOL    HW131724   0.502   6.119   2.039
10275SOL    HW231725   0.498   6.210   1.903
10276SOL     OW31726   5.353   6.149   5.106
10276SOL    HW131727   5.257   6.122   5.095
10276SOL    HW231728   5.410   6.097   5.043
10277SOL     OW31729   1.742   6.093   5.081
10277SOL    HW131730   1.780   6.175   5.123
10277SOL    HW231731   1.688   6.043   5.148
10278SOL     OW31732   1.582   1.574   3.287
10278SOL    HW131733   1.560   1.636   3.362
10278SOL    HW231734   1.547   1.483   3.307
10279SOL     OW31735   1.314   4.623   4.240
10279SOL    HW131736   1.236   4.560   4.242
10279SOL    HW231737   1.303   4.687   4.164
10280SOL     OW31738   7.008   2.525   6.645
10280SOL    HW131739   0.007   2.577   6.729
10280SOL    HW231740   6.977   2.587   6.573
10281SOL     OW31741   5.728   1.523   3.212
10281SOL    HW131742   5.710   1.425   3.216
10281SOL    HW231743   5.739   1.552   3.117
10282SOL     OW31744   5.448   3.468   4.506
10282SOL    HW131745   5.371   3.414   4.472
10282SOL    HW231746   5.414   3.551   4.550
10283SOL     OW31747   1.786   2.985   1.096
10283SOL    HW131748   1.812   3.079   1.116
10283SOL    HW231749   1.867   2.927   1.095
10284SOL     OW31750   4.744   2.304   5.386
10284SOL    HW131751   4.731   2.396   5.348
10284SOL    HW231752   4.838   2.275   5.371
10285SOL     OW31753   5.575   6.439   3.171
10285SOL    HW131754   5.572   6.430   3.271
10285SOL    HW231755   5.500   6.497   3.140
10286SOL     OW31756   3.338   1.846   4.025
10286SOL    HW131757   3.326   1.934   3.979
10286SOL    HW231758   3.435   1.825   4.033
10287SOL     OW31759   3.175   5.715   1.731
10287SOL    HW131760   3.219   5.797   1.769
10287SOL    HW231761   3.208   5.634   1.779
10288SOL     OW31762   4.835   5.775   2.958
10288SOL    HW131763   4.844   5.875   2.967
10288SOL    HW231764   4.860   5.732   3.045
10289SOL     OW31765   2.971   6.188   6.700
10289SOL    HW131766   2.872   6.194   6.685
10289SOL    HW231767   2.991   6.203   6.797
10290SOL     OW31768   2.997   3.912   2.976
10290SOL    HW131769   2.953   3.894   3.064
10290SOL    HW231770   3.081   3.963   2.990
10291SOL     OW31771   3.783   1.741   2.187
10291SOL    HW131772   3.830   1.793   2.115
10291SOL    HW231773   3.810   1.776   2.276
10292SOL     OW31774   1.535   2.454   5.235
10292SOL    HW131775   1.633   2.468   5.219
10292SOL    HW231776   1.523   2.390   5.311
10293SOL     OW31777   1.553   3.537   2.463
10293SOL    HW131778   1.639   3.577   2.497
10293SOL    HW231779   1.572   3.445   2.428
10294SOL     OW31780   4.786   2.460   3.515
10294SOL    HW131781   4.756   2.379   3.565
10294SOL    HW231782   4.738   2.465   3.427
10295SOL     OW31783   0.598   3.161   6.210
10295SOL    HW131784   0.671   3.170   6.143
10295SOL    HW231785   0.511   3.187   6.168
10296SOL     OW31786   5.136   1.263   6.870
10296SOL    HW131787   5.082   1.251   6.787
10296SOL    HW231788   5.170   1.174   6.901
10297SOL     OW31789   1.844   0.960   6.183
10297SOL    HW131790   1.860   1.025   6.257
10297SOL    HW231791   1.930   0.941   6.136
10298SOL     OW31792   2.997   4.536   0.953
10298SOL    HW131793   3.055   4.523   0.873
10298SOL    HW231794   3.050   4.580   1.025
10299SOL     OW31795   4.236   4.916   2.814
10299SOL    HW131796   4.152   4.889   2.861
10299SOL    HW231797   4.242   4.868   2.726
10300SOL     OW31798   1.596   4.339   2.519
10300SOL    HW131799   1.610   4.421   2.575
10300SOL    HW231800   1.499   4.332   2.494
10301SOL     OW31801   4.885   2.011   4.686
10301SOL    HW131802   4.911   1.919   4.715
10301SOL    HW231803   4.887   2.015   4.586
10302SOL     OW31804   1.963   6.420   4.830
10302SOL    HW131805   1.885   6.371   4.791
10302SOL    HW231806   2.044   6.361   4.828
10303SOL     OW31807   2.071   5.997   2.828
10303SOL    HW131808   2.073   6.054   2.746
10303SOL    HW231809   2.090   6.054   2.908
10304SOL     OW31810   5.560   6.951   1.773
10304SOL    HW131811   5.526   7.008   1.699
10304SOL    HW231812   5.541   6.855   1.753
10305SOL     OW31813   1.241   4.480   6.328
10305SOL    HW131814   1.259   4.383   6.310
10305SOL    HW231815   1.144   4.499   6.317
10306SOL     OW31816   5.269   5.642   6.968
10306SOL    HW131817   5.238   5.664   6.876
10306SOL    HW231818   5.324   5.718   7.004
10307SOL     OW31819   2.941   2.282   5.261
10307SOL    HW131820   3.024   2.325   5.226
10307SOL    HW231821   2.895   2.346   5.324
10308SOL     OW31822   1.653   3.873   3.167
10308SOL    HW131823   1.731   3.913   3.215
10308SOL    HW231824   1.600   3.816   3.230
10309SOL     OW31825   0.013   2.078   6.929
10309SOL    HW131826   0.031   2.032   7.016
10309SOL    HW231827   6.942   2.046   6.892
10310SOL     OW31828   3.047   4.211   0.841
10310SOL    HW131829   3.080   4.247   0.928
10310SOL    HW231830   2.952   4.183   0.849
10311SOL     OW31831   6.421   5.815   0.453
10311SOL    HW131832   6.467   5.887   0.402
10311SOL    HW231833   6.330   5.800   0.415
10312SOL     OW31834   3.822   5.867   2.242
10312SOL    HW131835   3.757   5.860   2.166
10312SOL    HW231836   3.899   5.924   2.215
10313SOL     OW31837   4.495   6.452   1.810
10313SOL    HW131838   4.423   6.519   1.826
10313SOL    HW231839   4.584   6.497   1.812
10314SOL     OW31840   6.354   0.667   1.887
10314SOL    HW131841   6.303   0.669   1.801
10314SOL    HW231842   6.402   0.580   1.896
10315SOL     OW31843   5.273   5.371   5.156
10315SOL    HW131844   5.370   5.365   5.132
10315SOL    HW231845   5.229   5.282   5.138
10316SOL     OW31846   6.146   1.532   5.312
10316SOL    HW131847   6.089   1.606   5.276
10316SOL    HW231848   6.176   1.474   5.236
10317SOL     OW31849   4.803   5.960   5.720
10317SOL    HW131850   4.719   5.990   5.676
10317SOL    HW231851   4.796   5.975   5.819
10318SOL     OW31852   5.138   0.043   6.781
10318SOL    HW131853   5.221   0.026   6.834
10318SOL    HW231854   5.101   0.132   6.805
10319SOL     OW31855   0.697   2.365   5.665
10319SOL    HW131856   0.714   2.317   5.579
10319SOL    HW231857   0.675   2.299   5.736
10320SOL     OW31858   0.623   7.010   2.263
10320SOL    HW131859   0.567   0.024   2.186
10320SOL    HW231860   0.718   0.021   2.248
10321SOL     OW31861   4.162   1.839   1.838
10321SOL    HW131862   4.083   1.842   1.899
10321SOL    HW231863   4.132   1.856   1.744
10322SOL     OW31864   6.251   5.676   5.241
10322SOL    HW131865   6.229   5.583   5.272
10322SOL    HW231866   6.168   5.733   5.248
10323SOL     OW31867   5.821   3.242   5.205
10323SOL    HW131868   5.848   3.201   5.118
10323SOL    HW231869   5.721   3.234   5.216
10324SOL     OW31870   3.176   3.069   2.120
10324SOL    HW131871   3.174   3.150   2.061
10324SOL    HW231872   3.093   3.015   2.103
10325SOL     OW31873   6.433   4.428   2.330
10325SOL    HW131874   6.447   4.356   2.261
10325SOL    HW231875   6.416   4.385   2.419
10326SOL     OW31876   3.664   5.005   0.486
10326SOL    HW131877   3.653   5.001   0.387
10326SOL    HW231878   3.712   5.090   0.510
10327SOL     OW31879   2.331   1.722   0.938
10327SOL    HW131880   2.392   1.709   0.860
10327SOL    HW231881   2.312   1.633   0.980
10328SOL     OW31882   6.587   2.641   1.383
10328SOL    HW131883   6.502   2.611   1.339
10328SOL    HW231884   6.566   2.703   1.458
10329SOL     OW31885   3.199   0.896   3.931
10329SOL    HW131886   3.122   0.955   3.954
10329SOL    HW231887   3.267   0.900   4.004
10330SOL     OW31888   4.490   0.879   2.211
10330SOL    HW131889   4.420   0.875   2.282
10330SOL    HW231890   4.580   0.886   2.253
10331SOL     OW31891   6.453   0.457   5.996
10331SOL    HW131892   6.415   0.366   6.012
10331SOL    HW231893   6.525   0.476   6.062
10332SOL     OW31894   6.547   0.475   1.266
10332SOL    HW131895   6.538   0.535   1.187
10332SOL    HW231896   6.474   0.408   1.266
10333SOL     OW31897   6.773   4.598   5.108
10333SOL    HW131898   6.709   4.586   5.032
10333SOL    HW231899   6.727   4.647   5.183
10334SOL     OW31900   3.387   7.013   3.572
10334SOL    HW131901   3.367   0.094   3.573
10334SOL    HW231902   3.310   6.964   3.612
10335SOL     OW31903   2.531   4.323   6.487
10335SOL    HW131904   2.482   4.403   6.522
10335SOL    HW231905   2.624   4.350   6.461
10336SOL     OW31906   6.619   0.315   2.293
10336SOL    HW131907   6.604   0.272   2.204
10336SOL    HW231908   6.545   0.379   2.313
10337SOL     OW31909   0.158   6.506   5.793
10337SOL    HW131910   0.059   6.505   5.780
10337SOL    HW231911   0.204   6.499   5.704
10338SOL     OW31912   2.055   6.195   2.604
10338SOL    HW131913   1.983   6.186   2.535
10338SOL    HW231914   2.033   6.271   2.665
10339SOL     OW31915   3.759   4.055   6.702
10339SOL    HW131916   3.750   4.150   6.670
10339SOL    HW231917   3.814   4.003   6.636
10340SOL     OW31918   1.733   4.080   1.392
10340SOL    HW131919   1.696   4.001   1.343
10340SOL    HW231920   1.790   4.049   1.468
10341SOL     OW31921   2.155   3.250   2.719
10341SOL    HW131922   2.155   3.273   2.622
10341SOL    HW231923   2.085   3.305   2.765
10342SOL     OW31924   1.997   0.176   4.892
10342SOL    HW131925   2.089   0.181   4.932
10342SOL    HW231926   1.952   0.265   4.900
10343SOL     OW31927   3.664   6.103   0.004
10343SOL    HW131928   3.753   6.072   6.988
10343SOL    HW231929   3.592   6.051   6.976
10344SOL     OW31930   4.438   3.840   1.009
10344SOL    HW131931   4.381   3.898   1.067
10344SOL    HW231932   4.529   3.880   0.999
10345SOL     OW31933   1.751   1.372   6.568
10345SOL    HW131934   1.701   1.447   6.611
10345SOL    HW231935   1.689   1.295   6.552
10346SOL     OW31936   0.046   5.359   1.768
10346SOL    HW131937   0.023   5.456   1.764
10346SOL    HW231938   0.138   5.346   1.732
10347SOL     OW31939   4.309   2.034   3.796
10347SOL    HW131940   4.265   2.002   3.712
10347SOL    HW231941   4.407   2.045   3.781
10348SOL     OW31942   6.293   2.113   0.592
10348SOL    HW131943   6.240   2.048   0.538
10348SOL    HW231944   6.332   2.182   0.532
10349SOL     OW31945   1.008   0.898   0.866
10349SOL    HW131946   1.053   0.987   0.874
10349SOL    HW231947   0.909   0.910   0.876
10350SOL     OW31948   2.381   6.858   4.975
10350SOL    HW131949   2.390   6.956   4.961
10350SOL    HW231950   2.406   6.810   4.890
10351SOL     OW31951   4.516   4.791   6.235
10351SOL    HW131952   4.554   4.761   6.323
10351SOL    HW231953   4.421   4.764   6.228
10352SOL     OW31954   3.945   1.704   5.777
10352SOL    HW131955   4.039   1.738   5.771
10352SOL    HW231956   3.909   1.723   5.868
10353SOL     OW31957   6.564   2.414   5.443
10353SOL    HW131958   6.608   2.340   5.392
10353SOL    HW231959   6.574   2.499   5.392
10354SOL     OW31960   5.758   2.614   2.080
10354SOL    HW131961   5.793   2.525   2.053
10354SOL    HW231962   5.689   2.603   2.152
10355SOL     OW31963   1.510   0.024   2.147
10355SOL    HW131964   1.599   7.001   2.128
10355SOL    HW231965   1.489   0.013   2.244
10356SOL     OW31966   0.902   4.618   5.506
10356SOL    HW131967   0.853   4.628   5.593
10356SOL    HW231968   0.932   4.707   5.474
10357SOL     OW31969   1.786   3.206   6.228
10357SOL    HW131970   1.729   3.281   6.263
10357SOL    HW231971   1.749   3.174   6.141
10358SOL     OW31972   6.197   2.957   3.305
10358SOL    HW131973   6.197   2.897   3.225
10358SOL    HW231974   6.274   2.933   3.365
10359SOL     OW31975   0.470   1.698   1.915
10359SOL    HW131976   0.543   1.737   1.971
10359SOL    HW231977   0.511   1.650   1.837
10360SOL     OW31978   4.648   5.356   3.234
10360SOL    HW131979   4.643   5.314   3.325
10360SOL    HW231980   4.651   5.456   3.243
10361SOL     OW31981   3.204   6.740   3.450
10361SOL    HW131982   3.268   6.742   3.373
10361SOL    HW231983   3.169   6.832   3.467
10362SOL     OW31984   0.230   4.930   4.954
10362SOL    HW131985   0.181   4.861   4.902
10362SOL    HW231986   0.314   4.890   4.993
10363SOL     OW31987   5.137   1.795   1.910
10363SOL    HW131988   5.118   1.794   1.812
10363SOL    HW231989   5.073   1.733   1.957
10364SOL     OW31990   3.025   3.388   1.548
10364SOL    HW131991   2.951   3.362   1.485
10364SOL    HW231992   3.023   3.327   1.628
10365SOL     OW31993   4.518   4.490   6.408
10365SOL    HW131994   4.535   4.411   6.466
10365SOL    HW231995   4.554   4.573   6.451
10366SOL     OW31996   3.452   0.856   4.132
10366SOL    HW131997   3.455   0.756   4.121
10366SOL    HW231998   3.422   0.877   4.225
10367SOL     OW31999   6.582   1.560   2.569
10367SOL    HW132000   6.522   1.595   2.498
10367SOL    HW232001   6.545   1.474   2.604
10368SOL     OW32002   2.038   0.893   1.532
10368SOL    HW132003   2.039   0.848   1.443
10368SOL    HW232004   2.131   0.902   1.566
10369SOL     OW32005   3.984   0.928   5.065
10369SOL    HW132006   3.965   0.981   5.148
10369SOL    HW232007   4.079   0.900   5.063
10370SOL     OW32008   5.653   1.515   5.391
10370SOL    HW132009   5.720   1.441   5.386
10370SOL    HW232010   5.569   1.480   5.434
10371SOL     OW32011   3.066   6.164   4.920
10371SOL    HW132012   3.019   6.080   4.947
10371SOL    HW232013   3.042   6.237   4.983
10372SOL     OW32014   1.098   1.579   6.786
10372SOL    HW132015   1.144   1.491   6.794
10372SOL    HW232016   1.030   1.588   6.860
10373SOL     OW32017   2.169   5.934   4.901
10373SOL    HW132018   2.085   5.904   4.945
10373SOL    HW232019   2.219   5.996   4.963
10374SOL     OW32020   3.864   1.297   2.509
10374SOL    HW132021   3.897   1.225   2.448
10374SOL    HW232022   3.903   1.284   2.600
10375SOL     OW32023   3.284   1.655   5.864
10375SOL    HW132024   3.246   1.580   5.809
10375SOL    HW232025   3.270   1.741   5.816
10376SOL     OW32026   1.014   6.294   3.568
10376SOL    HW132027   0.996   6.223   3.500
10376SOL    HW232028   1.043   6.378   3.522
10377SOL     OW32029   0.403   0.563   4.106
10377SOL    HW132030   0.440   0.596   4.193
10377SOL    HW232031   0.396   0.640   4.042
10378SOL     OW32032   6.736   0.392   6.155
10378SOL    HW132033   6.769   0.435   6.071
10378SOL    HW232034   6.776   0.439   6.234
10379SOL     OW32035   3.478   6.622   4.934
10379SOL    HW132036   3.510   6.641   4.841
10379SOL    HW232037   3.439   6.704   4.974
10380SOL     OW32038   0.209   1.043   3.904
10380SOL    HW132039   0.214   1.113   3.975
10380SOL    HW232040   0.257   1.075   3.822
10381SOL     OW32041   3.993   5.749   6.218
10381SOL    HW132042   4.060   5.677   6.198
10381SOL    HW232043   4.038   5.824   6.266
10382SOL     OW32044   2.200   4.572   6.957
10382SOL    HW132045   2.102   4.574   6.936
10382SOL    HW232046   2.219   4.497   0.003
10383SOL     OW32047   0.558   3.705   0.974
10383SOL    HW132048   0.630   3.700   0.905
10383SOL    HW232049   0.562   3.793   1.021
10384SOL     OW32050   0.707   0.250   0.790
10384SOL    HW132051   0.730   0.204   0.875
10384SOL    HW232052   0.711   0.349   0.803
10385SOL     OW32053   4.151   0.250   6.760
10385SOL    HW132054   4.190   0.164   6.794
10385SOL    HW232055   4.059   0.261   6.798
10386SOL     OW32056   5.552   3.229   5.239
10386SOL    HW132057   5.517   3.301   5.298
10386SOL    HW232058   5.478   3.164   5.218
10387SOL     OW32059   3.808   2.126   2.282
10387SOL    HW132060   3.737   2.159   2.219
10387SOL    HW232061   3.897   2.131   2.238
10388SOL     OW32062   1.665   5.719   3.340
10388SOL    HW132063   1.696   5.700   3.433
10388SOL    HW232064   1.620   5.808   3.338
10389SOL     OW32065   0.321   6.816   1.333
10389SOL    HW132066   0.398   6.768   1.291
10389SOL    HW232067   0.281   6.879   1.266
10390SOL     OW32068   1.468   3.637   1.519
10390SOL    HW132069   1.541   3.655   1.585
10390SOL    HW232070   1.437   3.543   1.528
10391SOL     OW32071   0.930   5.673   4.908
10391SOL    HW132072   0.881   5.617   4.975
10391SOL    HW232073   1.028   5.671   4.928
10392SOL     OW32074   6.196   3.855   0.072
10392SOL    HW132075   6.275   3.807   0.034
10392SOL    HW232076   6.226   3.913   0.147
10393SOL     OW32077   1.972   1.967   2.832
10393SOL    HW132078   2.068   1.940   2.840
10393SOL    HW232079   1.926   1.956   2.920
10394SOL     OW32080   2.720   6.359   6.168
10394SOL    HW132081   2.641   6.328   6.116
10394SOL    HW232082   2.790   6.394   6.105
10395SOL     OW32083   6.274   0.534   3.945
10395SOL    HW132084   6.270   0.505   4.041
10395SOL    HW232085   6.197   0.495   3.895
10396SOL     OW32086   1.900   0.035   4.445
10396SOL    HW132087   1.979   0.087   4.413
10396SOL    HW232088   1.816   0.080   4.414
10397SOL     OW32089   3.482   1.700   3.582
10397SOL    HW132090   3.577   1.726   3.569
10397SOL    HW232091   3.441   1.678   3.494
10398SOL     OW32092   6.143   2.772   0.383
10398SOL    HW132093   6.060   2.827   0.368
10398SOL    HW232094   6.211   2.826   0.432
10399SOL     OW32095   4.435   1.311   4.983
10399SOL    HW132096   4.438   1.348   5.076
10399SOL    HW232097   4.468   1.216   4.984
10400SOL     OW32098   3.436   5.813   1.809
10400SOL    HW132099   3.471   5.744   1.872
10400SOL    HW232100   3.504   5.887   1.799
10401SOL     OW32101   6.912   0.270   2.264
10401SOL    HW132102   6.843   0.328   2.308
10401SOL    HW232103   6.919   0.183   2.314
10402SOL     OW32104   0.326   2.326   5.571
10402SOL    HW132105   0.328   2.229   5.546
10402SOL    HW232106   0.309   2.335   5.669
10403SOL     OW32107   5.180   1.320   2.430
10403SOL    HW132108   5.168   1.387   2.357
10403SOL    HW232109   5.206   1.366   2.514
10404SOL     OW32110   0.798   6.458   3.328
10404SOL    HW132111   0.756   6.547   3.348
10404SOL    HW232112   0.731   6.385   3.341
10405SOL     OW32113   1.261   5.349   5.210
10405SOL    HW132114   1.314   5.420   5.257
10405SOL    HW232115   1.170   5.385   5.188
10406SOL     OW32116   2.108   3.896   5.152
10406SOL    HW132117   2.197   3.925   5.116
10406SOL    HW232118   2.112   3.893   5.252
10407SOL     OW32119   1.916   0.749   6.508
10407SOL    HW132120   1.990   0.713   6.565
10407SOL    HW232121   1.877   0.831   6.551
10408SOL     OW32122   4.379   5.797   2.752
10408SOL    HW132123   4.405   5.894   2.753
10408SOL    HW232124   4.305   5.782   2.818
10409SOL     OW32125   0.909   4.820   0.972
10409SOL    HW132126   0.906   4.723   0.998
10409SOL    HW232127   0.870   4.830   0.880
10410SOL     OW32128   5.323   1.527   1.288
10410SOL    HW132129   5.316   1.625   1.267
10410SOL    HW232130   5.418   1.504   1.307
10411SOL     OW32131   3.020   5.192   4.071
10411SOL    HW132132   2.961   5.112   4.064
10411SOL    HW232133   3.022   5.224   4.165
10412SOL     OW32134   0.484   1.523   0.973
10412SOL    HW132135   0.531   1.611   0.983
10412SOL    HW232136   0.513   1.462   1.047
10413SOL     OW32137   0.704   2.172   0.922
10413SOL    HW132138   0.754   2.228   0.856
10413SOL    HW232139   0.681   2.227   1.002
10414SOL     OW32140   4.543   6.034   6.137
10414SOL    HW132141   4.448   6.029   6.106
10414SOL    HW232142   4.561   5.960   6.201
10415SOL     OW32143   2.271   4.900   4.491
10415SOL    HW132144   2.208   4.975   4.511
10415SOL    HW232145   2.279   4.840   4.571
10416SOL     OW32146   7.012   1.799   6.003
10416SOL    HW132147   0.081   1.753   5.981
10416SOL    HW232148   6.965   1.825   5.918
10417SOL     OW32149   4.513   4.563   3.341
10417SOL    HW132150   4.519   4.597   3.247
10417SOL    HW232151   4.556   4.473   3.346
10418SOL     OW32152   6.702   4.312   5.133
10418SOL    HW132153   6.759   4.394   5.137
10418SOL    HW232154   6.755   4.232   5.164
10419SOL     OW32155   2.709   0.756   4.962
10419SOL    HW132156   2.626   0.802   4.929
10419SOL    HW232157   2.751   0.811   5.034
10420SOL     OW32158   6.752   3.851   2.537
10420SOL    HW132159   6.721   3.938   2.574
10420SOL    HW232160   6.693   3.823   2.461
10421SOL     OW32161   1.242   3.756   4.079
10421SOL    HW132162   1.271   3.764   4.175
10421SOL    HW232163   1.313   3.792   4.020
10422SOL     OW32164   6.478   3.559   5.433
10422SOL    HW132165   6.574   3.532   5.446
10422SOL    HW232166   6.420   3.504   5.493
10423SOL     OW32167   3.876   4.894   4.538
10423SOL    HW132168   3.918   4.984   4.527
10423SOL    HW232169   3.884   4.866   4.634
10424SOL     OW32170   4.876   1.979   0.324
10424SOL    HW132171   4.923   1.971   0.412
10424SOL    HW232172   4.787   1.933   0.330
10425SOL     OW32173   0.844   6.314   1.710
10425SOL    HW132174   0.913   6.382   1.735
10425SOL    HW232175   0.865   6.278   1.619
10426SOL     OW32176   4.802   3.289   5.710
10426SOL    HW132177   4.846   3.357   5.652
10426SOL    HW232178   4.728   3.244   5.659
10427SOL     OW32179   5.277   5.350   5.708
10427SOL    HW132180   5.304   5.445   5.725
10427SOL    HW232181   5.181   5.338   5.732
10428SOL     OW32182   1.102   1.942   3.838
10428SOL    HW132183   1.018   1.938   3.893
10428SOL    HW232184   1.115   2.036   3.806
10429SOL     OW32185   1.388   4.012   3.193
10429SOL    HW132186   1.362   4.091   3.137
10429SOL    HW232187   1.486   3.995   3.184
10430SOL     OW32188   3.507   5.649   4.528
10430SOL    HW132189   3.439   5.635   4.457
10430SOL    HW232190   3.587   5.695   4.489
10431SOL     OW32191   2.548   1.182   4.415
10431SOL    HW132192   2.599   1.206   4.498
10431SOL    HW232193   2.561   1.085   4.395
10432SOL     OW32194   1.007   0.834   5.262
10432SOL    HW132195   1.085   0.882   5.302
10432SOL    HW232196   1.001   0.855   5.165
10433SOL     OW32197   0.834   6.160   1.469
10433SOL    HW132198   0.764   6.092   1.451
10433SOL    HW232199   0.924   6.116   1.471
10434SOL     OW32200   5.152   6.292   4.493
10434SOL    HW132201   5.087   6.358   4.457
10434SOL    HW232202   5.136   6.280   4.591
10435SOL     OW32203   1.217   2.425   6.191
10435SOL    HW132204   1.312   2.411   6.222
10435SOL    HW232205   1.155   2.408   6.267
10436SOL     OW32206   6.207   3.549   4.568
10436SOL    HW132207   6.200   3.461   4.520
10436SOL    HW232208   6.204   3.533   4.667
10437SOL     OW32209   4.986   5.055   5.370
10437SOL    HW132210   5.010   5.009   5.455
10437SOL    HW232211   4.985   5.154   5.385
10438SOL     OW32212   6.902   6.448   5.143
10438SOL    HW132213   6.900   6.475   5.047
10438SOL    HW232214   6.809   6.430   5.174
10439SOL     OW32215   6.229   0.491   4.761
10439SOL    HW132216   6.319   0.509   4.719
10439SOL    HW232217   6.227   0.397   4.796
10440SOL     OW32218   6.946   0.754   6.847
10440SOL    HW132219   6.953   0.842   6.894
10440SOL    HW232220   7.010   0.689   6.887
10441SOL     OW32221   3.243   1.727   0.928
10441SOL    HW132222   3.340   1.722   0.952
10441SOL    HW232223   3.203   1.636   0.928
10442SOL     OW32224   3.415   0.877   5.230
10442SOL    HW132225   3.395   0.818   5.151
10442SOL    HW232226   3.351   0.857   5.304
10443SOL     OW32227   6.835   2.071   2.810
10443SOL    HW132228   6.852   2.010   2.887
10443SOL    HW232229   6.914   2.069   2.748
10444SOL     OW32230   3.328   4.935   3.451
10444SOL    HW132231   3.272   4.905   3.528
10444SOL    HW232232   3.417   4.964   3.483
10445SOL     OW32233   0.523   3.378   2.269
10445SOL    HW132234   0.543   3.463   2.221
10445SOL    HW232235   0.505   3.305   2.203
10446SOL     OW32236   1.898   4.269   5.854
10446SOL    HW132237   1.970   4.296   5.918
10446SOL    HW232238   1.906   4.324   5.770
10447SOL     OW32239   6.030   1.302   1.988
10447SOL    HW132240   5.981   1.286   2.073
10447SOL    HW232241   6.003   1.233   1.920
10448SOL     OW32242   2.986   0.616   3.717
10448SOL    HW132243   2.978   0.671   3.634
10448SOL    HW232244   2.915   0.644   3.782
10449SOL     OW32245   3.509   5.475   6.872
10449SOL    HW132246   3.603   5.470   6.840
10449SOL    HW232247   3.447   5.471   6.794
10450SOL     OW32248   6.410   0.610   6.314
10450SOL    HW132249   6.351   0.678   6.269
10450SOL    HW232250   6.505   0.637   6.305
10451SOL     OW32251   2.788   0.673   3.897
10451SOL    HW132252   2.753   0.645   3.986
10451SOL    HW232253   2.785   0.773   3.889
10452SOL     OW32254   0.038   2.686   2.751
10452SOL    HW132255   6.957   2.688   2.772
10452SOL    HW232256   0.089   2.728   2.825
10453SOL     OW32257   4.767   6.053   3.116
10453SOL    HW132258   4.826   6.076   3.038
10453SOL    HW232259   4.809   6.087   3.200
10454SOL     OW32260   6.595   0.940   6.923
10454SOL    HW132261   6.673   0.889   6.958
10454SOL    HW232262   6.546   0.982   7.000
10455SOL     OW32263   6.085   6.172   4.249
10455SOL    HW132264   6.062   6.268   4.258
10455SOL    HW232265   6.005   6.116   4.271
10456SOL     OW32266   6.922   5.494   0.138
10456SOL    HW132267   6.891   5.585   0.112
10456SOL    HW232268   6.978   5.500   0.221
10457SOL     OW32269   4.676   3.494   6.709
10457SOL    HW132270   4.725   3.424   6.762
10457SOL    HW232271   4.599   3.528   6.762
10458SOL     OW32272   6.855   0.827   6.042
10458SOL    HW132273   6.923   0.850   5.972
10458SOL    HW232274   6.791   0.760   6.004
10459SOL     OW32275   6.364   4.967   0.689
10459SOL    HW132276   6.282   4.952   0.634
10459SOL    HW232277   6.377   4.890   0.752
10460SOL     OW32278   6.613   4.007   2.018
10460SOL    HW132279   6.647   3.928   1.966
10460SOL    HW232280   6.613   4.088   1.959
10461SOL     OW32281   6.465   4.469   5.310
10461SOL    HW132282   6.506   4.560   5.314
10461SOL    HW232283   6.489   4.425   5.224
10462SOL     OW32284   4.903   1.554   2.060
10462SOL    HW132285   4.816   1.517   2.027
10462SOL    HW232286   4.898   1.654   2.064
10463SOL     OW32287   4.757   1.645   6.193
10463SOL    HW132288   4.718   1.723   6.145
10463SOL    HW232289   4.789   1.674   6.284
10464SOL     OW32290   5.696   6.090   2.148
10464SOL    HW132291   5.654   6.017   2.094
10464SOL    HW232292   5.751   6.050   2.221
10465SOL     OW32293   5.105   4.691   2.801
10465SOL    HW132294   5.017   4.658   2.767
10465SOL    HW232295   5.165   4.711   2.723
10466SOL     OW32296   5.032   4.517   6.626
10466SOL    HW132297   5.018   4.494   6.723
10466SOL    HW232298   5.099   4.591   6.620
10467SOL     OW32299   1.548   2.729   6.872
10467SOL    HW132300   1.631   2.786   6.868
10467SOL    HW232301   1.569   2.638   6.837
10468SOL     OW32302   3.909   5.214   3.182
10468SOL    HW132303   3.855   5.136   3.216
10468SOL    HW232304   3.938   5.195   3.088
10469SOL     OW32305   4.881   4.177   5.996
10469SOL    HW132306   4.855   4.103   6.057
10469SOL    HW232307   4.866   4.149   5.901
10470SOL     OW32308   2.493   1.909   3.378
10470SOL    HW132309   2.437   1.833   3.411
10470SOL    HW232310   2.577   1.874   3.336
10471SOL     OW32311   3.071   0.501   6.892
10471SOL    HW132312   3.142   0.459   6.949
10471SOL    HW232313   3.051   0.441   6.815
10472SOL     OW32314   2.601   5.525   1.229
10472SOL    HW132315   2.604   5.512   1.130
10472SOL    HW232316   2.688   5.564   1.260
10473SOL     OW32317   5.717   6.465   5.707
10473SOL    HW132318   5.674   6.376   5.717
10473SOL    HW232319   5.817   6.455   5.710
10474SOL     OW32320   4.988   0.985   3.984
10474SOL    HW132321   4.960   1.053   3.917
10474SOL    HW232322   4.914   0.919   3.998
10475SOL     OW32323   2.378   6.448   1.855
10475SOL    HW132324   2.337   6.484   1.771
10475SOL    HW232325   2.447   6.512   1.888
10476SOL     OW32326   4.856   6.305   6.031
10476SOL    HW132327   4.851   6.206   6.018
10476SOL    HW232328   4.949   6.336   6.017
10477SOL     OW32329   7.016   0.350   4.551
10477SOL    HW132330   6.992   0.318   4.643
10477SOL    HW232331   0.002   0.273   4.488
10478SOL     OW32332   6.921   6.843   0.439
10478SOL    HW132333   6.899   6.938   0.417
10478SOL    HW232334   6.915   6.787   0.356
10479SOL     OW32335   6.694   1.577   2.066
10479SOL    HW132336   6.738   1.619   1.987
10479SOL    HW232337   6.732   1.615   2.151
10480SOL     OW32338   1.162   0.320   1.923
10480SOL    HW132339   1.108   0.342   1.841
10480SOL    HW232340   1.102   0.322   2.003
10481SOL     OW32341   1.335   6.292   2.827
10481SOL    HW132342   1.348   6.240   2.911
10481SOL    HW232343   1.370   6.385   2.840
10482SOL     OW32344   6.165   4.855   4.764
10482SOL    HW132345   6.187   4.923   4.694
10482SOL    HW232346   6.204   4.883   4.852
10483SOL     OW32347   5.387   6.031   0.300
10483SOL    HW132348   5.451   6.054   0.373
10483SOL    HW232349   5.302   5.996   0.340
10484SOL     OW32350   4.653   1.669   1.370
10484SOL    HW132351   4.681   1.576   1.349
10484SOL    HW232352   4.732   1.721   1.404
10485SOL     OW32353   3.243   4.398   6.795
10485SOL    HW132354   3.179   4.448   6.737
10485SOL    HW232355   3.322   4.370   6.741
10486SOL     OW32356   6.629   1.398   0.935
10486SOL    HW132357   6.721   1.403   0.975
10486SOL    HW232358   6.571   1.341   0.993
10487SOL     OW32359   5.273   6.665   2.460
10487SOL    HW132360   5.296   6.761   2.477
10487SOL    HW232361   5.349   6.607   2.487
10488SOL     OW32362   2.702   2.492   6.187
10488SOL    HW132363   2.674   2.407   6.142
10488SOL    HW232364   2.685   2.569   6.125
10489SOL     OW32365   0.478   6.877   5.512
10489SOL    HW132366   0.380   6.876   5.489
10489SOL    HW232367   0.493   6.943   5.586
10490SOL     OW32368   6.210   1.471   1.907
10490SOL    HW132369   6.146   1.403   1.942
10490SOL    HW232370   6.161   1.541   1.856
10491SOL     OW32371   1.673   3.647   0.303
10491SOL    HW132372   1.579   3.633   0.333
10491SOL    HW232373   1.681   3.737   0.261
10492SOL     OW32374   5.729   3.653   5.837
10492SOL    HW132375   5.806   3.594   5.816
10492SOL    HW232376   5.682   3.678   5.752
10493SOL     OW32377   3.277   0.891   1.681
10493SOL    HW132378   3.280   0.977   1.731
10493SOL    HW232379   3.197   0.890   1.621
10494SOL     OW32380   4.931   3.173   5.925
10494SOL    HW132381   5.024   3.203   5.947
10494SOL    HW232382   4.897   3.226   5.847
10495SOL     OW32383   2.088   6.813   0.238
10495SOL    HW132384   2.133   6.811   0.328
10495SOL    HW232385   2.154   6.839   0.169
10496SOL     OW32386   0.736   5.863   0.757
10496SOL    HW132387   0.685   5.886   0.840
10496SOL    HW232388   0.692   5.905   0.678
10497SOL     OW32389   2.192   6.454   2.051
10497SOL    HW132390   2.257   6.418   1.984
10497SOL    HW232391   2.226   6.541   2.087
10498SOL     OW32392   2.923   6.723   1.253
10498SOL    HW132393   2.977   6.639   1.249
10498SOL    HW232394   2.826   6.700   1.255
10499SOL     OW32395   3.331   6.309   2.163
10499SOL    HW132396   3.333   6.312   2.063
10499SOL    HW232397   3.297   6.221   2.193
10500SOL     OW32398   0.450   0.906   6.123
10500SOL    HW132399   0.429   0.909   6.026
10500SOL    HW232400   0.436   0.996   6.164
10501SOL     OW32401   2.085   5.221   3.221
10501SOL    HW132402   2.109   5.164   3.299
10501SOL    HW232403   2.025   5.295   3.252
10502SOL     OW32404   2.995   0.591   1.174
10502SOL    HW132405   3.057   0.669   1.180
10502SOL    HW232406   3.003   0.548   1.084
10503SOL     OW32407   4.176   2.891   0.245
10503SOL    HW132408   4.267   2.873   0.208
10503SOL    HW232409   4.144   2.810   0.295
10504SOL     OW32410   2.233   2.034   0.193
10504SOL    HW132411   2.157   2.001   0.249
10504SOL    HW232412   2.232   1.988   0.105
10505SOL     OW32413   6.209   5.302   0.969
10505SOL    HW132414   6.297   5.271   1.005
10505SOL    HW232415   6.211   5.401   0.959
10506SOL     OW32416   0.101   5.112   6.046
10506SOL    HW132417   0.182   5.074   6.090
10506SOL    HW232418   0.083   5.204   6.082
10507SOL     OW32419   2.643   6.719   6.813
10507SOL    HW132420   2.607   6.763   6.731
10507SOL    HW232421   2.577   6.728   6.888
10508SOL     OW32422   5.875   5.908   4.942
10508SOL    HW132423   5.808   5.834   4.936
10508SOL    HW232424   5.835   5.986   4.989
10509SOL     OW32425   0.947   6.208   5.586
10509SOL    HW132426   1.043   6.237   5.586
10509SOL    HW232427   0.888   6.288   5.578
10510SOL     OW32428   5.156   5.551   6.033
10510SOL    HW132429   5.150   5.610   6.114
10510SOL    HW232430   5.224   5.588   5.970
10511SOL     OW32431   4.926   2.618   1.166
10511SOL    HW132432   5.016   2.585   1.193
10511SOL    HW232433   4.934   2.674   1.083
10512SOL     OW32434   3.696   0.372   5.750
10512SOL    HW132435   3.767   0.339   5.688
10512SOL    HW232436   3.671   0.299   5.814
10513SOL     OW32437   0.191   2.499   5.117
10513SOL    HW132438   0.273   2.472   5.067
10513SOL    HW232439   0.193   2.460   5.209
10514SOL     OW32440   7.001   4.006   6.989
10514SOL    HW132441   6.910   4.001   0.013
10514SOL    HW232442   7.003   4.079   6.921
10515SOL     OW32443   6.469   2.355   3.037
10515SOL    HW132444   6.517   2.404   2.965
10515SOL    HW232445   6.471   2.257   3.018
10516SOL     OW32446   4.424   0.902   6.456
10516SOL    HW132447   4.478   0.825   6.420
10516SOL    HW232448   4.464   0.934   6.541
10517SOL     OW32449   0.076   2.163   2.959
10517SOL    HW132450   0.042   2.246   2.915
10517SOL    HW232451   7.016   2.111   2.997
10518SOL     OW32452   0.859   4.516   6.526
10518SOL    HW132453   0.893   4.493   6.617
10518SOL    HW232454   0.786   4.584   6.534
10519SOL     OW32455   2.278   2.580   6.342
10519SOL    HW132456   2.290   2.624   6.253
10519SOL    HW232457   2.189   2.535   6.346
10520SOL     OW32458   1.894   2.342   6.462
10520SOL    HW132459   1.803   2.302   6.469
10520SOL    HW232460   1.962   2.275   6.492
10521SOL     OW32461   6.301   5.425   1.683
10521SOL    HW132462   6.288   5.388   1.591
10521SOL    HW232463   6.265   5.518   1.686
10522SOL     OW32464   6.010   0.626   0.218
10522SOL    HW132465   5.992   0.715   0.176
10522SOL    HW232466   6.052   0.566   0.150
10523SOL     OW32467   0.599   5.850   4.875
10523SOL    HW132468   0.557   5.779   4.931
10523SOL    HW232469   0.659   5.907   4.931
10524SOL     OW32470   2.570   1.396   4.940
10524SOL    HW132471   2.535   1.437   5.024
10524SOL    HW232472   2.496   1.391   4.873
10525SOL     OW32473   3.023   0.088   5.555
10525SOL    HW132474   2.979   0.001   5.534
10525SOL    HW232475   3.078   0.117   5.477
10526SOL     OW32476   0.715   6.929   2.678
10526SOL    HW132477   0.697   0.010   2.673
10526SOL    HW232478   0.814   6.913   2.679
10527SOL     OW32479   6.939   2.630   4.677
10527SOL    HW132480   6.943   2.719   4.631
10527SOL    HW232481   6.901   2.643   4.769
10528SOL     OW32482   0.450   3.595   5.973
10528SOL    HW132483   0.401   3.521   6.018
10528SOL    HW232484   0.513   3.557   5.905
10529SOL     OW32485   2.307   6.342   4.042
10529SOL    HW132486   2.260   6.286   4.111
10529SOL    HW232487   2.400   6.307   4.029
10530SOL     OW32488   1.930   1.313   6.131
10530SOL    HW132489   1.893   1.353   6.047
10530SOL    HW232490   2.027   1.291   6.118
10531SOL     OW32491   1.170   2.778   4.507
10531SOL    HW132492   1.244   2.791   4.574
10531SOL    HW232493   1.203   2.720   4.432
10532SOL     OW32494   2.205   4.210   0.372
10532SOL    HW132495   2.284   4.153   0.350
10532SOL    HW232496   2.166   4.180   0.459
10533SOL     OW32497   3.415   1.701   4.523
10533SOL    HW132498   3.440   1.798   4.533
10533SOL    HW232499   3.363   1.688   4.439
10534SOL     OW32500   6.273   5.711   1.710
10534SOL    HW132501   6.316   5.745   1.794
10534SOL    HW232502   6.271   5.784   1.642
10535SOL     OW32503   0.115   2.083   1.048
10535SOL    HW132504   0.137   2.178   1.026
10535SOL    HW232505   0.054   2.081   1.127
10536SOL     OW32506   3.675   0.738   3.019
10536SOL    HW132507   3.737   0.811   3.046
10536SOL    HW232508   3.728   0.660   2.985
10537SOL     OW32509   3.519   5.514   3.845
10537SOL    HW132510   3.544   5.591   3.904
10537SOL    HW232511   3.580   5.437   3.862
10538SOL     OW32512   4.787   3.062   0.058
10538SOL    HW132513   4.713   3.028   0.115
10538SOL    HW232514   4.875   3.034   0.097
10539SOL     OW32515   0.364   4.571   6.899
10539SOL    HW132516   0.408   4.495   6.947
10539SOL    HW232517   0.363   4.551   6.801
10540SOL     OW32518   1.546   2.226   5.380
10540SOL    HW132519   1.593   2.182   5.304
10540SOL    HW232520   1.449   2.203   5.378
10541SOL     OW32521   3.654   3.482   1.930
10541SOL    HW132522   3.596   3.401   1.937
10541SOL    HW232523   3.598   3.565   1.936
10542SOL     OW32524   6.751   1.636   0.023
10542SOL    HW132525   6.724   1.660   0.117
10542SOL    HW232526   6.770   1.537   0.018
10543SOL     OW32527   0.079   1.379   5.183
10543SOL    HW132528   0.123   1.290   5.194
10543SOL    HW232529   0.148   1.451   5.183
10544SOL     OW32530   1.259   6.909   2.579
10544SOL    HW132531   1.233   6.814   2.565
10544SOL    HW232532   1.177   6.965   2.594
10545SOL     OW32533   5.425   1.305   2.771
10545SOL    HW132534   5.478   1.221   2.767
10545SOL    HW232535   5.416   1.335   2.867
10546SOL     OW32536   0.736   1.029   6.273
10546SOL    HW132537   0.738   0.951   6.210
10546SOL    HW232538   0.669   1.011   6.346
10547SOL     OW32539   4.769   1.761   1.800
10547SOL    HW132540   4.812   1.770   1.710
10547SOL    HW232541   4.711   1.680   1.802
10548SOL     OW32542   5.167   3.994   4.725
10548SOL    HW132543   5.169   4.089   4.756
10548SOL    HW232544   5.190   3.933   4.802
10549SOL     OW32545   6.442   0.506   2.385
10549SOL    HW132546   6.414   0.502   2.481
10549SOL    HW232547   6.525   0.561   2.377
10550SOL     OW32548   4.661   6.506   4.396
10550SOL    HW132549   4.606   6.423   4.399
10550SOL    HW232550   4.671   6.544   4.488
10551SOL     OW32551   1.680   2.635   5.791
10551SOL    HW132552   1.709   2.540   5.800
10551SOL    HW232553   1.756   2.696   5.814
10552SOL     OW32554   4.038   2.411   5.814
10552SOL    HW132555   3.971   2.378   5.748
10552SOL    HW232556   4.099   2.336   5.840
10553SOL     OW32557   1.200   4.995   1.853
10553SOL    HW132558   1.140   5.054   1.800
10553SOL    HW232559   1.291   4.992   1.811
10554SOL     OW32560   5.156   5.310   6.662
10554SOL    HW132561   5.201   5.393   6.630
10554SOL    HW232562   5.212   5.230   6.638
10555SOL     OW32563   2.637   3.169   1.048
10555SOL    HW132564   2.621   3.259   1.090
10555SOL    HW232565   2.732   3.165   1.015
10556SOL     OW32566   2.237   2.604   5.226
10556SOL    HW132567   2.173   2.647   5.162
10556SOL    HW232568   2.330   2.632   5.203
10557SOL     OW32569   1.635   2.507   3.359
10557SOL    HW132570   1.667   2.414   3.375
10557SOL    HW232571   1.711   2.564   3.328
10558SOL     OW32572   4.075   0.094   4.025
10558SOL    HW132573   4.044   0.050   4.110
10558SOL    HW232574   3.997   0.138   3.980
10559SOL     OW32575   4.324   0.725   1.116
10559SOL    HW132576   4.240   0.741   1.065
10559SOL    HW232577   4.386   0.802   1.104
10560SOL     OW32578   2.551   6.713   4.096
10560SOL    HW132579   2.571   6.690   4.001
10560SOL    HW232580   2.497   6.641   4.138
10561SOL     OW32581   2.617   4.975   0.722
10561SOL    HW132582   2.613   4.876   0.707
10561SOL    HW232583   2.549   5.020   0.663
10562SOL     OW32584   5.218   6.359   0.505
10562SOL    HW132585   5.270   6.372   0.421
10562SOL    HW232586   5.278   6.376   0.584
10563SOL     OW32587   1.313   0.454   4.098
10563SOL    HW132588   1.339   0.470   4.003
10563SOL    HW232589   1.381   0.396   4.142
10564SOL     OW32590   6.089   6.436   2.250
10564SOL    HW132591   6.061   6.343   2.273
10564SOL    HW232592   6.011   6.485   2.212
10565SOL     OW32593   0.427   0.516   5.084
10565SOL    HW132594   0.433   0.589   5.015
10565SOL    HW232595   0.387   0.434   5.042
10566SOL     OW32596   3.889   2.897   0.003
10566SOL    HW132597   3.792   2.919   7.009
10566SOL    HW232598   3.933   2.968   0.059
10567SOL     OW32599   2.384   2.111   4.151
10567SOL    HW132600   2.452   2.183   4.135
10567SOL    HW232601   2.371   2.099   4.249
10568SOL     OW32602   5.708   1.089   1.606
10568SOL    HW132603   5.627   1.141   1.634
10568SOL    HW232604   5.689   1.039   1.522
10569SOL     OW32605   6.510   2.384   1.588
10569SOL    HW132606   6.510   2.376   1.488
10569SOL    HW232607   6.562   2.466   1.615
10570SOL     OW32608   1.701   4.763   3.150
10570SOL    HW132609   1.744   4.761   3.060
10570SOL    HW232610   1.602   4.749   3.140
10571SOL     OW32611   0.180   4.657   4.385
10571SOL    HW132612   0.247   4.730   4.374
10571SOL    HW232613   0.167   4.639   4.483
10572SOL     OW32614   6.679   3.865   3.220
10572SOL    HW132615   6.609   3.832   3.284
10572SOL    HW232616   6.696   3.795   3.151
10573SOL     OW32617   4.856   6.093   4.388
10573SOL    HW132618   4.878   6.144   4.305
10573SOL    HW232619   4.937   6.043   4.419
10574SOL     OW32620   1.786   1.558   4.380
10574SOL    HW132621   1.738   1.637   4.342
10574SOL    HW232622   1.884   1.575   4.378
10575SOL     OW32623   0.134   0.870   3.153
10575SOL    HW132624   0.159   0.959   3.190
10575SOL    HW232625   0.058   0.882   3.089
10576SOL     OW32626   0.224   6.510   5.534
10576SOL    HW132627   0.141   6.469   5.497
10576SOL    HW232628   0.293   6.518   5.461
10577SOL     OW32629   1.408   2.417   6.529
10577SOL    HW132630   1.437   2.321   6.529
10577SOL    HW232631   1.372   2.441   6.619
10578SOL     OW32632   6.323   0.337   3.736
10578SOL    HW132633   6.380   0.265   3.776
10578SOL    HW232634   6.238   0.345   3.787
10579SOL     OW32635   3.472   1.730   0.368
10579SOL    HW132636   3.397   1.780   0.325
10579SOL    HW232637   3.458   1.729   0.467
10580SOL     OW32638   0.128   0.573   0.252
10580SOL    HW132639   0.075   0.492   0.231
10580SOL    HW232640   0.162   0.567   0.346
10581SOL     OW32641   5.974   6.967   2.836
10581SOL    HW132642   5.922   6.912   2.901
10581SOL    HW232643   6.043   0.004   2.884
10582SOL     OW32644   4.283   4.873   0.124
10582SOL    HW132645   4.328   4.814   0.192
10582SOL    HW232646   4.329   4.863   0.036
10583SOL     OW32647   3.881   1.030   5.283
10583SOL    HW132648   3.788   1.049   5.252
10583SOL    HW232649   3.899   1.082   5.367
10584SOL     OW32650   6.394   6.657   1.234
10584SOL    HW132651   6.327   6.730   1.225
10584SOL    HW232652   6.352   6.570   1.211
10585SOL     OW32653   1.624   3.454   5.278
10585SOL    HW132654   1.680   3.414   5.206
10585SOL    HW232655   1.600   3.384   5.345
10586SOL     OW32656   1.178   5.743   5.323
10586SOL    HW132657   1.221   5.735   5.413
10586SOL    HW232658   1.161   5.840   5.302
10587SOL     OW32659   6.280   4.413   0.060
10587SOL    HW132660   6.204   4.463   0.100
10587SOL    HW232661   6.349   4.477   0.026
10588SOL     OW32662   0.815   4.070   2.353
10588SOL    HW132663   0.755   4.148   2.368
10588SOL    HW232664   0.834   4.062   2.255
10589SOL     OW32665   5.781   1.546   4.458
10589SOL    HW132666   5.878   1.540   4.479
10589SOL    HW232667   5.764   1.624   4.398
10590SOL     OW32668   0.541   0.279   1.658
10590SOL    HW132669   0.514   0.185   1.640
10590SOL    HW232670   0.464   0.328   1.701
10591SOL     OW32671   1.233   1.422   6.427
10591SOL    HW132672   1.221   1.337   6.479
10591SOL    HW232673   1.278   1.402   6.340
10592SOL     OW32674   5.643   2.465   0.286
10592SOL    HW132675   5.546   2.486   0.302
10592SOL    HW232676   5.700   2.533   0.332
10593SOL     OW32677   2.531   5.272   0.671
10593SOL    HW132678   2.578   5.311   0.750
10593SOL    HW232679   2.435   5.299   0.672
10594SOL     OW32680   5.710   0.816   3.085
10594SOL    HW132681   5.764   0.830   3.168
10594SOL    HW232682   5.772   0.796   3.009
10595SOL     OW32683   3.195   0.506   6.178
10595SOL    HW132684   3.220   0.579   6.114
10595SOL    HW232685   3.121   0.451   6.138
10596SOL     OW32686   4.727   0.504   1.112
10596SOL    HW132687   4.632   0.475   1.098
10596SOL    HW232688   4.789   0.428   1.093
10597SOL     OW32689   3.180   0.812   4.920
10597SOL    HW132690   3.172   0.889   4.984
10597SOL    HW232691   3.097   0.807   4.864
10598SOL     OW32692   2.773   2.658   6.848
10598SOL    HW132693   2.834   2.722   6.896
10598SOL    HW232694   2.825   2.576   6.823
10599SOL     OW32695   5.075   2.100   6.920
10599SOL    HW132696   5.095   2.058   6.832
10599SOL    HW232697   5.016   2.180   6.907
10600SOL     OW32698   1.852   3.468   0.427
10600SOL    HW132699   1.935   3.444   0.377
10600SOL    HW232700   1.810   3.549   0.387
10601SOL     OW32701   1.880   5.054   6.460
10601SOL    HW132702   1.876   5.029   6.364
10601SOL    HW232703   1.954   5.002   6.505
10602SOL     OW32704   5.284   1.587   3.472
10602SOL    HW132705   5.293   1.627   3.564
10602SOL    HW232706   5.373   1.554   3.442
10603SOL     OW32707   2.230   5.711   3.868
10603SOL    HW132708   2.219   5.649   3.791
10603SOL    HW232709   2.270   5.661   3.946
10604SOL     OW32710   6.221   4.057   5.256
10604SOL    HW132711   6.281   4.117   5.204
10604SOL    HW232712   6.253   3.962   5.246
10605SOL     OW32713   1.762   4.812   0.882
10605SOL    HW132714   1.755   4.900   0.837
10605SOL    HW232715   1.759   4.824   0.981
10606SOL     OW32716   6.110   6.791   2.267
10606SOL    HW132717   6.143   6.721   2.204
10606SOL    HW232718   6.183   6.817   2.329
10607SOL     OW32719   4.209   3.726   5.580
10607SOL    HW132720   4.117   3.744   5.616
10607SOL    HW232721   4.204   3.714   5.481
10608SOL     OW32722   5.495   2.086   5.331
10608SOL    HW132723   5.522   1.993   5.307
10608SOL    HW232724   5.395   2.094   5.328
10609SOL     OW32725   3.484   6.635   1.665
10609SOL    HW132726   3.548   6.617   1.740
10609SOL    HW232727   3.486   6.559   1.600
10610SOL     OW32728   6.981   3.763   6.353
10610SOL    HW132729   6.894   3.803   6.325
10610SOL    HW232730   0.027   3.761   6.274
10611SOL     OW32731   4.626   3.493   6.268
10611SOL    HW132732   4.630   3.442   6.354
10611SOL    HW232733   4.571   3.443   6.202
10612SOL     OW32734   2.688   6.859   6.059
10612SOL    HW132735   2.667   6.781   6.001
10612SOL    HW232736   2.624   6.862   6.136
10613SOL     OW32737   0.420   7.013   5.195
10613SOL    HW132738   0.335   6.987   5.239
10613SOL    HW232739   0.472   0.057   5.254
10614SOL     OW32740   6.691   2.084   4.075
10614SOL    HW132741   6.684   2.082   3.975
10614SOL    HW232742   6.709   2.178   4.104
10615SOL     OW32743   3.690   5.642   5.902
10615SOL    HW132744   3.740   5.643   5.989
10615SOL    HW232745   3.649   5.552   5.889
10616SOL     OW32746   3.215   6.277   0.782
10616SOL    HW132747   3.136   6.336   0.800
10616SOL    HW232748   3.195   6.218   0.704
10617SOL     OW32749   2.461   2.867   0.743
10617SOL    HW132750   2.454   2.966   0.734
10617SOL    HW232751   2.405   2.823   0.672
10618SOL     OW32752   5.599   3.691   6.887
10618SOL    HW132753   5.673   3.642   6.934
10618SOL    HW232754   5.628   3.785   6.868
10619SOL     OW32755   0.342   3.688   1.689
10619SOL    HW132756   0.365   3.654   1.598
10619SOL    HW232757   0.354   3.787   1.691
10620SOL     OW32758   1.222   5.805   5.756
10620SOL    HW132759   1.297   5.869   5.774
10620SOL    HW232760   1.199   5.756   5.839
10621SOL     OW32761   1.250   5.705   0.968
10621SOL    HW132762   1.300   5.741   0.890
10621SOL    HW232763   1.307   5.711   1.050
10622SOL     OW32764   5.099   1.390   1.402
10622SOL    HW132765   5.159   1.469   1.411
10622SOL    HW232766   5.054   1.373   1.490
10623SOL     OW32767   6.502   4.151   4.178
10623SOL    HW132768   6.454   4.214   4.117
10623SOL    HW232769   6.528   4.198   4.262
10624SOL     OW32770   1.001   1.442   4.621
10624SOL    HW132771   1.062   1.503   4.673
10624SOL    HW232772   0.908   1.476   4.627
10625SOL     OW32773   0.673   4.697   0.002
10625SOL    HW132774   0.708   4.605   7.001
10625SOL    HW232775   0.641   4.737   6.933
10626SOL     OW32776   1.069   2.564   1.361
10626SOL    HW132777   1.000   2.511   1.311
10626SOL    HW232778   1.087   2.520   1.449
10627SOL     OW32779   5.260   6.085   2.245
10627SOL    HW132780   5.319   6.109   2.168
10627SOL    HW232781   5.309   6.099   2.331
10628SOL     OW32782   5.702   5.405   6.045
10628SOL    HW132783   5.679   5.365   6.134
10628SOL    HW232784   5.728   5.501   6.057
10629SOL     OW32785   2.546   4.557   5.007
10629SOL    HW132786   2.642   4.584   4.995
10629SOL    HW232787   2.516   4.507   4.926
10630SOL     OW32788   6.300   1.079   3.770
10630SOL    HW132789   6.362   1.146   3.811
10630SOL    HW232790   6.208   1.095   3.804
10631SOL     OW32791   1.872   4.944   5.047
10631SOL    HW132792   1.864   4.850   5.015
10631SOL    HW232793   1.803   5.001   5.002
10632SOL     OW32794   5.541   1.939   4.240
10632SOL    HW132795   5.562   1.962   4.144
10632SOL    HW232796   5.568   2.016   4.298
10633SOL     OW32797   2.603   4.184   1.415
10633SOL    HW132798   2.623   4.239   1.496
10633SOL    HW232799   2.670   4.110   1.408
10634SOL     OW32800   3.208   5.255   0.951
10634SOL    HW132801   3.268   5.223   1.024
10634SOL    HW232802   3.228   5.206   0.866
10635SOL     OW32803   3.577   1.465   1.311
10635SOL    HW132804   3.653   1.413   1.352
10635SOL    HW232805   3.494   1.449   1.364
10636SOL     OW32806   1.368   1.916   1.952
10636SOL    HW132807   1.413   1.941   1.866
10636SOL    HW232808   1.435   1.870   2.011
10637SOL     OW32809   3.519   4.439   5.588
10637SOL    HW132810   3.425   4.422   5.619
10637SOL    HW232811   3.552   4.524   5.629
10638SOL     OW32812   6.971   5.742   2.609
10638SOL    HW132813   0.035   5.743   2.549
10638SOL    HW232814   6.908   5.814   2.581
10639SOL     OW32815   0.310   2.235   3.071
10639SOL    HW132816   0.233   2.203   3.015
10639SOL    HW232817   0.392   2.239   3.015
10640SOL     OW32818   4.307   0.164   6.350
10640SOL    HW132819   4.220   0.179   6.396
10640SOL    HW232820   4.361   0.248   6.350
10641SOL     OW32821   3.272   2.061   0.403
10641SOL    HW132822   3.337   2.071   0.327
10641SOL    HW232823   3.242   1.966   0.408
10642SOL     OW32824   0.498   2.398   1.990
10642SOL    HW132825   0.466   2.338   1.916
10642SOL    HW232826   0.435   2.392   2.067
10643SOL     OW32827   2.120   4.921   5.769
10643SOL    HW132828   2.079   4.957   5.685
10643SOL    HW232829   2.124   4.993   5.839
10644SOL     OW32830   5.238   2.173   3.421
10644SOL    HW132831   5.165   2.105   3.426
10644SOL    HW232832   5.324   2.132   3.450
10645SOL     OW32833   0.672   1.035   4.435
10645SOL    HW132834   0.723   1.025   4.520
10645SOL    HW232835   0.642   1.130   4.425
10646SOL     OW32836   0.482   1.771   5.103
10646SOL    HW132837   0.544   1.761   5.026
10646SOL    HW232838   0.507   1.707   5.176
10647SOL     OW32839   4.737   6.177   6.694
10647SOL    HW132840   4.828   6.177   6.737
10647SOL    HW232841   4.673   6.129   6.753
10648SOL     OW32842   5.263   3.153   6.493
10648SOL    HW132843   5.303   3.071   6.534
10648SOL    HW232844   5.265   3.144   6.393
10649SOL     OW32845   0.372   4.550   3.748
10649SOL    HW132846   0.301   4.508   3.691
10649SOL    HW232847   0.401   4.636   3.706
10650SOL     OW32848   1.438   6.006   3.000
10650SOL    HW132849   1.450   6.033   2.905
10650SOL    HW232850   1.520   6.026   3.052
10651SOL     OW32851   4.982   0.336   6.027
10651SOL    HW132852   4.956   0.286   6.109
10651SOL    HW232853   4.936   0.296   5.947
10652SOL     OW32854   3.635   0.325   6.920
10652SOL    HW132855   3.595   0.245   6.966
10652SOL    HW232856   3.561   0.385   6.889
10653SOL     OW32857   4.873   4.904   4.042
10653SOL    HW132858   4.966   4.868   4.054
10653SOL    HW232859   4.843   4.948   4.126
10654SOL     OW32860   4.738   1.190   1.017
10654SOL    HW132861   4.701   1.189   1.111
10654SOL    HW232862   4.681   1.133   0.959
10655SOL     OW32863   3.188   5.446   1.485
10655SOL    HW132864   3.177   5.508   1.562
10655SOL    HW232865   3.232   5.361   1.516
10656SOL     OW32866   6.077   2.297   0.722
10656SOL    HW132867   6.114   2.379   0.764
10656SOL    HW232868   6.150   2.247   0.675
10657SOL     OW32869   6.217   6.663   0.233
10657SOL    HW132870   6.128   6.697   0.202
10657SOL    HW232871   6.225   6.675   0.332
10658SOL     OW32872   7.013   3.929   4.952
10658SOL    HW132873   0.040   4.018   4.946
10658SOL    HW232874   6.934   3.926   4.891
10659SOL     OW32875   6.807   6.256   0.784
10659SOL    HW132876   6.841   6.197   0.857
10659SOL    HW232877   6.768   6.199   0.711
10660SOL     OW32878   4.910   4.441   6.410
10660SOL    HW132879   4.909   4.343   6.393
10660SOL    HW232880   4.941   4.460   6.503
10661SOL     OW32881   0.016   6.485   2.584
10661SOL    HW132882   0.106   6.512   2.549
10661SOL    HW232883   0.001   6.528   2.673
10662SOL     OW32884   5.748   0.825   2.464
10662SOL    HW132885   5.809   0.878   2.523
10662SOL    HW232886   5.801   0.782   2.391
10663SOL     OW32887   0.514   6.676   1.169
10663SOL    HW132888   0.553   6.672   1.077
10663SOL    HW232889   0.588   6.690   1.235
10664SOL     OW32890   1.971   4.263   6.415
10664SOL    HW132891   2.035   4.335   6.386
10664SOL    HW232892   2.021   4.178   6.429
10665SOL     OW32893   1.655   0.727   0.153
10665SOL    HW132894   1.617   0.638   0.178
10665SOL    HW232895   1.671   0.781   0.235
10666SOL     OW32896   3.968   4.814   0.044
10666SOL    HW132897   3.951   4.777   6.969
10666SOL    HW232898   4.022   4.749   0.096
10667SOL     OW32899   3.857   2.276   5.663
10667SOL    HW132900   3.865   2.177   5.673
10667SOL    HW232901   3.803   2.296   5.580
10668SOL     OW32902   1.157   1.523   4.977
10668SOL    HW132903   1.062   1.550   4.968
10668SOL    HW232904   1.209   1.597   5.020
10669SOL     OW32905   6.561   0.004   0.679
10669SOL    HW132906   6.615   6.986   0.756
10669SOL    HW232907   6.582   0.100   0.664
10670SOL     OW32908   4.892   4.800   5.590
10670SOL    HW132909   4.805   4.817   5.637
10670SOL    HW232910   4.873   4.777   5.494
10671SOL     OW32911   2.147   3.435   3.133
10671SOL    HW132912   2.170   3.526   3.096
10671SOL    HW232913   2.202   3.417   3.214
10672SOL     OW32914   6.836   2.940   0.558
10672SOL    HW132915   6.777   2.860   0.566
10672SOL    HW232916   6.819   2.986   0.470
10673SOL     OW32917   2.161   2.075   5.497
10673SOL    HW132918   2.099   2.106   5.425
10673SOL    HW232919   2.117   2.003   5.551
10674SOL     OW32920   3.752   3.768   0.312
10674SOL    HW132921   3.771   3.866   0.313
10674SOL    HW232922   3.835   3.717   0.335
10675SOL     OW32923   1.882   1.154   6.371
10675SOL    HW132924   1.830   1.190   6.449
10675SOL    HW232925   1.902   1.228   6.307
10676SOL     OW32926   5.877   0.244   6.383
10676SOL    HW132927   5.899   0.156   6.425
10676SOL    HW232928   5.793   0.236   6.330
10677SOL     OW32929   0.822   0.876   2.320
10677SOL    HW132930   0.837   0.925   2.406
10677SOL    HW232931   0.725   0.877   2.298
10678SOL     OW32932   3.389   5.136   3.069
10678SOL    HW132933   3.408   5.234   3.060
10678SOL    HW232934   3.440   5.085   3.000
10679SOL     OW32935   5.521   5.242   5.921
10679SOL    HW132936   5.445   5.293   5.881
10679SOL    HW232937   5.575   5.303   5.979
10680SOL     OW32938   1.983   2.667   3.939
10680SOL    HW132939   1.977   2.766   3.923
10680SOL    HW232940   2.051   2.649   4.010
10681SOL     OW32941   6.924   3.979   6.615
10681SOL    HW132942   6.845   3.937   6.659
10681SOL    HW232943   7.006   3.927   6.638
10682SOL     OW32944   1.763   2.062   3.595
10682SOL    HW132945   1.843   2.037   3.539
10682SOL    HW232946   1.773   2.156   3.626
10683SOL     OW32947   2.962   2.187   3.733
10683SOL    HW132948   2.903   2.267   3.719
10683SOL    HW232949   3.045   2.197   3.679
10684SOL     OW32950   4.465   4.271   0.052
10684SOL    HW132951   4.446   4.361   0.012
10684SOL    HW232952   4.481   4.204   6.996
10685SOL     OW32953   0.200   4.136   2.958
10685SOL    HW132954   0.197   4.144   2.858
10685SOL    HW232955   0.154   4.052   2.986
10686SOL     OW32956   4.108   5.967   6.320
10686SOL    HW132957   4.037   6.037   6.318
10686SOL    HW232958   4.190   6.001   6.275
10687SOL     OW32959   0.253   5.426   2.132
10687SOL    HW132960   0.211   5.341   2.101
10687SOL    HW232961   0.217   5.449   2.223
10688SOL     OW32962   6.170   4.244   2.345
10688SOL    HW132963   6.173   4.294   2.259
10688SOL    HW232964   6.259   4.200   2.360
10689SOL     OW32965   0.054   6.840   3.318
10689SOL    HW132966   6.976   6.831   3.346
10689SOL    HW232967   0.084   6.935   3.331
10690SOL     OW32968   5.189   5.209   3.393
10690SOL    HW132969   5.254   5.139   3.423
10690SOL    HW232970   5.205   5.293   3.445
10691SOL     OW32971   0.115   1.592   2.248
10691SOL    HW132972   0.175   1.512   2.238
10691SOL    HW232973   0.142   1.662   2.183
10692SOL     OW32974   2.993   5.622   4.157
10692SOL    HW132975   3.092   5.635   4.157
10692SOL    HW232976   2.950   5.697   4.107
10693SOL     OW32977   1.931   0.992   1.195
10693SOL    HW132978   1.848   0.997   1.250
10693SOL    HW232979   1.931   1.065   1.126
10694SOL     OW32980   3.672   6.454   0.655
10694SOL    HW132981   3.637   6.367   0.688
10694SOL    HW232982   3.605   6.526   0.674
10695SOL     OW32983   6.290   2.033   3.631
10695SOL    HW132984   6.350   1.970   3.679
10695SOL    HW232985   6.295   2.123   3.674
10696SOL     OW32986   6.896   4.812   1.353
10696SOL    HW132987   6.909   4.838   1.257
10696SOL    HW232988   6.955   4.868   1.411
10697SOL     OW32989   0.376   6.289   3.749
10697SOL    HW132990   0.468   6.318   3.778
10697SOL    HW232991   0.339   6.356   3.685
10698SOL     OW32992   3.140   6.816   3.906
10698SOL    HW132993   3.240   6.817   3.898
10698SOL    HW232994   3.114   6.811   4.003
10699SOL     OW32995   4.560   1.955   2.572
10699SOL    HW132996   4.480   1.906   2.607
10699SOL    HW232997   4.568   2.043   2.620
10700SOL     OW32998   0.991   0.244   0.432
10700SOL    HW132999   0.940   0.314   0.382
10700SOL    HW233000   1.069   0.285   0.478
10701SOL     OW33001   4.137   6.175   6.819
10701SOL    HW133002   4.151   6.217   6.909
10701SOL    HW233003   4.040   6.166   6.801
10702SOL     OW33004   5.565   2.472   1.631
10702SOL    HW133005   5.536   2.560   1.668
10702SOL    HW233006   5.576   2.406   1.705
10703SOL     OW33007   3.659   3.504   3.798
10703SOL    HW133008   3.705   3.586   3.832
10703SOL    HW233009   3.581   3.530   3.741
10704SOL     OW33010   4.764   6.512   2.413
10704SOL    HW133011   4.828   6.581   2.379
10704SOL    HW233012   4.670   6.543   2.399
10705SOL     OW33013   1.346   3.764   0.177
10705SOL    HW133014   1.329   3.862   0.182
10705SOL    HW233015   1.366   3.729   0.268
10706SOL     OW33016   4.701   0.423   1.887
10706SOL    HW133017   4.671   0.361   1.814
10706SOL    HW233018   4.753   0.372   1.955
10707SOL     OW33019   0.202   6.772   5.512
10707SOL    HW133020   0.129   6.803   5.573
10707SOL    HW233021   0.206   6.672   5.513
10708SOL     OW33022   4.955   1.042   1.291
10708SOL    HW133023   4.981   1.037   1.387
10708SOL    HW233024   4.859   1.015   1.281
10709SOL     OW33025   5.948   0.627   5.922
10709SOL    HW133026   6.012   0.552   5.907
10709SOL    HW233027   5.855   0.591   5.931
10710SOL     OW33028   0.030   6.400   4.277
10710SOL    HW133029   7.016   6.414   4.371
10710SOL    HW233030   0.001   6.309   4.246
10711SOL     OW33031   2.169   0.244   3.907
10711SOL    HW133032   2.085   0.289   3.937
10711SOL    HW233033   2.210   0.296   3.832
10712SOL     OW33034   3.799   1.388   4.222
10712SOL    HW133035   3.872   1.431   4.169
10712SOL    HW233036   3.757   1.456   4.282
10713SOL     OW33037   1.876   5.537   2.145
10713SOL    HW133038   1.955   5.486   2.113
10713SOL    HW233039   1.882   5.631   2.112
10714SOL     OW33040   0.276   4.551   4.653
10714SOL    HW133041   0.277   4.458   4.689
10714SOL    HW233042   0.241   4.613   4.723
10715SOL     OW33043   5.589   0.869   4.280
10715SOL    HW133044   5.612   0.812   4.359
10715SOL    HW233045   5.590   0.812   4.198
10716SOL     OW33046   6.665   1.235   3.595
10716SOL    HW133047   6.698   1.147   3.562
10716SOL    HW233048   6.576   1.255   3.553
10717SOL     OW33049   0.491   1.431   1.263
10717SOL    HW133050   0.466   1.487   1.343
10717SOL    HW233051   0.409   1.412   1.209
10718SOL     OW33052   6.593   5.400   0.395
10718SOL    HW133053   6.507   5.396   0.446
10718SOL    HW233054   6.654   5.328   0.427
10719SOL     OW33055   4.717   6.910   2.389
10719SOL    HW133056   4.761   6.993   2.355
10719SOL    HW233057   4.696   6.849   2.313
10720SOL     OW33058   0.028   3.394   6.122
10720SOL    HW133059   6.997   3.471   6.081
10720SOL    HW233060   0.044   3.324   6.053
10721SOL     OW33061   6.081   1.926   4.358
10721SOL    HW133062   6.124   1.887   4.277
10721SOL    HW233063   6.001   1.979   4.330
10722SOL     OW33064   6.713   3.616   6.961
10722SOL    HW133065   6.805   3.621   6.922
10722SOL    HW233066   6.706   3.677   0.023
10723SOL     OW33067   5.386   4.046   0.045
10723SOL    HW133068   5.369   3.951   0.071
10723SOL    HW233069   5.321   4.105   0.093
10724SOL     OW33070   4.051   6.654   6.053
10724SOL    HW133071   4.043   6.706   5.968
10724SOL    HW233072   4.090   6.712   6.124
10725SOL     OW33073   0.470   5.317   4.388
10725SOL    HW133074   0.505   5.255   4.317
10725SOL    HW233075   0.460   5.267   4.474
10726SOL     OW33076   5.280   0.733   5.142
10726SOL    HW133077   5.299   0.795   5.066
10726SOL    HW233078   5.366   0.709   5.188
10727SOL     OW33079   1.877   4.653   5.277
10727SOL    HW133080   1.796   4.710   5.278
10727SOL    HW233081   1.959   4.710   5.269
10728SOL     OW33082   5.203   6.748   3.278
10728SOL    HW133083   5.248   6.721   3.363
10728SOL    HW233084   5.216   6.846   3.262
10729SOL     OW33085   6.585   1.706   2.816
10729SOL    HW133086   6.584   1.804   2.795
10729SOL    HW233087   6.572   1.654   2.731
10730SOL     OW33088   2.279   5.705   2.032
10730SOL    HW133089   2.284   5.788   1.977
10730SOL    HW233090   2.280   5.729   2.129
10731SOL     OW33091   3.033   5.419   0.326
10731SOL    HW133092   3.132   5.430   0.326
10731SOL    HW233093   2.999   5.414   0.232
10732SOL     OW33094   6.133   6.623   3.319
10732SOL    HW133095   6.060   6.568   3.279
10732SOL    HW233096   6.169   6.686   3.251
10733SOL     OW33097   5.954   1.717   0.217
10733SOL    HW133098   5.961   1.680   0.310
10733SOL    HW233099   5.859   1.743   0.199
10734SOL     OW33100   0.786   0.179   6.133
10734SOL    HW133101   0.750   0.086   6.124
10734SOL    HW233102   0.883   0.180   6.108
10735SOL     OW33103   0.818   5.692   2.531
10735SOL    HW133104   0.915   5.693   2.552
10735SOL    HW233105   0.775   5.612   2.574
10736SOL     OW33106   0.616   0.657   3.775
10736SOL    HW133107   0.676   0.588   3.815
10736SOL    HW233108   0.622   0.742   3.828
10737SOL     OW33109   0.660   2.325   1.146
10737SOL    HW133110   0.602   2.276   1.211
10737SOL    HW233111   0.611   2.406   1.113
10738SOL     OW33112   2.536   0.827   2.515
10738SOL    HW133113   2.594   0.816   2.596
10738SOL    HW233114   2.573   0.772   2.440
10739SOL     OW33115   5.955   1.654   2.143
10739SOL    HW133116   5.930   1.565   2.181
10739SOL    HW233117   6.053   1.655   2.122
10740SOL     OW33118   1.743   6.324   5.478
10740SOL    HW133119   1.684   6.404   5.487
10740SOL    HW233120   1.697   6.244   5.518
10741SOL     OW33121   1.785   2.517   3.816
10741SOL    HW133122   1.704   2.574   3.831
10741SOL    HW233123   1.867   2.567   3.845
10742SOL     OW33124   5.745   6.054   1.837
10742SOL    HW133125   5.762   5.994   1.760
10742SOL    HW233126   5.819   6.122   1.843
10743SOL     OW33127   3.812   1.269   4.914
10743SOL    HW133128   3.768   1.180   4.926
10743SOL    HW233129   3.890   1.276   4.976
10744SOL     OW33130   3.204   0.630   1.683
10744SOL    HW133131   3.144   0.582   1.747
10744SOL    HW233132   3.211   0.726   1.709
10745SOL     OW33133   2.858   5.027   0.804
10745SOL    HW133134   2.848   5.075   0.891
10745SOL    HW233135   2.774   5.038   0.750
10746SOL     OW33136   2.515   5.975   1.108
10746SOL    HW133137   2.519   5.922   1.023
10746SOL    HW233138   2.478   6.066   1.089
10747SOL     OW33139   5.627   1.974   3.951
10747SOL    HW133140   5.657   2.069   3.965
10747SOL    HW233141   5.689   1.929   3.887
10748SOL     OW33142   5.174   5.556   0.996
10748SOL    HW133143   5.169   5.549   1.096
10748SOL    HW233144   5.269   5.565   0.968
10749SOL     OW33145   5.948   4.658   3.378
10749SOL    HW133146   6.030   4.605   3.399
10749SOL    HW233147   5.867   4.610   3.413
10750SOL     OW33148   4.851   4.287   4.263
10750SOL    HW133149   4.794   4.369   4.269
10750SOL    HW233150   4.942   4.312   4.230
10751SOL     OW33151   1.038   3.405   4.921
10751SOL    HW133152   1.024   3.472   4.994
10751SOL    HW233153   1.122   3.427   4.871
10752SOL     OW33154   6.058   4.804   6.986
10752SOL    HW133155   6.135   4.745   6.962
10752SOL    HW233156   6.092   4.896   7.005
10753SOL     OW33157   4.421   0.056   4.300
10753SOL    HW133158   4.397   0.092   4.210
10753SOL    HW233159   4.405   0.126   4.369
10754SOL     OW33160   0.481   3.397   1.778
10754SOL    HW133161   0.383   3.378   1.765
10754SOL    HW233162   0.534   3.320   1.742
10755SOL     OW33163   0.035   1.801   1.329
10755SOL    HW133164   6.982   1.731   1.321
10755SOL    HW233165   0.125   1.761   1.313
10756SOL     OW33166   6.450   2.467   0.229
10756SOL    HW133167   6.512   2.540   0.254
10756SOL    HW233168   6.496   2.403   0.168
10757SOL     OW33169   0.238   4.045   0.718
10757SOL    HW133170   0.196   4.035   0.808
10757SOL    HW233171   0.187   4.111   0.664
10758SOL     OW33172   0.546   5.943   6.099
10758SOL    HW133173   0.477   5.924   6.169
10758SOL    HW233174   0.548   6.041   6.080
10759SOL     OW33175   1.631   2.932   6.010
10759SOL    HW133176   1.636   3.029   6.034
10759SOL    HW233177   1.543   2.914   5.965
10760SOL     OW33178   1.286   6.007   0.560
10760SOL    HW133179   1.282   6.054   0.648
10760SOL    HW233180   1.201   6.024   0.510
10761SOL     OW33181   0.798   2.484   6.356
10761SOL    HW133182   0.893   2.461   6.377
10761SOL    HW233183   0.772   2.567   6.406
10762SOL     OW33184   3.868   0.466   5.978
10762SOL    HW133185   3.819   0.404   5.916
10762SOL    HW233186   3.962   0.476   5.948
10763SOL     OW33187   5.172   0.507   2.610
10763SOL    HW133188   5.244   0.509   2.541
10763SOL    HW233189   5.120   0.593   2.606
10764SOL     OW33190   4.757   0.985   5.702
10764SOL    HW133191   4.819   1.014   5.630
10764SOL    HW233192   4.709   0.902   5.674
10765SOL     OW33193   5.554   1.480   2.462
10765SOL    HW133194   5.474   1.435   2.500
10765SOL    HW233195   5.630   1.416   2.459
10766SOL     OW33196   2.068   4.990   0.388
10766SOL    HW133197   2.126   4.970   0.309
10766SOL    HW233198   2.052   4.906   0.439
10767SOL     OW33199   1.878   6.274   0.584
10767SOL    HW133200   1.878   6.343   0.656
10767SOL    HW233201   1.786   6.268   0.544
10768SOL     OW33202   5.099   5.409   0.409
10768SOL    HW133203   5.131   5.469   0.336
10768SOL    HW233204   5.092   5.461   0.494
10769SOL     OW33205   2.882   4.398   5.344
10769SOL    HW133206   2.885   4.481   5.288
10769SOL    HW233207   2.905   4.319   5.287
10770SOL     OW33208   5.590   0.151   4.432
10770SOL    HW133209   5.516   0.179   4.494
10770SOL    HW233210   5.652   0.090   4.480
10771SOL     OW33211   4.196   0.230   5.259
10771SOL    HW133212   4.154   0.186   5.180
10771SOL    HW233213   4.284   0.185   5.279
10772SOL     OW33214   6.189   6.880   4.774
10772SOL    HW133215   6.273   6.934   4.769
10772SOL    HW233216   6.210   6.788   4.808
10773SOL     OW33217   6.647   4.217   6.843
10773SOL    HW133218   6.678   4.124   6.861
10773SOL    HW233219   6.707   4.281   6.892
10774SOL     OW33220   1.172   2.347   0.848
10774SOL    HW133221   1.073   2.352   0.836
10774SOL    HW233222   1.199   2.401   0.928
10775SOL     OW33223   1.721   4.404   1.748
10775SOL    HW133224   1.679   4.472   1.687
10775SOL    HW233225   1.744   4.447   1.835
10776SOL     OW33226   6.398   0.724   2.983
10776SOL    HW133227   6.459   0.803   2.983
10776SOL    HW233228   6.436   0.653   2.924
10777SOL     OW33229   3.543   0.627   3.813
10777SOL    HW133230   3.451   0.602   3.782
10777SOL    HW233231   3.569   0.570   3.891
10778SOL     OW33232   6.196   6.168   4.764
10778SOL    HW133233   6.141   6.141   4.685
10778SOL    HW233234   6.292   6.174   4.738
10779SOL     OW33235   5.827   4.806   2.775
10779SOL    HW133236   5.789   4.752   2.849
10779SOL    HW233237   5.850   4.746   2.698
10780SOL     OW33238   0.125   5.300   4.315
10780SOL    HW133239   0.124   5.363   4.392
10780SOL    HW233240   0.129   5.206   4.348
10781SOL     OW33241   5.932   0.794   4.649
10781SOL    HW133242   5.996   0.756   4.716
10781SOL    HW233243   5.943   0.746   4.562
10782SOL     OW33244   6.430   3.299   5.019
10782SOL    HW133245   6.508   3.269   5.074
10782SOL    HW233246   6.368   3.222   5.003
10783SOL     OW33247   1.855   2.897   2.632
10783SOL    HW133248   1.796   2.829   2.588
10783SOL    HW233249   1.868   2.873   2.728
10784SOL     OW33250   2.535   5.935   1.822
10784SOL    HW133251   2.487   5.852   1.793
10784SOL    HW233252   2.591   5.969   1.747
10785SOL     OW33253   1.653   5.209   1.874
10785SOL    HW133254   1.600   5.272   1.816
10785SOL    HW233255   1.695   5.138   1.817
10786SOL     OW33256   3.877   2.140   2.540
10786SOL    HW133257   3.859   2.142   2.442
10786SOL    HW233258   3.943   2.211   2.563
10787SOL     OW33259   3.161   1.357   4.258
10787SOL    HW133260   3.160   1.274   4.314
10787SOL    HW233261   3.188   1.435   4.315
10788SOL     OW33262   1.400   4.378   0.171
10788SOL    HW133263   1.347   4.373   0.086
10788SOL    HW233264   1.356   4.322   0.241
10789SOL     OW33265   6.328   0.874   0.277
10789SOL    HW133266   6.280   0.867   0.364
10789SOL    HW233267   6.268   0.841   0.204
10790SOL     OW33268   0.206   1.408   5.457
10790SOL    HW133269   0.111   1.430   5.436
10790SOL    HW233270   0.212   1.374   5.551
10791SOL     OW33271   1.761   1.459   2.035
10791SOL    HW133272   1.701   1.420   1.966
10791SOL    HW233273   1.757   1.404   2.119
10792SOL     OW33274   3.552   2.609   1.353
10792SOL    HW133275   3.508   2.649   1.434
10792SOL    HW233276   3.553   2.510   1.361
10793SOL     OW33277   5.154   1.875   4.552
10793SOL    HW133278   5.112   1.868   4.462
10793SOL    HW233279   5.140   1.789   4.602
10794SOL     OW33280   3.843   3.245   1.725
10794SOL    HW133281   3.922   3.266   1.782
10794SOL    HW233282   3.767   3.214   1.783
10795SOL     OW33283   6.925   4.048   2.869
10795SOL    HW133284   6.984   4.056   2.789
10795SOL    HW233285   6.906   4.139   2.906
10796SOL     OW33286   5.334   0.180   6.397
10796SOL    HW133287   5.410   0.173   6.331
10796SOL    HW233288   5.286   0.267   6.382
10797SOL     OW33289   3.634   2.959   6.975
10797SOL    HW133290   3.603   3.021   0.030
10797SOL    HW233291   3.577   2.876   6.976
10798SOL     OW33292   2.375   6.918   6.205
10798SOL    HW133293   2.285   6.905   6.248
10798SOL    HW233294   2.425   6.832   6.205
10799SOL     OW33295   2.936   2.159   2.573
10799SOL    HW133296   2.915   2.213   2.492
10799SOL    HW233297   2.991   2.080   2.548
10800SOL     OW33298   2.362   6.633   0.889
10800SOL    HW133299   2.397   6.564   0.953
10800SOL    HW233300   2.262   6.624   0.883
10801SOL     OW33301   2.157   6.388   5.257
10801SOL    HW133302   2.151   6.291   5.235
10801SOL    HW233303   2.240   6.406   5.309
10802SOL     OW33304   1.832   3.097   3.966
10802SOL    HW133305   1.852   3.014   4.017
10802SOL    HW233306   1.905   3.114   3.900
10803SOL     OW33307   5.152   4.370   5.569
10803SOL    HW133308   5.079   4.434   5.593
10803SOL    HW233309   5.241   4.410   5.591
10804SOL     OW33310   6.274   4.117   1.376
10804SOL    HW133311   6.231   4.026   1.378
10804SOL    HW233312   6.285   4.146   1.281
10805SOL     OW33313   3.797   6.785   6.973
10805SOL    HW133314   3.892   6.767   6.997
10805SOL    HW233315   3.737   6.743   0.023
10806SOL     OW33316   5.600   3.412   0.426
10806SOL    HW133317   5.640   3.345   0.363
10806SOL    HW233318   5.643   3.404   0.516
10807SOL     OW33319   3.368   6.305   3.729
10807SOL    HW133320   3.437   6.336   3.794
10807SOL    HW233321   3.292   6.370   3.727
10808SOL     OW33322   0.921   4.069   6.814
10808SOL    HW133323   0.989   4.047   6.744
10808SOL    HW233324   0.843   4.007   6.806
10809SOL     OW33325   2.846   1.458   4.203
10809SOL    HW133326   2.831   1.499   4.294
10809SOL    HW233327   2.939   1.424   4.197
10810SOL     OW33328   0.694   1.076   5.886
10810SOL    HW133329   0.609   1.030   5.912
10810SOL    HW233330   0.735   1.118   5.968
10811SOL     OW33331   3.893   4.732   5.657
10811SOL    HW133332   3.827   4.666   5.694
10811SOL    HW233333   3.846   4.791   5.591
10812SOL     OW33334   6.899   2.434   2.531
10812SOL    HW133335   6.828   2.371   2.562
10812SOL    HW233336   6.982   2.422   2.586
10813SOL     OW33337   2.560   6.075   1.579
10813SOL    HW133338   2.511   6.161   1.565
10813SOL    HW233339   2.655   6.094   1.602
10814SOL     OW33340   1.818   6.980   5.340
10814SOL    HW133341   1.913   6.956   5.362
10814SOL    HW233342   1.792   6.939   5.253
10815SOL     OW33343   4.881   4.036   3.020
10815SOL    HW133344   4.960   4.054   2.962
10815SOL    HW233345   4.806   4.098   2.995
10816SOL     OW33346   1.719   1.056   2.313
10816SOL    HW133347   1.811   1.034   2.347
10816SOL    HW233348   1.727   1.125   2.241
10817SOL     OW33349   5.480   0.098   2.923
10817SOL    HW133350   5.479   0.048   2.836
10817SOL    HW233351   5.478   0.196   2.905
10818SOL     OW33352   5.607   2.834   6.448
10818SOL    HW133353   5.656   2.866   6.529
10818SOL    HW233354   5.647   2.748   6.416
10819SOL     OW33355   0.359   4.075   6.318
10819SOL    HW133356   0.389   4.018   6.241
10819SOL    HW233357   0.310   4.155   6.283
10820SOL     OW33358   0.422   6.995   3.731
10820SOL    HW133359   0.331   6.954   3.725
10820SOL    HW233360   0.436   0.014   3.823
10821SOL     OW33361   6.943   6.504   1.604
10821SOL    HW133362   6.851   6.523   1.567
10821SOL    HW233363   6.958   6.559   1.685
10822SOL     OW33364   1.341   3.305   2.377
10822SOL    HW133365   1.437   3.292   2.404
10822SOL    HW233366   1.282   3.286   2.455
10823SOL     OW33367   2.639   5.470   1.753
10823SOL    HW133368   2.693   5.548   1.786
10823SOL    HW233369   2.630   5.475   1.654
10824SOL     OW33370   5.175   0.115   3.553
10824SOL    HW133371   5.235   0.194   3.564
10824SOL    HW233372   5.090   0.130   3.605
10825SOL     OW33373   2.664   1.524   1.328
10825SOL    HW133374   2.582   1.581   1.322
10825SOL    HW233375   2.745   1.582   1.316
10826SOL     OW33376   6.989   3.897   2.171
10826SOL    HW133377   0.049   3.852   2.217
10826SOL    HW233378   6.944   3.960   2.234
10827SOL     OW33379   6.084   3.815   4.123
10827SOL    HW133380   6.148   3.782   4.192
10827SOL    HW233381   5.993   3.826   4.164
10828SOL     OW33382   1.108   5.784   1.193
10828SOL    HW133383   1.140   5.754   1.103
10828SOL    HW233384   1.171   5.753   1.263
10829SOL     OW33385   2.708   3.611   1.470
10829SOL    HW133386   2.664   3.558   1.543
10829SOL    HW233387   2.638   3.646   1.408
10830SOL     OW33388   6.022   3.121   4.429
10830SOL    HW133389   6.006   3.023   4.428
10830SOL    HW233390   6.008   3.157   4.521
10831SOL     OW33391   5.025   0.736   2.655
10831SOL    HW133392   5.028   0.690   2.744
10831SOL    HW233393   4.939   0.786   2.647
10832SOL     OW33394   0.871   2.343   0.760
10832SOL    HW133395   0.852   2.428   0.711
10832SOL    HW233396   0.882   2.268   0.694
10833SOL     OW33397   2.434   0.794   3.934
10833SOL    HW133398   2.341   0.770   3.961
10833SOL    HW233399   2.442   0.789   3.835
10834SOL     OW33400   0.187   1.321   4.876
10834SOL    HW133401   0.106   1.289   4.926
10834SOL    HW233402   0.186   1.421   4.872
10835SOL     OW33403   6.803   1.711   2.286
10835SOL    HW133404   6.844   1.640   2.343
10835SOL    HW233405   6.868   1.787   2.276
10836SOL     OW33406   0.500   1.095   5.211
10836SOL    HW133407   0.556   1.109   5.129
10836SOL    HW233408   0.512   1.001   5.244
10837SOL     OW33409   6.805   4.577   0.304
10837SOL    HW133410   6.820   4.590   0.402
10837SOL    HW233411   6.733   4.639   0.273
10838SOL     OW33412   5.610   0.570   6.219
10838SOL    HW133413   5.697   0.605   6.256
10838SOL    HW233414   5.627   0.484   6.171
10839SOL     OW33415   2.676   2.050   0.245
10839SOL    HW133416   2.587   2.066   0.288
10839SOL    HW233417   2.670   2.066   0.147
10840SOL     OW33418   3.231   6.224   1.329
10840SOL    HW133419   3.212   6.162   1.252
10840SOL    HW233420   3.261   6.171   1.408
10841SOL     OW33421   3.629   5.913   5.580
10841SOL    HW133422   3.561   5.960   5.522
10841SOL    HW233423   3.583   5.844   5.636
10842SOL     OW33424   6.743   3.089   1.150
10842SOL    HW133425   6.836   3.055   1.136
10842SOL    HW233426   6.683   3.013   1.175
10843SOL     OW33427   1.045   1.629   2.091
10843SOL    HW133428   1.001   1.698   2.149
10843SOL    HW233429   1.094   1.674   2.016
10844SOL     OW33430   6.512   6.079   4.637
10844SOL    HW133431   6.493   5.996   4.689
10844SOL    HW233432   6.513   6.058   4.539
10845SOL     OW33433   1.061   1.337   1.955
10845SOL    HW133434   0.985   1.330   2.019
10845SOL    HW233435   1.147   1.336   2.005
10846SOL     OW33436   4.778   2.108   0.941
10846SOL    HW133437   4.739   2.118   1.032
10846SOL    HW233438   4.761   2.191   0.888
10847SOL     OW33439   2.705   1.497   5.623
10847SOL    HW133440   2.754   1.539   5.547
10847SOL    HW233441   2.650   1.421   5.590
10848SOL     OW33442   2.859   1.398   0.311
10848SOL    HW133443   2.882   1.385   0.215
10848SOL    HW233444   2.860   1.496   0.333
10849SOL     OW33445   2.851   4.744   3.755
10849SOL    HW133446   2.852   4.744   3.655
10849SOL    HW233447   2.930   4.693   3.789
10850SOL     OW33448   3.954   6.415   6.922
10850SOL    HW133449   3.880   6.355   6.891
10850SOL    HW233450   3.944   6.434   0.002
10851SOL     OW33451   2.809   3.018   6.349
10851SOL    HW133452   2.750   3.080   6.297
10851SOL    HW233453   2.849   2.951   6.286
10852SOL     OW33454   0.391   1.015   5.854
10852SOL    HW133455   0.415   1.025   5.758
10852SOL    HW233456   0.292   1.010   5.864
10853SOL     OW33457   3.016   1.848   4.253
10853SOL    HW133458   3.062   1.801   4.178
10853SOL    HW233459   3.026   1.947   4.243
10854SOL     OW33460   5.590   0.294   6.987
10854SOL    HW133461   5.631   0.384   6.972
10854SOL    HW233462   5.491   0.300   6.977
10855SOL     OW33463   2.568   6.210   2.761
10855SOL    HW133464   2.544   6.115   2.779
10855SOL    HW233465   2.650   6.214   2.703
10856SOL     OW33466   6.123   6.622   0.576
10856SOL    HW133467   6.215   6.661   0.567
10856SOL    HW233468   6.110   6.592   0.671
10857SOL     OW33469   6.381   2.323   3.300
10857SOL    HW133470   6.429   2.347   3.215
10857SOL    HW233471   6.447   2.320   3.375
10858SOL     OW33472   1.593   4.004   0.370
10858SOL    HW133473   1.637   3.956   0.445
10858SOL    HW233474   1.629   3.971   0.283
10859SOL     OW33475   1.254   3.789   3.364
10859SOL    HW133476   1.230   3.822   3.272
10859SOL    HW233477   1.250   3.865   3.429
10860SOL     OW33478   6.669   1.172   0.587
10860SOL    HW133479   6.675   1.209   0.494
10860SOL    HW233480   6.621   1.237   0.646
10861SOL     OW33481   3.564   2.749   1.779
10861SOL    HW133482   3.507   2.781   1.854
10861SOL    HW233483   3.634   2.818   1.759
10862SOL     OW33484   2.657   2.329   5.906
10862SOL    HW133485   2.731   2.281   5.859
10862SOL    HW233486   2.627   2.406   5.851
10863SOL     OW33487   2.736   6.951   2.955
10863SOL    HW133488   2.715   0.019   2.907
10863SOL    HW233489   2.716   6.873   2.895
10864SOL     OW33490   2.859   4.462   1.347
10864SOL    HW133491   2.818   4.521   1.417
10864SOL    HW233492   2.958   4.467   1.353
10865SOL     OW33493   5.294   2.966   3.669
10865SOL    HW133494   5.314   2.986   3.765
10865SOL    HW233495   5.235   3.038   3.632
10866SOL     OW33496   6.622   3.020   0.863
10866SOL    HW133497   6.621   3.067   0.951
10866SOL    HW233498   6.717   3.006   0.833
10867SOL     OW33499   2.720   2.954   0.389
10867SOL    HW133500   2.637   2.912   0.353
10867SOL    HW233501   2.730   2.932   0.486
10868SOL     OW33502   0.705   2.121   3.360
10868SOL    HW133503   0.684   2.050   3.292
10868SOL    HW233504   0.724   2.207   3.313
10869NA      NA33505   0.633   1.654   5.930
10870NA      NA33506   4.562   4.476   5.096
10871NA      NA33507   1.966   5.010   2.699
10872NA      NA33508   5.109   4.143   3.711
10873NA      NA33509   4.274   2.540   5.354
10874NA      NA33510   3.027   4.920   1.228
10875NA      NA33511   1.361   5.201   0.364
10876NA      NA33512   3.747   4.367   1.472
10877NA      NA33513   4.636   3.854   0.585
10878NA      NA33514   3.678   1.415   5.828
10879NA      NA33515   5.021   5.995   2.229
10880NA      NA33516   1.687   0.392   5.497
10881NA      NA33517   4.976   4.859   1.588
10882NA      NA33518   3.114   3.616   0.148
   7.01695   7.01695   7.01695
