Generated by trjconv : CNT in water t= 281.00000
33518
    1C        C    1   2.847   2.773   4.744
    1C        C    2   2.898   2.718   4.864
    1C        C    3   2.841   2.768   4.982
    1C        C    4   2.852   2.778   4.260
    1C        C    5   2.906   2.730   4.382
    1C        C    6   2.848   2.772   4.503
    1C        C    7   3.017   2.642   4.624
    1C        C    8   2.900   2.720   4.624
    1C        C    9   3.080   2.606   4.746
    1C        C   10   3.012   2.635   4.866
    1C        C   11   3.175   2.486   4.972
    1C        C   12   3.056   2.560   4.975
    1C        C   13   2.852   2.769   3.770
    1C        C   14   2.902   2.720   3.893
    1C        C   15   2.851   2.772   4.014
    1C        C   16   3.016   2.645   4.136
    1C        C   17   2.902   2.729   4.138
    1C        C   18   3.079   2.611   4.258
    1C        C   19   3.021   2.648   4.382
    1C        C   20   3.206   2.544   4.501
    1C        C   21   3.078   2.603   4.503
    1C        C   22   3.274   2.519   4.623
    1C        C   23   3.207   2.543   4.744
    1C        C   24   3.411   2.481   4.865
    1C        C   25   3.269   2.498   4.864
    1C        C   26   3.485   2.475   4.983
    1C        C   27   2.851   2.768   3.279
    1C        C   28   2.907   2.724   3.401
    1C        C   29   2.856   2.775   3.523
    1C        C   30   3.015   2.638   3.650
    1C        C   31   2.903   2.724   3.646
    1C        C   32   3.078   2.601   3.771
    1C        C   33   3.019   2.640   3.893
    1C        C   34   3.209   2.550   4.015
    1C        C   35   3.079   2.606   4.016
    1C        C   36   3.277   2.530   4.136
    1C        C   37   3.207   2.553   4.257
    1C        C   38   3.412   2.493   4.380
    1C        C   39   3.276   2.531   4.379
    1C        C   40   3.485   2.488   4.500
    1C        C   41   3.413   2.494   4.622
    1C        C   42   3.627   2.477   4.742
    1C        C   43   3.485   2.483   4.743
    1C        C   44   3.702   2.477   4.862
    1C        C   45   3.624   2.475   4.978
    1C        C   46   2.835   2.750   2.793
    1C        C   47   2.893   2.711   2.916
    1C        C   48   2.842   2.763   3.037
    1C        C   49   3.017   2.638   3.159
    1C        C   50   2.901   2.717   3.157
    1C        C   51   3.082   2.610   3.282
    1C        C   52   3.023   2.643   3.406
    1C        C   53   3.210   2.548   3.529
    1C        C   54   3.080   2.603   3.529
    1C        C   55   3.275   2.523   3.652
    1C        C   56   3.205   2.540   3.774
    1C        C   57   3.415   2.497   3.894
    1C        C   58   3.276   2.520   3.894
    1C        C   59   3.487   2.496   4.016
    1C        C   60   3.416   2.503   4.138
    1C        C   61   3.627   2.492   4.258
    1C        C   62   3.486   2.490   4.260
    1C        C   63   3.696   2.509   4.380
    1C        C   64   3.626   2.501   4.502
    1C        C   65   3.833   2.542   4.620
    1C        C   66   3.698   2.501   4.623
    1C        C   67   3.898   2.570   4.743
    1C        C   68   3.835   2.524   4.860
    1C        C   69   4.047   2.586   4.976
    1C        C   70   3.921   2.524   4.971
    1C        C   71   2.826   2.734   2.308
    1C        C   72   2.883   2.690   2.430
    1C        C   73   2.833   2.746   2.550
    1C        C   74   3.011   2.630   2.670
    1C        C   75   2.891   2.704   2.672
    1C        C   76   3.071   2.596   2.794
    1C        C   77   3.012   2.634   2.916
    1C        C   78   3.205   2.540   3.037
    1C        C   79   3.078   2.601   3.036
    1C        C   80   3.273   2.523   3.160
    1C        C   81   3.210   2.550   3.283
    1C        C   82   3.414   2.499   3.402
    1C        C   83   3.275   2.524   3.406
    1C        C   84   3.481   2.491   3.525
    1C        C   85   3.414   2.498   3.649
    1C        C   86   3.626   2.495   3.769
    1C        C   87   3.485   2.491   3.771
    1C        C   88   3.698   2.508   3.890
    1C        C   89   3.628   2.504   4.013
    1C        C   90   3.832   2.547   4.136
    1C        C   91   3.697   2.508   4.136
    1C        C   92   3.902   2.571   4.257
    1C        C   93   3.831   2.551   4.378
    1C        C   94   4.026   2.633   4.496
    1C        C   95   3.901   2.569   4.499
    1C        C   96   4.087   2.672   4.618
    1C        C   97   4.025   2.634   4.739
    1C        C   98   4.191   2.763   4.862
    1C        C   99   4.093   2.658   4.861
    1C        C  100   4.209   2.847   4.972
    1C        C  101   2.822   2.727   2.068
    1C        C  102   2.989   2.590   2.188
    1C        C  103   2.876   2.678   2.187
    1C        C  104   3.062   2.571   2.308
    1C        C  105   3.000   2.611   2.429
    1C        C  106   3.198   2.529   2.549
    1C        C  107   3.068   2.584   2.550
    1C        C  108   3.269   2.517   2.670
    1C        C  109   3.201   2.540   2.791
    1C        C  110   3.408   2.492   2.912
    1C        C  111   3.269   2.517   2.913
    1C        C  112   3.480   2.490   3.034
    1C        C  113   3.413   2.499   3.157
    1C        C  114   3.625   2.494   3.279
    1C        C  115   3.484   2.491   3.279
    1C        C  116   3.695   2.503   3.402
    1C        C  117   3.623   2.495   3.523
    1C        C  118   3.828   2.543   3.644
    1C        C  119   3.693   2.502   3.645
    1C        C  120   3.895   2.573   3.765
    1C        C  121   3.833   2.551   3.889
    1C        C  122   4.019   2.645   4.010
    1C        C  123   3.895   2.578   4.013
    1C        C  124   4.083   2.677   4.132
    1C        C  125   4.025   2.639   4.255
    1C        C  126   4.193   2.770   4.374
    1C        C  127   4.083   2.682   4.376
    1C        C  128   4.241   2.818   4.497
    1C        C  129   4.191   2.769   4.620
    1C        C  130   4.326   2.933   4.739
    1C        C  131   4.243   2.817   4.741
    1C        C  132   4.359   3.003   4.857
    1C        C  133   4.291   2.959   4.972
    1C        C  134   3.170   2.462   2.079
    1C        C  135   3.038   2.509   2.080
    1C        C  136   3.259   2.477   2.186
    1C        C  137   3.196   2.522   2.304
    1C        C  138   3.404   2.484   2.427
    1C        C  139   3.264   2.503   2.427
    1C        C  140   3.480   2.483   2.546
    1C        C  141   3.409   2.492   2.668
    1C        C  142   3.618   2.492   2.789
    1C        C  143   3.477   2.480   2.790
    1C        C  144   3.690   2.503   2.911
    1C        C  145   3.621   2.497   3.034
    1C        C  146   3.830   2.536   3.154
    1C        C  147   3.693   2.503   3.156
    1C        C  148   3.896   2.564   3.276
    1C        C  149   3.830   2.544   3.399
    1C        C  150   4.022   2.631   3.521
    1C        C  151   3.895   2.569   3.522
    1C        C  152   4.080   2.675   3.642
    1C        C  153   4.017   2.644   3.765
    1C        C  154   4.188   2.770   3.884
    1C        C  155   4.072   2.689   3.887
    1C        C  156   4.240   2.819   4.006
    1C        C  157   4.191   2.769   4.128
    1C        C  158   4.334   2.926   4.251
    1C        C  159   4.244   2.817   4.250
    1C        C  160   4.366   2.987   4.374
    1C        C  161   4.326   2.932   4.498
    1C        C  162   4.436   3.116   4.616
    1C        C  163   4.371   2.991   4.618
    1C        C  164   4.466   3.184   4.736
    1C        C  165   4.435   3.122   4.858
    1C        C  166   4.512   3.318   4.970
    1C        C  167   4.480   3.183   4.975
    1C        C  168   3.472   2.431   2.068
    1C        C  169   3.399   2.459   2.184
    1C        C  170   3.615   2.473   2.304
    1C        C  171   3.473   2.469   2.304
    1C        C  172   3.690   2.491   2.422
    1C        C  173   3.621   2.489   2.545
    1C        C  174   3.826   2.536   2.663
    1C        C  175   3.690   2.499   2.668
    1C        C  176   3.892   2.561   2.785
    1C        C  177   3.828   2.534   2.908
    1C        C  178   4.021   2.622   3.030
    1C        C  179   3.895   2.558   3.030
    1C        C  180   4.084   2.660   3.150
    1C        C  181   4.025   2.622   3.273
    1C        C  182   4.188   2.754   3.397
    1C        C  183   4.082   2.660   3.397
    1C        C  184   4.240   2.809   3.516
    1C        C  185   4.187   2.767   3.640
    1C        C  186   4.337   2.919   3.761
    1C        C  187   4.241   2.815   3.762
    1C        C  188   4.382   2.976   3.882
    1C        C  189   4.336   2.923   4.005
    1C        C  190   4.443   3.105   4.127
    1C        C  191   4.375   2.981   4.128
    1C        C  192   4.466   3.173   4.249
    1C        C  193   4.434   3.111   4.372
    1C        C  194   4.509   3.311   4.487
    1C        C  195   4.468   3.176   4.492
    1C        C  196   4.527   3.383   4.607
    1C        C  197   4.509   3.320   4.733
    1C        C  198   4.555   3.535   4.848
    1C        C  199   4.526   3.394   4.853
    1C        C  200   4.582   3.618   4.961
    1C        C  201   3.610   2.411   2.078
    1C        C  202   3.826   2.510   2.180
    1C        C  203   3.691   2.463   2.184
    1C        C  204   3.899   2.533   2.300
    1C        C  205   3.827   2.526   2.421
    1C        C  206   4.022   2.616   2.541
    1C        C  207   3.896   2.553   2.542
    1C        C  208   4.083   2.654   2.663
    1C        C  209   4.019   2.624   2.785
    1C        C  210   4.189   2.751   2.905
    1C        C  211   4.077   2.664   2.907
    1C        C  212   4.244   2.794   3.028
    1C        C  213   4.194   2.748   3.151
    1C        C  214   4.333   2.907   3.270
    1C        C  215   4.241   2.800   3.274
    1C        C  216   4.376   2.966   3.391
    1C        C  217   4.336   2.913   3.515
    1C        C  218   4.439   3.100   3.638
    1C        C  219   4.377   2.973   3.637
    1C        C  220   4.470   3.169   3.757
    1C        C  221   4.447   3.101   3.880
    1C        C  222   4.503   3.304   4.002
    1C        C  223   4.468   3.167   4.003
    1C        C  224   4.517   3.378   4.122
    1C        C  225   4.509   3.307   4.244
    1C        C  226   4.516   3.521   4.365
    1C        C  227   4.520   3.380   4.365
    1C        C  228   4.519   3.595   4.485
    1C        C  229   4.532   3.525   4.606
    1C        C  230   4.506   3.741   4.723
    1C        C  231   4.535   3.602   4.725
    1C        C  232   4.500   3.820   4.840
    1C        C  233   4.542   3.752   4.955
    1C        C  234   4.011   2.611   2.061
    1C        C  235   3.887   2.546   2.060
    1C        C  236   4.082   2.645   2.177
    1C        C  237   4.021   2.606   2.299
    1C        C  238   4.199   2.732   2.417
    1C        C  239   4.082   2.651   2.418
    1C        C  240   4.248   2.784   2.539
    1C        C  241   4.193   2.743   2.662
    1C        C  242   4.334   2.904   2.782
    1C        C  243   4.244   2.795   2.783
    1C        C  244   4.374   2.961   2.904
    1C        C  245   4.332   2.905   3.027
    1C        C  246   4.439   3.091   3.148
    1C        C  247   4.376   2.964   3.148
    1C        C  248   4.461   3.158   3.270
    1C        C  249   4.436   3.094   3.393
    1C        C  250   4.500   3.298   3.511
    1C        C  251   4.462   3.162   3.514
    1C        C  252   4.511   3.371   3.631
    1C        C  253   4.504   3.306   3.757
    1C        C  254   4.527   3.514   3.875
    1C        C  255   4.519   3.373   3.880
    1C        C  256   4.519   3.587   3.996
    1C        C  257   4.522   3.519   4.120
    1C        C  258   4.494   3.730   4.239
    1C        C  259   4.516   3.590   4.241
    1C        C  260   4.470   3.799   4.359
    1C        C  261   4.483   3.732   4.483
    1C        C  262   4.419   3.937   4.602
    1C        C  263   4.475   3.807   4.602
    1C        C  264   4.400   4.009   4.721
    1C        C  265   4.434   3.945   4.843
    1C        C  266   4.321   4.133   4.959
    1C        C  267   4.395   4.016   4.957
    1C        C  268   4.255   2.779   2.062
    1C        C  269   4.192   2.732   2.178
    1C        C  270   4.346   2.889   2.296
    1C        C  271   4.251   2.783   2.296
    1C        C  272   4.384   2.950   2.417
    1C        C  273   4.341   2.891   2.538
    1C        C  274   4.448   3.079   2.658
    1C        C  275   4.373   2.959   2.658
    1C        C  276   4.477   3.145   2.779
    1C        C  277   4.445   3.084   2.902
    1C        C  278   4.500   3.290   3.019
    1C        C  279   4.469   3.152   3.024
    1C        C  280   4.510   3.360   3.141
    1C        C  281   4.498   3.295   3.266
    1C        C  282   4.514   3.507   3.387
    1C        C  283   4.514   3.366   3.387
    1C        C  284   4.513   3.580   3.508
    1C        C  285   4.516   3.512   3.632
    1C        C  286   4.490   3.723   3.752
    1C        C  287   4.521   3.585   3.753
    1C        C  288   4.471   3.792   3.874
    1C        C  289   4.492   3.726   3.996
    1C        C  290   4.421   3.929   4.113
    1C        C  291   4.474   3.798   4.116
    1C        C  292   4.388   3.993   4.235
    1C        C  293   4.421   3.932   4.358
    1C        C  294   4.318   4.121   4.479
    1C        C  295   4.387   3.998   4.478
    1C        C  296   4.281   4.186   4.599
    1C        C  297   4.325   4.130   4.721
    1C        C  298   4.199   4.311   4.838
    1C        C  299   4.287   4.198   4.840
    1C        C  300   4.167   4.397   4.948
    1C        C  301   4.351   2.879   2.059
    1C        C  302   4.471   3.065   2.174
    1C        C  303   4.400   2.941   2.175
    1C        C  304   4.485   3.139   2.294
    1C        C  305   4.449   3.076   2.416
    1C        C  306   4.505   3.283   2.532
    1C        C  307   4.473   3.145   2.536
    1C        C  308   4.515   3.354   2.653
    1C        C  309   4.505   3.284   2.775
    1C        C  310   4.529   3.497   2.896
    1C        C  311   4.513   3.356   2.896
    1C        C  312   4.524   3.569   3.018
    1C        C  313   4.516   3.501   3.142
    1C        C  314   4.492   3.714   3.259
    1C        C  315   4.513   3.574   3.263
    1C        C  316   4.468   3.782   3.381
    1C        C  317   4.488   3.719   3.506
    1C        C  318   4.422   3.920   3.624
    1C        C  319   4.472   3.788   3.628
    1C        C  320   4.391   3.985   3.745
    1C        C  321   4.426   3.926   3.869
    1C        C  322   4.314   4.109   3.989
    1C        C  323   4.392   3.992   3.990
    1C        C  324   4.271   4.167   4.111
    1C        C  325   4.312   4.112   4.235
    1C        C  326   4.182   4.281   4.352
    1C        C  327   4.276   4.175   4.356
    1C        C  328   4.133   4.335   4.472
    1C        C  329   4.188   4.292   4.595
    1C        C  330   4.020   4.427   4.714
    1C        C  331   4.136   4.344   4.715
    1C        C  332   3.968   4.486   4.831
    1C        C  333   4.053   4.478   4.942
    1C        C  334   4.543   3.268   2.057
    1C        C  335   4.527   3.129   2.058
    1C        C  336   4.531   3.349   2.171
    1C        C  337   4.513   3.279   2.292
    1C        C  338   4.528   3.495   2.410
    1C        C  339   4.528   3.353   2.411
    1C        C  340   4.520   3.568   2.531
    1C        C  341   4.523   3.495   2.652
    1C        C  342   4.488   3.705   2.773
    1C        C  343   4.519   3.567   2.774
    1C        C  344   4.475   3.775   2.895
    1C        C  345   4.494   3.707   3.016
    1C        C  346   4.418   3.910   3.135
    1C        C  347   4.470   3.779   3.136
    1C        C  348   4.385   3.976   3.256
    1C        C  349   4.416   3.913   3.379
    1C        C  350   4.317   4.102   3.501
    1C        C  351   4.391   3.981   3.500
    1C        C  352   4.272   4.159   3.621
    1C        C  353   4.315   4.104   3.744
    1C        C  354   4.166   4.257   3.866
    1C        C  355   4.267   4.158   3.865
    1C        C  356   4.118   4.312   3.986
    1C        C  357   4.169   4.264   4.109
    1C        C  358   4.007   4.402   4.229
    1C        C  359   4.122   4.320   4.230
    1C        C  360   3.951   4.448   4.350
    1C        C  361   4.017   4.416   4.471
    1C        C  362   3.824   4.506   4.591
    1C        C  363   3.958   4.460   4.591
    1C        C  364   3.762   4.543   4.712
    1C        C  365   3.837   4.539   4.831
    1C        C  366   3.626   4.587   4.947
    1C        C  367   3.764   4.572   4.946
    1C        C  368   4.505   3.561   2.052
    1C        C  369   4.528   3.490   2.170
    1C        C  370   4.505   3.706   2.288
    1C        C  371   4.523   3.566   2.289
    1C        C  372   4.487   3.778   2.408
    1C        C  373   4.501   3.708   2.529
    1C        C  374   4.424   3.907   2.647
    1C        C  375   4.471   3.774   2.650
    1C        C  376   4.392   3.971   2.769
    1C        C  377   4.428   3.909   2.890
    1C        C  378   4.313   4.090   3.011
    1C        C  379   4.392   3.973   3.011
    1C        C  380   4.266   4.145   3.133
    1C        C  381   4.312   4.097   3.257
    1C        C  382   4.175   4.259   3.374
    1C        C  383   4.275   4.159   3.379
    1C        C  384   4.118   4.303   3.496
    1C        C  385   4.170   4.257   3.619
    1C        C  386   4.008   4.393   3.741
    1C        C  387   4.118   4.305   3.742
    1C        C  388   3.943   4.431   3.861
    1C        C  389   4.005   4.397   3.983
    1C        C  390   3.818   4.494   4.104
    1C        C  391   3.946   4.436   4.106
    1C        C  392   3.750   4.518   4.226
    1C        C  393   3.820   4.501   4.347
    1C        C  394   3.616   4.555   4.470
    1C        C  395   3.754   4.526   4.470
    1C        C  396   3.546   4.562   4.592
    1C        C  397   3.622   4.564   4.711
    1C        C  398   3.410   4.547   4.837
    1C        C  399   3.549   4.575   4.831
    1C        C  400   3.343   4.516   4.956
    1C        C  401   4.499   3.700   2.051
    1C        C  402   4.453   3.914   2.165
    1C        C  403   4.492   3.779   2.167
    1C        C  404   4.408   3.975   2.284
    1C        C  405   4.430   3.908   2.407
    1C        C  406   4.320   4.093   2.525
    1C        C  407   4.399   3.976   2.527
    1C        C  408   4.272   4.146   2.647
    1C        C  409   4.310   4.087   2.769
    1C        C  410   4.165   4.244   2.886
    1C        C  411   4.266   4.145   2.890
    1C        C  412   4.116   4.294   3.008
    1C        C  413   4.167   4.246   3.131
    1C        C  414   4.001   4.381   3.250
    1C        C  415   4.116   4.298   3.252
    1C        C  416   3.942   4.414   3.374
    1C        C  417   4.003   4.384   3.498
    1C        C  418   3.815   4.484   3.615
    1C        C  419   3.943   4.423   3.619
    1C        C  420   3.745   4.508   3.735
    1C        C  421   3.813   4.486   3.858
    1C        C  422   3.611   4.539   3.985
    1C        C  423   3.749   4.512   3.981
    1C        C  424   3.540   4.547   4.107
    1C        C  425   3.611   4.539   4.229
    1C        C  426   3.400   4.546   4.356
    1C        C  427   3.541   4.553   4.351
    1C        C  428   3.329   4.547   4.478
    1C        C  429   3.405   4.551   4.598
    1C        C  430   3.193   4.517   4.723
    1C        C  431   3.333   4.542   4.719
    1C        C  432   3.124   4.495   4.845
    1C        C  433   3.206   4.495   4.960
    1C        C  434   4.380   4.119   2.049
    1C        C  435   4.439   3.992   2.049
    1C        C  436   4.293   4.153   2.158
    1C        C  437   4.325   4.091   2.281
    1C        C  438   4.179   4.247   2.400
    1C        C  439   4.281   4.149   2.402
    1C        C  440   4.119   4.293   2.519
    1C        C  441   4.171   4.245   2.641
    1C        C  442   4.002   4.375   2.759
    1C        C  443   4.115   4.290   2.762
    1C        C  444   3.942   4.413   2.882
    1C        C  445   4.000   4.375   3.005
    1C        C  446   3.810   4.467   3.129
    1C        C  447   3.940   4.413   3.127
    1C        C  448   3.743   4.488   3.251
    1C        C  449   3.812   4.470   3.373
    1C        C  450   3.605   4.525   3.492
    1C        C  451   3.744   4.500   3.494
    1C        C  452   3.538   4.539   3.616
    1C        C  453   3.607   4.537   3.739
    1C        C  454   3.398   4.535   3.864
    1C        C  455   3.539   4.541   3.863
    1C        C  456   3.331   4.526   3.987
    1C        C  457   3.399   4.543   4.110
    1C        C  458   3.193   4.504   4.235
    1C        C  459   3.331   4.536   4.233
    1C        C  460   3.126   4.484   4.358
    1C        C  461   3.191   4.518   4.479
    1C        C  462   2.999   4.429   4.601
    1C        C  463   3.127   4.489   4.601
    1C        C  464   2.932   4.398   4.721
    1C        C  465   2.991   4.444   4.843
    1C        C  466   2.805   4.333   4.957
    1C        C  467   2.911   4.424   4.960
    1C        C  468   4.113   4.275   2.039
    1C        C  469   4.182   4.242   2.157
    1C        C  470   4.008   4.374   2.275
    1C        C  471   4.126   4.293   2.278
    1C        C  472   3.942   4.409   2.395
    1C        C  473   4.005   4.376   2.518
    1C        C  474   3.807   4.463   2.639
    1C        C  475   3.937   4.407   2.638
    1C        C  476   3.742   4.488   2.761
    1C        C  477   3.812   4.469   2.882
    1C        C  478   3.605   4.510   3.005
    1C        C  479   3.745   4.488   3.005
    1C        C  480   3.534   4.524   3.127
    1C        C  481   3.605   4.518   3.248
    1C        C  482   3.395   4.544   3.373
    1C        C  483   3.536   4.540   3.370
    1C        C  484   3.326   4.531   3.496
    1C        C  485   3.397   4.542   3.618
    1C        C  486   3.191   4.497   3.743
    1C        C  487   3.328   4.531   3.741
    1C        C  488   3.127   4.477   3.867
    1C        C  489   3.193   4.493   3.991
    1C        C  490   3.002   4.410   4.114
    1C        C  491   3.125   4.481   4.114
    1C        C  492   2.943   4.375   4.238
    1C        C  493   3.002   4.416   4.359
    1C        C  494   2.828   4.296   4.482
    1C        C  495   2.939   4.383   4.481
    1C        C  496   2.772   4.255   4.605
    1C        C  497   2.820   4.312   4.725
    1C        C  498   2.659   4.167   4.843
    1C        C  499   2.751   4.275   4.842
    1C        C  500   2.595   4.115   4.956
    1C        C  501   3.999   4.353   2.038
    1C        C  502   3.813   4.462   2.151
    1C        C  503   3.943   4.407   2.155
    1C        C  504   3.742   4.480   2.272
    1C        C  505   3.811   4.460   2.393
    1C        C  506   3.603   4.506   2.518
    1C        C  507   3.742   4.484   2.515
    1C        C  508   3.531   4.516   2.639
    1C        C  509   3.603   4.513   2.761
    1C        C  510   3.393   4.523   2.883
    1C        C  511   3.535   4.523   2.884
    1C        C  512   3.323   4.522   3.006
    1C        C  513   3.394   4.542   3.127
    1C        C  514   3.190   4.495   3.253
    1C        C  515   3.326   4.535   3.251
    1C        C  516   3.122   4.470   3.374
    1C        C  517   3.188   4.498   3.496
    1C        C  518   3.002   4.407   3.623
    1C        C  519   3.126   4.473   3.620
    1C        C  520   2.944   4.369   3.746
    1C        C  521   3.004   4.407   3.868
    1C        C  522   2.840   4.276   3.995
    1C        C  523   2.947   4.368   3.991
    1C        C  524   2.783   4.235   4.118
    1C        C  525   2.832   4.288   4.239
    1C        C  526   2.692   4.129   4.364
    1C        C  527   2.780   4.240   4.362
    1C        C  528   2.647   4.078   4.487
    1C        C  529   2.687   4.142   4.607
    1C        C  530   2.580   3.959   4.728
    1C        C  531   2.634   4.090   4.727
    1C        C  532   2.541   3.901   4.852
    1C        C  533   2.527   3.993   4.961
    1C        C  534   3.613   4.552   2.037
    1C        C  535   3.747   4.508   2.037
    1C        C  536   3.533   4.532   2.153
    1C        C  537   3.602   4.506   2.274
    1C        C  538   3.390   4.514   2.400
    1C        C  539   3.531   4.510   2.396
    1C        C  540   3.317   4.511   2.521
    1C        C  541   3.390   4.520   2.641
    1C        C  542   3.181   4.482   2.764
    1C        C  543   3.319   4.513   2.763
    1C        C  544   3.121   4.456   2.889
    1C        C  545   3.189   4.478   3.011
    1C        C  546   2.995   4.399   3.133
    1C        C  547   3.121   4.463   3.134
    1C        C  548   2.939   4.359   3.256
    1C        C  549   2.997   4.404   3.377
    1C        C  550   2.831   4.278   3.504
    1C        C  551   2.939   4.369   3.502
    1C        C  552   2.784   4.228   3.627
    1C        C  553   2.835   4.279   3.749
    1C        C  554   2.703   4.116   3.874
    1C        C  555   2.793   4.225   3.872
    1C        C  556   2.663   4.060   3.997
    1C        C  557   2.695   4.125   4.118
    1C        C  558   2.590   3.943   4.242
    1C        C  559   2.658   4.067   4.242
    1C        C  560   2.566   3.879   4.366
    1C        C  561   2.587   3.950   4.486
    1C        C  562   2.521   3.751   4.613
    1C        C  563   2.555   3.888   4.609
    1C        C  564   2.511   3.682   4.735
    1C        C  565   2.513   3.760   4.854
    1C        C  566   2.524   3.544   4.976
    1C        C  567   2.526   3.683   4.970
    1C        C  568   3.322   4.480   2.040
    1C        C  569   3.392   4.510   2.157
    1C        C  570   3.180   4.475   2.280
    1C        C  571   3.318   4.511   2.278
    1C        C  572   3.110   4.455   2.401
    1C        C  573   3.181   4.474   2.522
    1C        C  574   2.985   4.394   2.646
    1C        C  575   3.112   4.457   2.644
    1C        C  576   2.928   4.357   2.770
    1C        C  577   2.993   4.396   2.889
    1C        C  578   2.825   4.272   3.014
    1C        C  579   2.930   4.367   3.012
    1C        C  580   2.775   4.222   3.136
    1C        C  581   2.831   4.269   3.258
    1C        C  582   2.699   4.110   3.380
    1C        C  583   2.782   4.224   3.383
    1C        C  584   2.660   4.055   3.505
    1C        C  585   2.699   4.115   3.627
    1C        C  586   2.592   3.936   3.754
    1C        C  587   2.663   4.058   3.751
    1C        C  588   2.569   3.868   3.875
    1C        C  589   2.599   3.934   3.996
    1C        C  590   2.529   3.739   4.126
    1C        C  591   2.567   3.875   4.121
    1C        C  592   2.522   3.669   4.249
    1C        C  593   2.542   3.740   4.370
    1C        C  594   2.513   3.534   4.496
    1C        C  595   2.523   3.675   4.494
    1C        C  596   2.518   3.463   4.618
    1C        C  597   2.515   3.540   4.737
    1C        C  598   2.530   3.327   4.860
    1C        C  599   2.520   3.468   4.858
    1C        C  600   2.537   3.250   4.976
    1C        C  601   3.191   4.434   2.043
    1C        C  602   2.978   4.394   2.157
    1C        C  603   3.112   4.443   2.159
    1C        C  604   2.920   4.355   2.281
    1C        C  605   2.984   4.392   2.401
    1C        C  606   2.817   4.266   2.526
    1C        C  607   2.923   4.359   2.524
    1C        C  608   2.769   4.215   2.649
    1C        C  609   2.822   4.264   2.771
    1C        C  610   2.684   4.107   2.893
    1C        C  611   2.776   4.215   2.895
    1C        C  612   2.644   4.053   3.017
    1C        C  613   2.685   4.113   3.139
    1C        C  614   2.586   3.927   3.267
    1C        C  615   2.646   4.055   3.261
    1C        C  616   2.564   3.865   3.392
    1C        C  617   2.596   3.930   3.513
    1C        C  618   2.528   3.728   3.638
    1C        C  619   2.567   3.864   3.635
    1C        C  620   2.511   3.660   3.761
    1C        C  621   2.525   3.734   3.881
    1C        C  622   2.509   3.526   4.008
    1C        C  623   2.520   3.667   4.005
    1C        C  624   2.515   3.456   4.131
    1C        C  625   2.517   3.528   4.252
    1C        C  626   2.535   3.320   4.376
    1C        C  627   2.514   3.459   4.376
    1C        C  628   2.556   3.253   4.498
    1C        C  629   2.536   3.323   4.619
    1C        C  630   2.601   3.120   4.743
    1C        C  631   2.549   3.253   4.741
    1C        C  632   2.617   3.048   4.865
    1C        C  633   2.563   3.112   4.981
    1C        C  634   2.776   4.308   2.051
    1C        C  635   2.889   4.390   2.044
    1C        C  636   2.742   4.230   2.162
    1C        C  637   2.806   4.271   2.282
    1C        C  638   2.675   4.106   2.408
    1C        C  639   2.761   4.219   2.406
    1C        C  640   2.634   4.048   2.530
    1C        C  641   2.678   4.106   2.651
    1C        C  642   2.576   3.921   2.780
    1C        C  643   2.641   4.046   2.773
    1C        C  644   2.553   3.854   2.902
    1C        C  645   2.585   3.924   3.020
    1C        C  646   2.523   3.725   3.149
    1C        C  647   2.564   3.861   3.144
    1C        C  648   2.506   3.656   3.271
    1C        C  649   2.528   3.728   3.391
    1C        C  650   2.510   3.519   3.518
    1C        C  651   2.516   3.660   3.515
    1C        C  652   2.512   3.449   3.641
    1C        C  653   2.506   3.519   3.764
    1C        C  654   2.531   3.313   3.889
    1C        C  655   2.506   3.452   3.888
    1C        C  656   2.554   3.246   4.012
    1C        C  657   2.534   3.316   4.132
    1C        C  658   2.602   3.116   4.256
    1C        C  659   2.549   3.248   4.255
    1C        C  660   2.631   3.055   4.379
    1C        C  661   2.603   3.120   4.502
    1C        C  662   2.707   2.934   4.624
    1C        C  663   2.629   3.052   4.623
    1C        C  664   2.751   2.877   4.746
    1C        C  665   2.693   2.928   4.866
    1C        C  666   2.740   2.864   4.982
    1C        C  667   2.678   4.020   2.054
    1C        C  668   2.680   4.104   2.166
    1C        C  669   2.583   3.913   2.294
    1C        C  670   2.639   4.043   2.287
    1C        C  671   2.557   3.848   2.416
    1C        C  672   2.576   3.919   2.537
    1C        C  673   2.514   3.716   2.659
    1C        C  674   2.548   3.854   2.659
    1C        C  675   2.506   3.647   2.782
    1C        C  676   2.517   3.717   2.904
    1C        C  677   2.501   3.510   3.030
    1C        C  678   2.510   3.651   3.030
    1C        C  679   2.508   3.441   3.153
    1C        C  680   2.503   3.515   3.274
    1C        C  681   2.535   3.307   3.400
    1C        C  682   2.509   3.446   3.397
    1C        C  683   2.549   3.239   3.523
    1C        C  684   2.532   3.309   3.645
    1C        C  685   2.602   3.112   3.769
    1C        C  686   2.546   3.242   3.768
    1C        C  687   2.639   3.050   3.891
    1C        C  688   2.608   3.115   4.012
    1C        C  689   2.715   2.934   4.137
    1C        C  690   2.636   3.051   4.135
    1C        C  691   2.757   2.882   4.262
    1C        C  692   2.713   2.939   4.383
    1C        C  693   2.755   2.878   4.503
    1C        C  694   2.624   3.890   2.058
    1C        C  695   2.524   3.703   2.174
    1C        C  696   2.568   3.838   2.175
    1C        C  697   2.501   3.637   2.297
    1C        C  698   2.514   3.713   2.415
    1C        C  699   2.488   3.505   2.541
    1C        C  700   2.498   3.645   2.538
    1C        C  701   2.496   3.434   2.663
    1C        C  702   2.494   3.506   2.785
    1C        C  703   2.515   3.298   2.910
    1C        C  704   2.499   3.438   2.909
    1C        C  705   2.530   3.229   3.033
    1C        C  706   2.521   3.300   3.154
    1C        C  707   2.584   3.101   3.278
    1C        C  708   2.546   3.237   3.278
    1C        C  709   2.630   3.044   3.399
    1C        C  710   2.608   3.110   3.522
    1C        C  711   2.714   2.932   3.646
    1C        C  712   2.635   3.050   3.647
    1C        C  713   2.762   2.878   3.768
    1C        C  714   2.724   2.937   3.890
    1C        C  715   2.760   2.881   4.014
    1C        C  716   2.446   3.498   2.061
    1C        C  717   2.488   3.632   2.060
    1C        C  718   2.466   3.422   2.181
    1C        C  719   2.474   3.498   2.302
    1C        C  720   2.512   3.288   2.425
    1C        C  721   2.487   3.427   2.423
    1C        C  722   2.529   3.219   2.548
    1C        C  723   2.512   3.293   2.667
    1C        C  724   2.588   3.096   2.792
    1C        C  725   2.535   3.227   2.790
    1C        C  726   2.624   3.036   2.915
    1C        C  727   2.584   3.098   3.036
    1C        C  728   2.703   2.924   3.159
    1C        C  729   2.612   3.032   3.158
    1C        C  730   2.755   2.873   3.280
    1C        C  731   2.712   2.929   3.402
    1C        C  732   2.757   2.875   3.524
    1C        C  733   2.481   3.196   2.073
    1C        C  734   2.481   3.280   2.185
    1C        C  735   2.583   3.087   2.306
    1C        C  736   2.526   3.217   2.304
    1C        C  737   2.618   3.022   2.427
    1C        C  738   2.591   3.092   2.547
    1C        C  739   2.696   2.912   2.670
    1C        C  740   2.622   3.032   2.671
    1C        C  741   2.744   2.858   2.792
    1C        C  742   2.705   2.920   2.913
    1C        C  743   2.749   2.869   3.037
    1C        C  744   2.542   3.071   2.075
    1C        C  745   2.682   2.896   2.187
    1C        C  746   2.604   3.014   2.187
    1C        C  747   2.736   2.843   2.307
    1C        C  748   2.693   2.902   2.428
    1C        C  749   2.734   2.847   2.551
    1C        C  750   2.733   2.835   2.072
    1C        C  751   3.647   2.286   2.006
    1C        O  752   3.569   2.187   2.014
    1C        O  753   3.747   2.276   1.909
    1C        C  754   4.604   3.064   1.951
    1C        O  755   4.564   3.057   1.831
    1C        O  756   4.737   3.022   1.969
    1C        C  757   4.462   4.223   1.983
    1C        O  758   4.522   4.313   2.048
    1C        O  759   4.483   4.224   1.845
    1C        C  760   3.591   4.648   1.926
    1C        O  761   3.599   4.772   1.947
    1C        O  762   3.514   4.617   1.813
    1C        C  763   2.887   4.498   1.943
    1C        O  764   2.911   4.470   1.823
    1C        O  765   2.784   4.593   1.952
    1C        C  766   2.337   3.475   1.964
    1C        O  767   2.352   3.427   1.848
    1C        O  768   2.204   3.505   1.996
    1C        C  769   4.702   3.593   5.044
    1C        O  770   4.694   3.586   5.170
    1C        O  771   4.829   3.613   4.988
    1C        C  772   4.280   4.457   5.023
    1C        O  773   4.335   4.417   5.129
    1C        O  774   4.320   4.591   5.012
    1C        C  775   4.134   2.507   5.065
    1C        O  776   4.233   2.437   5.032
    1C        O  777   4.151   2.532   5.202
    1C        C  778   2.881   4.548   5.037
    1C        O  779   2.782   4.621   5.010
    1C        O  780   2.903   4.535   5.174
    1C        C  781   2.462   3.038   5.060
    1C        O  782   2.377   2.959   5.011
    1C        O  783   2.445   3.043   5.198
    1C        C  784   2.392   4.003   5.021
    1C        O  785   2.296   4.045   4.952
    1C        O  786   2.375   3.964   5.155
    1C        C  787   2.955   2.434   1.984
    1C        O  788   2.963   2.462   1.861
    1C        O  789   2.839   2.363   2.013
    1C        C  790   3.177   2.375   5.071
    1C        O  791   3.175   2.257   5.028
    1C        O  792   3.200   2.396   5.207
    1C        H  793   4.270   3.027   5.052
    1C        H  794   4.177   2.811   5.068
    1C        H  795   4.540   3.127   5.044
    1C        H  796   4.508   3.368   5.065
    1C        H  797   4.568   3.810   5.042
    1C        H  798   4.454   4.011   5.047
    1C        H  799   4.244   4.139   5.034
    1C        H  800   4.007   4.488   5.038
    1C        H  801   3.815   4.599   5.037
    1C        H  802   3.584   4.648   5.024
    1C        H  803   3.403   4.466   5.029
    1C        H  804   3.166   4.506   5.058
    1C        H  805   3.883   2.483   5.062
    1C        H  806   3.673   2.520   5.063
    1C        H  807   3.024   2.584   5.075
    1C        H  808   3.431   2.483   5.075
    1C        H  809   2.870   2.730   5.078
    1C        H  810   2.700   2.888   5.078
    1C        H  811   2.570   3.303   5.063
    1C        H  812   2.474   3.505   5.062
    1C        H  813   2.518   3.734   5.064
    1C        H  814   2.620   4.157   5.051
    1C        H  815   2.786   4.279   5.048
    1C        H  816   2.697   2.866   1.976
    1C        H  817   2.880   2.730   1.978
    1C        H  818   3.210   2.471   1.980
    1C        H  819   3.441   2.481   1.979
    1C        H  820   3.852   2.501   1.969
    1C        H  821   4.047   2.637   1.964
    1C        H  822   4.249   2.716   1.975
    1C        H  823   4.420   2.872   1.978
    1C        H  824   4.592   3.310   1.972
    1C        H  825   4.453   3.509   1.974
    1C        H  826   4.494   3.756   1.961
    1C        H  827   3.805   4.542   1.954
    1C        H  828   3.937   4.343   1.951
    1C        H  829   4.138   4.226   1.947
    1C        H  830   4.493   3.965   1.961
    1C        H  831   2.602   3.848   1.963
    1C        H  832   2.738   4.046   1.969
    1C        H  833   2.741   4.269   1.957
    1C        H  834   3.352   4.533   1.952
    1C        H  835   3.164   4.370   1.962
    1C        H  836   2.501   3.004   2.004
    1C        H  837   2.413   3.219   1.994
    1C        H  838   2.485   3.687   1.968
    2V3OU   H29  839   2.808   3.549   2.731
    2V3OU   C27  840   2.789   3.503   2.830
    2V3OU   H27  841   2.732   3.573   2.896
    2V3OU   H28  842   2.736   3.404   2.822
    2V3OU   O11  843   2.912   3.473   2.895
    2V3OU   C15  844   2.923   3.400   3.012
    2V3OU   C13  845   3.048   3.378   3.073
    2V3OU   C14  846   3.077   3.270   3.157
    2V3OU   C16  847   2.978   3.189   3.212
    2V3OU    H6  848   2.992   3.104   3.280
    2V3OU   C12  849   3.212   3.229   3.201
    2V3OU    O2  850   3.226   3.126   3.271
    2V3OU   C10  851   3.327   3.305   3.149
    2V3OU    C8  852   3.457   3.271   3.181
    2V3OU   O10  853   3.486   3.157   3.251
    2V3OU   H26  854   3.406   3.118   3.289
    2V3OU    C6  855   3.565   3.349   3.131
    2V3OU    C5  856   3.537   3.462   3.054
    2V3OU    C4  857   3.702   3.291   3.120
    2V3OU    H4  858   3.724   3.230   3.212
    2V3OU    H5  859   3.707   3.226   3.028
    2V3OU    C2  860   3.813   3.395   3.121
    2V3OU    O6  861   3.806   3.474   3.240
    2V3OU   H21  862   3.765   3.559   3.215
    2V3OU    C3  863   3.783   3.496   3.010
    2V3OU    H2  864   3.859   3.577   3.001
    2V3OU    H3  865   3.782   3.436   2.916
    2V3OU   C25  866   3.947   3.323   3.102
    2V3OU    O7  867   3.997   3.292   2.993
    2V3OU   C26  868   4.029   3.291   3.225
    2V3OU   H22  869   4.068   3.388   3.264
    2V3OU   H23  870   4.117   3.227   3.197
    2V3OU    O8  871   3.962   3.204   3.314
    2V3OU   H24  872   3.928   3.267   3.380
    2V3OU    C1  873   3.647   3.562   3.032
    2V3OU    H1  874   3.622   3.616   2.936
    2V3OU    O3  875   3.656   3.654   3.141
    2V3OU   C19  876   3.617   3.790   3.117
    2V3OU    H9  877   3.522   3.796   3.057
    2V3OU    O4  878   3.715   3.844   3.031
    2V3OU   C20  879   3.844   3.871   3.087
    2V3OU   H10  880   3.896   3.773   3.108
    2V3OU   C24  881   3.606   3.855   3.255
    2V3OU   H16  882   3.545   3.791   3.324
    2V3OU   H17  883   3.559   3.955   3.239
    2V3OU   C23  884   3.746   3.871   3.316
    2V3OU   H15  885   3.786   3.767   3.342
    2V3OU    N1  886   3.729   3.952   3.434
    2V3OU   H19  887   3.802   3.916   3.492
    2V3OU   H20  888   3.641   3.932   3.479
    2V3OU   C21  889   3.843   3.947   3.220
    2V3OU   H11  890   3.943   3.923   3.268
    2V3OU    O5  891   3.827   4.088   3.209
    2V3OU   H18  892   3.786   4.109   3.294
    2V3OU   C22  893   3.913   3.953   2.980
    2V3OU   H12  894   3.857   4.049   2.964
    2V3OU   H13  895   3.905   3.901   2.881
    2V3OU   H14  896   4.021   3.963   3.006
    2V3OU   C11  897   3.160   3.470   3.046
    2V3OU    O1  898   3.135   3.583   2.997
    2V3OU    C9  899   3.297   3.425   3.079
    2V3OU    C7  900   3.402   3.503   3.031
    2V3OU    O9  901   3.386   3.623   2.964
    2V3OU   H25  902   3.290   3.619   2.952
    2V3OU   C17  903   2.826   3.314   3.069
    2V3OU    H7  904   2.726   3.343   3.038
    2V3OU   C18  905   2.851   3.215   3.163
    2V3OU    H8  906   2.785   3.164   3.235
    3SOL     OW  907   2.378   5.303   6.208
    3SOL    HW1  908   2.398   5.208   6.232
    3SOL    HW2  909   2.378   5.359   6.291
    4SOL     OW  910   6.925   0.652   1.627
    4SOL    HW1  911   6.853   0.591   1.660
    4SOL    HW2  912   6.952   0.714   1.700
    5SOL     OW  913   4.323   2.346   2.353
    5SOL    HW1  914   4.286   2.317   2.265
    5SOL    HW2  915   4.261   2.319   2.426
    6SOL     OW  916   4.514   1.652   1.344
    6SOL    HW1  917   4.572   1.621   1.269
    6SOL    HW2  918   4.468   1.737   1.318
    7SOL     OW  919   0.666   4.016   3.973
    7SOL    HW1  920   0.575   4.053   3.992
    7SOL    HW2  921   0.736   4.072   4.017
    8SOL     OW  922   2.814   1.612   5.570
    8SOL    HW1  923   2.798   1.711   5.569
    8SOL    HW2  924   2.824   1.579   5.476
    9SOL     OW  925   4.587   1.611   5.880
    9SOL    HW1  926   4.553   1.619   5.974
    9SOL    HW2  927   4.658   1.680   5.865
   10SOL     OW  928   2.022   5.296   4.856
   10SOL    HW1  929   1.924   5.306   4.836
   10SOL    HW2  930   2.037   5.311   4.954
   11SOL     OW  931   2.587   1.254   5.619
   11SOL    HW1  932   2.685   1.258   5.641
   11SOL    HW2  933   2.558   1.159   5.612
   12SOL     OW  934   2.873   5.309   3.361
   12SOL    HW1  935   2.956   5.283   3.311
   12SOL    HW2  936   2.893   5.309   3.459
   13SOL     OW  937   3.342   6.822   4.449
   13SOL    HW1  938   3.292   6.909   4.448
   13SOL    HW2  939   3.328   6.776   4.536
   14SOL     OW  940   3.582   5.599   6.308
   14SOL    HW1  941   3.498   5.637   6.268
   14SOL    HW2  942   3.635   5.673   6.349
   15SOL     OW  943   0.766   6.645   1.318
   15SOL    HW1  944   0.699   6.600   1.259
   15SOL    HW2  945   0.832   6.695   1.261
   16SOL     OW  946   5.674   2.800   6.255
   16SOL    HW1  947   5.580   2.781   6.284
   16SOL    HW2  948   5.675   2.885   6.202
   17SOL     OW  949   6.064   5.490   6.897
   17SOL    HW1  950   6.096   5.560   6.961
   17SOL    HW2  951   6.133   5.474   6.826
   18SOL     OW  952   3.008   1.344   5.480
   18SOL    HW1  953   3.023   1.406   5.557
   18SOL    HW2  954   3.018   1.394   5.394
   19SOL     OW  955   0.130   1.748   3.087
   19SOL    HW1  956   0.197   1.732   3.014
   19SOL    HW2  957   0.071   1.668   3.096
   20SOL     OW  958   4.718   1.901   4.760
   20SOL    HW1  959   4.726   1.999   4.744
   20SOL    HW2  960   4.808   1.862   4.778
   21SOL     OW  961   3.385   0.823   2.186
   21SOL    HW1  962   3.304   0.778   2.149
   21SOL    HW2  963   3.466   0.793   2.136
   22SOL     OW  964   1.537   6.339   6.720
   22SOL    HW1  965   1.438   6.321   6.717
   22SOL    HW2  966   1.571   6.325   6.813
   23SOL     OW  967   4.912   5.277   2.590
   23SOL    HW1  968   4.940   5.181   2.589
   23SOL    HW2  969   4.889   5.304   2.683
   24SOL     OW  970   3.558   0.394   2.657
   24SOL    HW1  971   3.654   0.405   2.632
   24SOL    HW2  972   3.514   0.484   2.660
   25SOL     OW  973   3.560   7.003   3.474
   25SOL    HW1  974   3.480   0.042   3.465
   25SOL    HW2  975   3.595   7.009   3.568
   26SOL     OW  976   6.754   1.349   0.566
   26SOL    HW1  977   6.800   1.436   0.550
   26SOL    HW2  978   6.689   1.359   0.641
   27SOL     OW  979   1.972   1.405   2.476
   27SOL    HW1  980   1.947   1.475   2.542
   27SOL    HW2  981   1.892   1.347   2.456
   28SOL     OW  982   1.714   7.006   5.076
   28SOL    HW1  983   1.670   6.963   4.998
   28SOL    HW2  984   1.652   0.055   5.115
   29SOL     OW  985   6.061   1.719   1.665
   29SOL    HW1  986   6.062   1.706   1.565
   29SOL    HW2  987   6.150   1.753   1.694
   30SOL     OW  988   4.511   0.438   3.363
   30SOL    HW1  989   4.546   0.484   3.444
   30SOL    HW2  990   4.416   0.464   3.348
   31SOL     OW  991   0.375   2.726   6.901
   31SOL    HW1  992   0.361   2.818   6.864
   31SOL    HW2  993   0.473   2.707   6.909
   32SOL     OW  994   0.399   1.846   3.298
   32SOL    HW1  995   0.449   1.931   3.280
   32SOL    HW2  996   0.410   1.784   3.220
   33SOL     OW  997   1.216   4.547   4.966
   33SOL    HW1  998   1.158   4.629   4.966
   33SOL    HW2  999   1.258   4.536   4.876
   34SOL     OW 1000   2.631   6.621   4.973
   34SOL    HW1 1001   2.706   6.589   5.032
   34SOL    HW2 1002   2.600   6.711   5.005
   35SOL     OW 1003   4.600   3.087   5.955
   35SOL    HW1 1004   4.664   3.035   6.012
   35SOL    HW2 1005   4.563   3.163   6.008
   36SOL     OW 1006   4.932   1.830   4.415
   36SOL    HW1 1007   4.984   1.869   4.491
   36SOL    HW2 1008   4.889   1.745   4.444
   37SOL     OW 1009   1.425   1.607   5.838
   37SOL    HW1 1010   1.521   1.635   5.836
   37SOL    HW2 1011   1.372   1.665   5.776
   38SOL     OW 1012   0.837   5.534   2.559
   38SOL    HW1 1013   0.887   5.501   2.480
   38SOL    HW2 1014   0.771   5.465   2.589
   39SOL     OW 1015   5.962   4.211   6.516
   39SOL    HW1 1016   5.914   4.298   6.503
   39SOL    HW2 1017   6.052   4.228   6.556
   40SOL     OW 1018   4.668   1.800   0.685
   40SOL    HW1 1019   4.694   1.892   0.715
   40SOL    HW2 1020   4.575   1.802   0.648
   41SOL     OW 1021   6.189   3.908   3.831
   41SOL    HW1 1022   6.287   3.900   3.810
   41SOL    HW2 1023   6.140   3.934   3.748
   42SOL     OW 1024   3.223   5.398   3.980
   42SOL    HW1 1025   3.150   5.459   4.009
   42SOL    HW2 1026   3.192   5.303   3.987
   43SOL     OW 1027   4.919   6.805   5.625
   43SOL    HW1 1028   4.955   6.733   5.566
   43SOL    HW2 1029   4.856   6.862   5.573
   44SOL     OW 1030   4.663   2.054   6.257
   44SOL    HW1 1031   4.757   2.089   6.255
   44SOL    HW2 1032   4.666   1.954   6.245
   45SOL     OW 1033   4.672   4.687   1.265
   45SOL    HW1 1034   4.664   4.590   1.287
   45SOL    HW2 1035   4.742   4.699   1.194
   46SOL     OW 1036   0.483   2.981   3.639
   46SOL    HW1 1037   0.516   2.906   3.581
   46SOL    HW2 1038   0.543   2.990   3.719
   47SOL     OW 1039   4.802   4.023   0.794
   47SOL    HW1 1040   4.753   4.038   0.708
   47SOL    HW2 1041   4.882   3.966   0.777
   48SOL     OW 1042   6.752   2.662   5.833
   48SOL    HW1 1043   6.847   2.647   5.862
   48SOL    HW2 1044   6.727   2.757   5.849
   49SOL     OW 1045   5.989   2.939   2.697
   49SOL    HW1 1046   6.084   2.959   2.672
   49SOL    HW2 1047   5.935   2.926   2.614
   50SOL     OW 1048   5.534   1.138   4.774
   50SOL    HW1 1049   5.447   1.149   4.726
   50SOL    HW2 1050   5.532   1.055   4.829
   51SOL     OW 1051   2.497   6.644   3.087
   51SOL    HW1 1052   2.569   6.579   3.065
   51SOL    HW2 1053   2.501   6.722   3.025
   52SOL     OW 1054   6.017   2.674   2.160
   52SOL    HW1 1055   6.093   2.735   2.180
   52SOL    HW2 1056   5.972   2.703   2.076
   53SOL     OW 1057   4.679   1.208   3.664
   53SOL    HW1 1058   4.736   1.279   3.704
   53SOL    HW2 1059   4.597   1.249   3.625
   54SOL     OW 1060   5.357   5.436   1.166
   54SOL    HW1 1061   5.260   5.460   1.167
   54SOL    HW2 1062   5.378   5.380   1.246
   55SOL     OW 1063   2.071   2.524   5.412
   55SOL    HW1 1064   2.068   2.616   5.373
   55SOL    HW2 1065   2.119   2.526   5.499
   56SOL     OW 1066   0.242   0.930   1.250
   56SOL    HW1 1067   0.150   0.891   1.264
   56SOL    HW2 1068   0.268   0.917   1.155
   57SOL     OW 1069   4.242   0.953   1.239
   57SOL    HW1 1070   4.220   1.039   1.285
   57SOL    HW2 1071   4.222   0.961   1.142
   58SOL     OW 1072   0.849   0.085   5.187
   58SOL    HW1 1073   0.790   0.087   5.106
   58SOL    HW2 1074   0.871   7.010   5.210
   59SOL     OW 1075   0.247   2.723   6.478
   59SOL    HW1 1076   0.300   2.738   6.394
   59SOL    HW2 1077   0.206   2.632   6.475
   60SOL     OW 1078   5.037   2.683   4.402
   60SOL    HW1 1079   4.951   2.715   4.364
   60SOL    HW2 1080   5.020   2.640   4.491
   61SOL     OW 1081   6.328   1.947   4.095
   61SOL    HW1 1082   6.392   2.020   4.072
   61SOL    HW2 1083   6.368   1.889   4.167
   62SOL     OW 1084   1.810   1.103   2.063
   62SOL    HW1 1085   1.757   1.180   2.097
   62SOL    HW2 1086   1.766   1.066   1.981
   63SOL     OW 1087   4.750   0.719   4.494
   63SOL    HW1 1088   4.685   0.735   4.568
   63SOL    HW2 1089   4.838   0.692   4.531
   64SOL     OW 1090   6.983   2.863   5.791
   64SOL    HW1 1091   6.985   2.899   5.698
   64SOL    HW2 1092   6.987   2.763   5.789
   65SOL     OW 1093   0.630   4.410   6.735
   65SOL    HW1 1094   0.676   4.499   6.736
   65SOL    HW2 1095   0.543   4.418   6.686
   66SOL     OW 1096   3.662   0.717   3.850
   66SOL    HW1 1097   3.724   0.767   3.910
   66SOL    HW2 1098   3.660   0.760   3.760
   67SOL     OW 1099   6.747   2.405   5.775
   67SOL    HW1 1100   6.812   2.341   5.816
   67SOL    HW2 1101   6.741   2.487   5.832
   68SOL     OW 1102   0.242   1.369   6.810
   68SOL    HW1 1103   0.258   1.299   6.880
   68SOL    HW2 1104   0.162   1.423   6.834
   69SOL     OW 1105   1.109   2.917   5.876
   69SOL    HW1 1106   1.169   2.896   5.798
   69SOL    HW2 1107   1.071   3.009   5.864
   70SOL     OW 1108   4.906   4.503   4.319
   70SOL    HW1 1109   4.849   4.438   4.369
   70SOL    HW2 1110   4.901   4.483   4.221
   71SOL     OW 1111   4.080   2.251   3.485
   71SOL    HW1 1112   4.071   2.282   3.580
   71SOL    HW2 1113   3.994   2.264   3.437
   72SOL     OW 1114   1.136   0.906   3.315
   72SOL    HW1 1115   1.075   0.948   3.383
   72SOL    HW2 1116   1.226   0.949   3.321
   73SOL     OW 1117   3.745   0.044   1.406
   73SOL    HW1 1118   3.738   0.014   1.310
   73SOL    HW2 1119   3.810   7.005   1.454
   74SOL     OW 1120   3.818   0.332   0.244
   74SOL    HW1 1121   3.808   0.421   0.289
   74SOL    HW2 1122   3.906   0.329   0.197
   75SOL     OW 1123   4.305   0.475   1.299
   75SOL    HW1 1124   4.253   0.394   1.325
   75SOL    HW2 1125   4.401   0.451   1.289
   76SOL     OW 1126   2.869   3.158   0.875
   76SOL    HW1 1127   2.773   3.183   0.863
   76SOL    HW2 1128   2.903   3.114   0.792
   77SOL     OW 1129   1.063   0.498   3.533
   77SOL    HW1 1130   1.132   0.470   3.601
   77SOL    HW2 1131   0.975   0.457   3.556
   78SOL     OW 1132   4.955   1.507   0.595
   78SOL    HW1 1133   4.877   1.544   0.546
   78SOL    HW2 1134   4.973   1.560   0.677
   79SOL     OW 1135   3.237   5.536   1.030
   79SOL    HW1 1136   3.297   5.456   1.029
   79SOL    HW2 1137   3.281   5.609   1.082
   80SOL     OW 1138   4.791   0.890   3.458
   80SOL    HW1 1139   4.867   0.826   3.456
   80SOL    HW2 1140   4.810   0.967   3.397
   81SOL     OW 1141   2.342   0.101   2.049
   81SOL    HW1 1142   2.334   0.032   2.121
   81SOL    HW2 1143   2.438   0.130   2.042
   82SOL     OW 1144   5.886   4.874   0.708
   82SOL    HW1 1145   5.789   4.869   0.733
   82SOL    HW2 1146   5.930   4.786   0.728
   83SOL     OW 1147   0.150   6.992   0.370
   83SOL    HW1 1148   0.197   0.013   0.448
   83SOL    HW2 1149   0.070   6.942   0.401
   84SOL     OW 1150   6.363   3.398   2.938
   84SOL    HW1 1151   6.268   3.413   2.966
   84SOL    HW2 1152   6.386   3.461   2.863
   85SOL     OW 1153   1.797   1.413   2.884
   85SOL    HW1 1154   1.698   1.397   2.887
   85SOL    HW2 1155   1.836   1.399   2.975
   86SOL     OW 1156   0.281   1.694   6.427
   86SOL    HW1 1157   0.244   1.787   6.429
   86SOL    HW2 1158   0.342   1.681   6.505
   87SOL     OW 1159   5.101   4.233   0.906
   87SOL    HW1 1160   5.024   4.223   0.970
   87SOL    HW2 1161   5.089   4.169   0.830
   88SOL     OW 1162   2.941   1.788   6.363
   88SOL    HW1 1163   2.843   1.796   6.344
   88SOL    HW2 1164   2.980   1.719   6.302
   89SOL     OW 1165   2.349   3.141   0.134
   89SOL    HW1 1166   2.427   3.083   0.109
   89SOL    HW2 1167   2.265   3.086   0.135
   90SOL     OW 1168   4.159   5.368   2.317
   90SOL    HW1 1169   4.086   5.373   2.249
   90SOL    HW2 1170   4.167   5.456   2.364
   91SOL     OW 1171   6.727   4.020   6.449
   91SOL    HW1 1172   6.718   4.010   6.350
   91SOL    HW2 1173   6.654   3.968   6.495
   92SOL     OW 1174   5.033   4.457   1.371
   92SOL    HW1 1175   5.068   4.364   1.382
   92SOL    HW2 1176   5.037   4.482   1.274
   93SOL     OW 1177   3.122   3.495   0.304
   93SOL    HW1 1178   3.047   3.547   0.262
   93SOL    HW2 1179   3.149   3.539   0.390
   94SOL     OW 1180   3.118   5.921   6.724
   94SOL    HW1 1181   3.139   6.009   6.767
   94SOL    HW2 1182   3.187   5.854   6.748
   95SOL     OW 1183   1.856   1.244   2.677
   95SOL    HW1 1184   1.840   1.317   2.743
   95SOL    HW2 1185   1.954   1.234   2.661
   96SOL     OW 1186   3.961   6.511   5.460
   96SOL    HW1 1187   3.863   6.520   5.476
   96SOL    HW2 1188   4.002   6.451   5.529
   97SOL     OW 1189   2.347   3.367   6.190
   97SOL    HW1 1190   2.356   3.268   6.200
   97SOL    HW2 1191   2.412   3.400   6.121
   98SOL     OW 1192   1.182   2.239   0.274
   98SOL    HW1 1193   1.246   2.197   0.210
   98SOL    HW2 1194   1.147   2.169   0.337
   99SOL     OW 1195   4.648   3.546   1.637
   99SOL    HW1 1196   4.585   3.540   1.559
   99SOL    HW2 1197   4.645   3.460   1.688
  100SOL     OW 1198   0.593   6.244   3.810
  100SOL    HW1 1199   0.688   6.214   3.797
  100SOL    HW2 1200   0.561   6.214   3.900
  101SOL     OW 1201   1.178   4.469   2.129
  101SOL    HW1 1202   1.144   4.412   2.054
  101SOL    HW2 1203   1.114   4.545   2.144
  102SOL     OW 1204   3.552   5.390   2.187
  102SOL    HW1 1205   3.623   5.337   2.233
  102SOL    HW2 1206   3.485   5.328   2.146
  103SOL     OW 1207   2.345   2.069   1.836
  103SOL    HW1 1208   2.316   2.079   1.741
  103SOL    HW2 1209   2.438   2.107   1.847
  104SOL     OW 1210   1.236   5.974   2.679
  104SOL    HW1 1211   1.218   5.959   2.776
  104SOL    HW2 1212   1.160   6.025   2.639
  105SOL     OW 1213   5.711   1.104   6.044
  105SOL    HW1 1214   5.708   1.163   5.963
  105SOL    HW2 1215   5.719   1.160   6.126
  106SOL     OW 1216   3.431   6.037   3.723
  106SOL    HW1 1217   3.484   6.094   3.786
  106SOL    HW2 1218   3.348   6.086   3.697
  107SOL     OW 1219   0.408   1.188   6.573
  107SOL    HW1 1220   0.472   1.251   6.618
  107SOL    HW2 1221   0.390   1.111   6.634
  108SOL     OW 1222   3.829   6.871   6.001
  108SOL    HW1 1223   3.731   6.873   5.982
  108SOL    HW2 1224   3.850   6.794   6.061
  109SOL     OW 1225   2.876   1.661   3.039
  109SOL    HW1 1226   2.954   1.662   2.976
  109SOL    HW2 1227   2.799   1.708   2.996
  110SOL     OW 1228   2.863   4.855   4.013
  110SOL    HW1 1229   2.962   4.860   4.027
  110SOL    HW2 1230   2.835   4.924   3.947
  111SOL     OW 1231   2.031   1.151   3.800
  111SOL    HW1 1232   2.044   1.245   3.831
  111SOL    HW2 1233   2.028   1.149   3.700
  112SOL     OW 1234   3.530   5.937   0.620
  112SOL    HW1 1235   3.466   5.860   0.617
  112SOL    HW2 1236   3.528   5.978   0.711
  113SOL     OW 1237   0.987   6.494   2.655
  113SOL    HW1 1238   1.047   6.431   2.608
  113SOL    HW2 1239   0.895   6.456   2.661
  114SOL     OW 1240   0.743   6.287   1.421
  114SOL    HW1 1241   0.723   6.377   1.382
  114SOL    HW2 1242   0.749   6.219   1.348
  115SOL     OW 1243   5.260   0.719   2.844
  115SOL    HW1 1244   5.225   0.627   2.865
  115SOL    HW2 1245   5.350   0.730   2.888
  116SOL     OW 1246   6.813   6.298   1.256
  116SOL    HW1 1247   6.719   6.268   1.270
  116SOL    HW2 1248   6.868   6.274   1.336
  117SOL     OW 1249   0.100   1.167   0.856
  117SOL    HW1 1250   0.134   1.235   0.921
  117SOL    HW2 1251   0.054   1.214   0.781
  118SOL     OW 1252   1.340   1.586   2.195
  118SOL    HW1 1253   1.396   1.649   2.249
  118SOL    HW2 1254   1.268   1.638   2.148
  119SOL     OW 1255   0.571   0.155   7.007
  119SOL    HW1 1256   0.506   0.113   0.050
  119SOL    HW2 1257   0.566   0.255   7.014
  120SOL     OW 1258   4.982   1.359   5.385
  120SOL    HW1 1259   5.020   1.308   5.308
  120SOL    HW2 1260   5.048   1.428   5.415
  121SOL     OW 1261   1.399   3.100   0.413
  121SOL    HW1 1262   1.481   3.058   0.375
  121SOL    HW2 1263   1.360   3.163   0.346
  122SOL     OW 1264   1.598   3.886   0.131
  122SOL    HW1 1265   1.645   3.947   0.196
  122SOL    HW2 1266   1.499   3.902   0.138
  123SOL     OW 1267   1.193   1.943   2.737
  123SOL    HW1 1268   1.100   1.909   2.754
  123SOL    HW2 1269   1.191   2.011   2.663
  124SOL     OW 1270   3.359   2.934   0.961
  124SOL    HW1 1271   3.376   2.892   0.872
  124SOL    HW2 1272   3.414   3.017   0.971
  125SOL     OW 1273   4.254   2.409   0.518
  125SOL    HW1 1274   4.311   2.489   0.534
  125SOL    HW2 1275   4.159   2.438   0.502
  126SOL     OW 1276   3.393   3.735   2.213
  126SOL    HW1 1277   3.396   3.668   2.288
  126SOL    HW2 1278   3.301   3.736   2.174
  127SOL     OW 1279   0.830   5.188   6.562
  127SOL    HW1 1280   0.885   5.121   6.612
  127SOL    HW2 1281   0.890   5.257   6.522
  128SOL     OW 1282   5.036   3.261   1.166
  128SOL    HW1 1283   4.999   3.354   1.174
  128SOL    HW2 1284   5.080   3.236   1.252
  129SOL     OW 1285   2.740   3.496   6.944
  129SOL    HW1 1286   2.645   3.507   6.912
  129SOL    HW2 1287   2.802   3.544   6.881
  130SOL     OW 1288   0.820   0.972   4.564
  130SOL    HW1 1289   0.815   1.065   4.528
  130SOL    HW2 1290   0.855   0.910   4.493
  131SOL     OW 1291   4.903   0.316   3.460
  131SOL    HW1 1292   4.986   0.275   3.498
  131SOL    HW2 1293   4.890   0.408   3.497
  132SOL     OW 1294   3.026   2.267   1.657
  132SOL    HW1 1295   3.077   2.313   1.584
  132SOL    HW2 1296   2.990   2.336   1.720
  133SOL     OW 1297   5.225   0.720   4.035
  133SOL    HW1 1298   5.298   0.656   4.059
  133SOL    HW2 1299   5.175   0.746   4.118
  134SOL     OW 1300   0.537   0.922   2.890
  134SOL    HW1 1301   0.463   0.855   2.895
  134SOL    HW2 1302   0.505   1.010   2.925
  135SOL     OW 1303   4.982   3.339   4.375
  135SOL    HW1 1304   5.081   3.338   4.362
  135SOL    HW2 1305   4.948   3.433   4.368
  136SOL     OW 1306   1.413   4.944   5.500
  136SOL    HW1 1307   1.503   4.984   5.514
  136SOL    HW2 1308   1.348   5.015   5.472
  137SOL     OW 1309   4.512   1.644   3.480
  137SOL    HW1 1310   4.439   1.711   3.494
  137SOL    HW2 1311   4.519   1.622   3.383
  138SOL     OW 1312   1.422   3.737   2.834
  138SOL    HW1 1313   1.413   3.645   2.796
  138SOL    HW2 1314   1.351   3.796   2.795
  139SOL     OW 1315   2.294   6.261   5.194
  139SOL    HW1 1316   2.379   6.241   5.243
  139SOL    HW2 1317   2.306   6.344   5.139
  140SOL     OW 1318   1.906   6.579   3.829
  140SOL    HW1 1319   1.870   6.672   3.833
  140SOL    HW2 1320   1.844   6.522   3.774
  141SOL     OW 1321   0.188   2.464   4.837
  141SOL    HW1 1322   0.198   2.541   4.774
  141SOL    HW2 1323   0.114   2.483   4.901
  142SOL     OW 1324   2.107   3.525   2.222
  142SOL    HW1 1325   2.030   3.581   2.192
  142SOL    HW2 1326   2.174   3.518   2.148
  143SOL     OW 1327   5.593   4.905   0.752
  143SOL    HW1 1328   5.573   4.817   0.796
  143SOL    HW2 1329   5.515   4.966   0.764
  144SOL     OW 1330   1.759   4.434   5.731
  144SOL    HW1 1331   1.715   4.344   5.723
  144SOL    HW2 1332   1.858   4.424   5.721
  145SOL     OW 1333   2.058   5.064   1.867
  145SOL    HW1 1334   2.074   5.161   1.846
  145SOL    HW2 1335   1.986   5.058   1.937
  146SOL     OW 1336   5.506   0.346   6.443
  146SOL    HW1 1337   5.523   0.426   6.499
  146SOL    HW2 1338   5.409   0.323   6.445
  147SOL     OW 1339   5.393   1.593   5.954
  147SOL    HW1 1340   5.430   1.629   5.868
  147SOL    HW2 1341   5.295   1.610   5.957
  148SOL     OW 1342   6.691   5.531   1.336
  148SOL    HW1 1343   6.757   5.460   1.358
  148SOL    HW2 1344   6.664   5.524   1.240
  149SOL     OW 1345   3.826   2.155   5.130
  149SOL    HW1 1346   3.781   2.237   5.166
  149SOL    HW2 1347   3.923   2.157   5.156
  150SOL     OW 1348   5.495   6.955   6.785
  150SOL    HW1 1349   5.552   0.012   6.818
  150SOL    HW2 1350   5.476   6.967   6.688
  151SOL     OW 1351   3.668   0.745   1.456
  151SOL    HW1 1352   3.641   0.650   1.473
  151SOL    HW2 1353   3.618   0.780   1.377
  152SOL     OW 1354   0.167   1.768   0.949
  152SOL    HW1 1355   0.210   1.764   0.859
  152SOL    HW2 1356   0.210   1.701   1.010
  153SOL     OW 1357   2.715   6.764   3.293
  153SOL    HW1 1358   2.752   6.695   3.231
  153SOL    HW2 1359   2.735   6.739   3.387
  154SOL     OW 1360   0.252   3.299   0.740
  154SOL    HW1 1361   0.260   3.326   0.644
  154SOL    HW2 1362   0.343   3.291   0.780
  155SOL     OW 1363   1.517   1.305   3.877
  155SOL    HW1 1364   1.459   1.248   3.818
  155SOL    HW2 1365   1.559   1.248   3.947
  156SOL     OW 1366   6.880   0.689   0.443
  156SOL    HW1 1367   6.909   0.694   0.348
  156SOL    HW2 1368   6.792   0.736   0.454
  157SOL     OW 1369   5.676   4.002   0.381
  157SOL    HW1 1370   5.592   3.987   0.328
  157SOL    HW2 1371   5.653   4.050   0.466
  158SOL     OW 1372   1.439   3.003   1.622
  158SOL    HW1 1373   1.411   3.021   1.527
  158SOL    HW2 1374   1.400   2.916   1.652
  159SOL     OW 1375   4.487   4.905   1.678
  159SOL    HW1 1376   4.566   4.926   1.621
  159SOL    HW2 1377   4.422   4.850   1.626
  160SOL     OW 1378   5.657   0.206   0.689
  160SOL    HW1 1379   5.668   0.266   0.610
  160SOL    HW2 1380   5.708   0.121   0.674
  161SOL     OW 1381   1.377   0.342   2.984
  161SOL    HW1 1382   1.334   0.419   3.032
  161SOL    HW2 1383   1.428   0.377   2.905
  162SOL     OW 1384   3.963   6.147   0.430
  162SOL    HW1 1385   3.923   6.060   0.400
  162SOL    HW2 1386   3.997   6.197   0.350
  163SOL     OW 1387   6.843   6.058   2.100
  163SOL    HW1 1388   6.773   6.124   2.127
  163SOL    HW2 1389   6.932   6.104   2.096
  164SOL     OW 1390   1.046   3.870   3.259
  164SOL    HW1 1391   0.987   3.935   3.306
  164SOL    HW2 1392   1.025   3.872   3.161
  165SOL     OW 1393   4.653   4.413   6.951
  165SOL    HW1 1394   4.653   4.496   7.007
  165SOL    HW2 1395   4.643   4.437   6.855
  166SOL     OW 1396   0.483   3.335   1.992
  166SOL    HW1 1397   0.400   3.327   2.047
  166SOL    HW2 1398   0.558   3.368   2.049
  167SOL     OW 1399   5.884   1.917   0.109
  167SOL    HW1 1400   5.799   1.958   0.077
  167SOL    HW2 1401   5.948   1.909   0.032
  168SOL     OW 1402   3.811   1.822   0.541
  168SOL    HW1 1403   3.859   1.783   0.619
  168SOL    HW2 1404   3.735   1.879   0.573
  169SOL     OW 1405   6.337   2.582   0.922
  169SOL    HW1 1406   6.263   2.536   0.871
  169SOL    HW2 1407   6.303   2.610   1.011
  170SOL     OW 1408   6.644   6.421   2.536
  170SOL    HW1 1409   6.739   6.402   2.512
  170SOL    HW2 1410   6.621   6.515   2.509
  171SOL     OW 1411   2.499   4.885   0.002
  171SOL    HW1 1412   2.462   4.919   6.935
  171SOL    HW2 1413   2.596   4.865   7.011
  172SOL     OW 1414   6.319   1.874   3.561
  172SOL    HW1 1415   6.259   1.844   3.487
  172SOL    HW2 1416   6.308   1.813   3.640
  173SOL     OW 1417   5.680   1.059   4.009
  173SOL    HW1 1418   5.724   1.027   3.925
  173SOL    HW2 1419   5.694   1.158   4.017
  174SOL     OW 1420   4.463   5.102   4.082
  174SOL    HW1 1421   4.429   5.190   4.049
  174SOL    HW2 1422   4.549   5.080   4.036
  175SOL     OW 1423   3.560   0.894   0.923
  175SOL    HW1 1424   3.611   0.979   0.935
  175SOL    HW2 1425   3.580   0.855   0.833
  176SOL     OW 1426   6.063   5.008   1.975
  176SOL    HW1 1427   6.048   5.034   2.070
  176SOL    HW2 1428   6.158   5.023   1.950
  177SOL     OW 1429   5.258   2.837   4.504
  177SOL    HW1 1430   5.237   2.933   4.481
  177SOL    HW2 1431   5.190   2.777   4.461
  178SOL     OW 1432   3.211   4.415   5.549
  178SOL    HW1 1433   3.134   4.377   5.498
  178SOL    HW2 1434   3.238   4.503   5.509
  179SOL     OW 1435   3.748   1.187   6.560
  179SOL    HW1 1436   3.803   1.243   6.498
  179SOL    HW2 1437   3.732   1.237   6.645
  180SOL     OW 1438   2.000   0.441   0.858
  180SOL    HW1 1439   2.098   0.447   0.875
  180SOL    HW2 1440   1.962   0.364   0.909
  181SOL     OW 1441   2.896   3.229   5.974
  181SOL    HW1 1442   2.992   3.216   6.001
  181SOL    HW2 1443   2.866   3.151   5.920
  182SOL     OW 1444   3.933   1.537   6.020
  182SOL    HW1 1445   3.935   1.622   5.968
  182SOL    HW2 1446   3.936   1.556   6.118
  183SOL     OW 1447   3.165   1.852   3.490
  183SOL    HW1 1448   3.192   1.938   3.534
  183SOL    HW2 1449   3.146   1.868   3.393
  184SOL     OW 1450   0.153   6.668   3.628
  184SOL    HW1 1451   0.222   6.706   3.566
  184SOL    HW2 1452   0.082   6.622   3.575
  185SOL     OW 1453   1.018   1.400   4.837
  185SOL    HW1 1454   0.997   1.344   4.917
  185SOL    HW2 1455   0.957   1.479   4.835
  186SOL     OW 1456   6.413   1.657   4.064
  186SOL    HW1 1457   6.414   1.690   4.158
  186SOL    HW2 1458   6.344   1.585   4.054
  187SOL     OW 1459   5.003   6.774   2.404
  187SOL    HW1 1460   5.102   6.764   2.405
  187SOL    HW2 1461   4.972   6.817   2.489
  188SOL     OW 1462   1.104   3.439   3.642
  188SOL    HW1 1463   1.078   3.371   3.574
  188SOL    HW2 1464   1.076   3.530   3.611
  189SOL     OW 1465   1.431   5.765   0.317
  189SOL    HW1 1466   1.480   5.832   0.260
  189SOL    HW2 1467   1.362   5.719   0.261
  190SOL     OW 1468   6.567   4.397   6.017
  190SOL    HW1 1469   6.635   4.427   5.950
  190SOL    HW2 1470   6.578   4.298   6.033
  191SOL     OW 1471   6.249   0.934   0.122
  191SOL    HW1 1472   6.214   1.025   0.141
  191SOL    HW2 1473   6.242   0.877   0.204
  192SOL     OW 1474   0.398   4.834   1.753
  192SOL    HW1 1475   0.423   4.789   1.839
  192SOL    HW2 1476   0.410   4.933   1.762
  193SOL     OW 1477   4.929   3.586   5.329
  193SOL    HW1 1478   4.971   3.676   5.324
  193SOL    HW2 1479   4.838   3.589   5.288
  194SOL     OW 1480   4.001   6.454   3.425
  194SOL    HW1 1481   4.024   6.466   3.522
  194SOL    HW2 1482   3.947   6.532   3.393
  195SOL     OW 1483   1.301   0.996   4.345
  195SOL    HW1 1484   1.282   1.048   4.262
  195SOL    HW2 1485   1.350   0.912   4.321
  196SOL     OW 1486   2.286   0.246   6.561
  196SOL    HW1 1487   2.322   0.153   6.567
  196SOL    HW2 1488   2.243   0.271   6.648
  197SOL     OW 1489   2.708   0.306   1.291
  197SOL    HW1 1490   2.627   0.361   1.308
  197SOL    HW2 1491   2.786   0.366   1.271
  198SOL     OW 1492   4.527   6.314   2.156
  198SOL    HW1 1493   4.434   6.340   2.185
  198SOL    HW2 1494   4.523   6.275   2.064
  199SOL     OW 1495   6.776   1.289   3.811
  199SOL    HW1 1496   6.705   1.278   3.880
  199SOL    HW2 1497   6.865   1.301   3.855
  200SOL     OW 1498   0.966   4.387   1.743
  200SOL    HW1 1499   0.921   4.476   1.734
  200SOL    HW2 1500   0.912   4.318   1.696
  201SOL     OW 1501   5.575   0.305   5.949
  201SOL    HW1 1502   5.633   0.225   5.962
  201SOL    HW2 1503   5.625   0.374   5.895
  202SOL     OW 1504   5.341   0.253   5.565
  202SOL    HW1 1505   5.274   0.197   5.518
  202SOL    HW2 1506   5.312   0.348   5.565
  203SOL     OW 1507   4.741   2.407   4.764
  203SOL    HW1 1508   4.696   2.393   4.676
  203SOL    HW2 1509   4.747   2.319   4.812
  204SOL     OW 1510   6.233   0.689   6.338
  204SOL    HW1 1511   6.235   0.609   6.397
  204SOL    HW2 1512   6.171   0.673   6.261
  205SOL     OW 1513   0.965   0.692   3.009
  205SOL    HW1 1514   1.003   0.721   3.097
  205SOL    HW2 1515   0.873   0.731   2.998
  206SOL     OW 1516   0.389   5.097   1.786
  206SOL    HW1 1517   0.336   5.129   1.708
  206SOL    HW2 1518   0.444   5.172   1.823
  207SOL     OW 1519   4.439   0.538   4.240
  207SOL    HW1 1520   4.443   0.631   4.202
  207SOL    HW2 1521   4.344   0.515   4.260
  208SOL     OW 1522   5.247   3.877   5.656
  208SOL    HW1 1523   5.167   3.884   5.715
  208SOL    HW2 1524   5.326   3.920   5.701
  209SOL     OW 1525   0.696   4.926   4.538
  209SOL    HW1 1526   0.610   4.910   4.491
  209SOL    HW2 1527   0.756   4.982   4.481
  210SOL     OW 1528   4.091   2.218   1.448
  210SOL    HW1 1529   3.998   2.220   1.486
  210SOL    HW2 1530   4.118   2.310   1.421
  211SOL     OW 1531   1.619   6.394   3.397
  211SOL    HW1 1532   1.609   6.295   3.392
  211SOL    HW2 1533   1.556   6.431   3.465
  212SOL     OW 1534   1.335   4.808   1.576
  212SOL    HW1 1535   1.256   4.766   1.621
  212SOL    HW2 1536   1.416   4.798   1.635
  213SOL     OW 1537   3.498   0.997   5.778
  213SOL    HW1 1538   3.534   0.911   5.813
  213SOL    HW2 1539   3.551   1.073   5.816
  214SOL     OW 1540   4.133   5.458   1.911
  214SOL    HW1 1541   4.094   5.448   2.003
  214SOL    HW2 1542   4.229   5.428   1.912
  215SOL     OW 1543   2.891   4.235   1.170
  215SOL    HW1 1544   2.883   4.136   1.171
  215SOL    HW2 1545   2.957   4.262   1.099
  216SOL     OW 1546   1.683   5.794   4.686
  216SOL    HW1 1547   1.762   5.740   4.714
  216SOL    HW2 1548   1.684   5.804   4.586
  217SOL     OW 1549   2.328   2.815   3.595
  217SOL    HW1 1550   2.321   2.913   3.575
  217SOL    HW2 1551   2.305   2.763   3.513
  218SOL     OW 1552   1.236   2.793   4.414
  218SOL    HW1 1553   1.145   2.816   4.379
  218SOL    HW2 1554   1.275   2.872   4.462
  219SOL     OW 1555   3.470   6.533   5.691
  219SOL    HW1 1556   3.391   6.585   5.658
  219SOL    HW2 1557   3.451   6.436   5.682
  220SOL     OW 1558   3.607   6.464   0.096
  220SOL    HW1 1559   3.703   6.493   0.085
  220SOL    HW2 1560   3.554   6.498   0.018
  221SOL     OW 1561   6.620   4.095   2.725
  221SOL    HW1 1562   6.714   4.126   2.733
  221SOL    HW2 1563   6.609   4.009   2.776
  222SOL     OW 1564   2.616   5.004   5.799
  222SOL    HW1 1565   2.563   4.998   5.715
  222SOL    HW2 1566   2.700   4.951   5.789
  223SOL     OW 1567   5.605   3.675   1.262
  223SOL    HW1 1568   5.532   3.609   1.247
  223SOL    HW2 1569   5.679   3.658   1.197
  224SOL     OW 1570   2.705   1.853   3.909
  224SOL    HW1 1571   2.783   1.794   3.930
  224SOL    HW2 1572   2.700   1.928   3.975
  225SOL     OW 1573   5.739   2.030   5.312
  225SOL    HW1 1574   5.773   1.946   5.354
  225SOL    HW2 1575   5.677   2.076   5.375
  226SOL     OW 1576   1.749   0.614   6.123
  226SOL    HW1 1577   1.825   0.580   6.068
  226SOL    HW2 1578   1.728   0.708   6.096
  227SOL     OW 1579   1.402   3.983   2.477
  227SOL    HW1 1580   1.497   3.954   2.462
  227SOL    HW2 1581   1.371   4.038   2.400
  228SOL     OW 1582   3.346   6.347   3.817
  228SOL    HW1 1583   3.294   6.412   3.873
  228SOL    HW2 1584   3.282   6.297   3.758
  229SOL     OW 1585   5.103   6.262   0.538
  229SOL    HW1 1586   5.131   6.348   0.581
  229SOL    HW2 1587   5.042   6.282   0.461
  230SOL     OW 1588   2.558   4.567   2.477
  230SOL    HW1 1589   2.472   4.561   2.426
  230SOL    HW2 1590   2.548   4.632   2.552
  231SOL     OW 1591   6.556   1.819   0.077
  231SOL    HW1 1592   6.594   1.872   0.153
  231SOL    HW2 1593   6.458   1.840   0.068
  232SOL     OW 1594   1.103   4.097   5.976
  232SOL    HW1 1595   1.007   4.123   5.966
  232SOL    HW2 1596   1.146   4.158   6.043
  233SOL     OW 1597   2.379   1.356   4.095
  233SOL    HW1 1598   2.437   1.301   4.034
  233SOL    HW2 1599   2.379   1.315   4.186
  234SOL     OW 1600   4.126   5.815   5.505
  234SOL    HW1 1601   4.097   5.891   5.447
  234SOL    HW2 1602   4.221   5.828   5.532
  235SOL     OW 1603   3.040   2.965   1.823
  235SOL    HW1 1604   3.108   2.962   1.897
  235SOL    HW2 1605   3.084   2.940   1.737
  236SOL     OW 1606   5.848   2.341   6.174
  236SOL    HW1 1607   5.914   2.336   6.099
  236SOL    HW2 1608   5.897   2.354   6.261
  237SOL     OW 1609   6.073   6.038   1.701
  237SOL    HW1 1610   6.167   6.057   1.731
  237SOL    HW2 1611   6.023   6.124   1.692
  238SOL     OW 1612   6.062   1.956   0.293
  238SOL    HW1 1613   6.034   1.965   0.389
  238SOL    HW2 1614   5.982   1.934   0.237
  239SOL     OW 1615   0.469   5.734   6.245
  239SOL    HW1 1616   0.386   5.755   6.297
  239SOL    HW2 1617   0.546   5.785   6.283
  240SOL     OW 1618   0.203   2.517   5.465
  240SOL    HW1 1619   0.254   2.455   5.526
  240SOL    HW2 1620   0.112   2.479   5.449
  241SOL     OW 1621   1.459   6.637   4.817
  241SOL    HW1 1622   1.365   6.670   4.805
  241SOL    HW2 1623   1.459   6.539   4.832
  242SOL     OW 1624   2.779   3.013   5.874
  242SOL    HW1 1625   2.700   2.958   5.902
  242SOL    HW2 1626   2.764   3.049   5.782
  243SOL     OW 1627   4.583   0.797   5.988
  243SOL    HW1 1628   4.642   0.778   6.067
  243SOL    HW2 1629   4.630   0.859   5.925
  244SOL     OW 1630   4.908   2.601   4.636
  244SOL    HW1 1631   4.856   2.684   4.616
  244SOL    HW2 1632   4.848   2.531   4.674
  245SOL     OW 1633   0.041   3.016   5.180
  245SOL    HW1 1634   0.129   2.982   5.213
  245SOL    HW2 1635   0.042   3.021   5.080
  246SOL     OW 1636   5.061   2.599   2.219
  246SOL    HW1 1637   5.047   2.696   2.241
  246SOL    HW2 1638   5.070   2.546   2.304
  247SOL     OW 1639   2.857   1.303   2.276
  247SOL    HW1 1640   2.836   1.248   2.195
  247SOL    HW2 1641   2.951   1.284   2.305
  248SOL     OW 1642   4.260   1.920   4.204
  248SOL    HW1 1643   4.314   1.840   4.180
  248SOL    HW2 1644   4.175   1.891   4.249
  249SOL     OW 1645   4.754   0.273   5.969
  249SOL    HW1 1646   4.781   0.201   5.904
  249SOL    HW2 1647   4.713   0.349   5.919
  250SOL     OW 1648   5.231   1.882   0.078
  250SOL    HW1 1649   5.181   1.939   0.144
  250SOL    HW2 1650   5.238   1.788   0.114
  251SOL     OW 1651   4.289   4.195   6.357
  251SOL    HW1 1652   4.277   4.125   6.287
  251SOL    HW2 1653   4.232   4.173   6.436
  252SOL     OW 1654   5.743   0.399   6.775
  252SOL    HW1 1655   5.837   0.428   6.761
  252SOL    HW2 1656   5.727   0.382   6.872
  253SOL     OW 1657   1.961   4.429   6.945
  253SOL    HW1 1658   1.986   4.392   0.014
  253SOL    HW2 1659   1.867   4.463   6.949
  254SOL     OW 1660   5.531   3.542   3.552
  254SOL    HW1 1661   5.436   3.527   3.581
  254SOL    HW2 1662   5.586   3.462   3.575
  255SOL     OW 1663   1.461   3.250   4.416
  255SOL    HW1 1664   1.519   3.327   4.390
  255SOL    HW2 1665   1.503   3.164   4.386
  256SOL     OW 1666   5.895   4.454   6.469
  256SOL    HW1 1667   5.911   4.538   6.520
  256SOL    HW2 1668   5.809   4.463   6.418
  257SOL     OW 1669   4.294   6.529   4.491
  257SOL    HW1 1670   4.231   6.491   4.559
  257SOL    HW2 1671   4.384   6.486   4.502
  258SOL     OW 1672   5.943   4.855   4.850
  258SOL    HW1 1673   5.996   4.779   4.811
  258SOL    HW2 1674   5.872   4.883   4.785
  259SOL     OW 1675   1.977   2.710   2.101
  259SOL    HW1 1676   2.020   2.639   2.045
  259SOL    HW2 1677   1.928   2.774   2.042
  260SOL     OW 1678   4.159   1.199   0.977
  260SOL    HW1 1679   4.154   1.230   1.072
  260SOL    HW2 1680   4.084   1.239   0.924
  261SOL     OW 1681   6.862   3.699   1.156
  261SOL    HW1 1682   6.765   3.716   1.137
  261SOL    HW2 1683   6.901   3.778   1.203
  262SOL     OW 1684   0.623   3.880   1.261
  262SOL    HW1 1685   0.563   3.919   1.330
  262SOL    HW2 1686   0.677   3.806   1.301
  263SOL     OW 1687   0.600   1.703   3.659
  263SOL    HW1 1688   0.679   1.672   3.711
  263SOL    HW2 1689   0.574   1.794   3.690
  264SOL     OW 1690   4.826   3.880   5.567
  264SOL    HW1 1691   4.909   3.898   5.514
  264SOL    HW2 1692   4.762   3.956   5.555
  265SOL     OW 1693   4.240   4.739   3.586
  265SOL    HW1 1694   4.297   4.683   3.646
  265SOL    HW2 1695   4.169   4.784   3.639
  266SOL     OW 1696   3.705   3.788   5.782
  266SOL    HW1 1697   3.671   3.850   5.853
  266SOL    HW2 1698   3.799   3.812   5.759
  267SOL     OW 1699   6.159   2.552   5.854
  267SOL    HW1 1700   6.160   2.462   5.812
  267SOL    HW2 1701   6.153   2.542   5.953
  268SOL     OW 1702   4.496   6.695   5.334
  268SOL    HW1 1703   4.575   6.709   5.393
  268SOL    HW2 1704   4.493   6.599   5.305
  269SOL     OW 1705   1.918   2.897   0.798
  269SOL    HW1 1706   1.851   2.969   0.780
  269SOL    HW2 1707   1.936   2.892   0.896
  270SOL     OW 1708   6.515   0.061   2.012
  270SOL    HW1 1709   6.468   0.063   1.924
  270SOL    HW2 1710   6.612   0.043   1.997
  271SOL     OW 1711   2.471   2.648   0.764
  271SOL    HW1 1712   2.393   2.658   0.826
  271SOL    HW2 1713   2.553   2.628   0.817
  272SOL     OW 1714   3.157   5.151   4.042
  272SOL    HW1 1715   3.234   5.153   4.105
  272SOL    HW2 1716   3.170   5.078   3.975
  273SOL     OW 1717   1.802   5.099   5.166
  273SOL    HW1 1718   1.850   5.016   5.140
  273SOL    HW2 1719   1.868   5.169   5.193
  274SOL     OW 1720   4.564   2.250   3.904
  274SOL    HW1 1721   4.519   2.336   3.929
  274SOL    HW2 1722   4.661   2.266   3.885
  275SOL     OW 1723   6.296   5.742   6.724
  275SOL    HW1 1724   6.310   5.665   6.662
  275SOL    HW2 1725   6.300   5.828   6.672
  276SOL     OW 1726   0.456   5.605   3.338
  276SOL    HW1 1727   0.526   5.538   3.362
  276SOL    HW2 1728   0.385   5.605   3.410
  277SOL     OW 1729   2.331   2.982   0.673
  277SOL    HW1 1730   2.416   2.974   0.724
  277SOL    HW2 1731   2.323   3.074   0.635
  278SOL     OW 1732   0.048   4.266   1.645
  278SOL    HW1 1733   0.022   4.326   1.721
  278SOL    HW2 1734   0.116   4.199   1.677
  279SOL     OW 1735   6.800   2.874   4.163
  279SOL    HW1 1736   6.731   2.806   4.136
  279SOL    HW2 1737   6.816   2.867   4.261
  280SOL     OW 1738   3.320   6.923   2.959
  280SOL    HW1 1739   3.320   6.871   2.874
  280SOL    HW2 1740   3.320   6.859   3.036
  281SOL     OW 1741   3.420   4.955   2.338
  281SOL    HW1 1742   3.354   4.894   2.294
  281SOL    HW2 1743   3.508   4.947   2.292
  282SOL     OW 1744   4.110   2.136   5.150
  282SOL    HW1 1745   4.111   2.069   5.225
  282SOL    HW2 1746   4.204   2.166   5.132
  283SOL     OW 1747   6.874   1.288   5.946
  283SOL    HW1 1748   6.831   1.359   6.002
  283SOL    HW2 1749   6.925   1.332   5.872
  284SOL     OW 1750   0.486   4.613   5.178
  284SOL    HW1 1751   0.461   4.708   5.159
  284SOL    HW2 1752   0.465   4.592   5.273
  285SOL     OW 1753   5.519   5.316   6.607
  285SOL    HW1 1754   5.469   5.237   6.643
  285SOL    HW2 1755   5.500   5.396   6.664
  286SOL     OW 1756   3.395   4.975   4.660
  286SOL    HW1 1757   3.377   4.931   4.571
  286SOL    HW2 1758   3.326   4.946   4.726
  287SOL     OW 1759   0.760   4.651   6.716
  287SOL    HW1 1760   0.714   4.729   6.758
  287SOL    HW2 1761   0.766   4.666   6.617
  288SOL     OW 1762   4.183   2.115   0.254
  288SOL    HW1 1763   4.263   2.174   0.264
  288SOL    HW2 1764   4.184   2.044   0.325
  289SOL     OW 1765   0.186   5.376   4.841
  289SOL    HW1 1766   0.221   5.285   4.817
  289SOL    HW2 1767   0.112   5.367   4.908
  290SOL     OW 1768   5.024   2.046   3.823
  290SOL    HW1 1769   4.961   2.122   3.808
  290SOL    HW2 1770   4.972   1.963   3.844
  291SOL     OW 1771   3.436   0.750   4.510
  291SOL    HW1 1772   3.438   0.704   4.599
  291SOL    HW2 1773   3.485   0.694   4.442
  292SOL     OW 1774   4.466   2.023   3.176
  292SOL    HW1 1775   4.479   2.077   3.259
  292SOL    HW2 1776   4.399   1.951   3.193
  293SOL     OW 1777   4.421   5.381   1.949
  293SOL    HW1 1778   4.442   5.306   1.886
  293SOL    HW2 1779   4.421   5.348   2.043
  294SOL     OW 1780   6.663   5.199   6.636
  294SOL    HW1 1781   6.738   5.138   6.612
  294SOL    HW2 1782   6.577   5.161   6.603
  295SOL     OW 1783   3.512   1.494   4.745
  295SOL    HW1 1784   3.588   1.429   4.742
  295SOL    HW2 1785   3.452   1.478   4.666
  296SOL     OW 1786   6.205   1.702   2.000
  296SOL    HW1 1787   6.105   1.709   2.004
  296SOL    HW2 1788   6.241   1.770   1.937
  297SOL     OW 1789   2.823   4.828   2.563
  297SOL    HW1 1790   2.724   4.841   2.576
  297SOL    HW2 1791   2.845   4.840   2.466
  298SOL     OW 1792   3.549   6.771   0.371
  298SOL    HW1 1793   3.597   6.747   0.286
  298SOL    HW2 1794   3.582   6.713   0.445
  299SOL     OW 1795   4.706   2.203   0.150
  299SOL    HW1 1796   4.751   2.212   0.061
  299SOL    HW2 1797   4.745   2.125   0.199
  300SOL     OW 1798   4.877   1.146   1.772
  300SOL    HW1 1799   4.850   1.137   1.677
  300SOL    HW2 1800   4.809   1.200   1.821
  301SOL     OW 1801   5.024   2.600   1.006
  301SOL    HW1 1802   5.071   2.566   1.087
  301SOL    HW2 1803   5.043   2.698   0.994
  302SOL     OW 1804   6.609   0.776   3.452
  302SOL    HW1 1805   6.619   0.839   3.375
  302SOL    HW2 1806   6.601   0.829   3.537
  303SOL     OW 1807   6.237   6.651   2.427
  303SOL    HW1 1808   6.286   6.616   2.348
  303SOL    HW2 1809   6.143   6.673   2.401
  304SOL     OW 1810   1.891   6.269   5.650
  304SOL    HW1 1811   1.986   6.287   5.676
  304SOL    HW2 1812   1.867   6.323   5.570
  305SOL     OW 1813   1.445   2.187   0.506
  305SOL    HW1 1814   1.385   2.130   0.562
  305SOL    HW2 1815   1.436   2.282   0.533
  306SOL     OW 1816   1.570   1.078   3.159
  306SOL    HW1 1817   1.502   1.059   3.089
  306SOL    HW2 1818   1.572   1.177   3.178
  307SOL     OW 1819   4.849   4.930   0.619
  307SOL    HW1 1820   4.887   4.916   0.528
  307SOL    HW2 1821   4.828   5.027   0.632
  308SOL     OW 1822   6.023   3.175   4.637
  308SOL    HW1 1823   6.060   3.265   4.660
  308SOL    HW2 1824   6.033   3.113   4.715
  309SOL     OW 1825   2.008   6.104   0.319
  309SOL    HW1 1826   1.921   6.090   0.367
  309SOL    HW2 1827   2.069   6.159   0.377
  310SOL     OW 1828   5.069   6.110   5.834
  310SOL    HW1 1829   4.977   6.078   5.857
  310SOL    HW2 1830   5.081   6.107   5.735
  311SOL     OW 1831   3.681   5.182   2.868
  311SOL    HW1 1832   3.727   5.264   2.903
  311SOL    HW2 1833   3.736   5.102   2.889
  312SOL     OW 1834   4.692   0.962   4.074
  312SOL    HW1 1835   4.613   0.908   4.104
  312SOL    HW2 1836   4.766   0.952   4.140
  313SOL     OW 1837   3.235   2.936   2.250
  313SOL    HW1 1838   3.211   2.863   2.314
  313SOL    HW2 1839   3.158   2.998   2.239
  314SOL     OW 1840   2.687   4.589   0.406
  314SOL    HW1 1841   2.755   4.646   0.362
  314SOL    HW2 1842   2.627   4.549   0.337
  315SOL     OW 1843   1.257   3.144   3.821
  315SOL    HW1 1844   1.306   3.231   3.811
  315SOL    HW2 1845   1.321   3.073   3.850
  316SOL     OW 1846   2.690   1.245   4.743
  316SOL    HW1 1847   2.710   1.165   4.688
  316SOL    HW2 1848   2.594   1.270   4.731
  317SOL     OW 1849   0.259   1.637   1.179
  317SOL    HW1 1850   0.159   1.640   1.167
  317SOL    HW2 1851   0.287   1.713   1.238
  318SOL     OW 1852   0.077   5.820   6.967
  318SOL    HW1 1853   0.089   5.844   6.871
  318SOL    HW2 1854   0.081   5.721   6.978
  319SOL     OW 1855   6.498   1.489   3.833
  319SOL    HW1 1856   6.542   1.550   3.767
  319SOL    HW2 1857   6.492   1.536   3.922
  320SOL     OW 1858   5.741   2.714   0.434
  320SOL    HW1 1859   5.660   2.765   0.464
  320SOL    HW2 1860   5.779   2.758   0.353
  321SOL     OW 1861   3.196   1.264   6.825
  321SOL    HW1 1862   3.175   1.260   6.728
  321SOL    HW2 1863   3.113   1.287   6.877
  322SOL     OW 1864   3.061   3.325   3.600
  322SOL    HW1 1865   3.144   3.319   3.655
  322SOL    HW2 1866   2.982   3.334   3.660
  323SOL     OW 1867   1.482   2.868   5.932
  323SOL    HW1 1868   1.514   2.886   5.839
  323SOL    HW2 1869   1.474   2.769   5.946
  324SOL     OW 1870   2.943   0.972   3.677
  324SOL    HW1 1871   2.936   1.034   3.598
  324SOL    HW2 1872   3.008   0.899   3.656
  325SOL     OW 1873   0.381   2.627   2.059
  325SOL    HW1 1874   0.319   2.551   2.076
  325SOL    HW2 1875   0.405   2.671   2.146
  326SOL     OW 1876   0.990   5.168   6.922
  326SOL    HW1 1877   1.071   5.177   6.864
  326SOL    HW2 1878   0.959   5.073   6.920
  327SOL     OW 1879   1.566   4.360   1.783
  327SOL    HW1 1880   1.474   4.400   1.777
  327SOL    HW2 1881   1.561   4.274   1.835
  328SOL     OW 1882   1.535   6.030   1.758
  328SOL    HW1 1883   1.449   6.067   1.793
  328SOL    HW2 1884   1.541   5.933   1.780
  329SOL     OW 1885   3.016   3.134   4.193
  329SOL    HW1 1886   3.067   3.113   4.276
  329SOL    HW2 1887   3.047   3.076   4.118
  330SOL     OW 1888   3.476   5.930   1.620
  330SOL    HW1 1889   3.397   5.900   1.566
  330SOL    HW2 1890   3.555   5.872   1.599
  331SOL     OW 1891   3.739   5.767   0.850
  331SOL    HW1 1892   3.773   5.858   0.872
  331SOL    HW2 1893   3.785   5.732   0.769
  332SOL     OW 1894   4.839   2.014   5.531
  332SOL    HW1 1895   4.846   2.084   5.460
  332SOL    HW2 1896   4.926   1.966   5.540
  333SOL     OW 1897   3.858   0.609   6.032
  333SOL    HW1 1898   3.942   0.654   6.004
  333SOL    HW2 1899   3.879   0.535   6.096
  334SOL     OW 1900   3.388   1.490   1.126
  334SOL    HW1 1901   3.368   1.418   1.060
  334SOL    HW2 1902   3.324   1.484   1.202
  335SOL     OW 1903   4.292   6.368   6.100
  335SOL    HW1 1904   4.345   6.370   6.185
  335SOL    HW2 1905   4.252   6.458   6.084
  336SOL     OW 1906   3.019   1.382   3.597
  336SOL    HW1 1907   3.097   1.337   3.640
  336SOL    HW2 1908   3.026   1.374   3.498
  337SOL     OW 1909   0.596   2.901   6.218
  337SOL    HW1 1910   0.521   2.964   6.196
  337SOL    HW2 1911   0.648   2.880   6.136
  338SOL     OW 1912   2.757   2.437   1.414
  338SOL    HW1 1913   2.732   2.519   1.466
  338SOL    HW2 1914   2.855   2.439   1.394
  339SOL     OW 1915   4.459   5.817   4.805
  339SOL    HW1 1916   4.390   5.774   4.863
  339SOL    HW2 1917   4.414   5.874   4.736
  340SOL     OW 1918   4.726   4.074   5.117
  340SOL    HW1 1919   4.791   4.010   5.079
  340SOL    HW2 1920   4.695   4.137   5.046
  341SOL     OW 1921   6.512   6.906   4.477
  341SOL    HW1 1922   6.431   6.853   4.450
  341SOL    HW2 1923   6.520   6.987   4.420
  342SOL     OW 1924   6.298   3.423   0.500
  342SOL    HW1 1925   6.336   3.496   0.557
  342SOL    HW2 1926   6.252   3.463   0.420
  343SOL     OW 1927   1.798   5.964   1.286
  343SOL    HW1 1928   1.760   6.000   1.372
  343SOL    HW2 1929   1.873   5.901   1.308
  344SOL     OW 1930   1.407   3.570   1.880
  344SOL    HW1 1931   1.376   3.476   1.895
  344SOL    HW2 1932   1.459   3.574   1.795
  345SOL     OW 1933   4.638   1.788   3.687
  345SOL    HW1 1934   4.603   1.738   3.608
  345SOL    HW2 1935   4.578   1.771   3.766
  346SOL     OW 1936   2.169   1.286   2.995
  346SOL    HW1 1937   2.221   1.245   3.070
  346SOL    HW2 1938   2.103   1.219   2.960
  347SOL     OW 1939   2.921   5.724   6.627
  347SOL    HW1 1940   2.982   5.803   6.638
  347SOL    HW2 1941   2.846   5.749   6.566
  348SOL     OW 1942   4.989   4.531   2.252
  348SOL    HW1 1943   4.985   4.588   2.334
  348SOL    HW2 1944   4.898   4.497   2.231
  349SOL     OW 1945   6.627   5.479   1.083
  349SOL    HW1 1946   6.678   5.560   1.054
  349SOL    HW2 1947   6.654   5.401   1.027
  350SOL     OW 1948   2.975   2.982   0.697
  350SOL    HW1 1949   2.924   2.923   0.635
  350SOL    HW2 1950   3.036   2.926   0.753
  351SOL     OW 1951   2.314   3.834   1.214
  351SOL    HW1 1952   2.264   3.905   1.265
  351SOL    HW2 1953   2.277   3.744   1.237
  352SOL     OW 1954   3.091   0.132   4.421
  352SOL    HW1 1955   3.190   0.133   4.425
  352SOL    HW2 1956   3.055   0.072   4.492
  353SOL     OW 1957   2.471   0.264   0.799
  353SOL    HW1 1958   2.517   0.209   0.729
  353SOL    HW2 1959   2.522   0.257   0.884
  354SOL     OW 1960   3.841   2.710   0.857
  354SOL    HW1 1961   3.872   2.797   0.819
  354SOL    HW2 1962   3.746   2.693   0.830
  355SOL     OW 1963   1.230   3.357   2.461
  355SOL    HW1 1964   1.323   3.383   2.437
  355SOL    HW2 1965   1.168   3.433   2.439
  356SOL     OW 1966   2.711   6.508   6.374
  356SOL    HW1 1967   2.642   6.558   6.426
  356SOL    HW2 1968   2.790   6.490   6.432
  357SOL     OW 1969   6.569   5.763   5.798
  357SOL    HW1 1970   6.514   5.681   5.786
  357SOL    HW2 1971   6.638   5.768   5.726
  358SOL     OW 1972   4.591   6.396   0.740
  358SOL    HW1 1973   4.593   6.422   0.836
  358SOL    HW2 1974   4.670   6.338   0.719
  359SOL     OW 1975   2.866   2.141   1.882
  359SOL    HW1 1976   2.962   2.134   1.855
  359SOL    HW2 1977   2.852   2.224   1.936
  360SOL     OW 1978   1.213   4.852   6.173
  360SOL    HW1 1979   1.259   4.867   6.086
  360SOL    HW2 1980   1.218   4.755   6.197
  361SOL     OW 1981   6.182   6.863   2.830
  361SOL    HW1 1982   6.204   6.772   2.797
  361SOL    HW2 1983   6.084   6.870   2.848
  362SOL     OW 1984   3.524   3.149   0.959
  362SOL    HW1 1985   3.511   3.183   1.051
  362SOL    HW2 1986   3.547   3.224   0.897
  363SOL     OW 1987   5.204   3.811   3.519
  363SOL    HW1 1988   5.271   3.784   3.588
  363SOL    HW2 1989   5.117   3.765   3.537
  364SOL     OW 1990   6.482   4.945   6.883
  364SOL    HW1 1991   6.447   5.028   6.841
  364SOL    HW2 1992   6.579   4.935   6.861
  365SOL     OW 1993   6.022   5.788   1.550
  365SOL    HW1 1994   6.120   5.770   1.558
  365SOL    HW2 1995   6.002   5.876   1.592
  366SOL     OW 1996   5.634   0.725   6.249
  366SOL    HW1 1997   5.624   0.785   6.170
  366SOL    HW2 1998   5.660   0.779   6.329
  367SOL     OW 1999   5.437   3.483   1.459
  367SOL    HW1 2000   5.431   3.449   1.365
  367SOL    HW2 2001   5.386   3.568   1.466
  368SOL     OW 2002   0.291   2.729   4.980
  368SOL    HW1 2003   0.315   2.635   5.005
  368SOL    HW2 2004   0.209   2.729   4.923
  369SOL     OW 2005   6.085   5.271   2.246
  369SOL    HW1 2006   6.028   5.190   2.247
  369SOL    HW2 2007   6.031   5.351   2.274
  370SOL     OW 2008   2.143   1.191   5.190
  370SOL    HW1 2009   2.097   1.258   5.248
  370SOL    HW2 2010   2.119   1.099   5.220
  371SOL     OW 2011   2.270   4.006   6.028
  371SOL    HW1 2012   2.209   4.035   6.102
  371SOL    HW2 2013   2.217   3.987   5.946
  372SOL     OW 2014   1.084   0.202   6.062
  372SOL    HW1 2015   1.166   0.248   6.094
  372SOL    HW2 2016   1.095   0.175   5.967
  373SOL     OW 2017   6.153   6.233   4.340
  373SOL    HW1 2018   6.137   6.136   4.319
  373SOL    HW2 2019   6.067   6.277   4.364
  374SOL     OW 2020   3.158   1.825   3.887
  374SOL    HW1 2021   3.257   1.840   3.882
  374SOL    HW2 2022   3.120   1.819   3.795
  375SOL     OW 2023   1.025   4.559   4.176
  375SOL    HW1 2024   0.994   4.642   4.222
  375SOL    HW2 2025   1.078   4.503   4.240
  376SOL     OW 2026   2.634   1.154   5.301
  376SOL    HW1 2027   2.664   1.235   5.351
  376SOL    HW2 2028   2.649   1.168   5.203
  377SOL     OW 2029   1.320   1.960   1.127
  377SOL    HW1 2030   1.356   1.925   1.040
  377SOL    HW2 2031   1.224   1.984   1.116
  378SOL     OW 2032   4.920   2.804   6.437
  378SOL    HW1 2033   5.007   2.772   6.473
  378SOL    HW2 2034   4.883   2.875   6.497
  379SOL     OW 2035   6.202   3.066   0.997
  379SOL    HW1 2036   6.152   2.986   1.031
  379SOL    HW2 2037   6.299   3.056   1.019
  380SOL     OW 2038   2.247   1.308   0.483
  380SOL    HW1 2039   2.343   1.295   0.508
  380SOL    HW2 2040   2.234   1.282   0.387
  381SOL     OW 2041   1.230   3.906   2.703
  381SOL    HW1 2042   1.302   3.939   2.641
  381SOL    HW2 2043   1.141   3.930   2.665
  382SOL     OW 2044   5.696   0.196   6.603
  382SOL    HW1 2045   5.653   0.258   6.537
  382SOL    HW2 2046   5.707   0.243   6.691
  383SOL     OW 2047   3.999   3.781   6.323
  383SOL    HW1 2048   3.991   3.803   6.420
  383SOL    HW2 2049   3.907   3.770   6.284
  384SOL     OW 2050   6.861   5.584   3.825
  384SOL    HW1 2051   6.796   5.626   3.888
  384SOL    HW2 2052   6.860   5.485   3.836
  385SOL     OW 2053   3.403   5.007   5.385
  385SOL    HW1 2054   3.450   4.943   5.324
  385SOL    HW2 2055   3.392   4.965   5.475
  386SOL     OW 2056   1.920   6.696   5.409
  386SOL    HW1 2057   1.953   6.759   5.479
  386SOL    HW2 2058   1.820   6.700   5.405
  387SOL     OW 2059   1.361   6.855   3.000
  387SOL    HW1 2060   1.418   6.918   3.052
  387SOL    HW2 2061   1.370   6.874   2.902
  388SOL     OW 2062   1.216   1.657   4.987
  388SOL    HW1 2063   1.313   1.668   5.009
  388SOL    HW2 2064   1.173   1.596   5.053
  389SOL     OW 2065   4.205   4.087   1.463
  389SOL    HW1 2066   4.169   3.994   1.470
  389SOL    HW2 2067   4.230   4.120   1.554
  390SOL     OW 2068   3.370   1.576   0.319
  390SOL    HW1 2069   3.428   1.628   0.255
  390SOL    HW2 2070   3.373   1.619   0.409
  391SOL     OW 2071   2.049   3.055   6.387
  391SOL    HW1 2072   1.977   2.995   6.351
  391SOL    HW2 2073   2.133   3.002   6.399
  392SOL     OW 2074   1.298   4.428   0.816
  392SOL    HW1 2075   1.356   4.489   0.761
  392SOL    HW2 2076   1.202   4.446   0.796
  393SOL     OW 2077   1.583   4.276   6.735
  393SOL    HW1 2078   1.563   4.260   6.638
  393SOL    HW2 2079   1.593   4.188   6.782
  394SOL     OW 2080   0.015   2.189   0.785
  394SOL    HW1 2081   6.961   2.202   0.851
  394SOL    HW2 2082   0.061   2.277   0.768
  395SOL     OW 2083   5.212   4.125   3.448
  395SOL    HW1 2084   5.271   4.197   3.485
  395SOL    HW2 2085   5.266   4.042   3.435
  396SOL     OW 2086   3.022   3.693   2.066
  396SOL    HW1 2087   3.046   3.683   2.163
  396SOL    HW2 2088   2.923   3.687   2.056
  397SOL     OW 2089   5.962   1.459   5.704
  397SOL    HW1 2090   5.943   1.418   5.793
  397SOL    HW2 2091   6.061   1.458   5.687
  398SOL     OW 2092   1.523   0.390   2.763
  398SOL    HW1 2093   1.581   0.350   2.692
  398SOL    HW2 2094   1.431   0.403   2.727
  399SOL     OW 2095   5.267   6.164   2.407
  399SOL    HW1 2096   5.339   6.223   2.370
  399SOL    HW2 2097   5.259   6.179   2.505
  400SOL     OW 2098   6.519   6.422   5.617
  400SOL    HW1 2099   6.437   6.470   5.585
  400SOL    HW2 2100   6.588   6.489   5.645
  401SOL     OW 2101   5.897   0.221   6.207
  401SOL    HW1 2102   5.823   0.288   6.201
  401SOL    HW2 2103   5.952   0.224   6.124
  402SOL     OW 2104   6.285   0.188   4.135
  402SOL    HW1 2105   6.200   0.135   4.127
  402SOL    HW2 2106   6.348   0.160   4.062
  403SOL     OW 2107   4.020   1.350   4.693
  403SOL    HW1 2108   4.032   1.283   4.766
  403SOL    HW2 2109   4.103   1.405   4.684
  404SOL     OW 2110   1.542   5.193   3.835
  404SOL    HW1 2111   1.627   5.220   3.881
  404SOL    HW2 2112   1.521   5.098   3.857
  405SOL     OW 2113   2.247   2.969   2.594
  405SOL    HW1 2114   2.241   3.068   2.596
  405SOL    HW2 2115   2.260   2.937   2.500
  406SOL     OW 2116   1.043   4.766   4.959
  406SOL    HW1 2117   1.011   4.768   5.054
  406SOL    HW2 2118   0.988   4.828   4.904
  407SOL     OW 2119   0.349   1.338   4.783
  407SOL    HW1 2120   0.256   1.365   4.761
  407SOL    HW2 2121   0.360   1.239   4.768
  408SOL     OW 2122   1.759   2.069   2.964
  408SOL    HW1 2123   1.780   2.041   2.871
  408SOL    HW2 2124   1.775   2.167   2.974
  409SOL     OW 2125   6.433   3.050   2.345
  409SOL    HW1 2126   6.504   2.993   2.386
  409SOL    HW2 2127   6.356   2.992   2.318
  410SOL     OW 2128   1.436   1.230   1.100
  410SOL    HW1 2129   1.374   1.272   1.166
  410SOL    HW2 2130   1.479   1.302   1.045
  411SOL     OW 2131   6.533   0.743   1.606
  411SOL    HW1 2132   6.492   0.692   1.681
  411SOL    HW2 2133   6.594   0.683   1.554
  412SOL     OW 2134   2.914   5.840   3.119
  412SOL    HW1 2135   2.859   5.906   3.170
  412SOL    HW2 2136   2.974   5.888   3.056
  413SOL     OW 2137   5.576   3.807   2.002
  413SOL    HW1 2138   5.664   3.791   2.045
  413SOL    HW2 2139   5.585   3.801   1.902
  414SOL     OW 2140   3.187   5.182   3.266
  414SOL    HW1 2141   3.230   5.102   3.224
  414SOL    HW2 2142   3.232   5.265   3.233
  415SOL     OW 2143   0.922   6.475   6.670
  415SOL    HW1 2144   0.854   6.403   6.656
  415SOL    HW2 2145   0.942   6.483   6.768
  416SOL     OW 2146   4.911   6.271   4.702
  416SOL    HW1 2147   4.948   6.292   4.612
  416SOL    HW2 2148   4.811   6.263   4.696
  417SOL     OW 2149   1.919   5.986   5.653
  417SOL    HW1 2150   1.895   6.081   5.633
  417SOL    HW2 2151   2.010   5.983   5.694
  418SOL     OW 2152   3.946   6.791   6.485
  418SOL    HW1 2153   3.917   6.883   6.459
  418SOL    HW2 2154   3.987   6.793   6.576
  419SOL     OW 2155   1.979   6.337   1.464
  419SOL    HW1 2156   2.023   6.421   1.433
  419SOL    HW2 2157   1.889   6.329   1.421
  420SOL     OW 2158   6.346   1.304   0.485
  420SOL    HW1 2159   6.363   1.374   0.416
  420SOL    HW2 2160   6.282   1.339   0.553
  421SOL     OW 2161   0.041   3.948   5.203
  421SOL    HW1 2162   6.963   3.966   5.193
  421SOL    HW2 2163   0.055   3.851   5.224
  422SOL     OW 2164   5.248   3.912   1.658
  422SOL    HW1 2165   5.183   3.971   1.706
  422SOL    HW2 2166   5.337   3.957   1.656
  423SOL     OW 2167   0.842   2.240   6.002
  423SOL    HW1 2168   0.921   2.227   6.062
  423SOL    HW2 2169   0.832   2.338   5.981
  424SOL     OW 2170   1.596   5.273   0.782
  424SOL    HW1 2171   1.529   5.235   0.718
  424SOL    HW2 2172   1.558   5.271   0.875
  425SOL     OW 2173   4.690   1.977   3.503
  425SOL    HW1 2174   4.790   1.979   3.499
  425SOL    HW2 2175   4.661   1.927   3.585
  426SOL     OW 2176   3.292   1.665   4.311
  426SOL    HW1 2177   3.339   1.588   4.268
  426SOL    HW2 2178   3.232   1.708   4.244
  427SOL     OW 2179   5.694   6.447   3.806
  427SOL    HW1 2180   5.734   6.528   3.764
  427SOL    HW2 2181   5.623   6.474   3.871
  428SOL     OW 2182   4.505   6.868   3.523
  428SOL    HW1 2183   4.460   6.941   3.575
  428SOL    HW2 2184   4.479   6.874   3.427
  429SOL     OW 2185   0.935   5.314   2.403
  429SOL    HW1 2186   0.854   5.264   2.372
  429SOL    HW2 2187   1.017   5.265   2.375
  430SOL     OW 2188   1.217   6.671   4.309
  430SOL    HW1 2189   1.293   6.675   4.244
  430SOL    HW2 2190   1.134   6.707   4.266
  431SOL     OW 2191   3.111   0.832   1.239
  431SOL    HW1 2192   3.123   0.928   1.262
  431SOL    HW2 2193   3.147   0.815   1.147
  432SOL     OW 2194   6.340   2.412   1.207
  432SOL    HW1 2195   6.310   2.507   1.203
  432SOL    HW2 2196   6.424   2.405   1.262
  433SOL     OW 2197   2.164   6.544   4.928
  433SOL    HW1 2198   2.172   6.483   4.850
  433SOL    HW2 2199   2.096   6.508   4.992
  434SOL     OW 2200   3.671   5.597   3.619
  434SOL    HW1 2201   3.760   5.564   3.590
  434SOL    HW2 2202   3.676   5.627   3.715
  435SOL     OW 2203   4.661   2.394   6.784
  435SOL    HW1 2204   4.724   2.316   6.785
  435SOL    HW2 2205   4.590   2.378   6.715
  436SOL     OW 2206   3.182   5.153   1.649
  436SOL    HW1 2207   3.180   5.216   1.728
  436SOL    HW2 2208   3.105   5.090   1.655
  437SOL     OW 2209   0.590   1.545   6.403
  437SOL    HW1 2210   0.667   1.596   6.442
  437SOL    HW2 2211   0.505   1.571   6.449
  438SOL     OW 2212   2.181   3.896   3.866
  438SOL    HW1 2213   2.229   3.830   3.809
  438SOL    HW2 2214   2.108   3.939   3.813
  439SOL     OW 2215   5.856   5.934   2.233
  439SOL    HW1 2216   5.839   5.859   2.170
  439SOL    HW2 2217   5.947   5.924   2.273
  440SOL     OW 2218   2.593   2.151   4.838
  440SOL    HW1 2219   2.595   2.097   4.922
  440SOL    HW2 2220   2.602   2.248   4.861
  441SOL     OW 2221   0.743   3.361   3.934
  441SOL    HW1 2222   0.701   3.316   4.013
  441SOL    HW2 2223   0.676   3.365   3.859
  442SOL     OW 2224   3.816   5.804   5.382
  442SOL    HW1 2225   3.738   5.863   5.405
  442SOL    HW2 2226   3.869   5.784   5.465
  443SOL     OW 2227   5.845   4.439   4.003
  443SOL    HW1 2228   5.915   4.376   4.037
  443SOL    HW2 2229   5.834   4.515   4.067
  444SOL     OW 2230   5.136   0.887   6.125
  444SOL    HW1 2231   5.082   0.819   6.076
  444SOL    HW2 2232   5.080   0.928   6.197
  445SOL     OW 2233   1.585   5.701   2.810
  445SOL    HW1 2234   1.577   5.610   2.852
  445SOL    HW2 2235   1.609   5.690   2.713
  446SOL     OW 2236   3.772   4.949   2.954
  446SOL    HW1 2237   3.760   4.926   2.857
  446SOL    HW2 2238   3.853   4.902   2.990
  447SOL     OW 2239   0.149   3.069   5.826
  447SOL    HW1 2240   0.084   3.138   5.794
  447SOL    HW2 2241   0.108   2.978   5.816
  448SOL     OW 2242   2.196   0.333   2.964
  448SOL    HW1 2243   2.209   0.420   3.012
  448SOL    HW2 2244   2.280   0.310   2.914
  449SOL     OW 2245   2.484   1.130   3.895
  449SOL    HW1 2246   2.523   1.219   3.919
  449SOL    HW2 2247   2.453   1.133   3.799
  450SOL     OW 2248   1.473   4.858   3.460
  450SOL    HW1 2249   1.474   4.759   3.455
  450SOL    HW2 2250   1.527   4.889   3.538
  451SOL     OW 2251   1.345   2.029   4.714
  451SOL    HW1 2252   1.293   2.084   4.648
  451SOL    HW2 2253   1.425   1.989   4.669
  452SOL     OW 2254   5.339   6.549   0.479
  452SOL    HW1 2255   5.319   6.491   0.399
  452SOL    HW2 2256   5.433   6.582   0.473
  453SOL     OW 2257   3.756   0.532   6.750
  453SOL    HW1 2258   3.742   0.627   6.721
  453SOL    HW2 2259   3.771   0.529   6.848
  454SOL     OW 2260   0.181   4.225   6.436
  454SOL    HW1 2261   0.174   4.260   6.529
  454SOL    HW2 2262   0.090   4.205   6.400
  455SOL     OW 2263   5.355   2.383   4.265
  455SOL    HW1 2264   5.292   2.309   4.242
  455SOL    HW2 2265   5.307   2.470   4.260
  456SOL     OW 2266   0.226   0.465   3.701
  456SOL    HW1 2267   0.146   0.469   3.642
  456SOL    HW2 2268   0.198   0.478   3.796
  457SOL     OW 2269   1.888   3.649   4.700
  457SOL    HW1 2270   1.922   3.630   4.792
  457SOL    HW2 2271   1.965   3.652   4.636
  458SOL     OW 2272   3.221   6.022   2.713
  458SOL    HW1 2273   3.222   6.120   2.693
  458SOL    HW2 2274   3.312   5.983   2.699
  459SOL     OW 2275   2.294   0.161   6.090
  459SOL    HW1 2276   2.296   0.106   6.006
  459SOL    HW2 2277   2.210   0.142   6.140
  460SOL     OW 2278   2.162   6.779   4.387
  460SOL    HW1 2279   2.226   6.839   4.435
  460SOL    HW2 2280   2.173   6.685   4.421
  461SOL     OW 2281   6.821   5.495   5.715
  461SOL    HW1 2282   6.735   5.452   5.744
  461SOL    HW2 2283   6.801   5.578   5.664
  462SOL     OW 2284   3.949   3.421   6.447
  462SOL    HW1 2285   3.857   3.459   6.458
  462SOL    HW2 2286   3.944   3.321   6.449
  463SOL     OW 2287   6.344   6.106   3.966
  463SOL    HW1 2288   6.372   6.041   3.896
  463SOL    HW2 2289   6.295   6.182   3.923
  464SOL     OW 2290   3.091   0.908   5.305
  464SOL    HW1 2291   3.117   0.998   5.340
  464SOL    HW2 2292   2.992   0.896   5.313
  465SOL     OW 2293   0.829   2.464   0.266
  465SOL    HW1 2294   0.904   2.526   0.240
  465SOL    HW2 2295   0.743   2.500   0.230
  466SOL     OW 2296   1.734   6.596   4.107
  466SOL    HW1 2297   1.806   6.528   4.093
  466SOL    HW2 2298   1.717   6.645   4.021
  467SOL     OW 2299   1.767   1.405   1.506
  467SOL    HW1 2300   1.682   1.412   1.559
  467SOL    HW2 2301   1.801   1.497   1.485
  468SOL     OW 2302   3.353   6.341   5.383
  468SOL    HW1 2303   3.359   6.393   5.298
  468SOL    HW2 2304   3.272   6.368   5.434
  469SOL     OW 2305   2.695   3.743   6.427
  469SOL    HW1 2306   2.691   3.834   6.387
  469SOL    HW2 2307   2.740   3.680   6.363
  470SOL     OW 2308   4.605   6.469   1.020
  470SOL    HW1 2309   4.697   6.432   1.034
  470SOL    HW2 2310   4.609   6.569   1.020
  471SOL     OW 2311   2.342   2.513   3.915
  471SOL    HW1 2312   2.367   2.485   4.007
  471SOL    HW2 2313   2.337   2.613   3.911
  472SOL     OW 2314   5.153   4.474   6.328
  472SOL    HW1 2315   5.087   4.449   6.400
  472SOL    HW2 2316   5.239   4.502   6.370
  473SOL     OW 2317   1.120   2.071   2.527
  473SOL    HW1 2318   1.053   2.133   2.567
  473SOL    HW2 2319   1.089   2.041   2.437
  474SOL     OW 2320   5.488   5.836   4.335
  474SOL    HW1 2321   5.542   5.755   4.310
  474SOL    HW2 2322   5.541   5.892   4.399
  475SOL     OW 2323   6.120   2.174   0.114
  475SOL    HW1 2324   6.103   2.101   0.180
  475SOL    HW2 2325   6.051   2.170   0.041
  476SOL     OW 2326   0.154   3.673   2.147
  476SOL    HW1 2327   0.125   3.666   2.051
  476SOL    HW2 2328   0.130   3.589   2.195
  477SOL     OW 2329   2.534   5.938   2.997
  477SOL    HW1 2330   2.490   5.849   3.004
  477SOL    HW2 2331   2.595   5.940   2.918
  478SOL     OW 2332   3.944   6.400   2.496
  478SOL    HW1 2333   3.889   6.475   2.532
  478SOL    HW2 2334   3.966   6.336   2.570
  479SOL     OW 2335   3.600   3.130   5.148
  479SOL    HW1 2336   3.566   3.217   5.112
  479SOL    HW2 2337   3.535   3.094   5.215
  480SOL     OW 2338   2.234   0.734   0.922
  480SOL    HW1 2339   2.265   0.723   0.827
  480SOL    HW2 2340   2.180   0.817   0.931
  481SOL     OW 2341   0.703   6.700   1.727
  481SOL    HW1 2342   0.800   6.690   1.747
  481SOL    HW2 2343   0.654   6.619   1.762
  482SOL     OW 2344   4.331   4.751   2.166
  482SOL    HW1 2345   4.405   4.815   2.144
  482SOL    HW2 2346   4.256   4.801   2.210
  483SOL     OW 2347   6.374   2.271   2.700
  483SOL    HW1 2348   6.361   2.247   2.796
  483SOL    HW2 2349   6.298   2.326   2.669
  484SOL     OW 2350   1.813   3.416   5.428
  484SOL    HW1 2351   1.771   3.388   5.342
  484SOL    HW2 2352   1.911   3.398   5.425
  485SOL     OW 2353   4.172   4.921   2.599
  485SOL    HW1 2354   4.201   4.999   2.544
  485SOL    HW2 2355   4.093   4.947   2.656
  486SOL     OW 2356   0.180   1.177   0.480
  486SOL    HW1 2357   0.120   1.101   0.505
  486SOL    HW2 2358   0.142   1.225   0.401
  487SOL     OW 2359   0.636   0.433   3.393
  487SOL    HW1 2360   0.695   0.465   3.467
  487SOL    HW2 2361   0.545   0.474   3.401
  488SOL     OW 2362   1.205   0.717   2.760
  488SOL    HW1 2363   1.253   0.754   2.840
  488SOL    HW2 2364   1.258   0.737   2.677
  489SOL     OW 2365   5.236   5.831   5.579
  489SOL    HW1 2366   5.155   5.773   5.589
  489SOL    HW2 2367   5.312   5.777   5.544
  490SOL     OW 2368   1.288   6.087   3.537
  490SOL    HW1 2369   1.361   6.115   3.474
  490SOL    HW2 2370   1.217   6.158   3.540
  491SOL     OW 2371   1.026   3.347   1.965
  491SOL    HW1 2372   1.017   3.384   2.058
  491SOL    HW2 2373   1.013   3.248   1.967
  492SOL     OW 2374   1.274   0.761   5.588
  492SOL    HW1 2375   1.186   0.802   5.609
  492SOL    HW2 2376   1.317   0.811   5.512
  493SOL     OW 2377   3.617   6.264   5.499
  493SOL    HW1 2378   3.681   6.226   5.432
  493SOL    HW2 2379   3.527   6.273   5.457
  494SOL     OW 2380   1.184   7.004   6.222
  494SOL    HW1 2381   1.129   0.044   6.163
  494SOL    HW2 2382   1.140   6.914   6.227
  495SOL     OW 2383   4.009   5.994   3.814
  495SOL    HW1 2384   4.037   6.077   3.767
  495SOL    HW2 2385   4.059   5.916   3.776
  496SOL     OW 2386   5.598   3.038   1.832
  496SOL    HW1 2387   5.645   3.104   1.891
  496SOL    HW2 2388   5.513   3.079   1.799
  497SOL     OW 2389   3.601   1.492   4.412
  497SOL    HW1 2390   3.619   1.518   4.317
  497SOL    HW2 2391   3.673   1.431   4.444
  498SOL     OW 2392   0.705   5.167   2.265
  498SOL    HW1 2393   0.623   5.224   2.259
  498SOL    HW2 2394   0.693   5.098   2.337
  499SOL     OW 2395   1.741   5.318   4.818
  499SOL    HW1 2396   1.740   5.305   4.718
  499SOL    HW2 2397   1.682   5.250   4.861
  500SOL     OW 2398   6.916   2.434   6.052
  500SOL    HW1 2399   6.859   2.434   6.134
  500SOL    HW2 2400   6.896   2.351   5.998
  501SOL     OW 2401   3.951   7.011   0.909
  501SOL    HW1 2402   4.016   6.981   0.979
  501SOL    HW2 2403   3.999   0.048   0.841
  502SOL     OW 2404   0.533   4.546   5.793
  502SOL    HW1 2405   0.618   4.502   5.763
  502SOL    HW2 2406   0.488   4.487   5.860
  503SOL     OW 2407   0.246   4.752   6.753
  503SOL    HW1 2408   0.168   4.780   6.697
  503SOL    HW2 2409   0.303   4.832   6.772
  504SOL     OW 2410   0.733   5.519   2.244
  504SOL    HW1 2411   0.652   5.462   2.235
  504SOL    HW2 2412   0.803   5.488   2.179
  505SOL     OW 2413   3.523   5.825   4.734
  505SOL    HW1 2414   3.613   5.810   4.776
  505SOL    HW2 2415   3.456   5.848   4.805
  506SOL     OW 2416   3.827   5.435   2.947
  506SOL    HW1 2417   3.761   5.446   3.022
  506SOL    HW2 2418   3.826   5.517   2.890
  507SOL     OW 2419   3.781   0.164   3.079
  507SOL    HW1 2420   3.813   0.136   2.988
  507SOL    HW2 2421   3.689   0.204   3.071
  508SOL     OW 2422   6.919   3.540   2.888
  508SOL    HW1 2423   6.956   3.449   2.907
  508SOL    HW2 2424   6.932   3.599   2.968
  509SOL     OW 2425   3.258   1.845   0.991
  509SOL    HW1 2426   3.314   1.763   0.978
  509SOL    HW2 2427   3.264   1.902   0.909
  510SOL     OW 2428   6.225   4.089   0.006
  510SOL    HW1 2429   6.287   4.034   0.062
  510SOL    HW2 2430   6.169   4.029   6.969
  511SOL     OW 2431   0.862   2.751   6.176
  511SOL    HW1 2432   0.888   2.848   6.176
  511SOL    HW2 2433   0.896   2.708   6.093
  512SOL     OW 2434   0.161   2.118   6.745
  512SOL    HW1 2435   0.181   2.083   6.836
  512SOL    HW2 2436   0.209   2.204   6.730
  513SOL     OW 2437   5.579   6.591   3.325
  513SOL    HW1 2438   5.526   6.671   3.296
  513SOL    HW2 2439   5.631   6.556   3.247
  514SOL     OW 2440   6.460   0.211   4.616
  514SOL    HW1 2441   6.399   0.200   4.538
  514SOL    HW2 2442   6.409   0.247   4.694
  515SOL     OW 2443   1.069   0.758   1.371
  515SOL    HW1 2444   1.045   0.661   1.362
  515SOL    HW2 2445   1.103   0.792   1.283
  516SOL     OW 2446   2.635   4.621   2.169
  516SOL    HW1 2447   2.715   4.604   2.112
  516SOL    HW2 2448   2.663   4.627   2.265
  517SOL     OW 2449   3.352   4.859   2.032
  517SOL    HW1 2450   3.418   4.784   2.032
  517SOL    HW2 2451   3.396   4.942   2.000
  518SOL     OW 2452   2.284   2.306   3.744
  518SOL    HW1 2453   2.326   2.395   3.764
  518SOL    HW2 2454   2.356   2.240   3.722
  519SOL     OW 2455   0.760   6.527   3.306
  519SOL    HW1 2456   0.807   6.441   3.323
  519SOL    HW2 2457   0.661   6.512   3.306
  520SOL     OW 2458   6.150   3.454   6.954
  520SOL    HW1 2459   6.099   3.383   6.906
  520SOL    HW2 2460   6.244   3.424   6.970
  521SOL     OW 2461   6.348   6.528   5.295
  521SOL    HW1 2462   6.442   6.492   5.293
  521SOL    HW2 2463   6.325   6.556   5.388
  522SOL     OW 2464   3.717   3.489   3.719
  522SOL    HW1 2465   3.664   3.443   3.790
  522SOL    HW2 2466   3.656   3.545   3.663
  523SOL     OW 2467   0.234   6.400   1.699
  523SOL    HW1 2468   0.303   6.339   1.660
  523SOL    HW2 2469   0.272   6.493   1.705
  524SOL     OW 2470   0.977   2.253   2.666
  524SOL    HW1 2471   0.901   2.309   2.698
  524SOL    HW2 2472   1.063   2.290   2.702
  525SOL     OW 2473   2.085   4.078   6.281
  525SOL    HW1 2474   2.165   4.076   6.342
  525SOL    HW2 2475   2.053   3.984   6.267
  526SOL     OW 2476   3.434   6.443   4.313
  526SOL    HW1 2477   3.384   6.529   4.327
  526SOL    HW2 2478   3.484   6.420   4.396
  527SOL     OW 2479   6.928   2.924   0.636
  527SOL    HW1 2480   6.839   2.955   0.601
  527SOL    HW2 2481   6.969   2.996   0.691
  528SOL     OW 2482   1.926   2.258   3.782
  528SOL    HW1 2483   1.904   2.160   3.780
  528SOL    HW2 2484   2.001   2.273   3.847
  529SOL     OW 2485   1.641   5.854   5.100
  529SOL    HW1 2486   1.606   5.889   5.187
  529SOL    HW2 2487   1.571   5.864   5.029
  530SOL     OW 2488   3.998   3.548   3.682
  530SOL    HW1 2489   4.042   3.559   3.593
  530SOL    HW2 2490   3.907   3.510   3.669
  531SOL     OW 2491   0.519   2.072   2.672
  531SOL    HW1 2492   0.468   2.145   2.718
  531SOL    HW2 2493   0.616   2.094   2.673
  532SOL     OW 2494   0.821   2.776   0.243
  532SOL    HW1 2495   0.903   2.721   0.230
  532SOL    HW2 2496   0.835   2.866   0.202
  533SOL     OW 2497   4.364   0.175   3.443
  533SOL    HW1 2498   4.423   0.256   3.438
  533SOL    HW2 2499   4.358   0.144   3.538
  534SOL     OW 2500   5.249   5.957   2.761
  534SOL    HW1 2501   5.219   5.938   2.854
  534SOL    HW2 2502   5.259   6.055   2.749
  535SOL     OW 2503   6.544   3.747   4.337
  535SOL    HW1 2504   6.625   3.736   4.279
  535SOL    HW2 2505   6.469   3.692   4.301
  536SOL     OW 2506   5.950   4.763   2.670
  536SOL    HW1 2507   5.928   4.838   2.733
  536SOL    HW2 2508   6.039   4.725   2.694
  537SOL     OW 2509   3.075   6.549   4.994
  537SOL    HW1 2510   2.995   6.499   5.027
  537SOL    HW2 2511   3.154   6.527   5.052
  538SOL     OW 2512   0.940   4.328   4.053
  538SOL    HW1 2513   1.028   4.281   4.054
  538SOL    HW2 2514   0.948   4.415   4.103
  539SOL     OW 2515   1.433   5.106   1.228
  539SOL    HW1 2516   1.334   5.111   1.234
  539SOL    HW2 2517   1.463   5.012   1.241
  540SOL     OW 2518   1.451   1.927   2.790
  540SOL    HW1 2519   1.362   1.969   2.773
  540SOL    HW2 2520   1.518   1.964   2.725
  541SOL     OW 2521   5.407   5.354   3.803
  541SOL    HW1 2522   5.415   5.311   3.714
  541SOL    HW2 2523   5.467   5.435   3.806
  542SOL     OW 2524   5.944   6.793   6.563
  542SOL    HW1 2525   5.909   6.871   6.511
  542SOL    HW2 2526   5.879   6.717   6.558
  543SOL     OW 2527   6.847   4.135   4.947
  543SOL    HW1 2528   6.944   4.149   4.925
  543SOL    HW2 2529   6.839   4.089   5.035
  544SOL     OW 2530   1.296   5.075   0.414
  544SOL    HW1 2531   1.295   5.140   0.337
  544SOL    HW2 2532   1.207   5.031   0.421
  545SOL     OW 2533   3.273   1.629   0.660
  545SOL    HW1 2534   3.293   1.643   0.757
  545SOL    HW2 2535   3.287   1.533   0.637
  546SOL     OW 2536   1.896   3.762   0.322
  546SOL    HW1 2537   1.840   3.687   0.357
  546SOL    HW2 2538   1.915   3.746   0.225
  547SOL     OW 2539   2.984   1.722   0.250
  547SOL    HW1 2540   3.072   1.757   0.219
  547SOL    HW2 2541   2.946   1.660   0.181
  548SOL     OW 2542   3.266   3.545   1.991
  548SOL    HW1 2543   3.171   3.556   2.020
  548SOL    HW2 2544   3.272   3.473   1.921
  549SOL     OW 2545   5.798   2.475   0.943
  549SOL    HW1 2546   5.790   2.510   0.849
  549SOL    HW2 2547   5.711   2.436   0.972
  550SOL     OW 2548   1.259   5.528   4.046
  550SOL    HW1 2549   1.262   5.468   4.126
  550SOL    HW2 2550   1.315   5.490   3.973
  551SOL     OW 2551   1.048   0.113   2.383
  551SOL    HW1 2552   1.113   0.093   2.456
  551SOL    HW2 2553   1.095   0.111   2.295
  552SOL     OW 2554   6.521   4.620   6.731
  552SOL    HW1 2555   6.581   4.641   6.808
  552SOL    HW2 2556   6.529   4.691   6.662
  553SOL     OW 2557   2.475   6.411   3.808
  553SOL    HW1 2558   2.555   6.446   3.856
  553SOL    HW2 2559   2.401   6.395   3.873
  554SOL     OW 2560   6.383   0.098   6.817
  554SOL    HW1 2561   6.304   0.095   6.878
  554SOL    HW2 2562   6.351   0.104   6.722
  555SOL     OW 2563   2.907   4.872   4.490
  555SOL    HW1 2564   2.852   4.819   4.554
  555SOL    HW2 2565   2.991   4.903   4.534
  556SOL     OW 2566   4.409   2.027   3.838
  556SOL    HW1 2567   4.458   2.106   3.874
  556SOL    HW2 2568   4.361   2.052   3.754
  557SOL     OW 2569   6.938   5.659   1.292
  557SOL    HW1 2570   6.966   5.568   1.322
  557SOL    HW2 2571   6.839   5.665   1.290
  558SOL     OW 2572   3.125   3.504   3.404
  558SOL    HW1 2573   3.062   3.579   3.382
  558SOL    HW2 2574   3.085   3.448   3.477
  559SOL     OW 2575   0.250   5.415   6.776
  559SOL    HW1 2576   0.249   5.457   6.685
  559SOL    HW2 2577   0.212   5.323   6.770
  560SOL     OW 2578   5.502   4.311   4.564
  560SOL    HW1 2579   5.456   4.246   4.625
  560SOL    HW2 2580   5.597   4.283   4.551
  561SOL     OW 2581   0.576   1.883   1.494
  561SOL    HW1 2582   0.502   1.943   1.524
  561SOL    HW2 2583   0.553   1.788   1.514
  562SOL     OW 2584   4.537   6.776   6.222
  562SOL    HW1 2585   4.443   6.803   6.198
  562SOL    HW2 2586   4.594   6.778   6.140
  563SOL     OW 2587   2.784   0.023   3.259
  563SOL    HW1 2588   2.882   0.010   3.268
  563SOL    HW2 2589   2.738   6.954   3.267
  564SOL     OW 2590   1.083   2.825   6.751
  564SOL    HW1 2591   1.034   2.898   6.798
  564SOL    HW2 2592   1.081   2.742   6.808
  565SOL     OW 2593   3.299   2.978   4.861
  565SOL    HW1 2594   3.377   2.935   4.907
  565SOL    HW2 2595   3.222   2.984   4.925
  566SOL     OW 2596   0.325   4.571   3.775
  566SOL    HW1 2597   0.385   4.542   3.700
  566SOL    HW2 2598   0.230   4.560   3.748
  567SOL     OW 2599   2.805   2.829   1.377
  567SOL    HW1 2600   2.786   2.916   1.422
  567SOL    HW2 2601   2.722   2.773   1.376
  568SOL     OW 2602   4.952   0.510   6.834
  568SOL    HW1 2603   5.015   0.446   6.879
  568SOL    HW2 2604   4.876   0.459   6.794
  569SOL     OW 2605   1.732   2.635   0.140
  569SOL    HW1 2606   1.743   2.687   0.224
  569SOL    HW2 2607   1.821   2.602   0.108
  570SOL     OW 2608   4.235   6.112   6.510
  570SOL    HW1 2609   4.297   6.116   6.588
  570SOL    HW2 2610   4.207   6.205   6.484
  571SOL     OW 2611   3.200   6.300   2.020
  571SOL    HW1 2612   3.159   6.271   2.106
  571SOL    HW2 2613   3.158   6.249   1.944
  572SOL     OW 2614   2.511   4.923   5.542
  572SOL    HW1 2615   2.434   4.913   5.479
  572SOL    HW2 2616   2.570   4.842   5.536
  573SOL     OW 2617   4.797   1.216   6.138
  573SOL    HW1 2618   4.718   1.234   6.196
  573SOL    HW2 2619   4.859   1.153   6.184
  574SOL     OW 2620   3.409   1.291   4.201
  574SOL    HW1 2621   3.313   1.264   4.196
  574SOL    HW2 2622   3.419   1.386   4.173
  575SOL     OW 2623   4.809   3.715   0.210
  575SOL    HW1 2624   4.745   3.659   0.157
  575SOL    HW2 2625   4.777   3.810   0.212
  576SOL     OW 2626   1.148   1.961   3.366
  576SOL    HW1 2627   1.129   2.059   3.363
  576SOL    HW2 2628   1.063   1.910   3.360
  577SOL     OW 2629   1.482   1.416   2.936
  577SOL    HW1 2630   1.488   1.515   2.922
  577SOL    HW2 2631   1.465   1.372   2.848
  578SOL     OW 2632   6.070   5.074   4.120
  578SOL    HW1 2633   5.994   5.016   4.092
  578SOL    HW2 2634   6.048   5.169   4.100
  579SOL     OW 2635   1.771   3.205   3.877
  579SOL    HW1 2636   1.863   3.166   3.886
  579SOL    HW2 2637   1.755   3.270   3.951
  580SOL     OW 2638   4.835   5.857   6.312
  580SOL    HW1 2639   4.792   5.875   6.400
  580SOL    HW2 2640   4.780   5.896   6.239
  581SOL     OW 2641   2.099   3.308   1.536
  581SOL    HW1 2642   2.084   3.383   1.471
  581SOL    HW2 2643   2.061   3.224   1.498
  582SOL     OW 2644   4.099   6.090   1.545
  582SOL    HW1 2645   4.010   6.132   1.562
  582SOL    HW2 2646   4.158   6.103   1.624
  583SOL     OW 2647   2.914   6.306   5.349
  583SOL    HW1 2648   2.990   6.324   5.411
  583SOL    HW2 2649   2.872   6.218   5.372
  584SOL     OW 2650   3.475   5.131   6.729
  584SOL    HW1 2651   3.415   5.051   6.737
  584SOL    HW2 2652   3.566   5.102   6.698
  585SOL     OW 2653   4.912   1.828   6.408
  585SOL    HW1 2654   4.848   1.783   6.471
  585SOL    HW2 2655   4.981   1.877   6.461
  586SOL     OW 2656   3.648   0.782   6.034
  586SOL    HW1 2657   3.691   0.869   6.056
  586SOL    HW2 2658   3.710   0.707   6.059
  587SOL     OW 2659   4.533   1.707   4.798
  587SOL    HW1 2660   4.621   1.752   4.788
  587SOL    HW2 2661   4.488   1.739   4.882
  588SOL     OW 2662   1.790   4.670   2.069
  588SOL    HW1 2663   1.867   4.701   2.125
  588SOL    HW2 2664   1.823   4.607   1.998
  589SOL     OW 2665   3.349   4.510   1.604
  589SOL    HW1 2666   3.259   4.537   1.637
  589SOL    HW2 2667   3.418   4.534   1.672
  590SOL     OW 2668   5.107   3.031   2.713
  590SOL    HW1 2669   5.143   3.067   2.627
  590SOL    HW2 2670   5.088   2.933   2.702
  591SOL     OW 2671   2.745   5.377   3.843
  591SOL    HW1 2672   2.655   5.367   3.802
  591SOL    HW2 2673   2.741   5.445   3.916
  592SOL     OW 2674   4.148   1.567   1.428
  592SOL    HW1 2675   4.140   1.545   1.526
  592SOL    HW2 2676   4.057   1.563   1.386
  593SOL     OW 2677   4.399   2.309   4.637
  593SOL    HW1 2678   4.472   2.365   4.597
  593SOL    HW2 2679   4.436   2.218   4.657
  594SOL     OW 2680   6.822   1.623   0.584
  594SOL    HW1 2681   6.789   1.665   0.669
  594SOL    HW2 2682   6.891   1.682   0.543
  595SOL     OW 2683   5.493   0.414   3.420
  595SOL    HW1 2684   5.409   0.375   3.457
  595SOL    HW2 2685   5.474   0.503   3.379
  596SOL     OW 2686   1.202   5.264   3.615
  596SOL    HW1 2687   1.182   5.305   3.526
  596SOL    HW2 2688   1.186   5.330   3.688
  597SOL     OW 2689   2.930   0.465   0.014
  597SOL    HW1 2690   2.903   0.397   0.082
  597SOL    HW2 2691   3.007   0.518   0.048
  598SOL     OW 2692   4.003   4.453   5.393
  598SOL    HW1 2693   3.948   4.532   5.366
  598SOL    HW2 2694   3.997   4.440   5.492
  599SOL     OW 2695   2.489   6.206   1.422
  599SOL    HW1 2696   2.568   6.174   1.369
  599SOL    HW2 2697   2.515   6.288   1.474
  600SOL     OW 2698   7.011   1.489   6.552
  600SOL    HW1 2699   0.067   1.431   6.523
  600SOL    HW2 2700   6.930   1.469   6.496
  601SOL     OW 2701   1.479   0.113   4.776
  601SOL    HW1 2702   1.573   0.118   4.810
  601SOL    HW2 2703   1.463   0.189   4.713
  602SOL     OW 2704   1.756   2.038   6.565
  602SOL    HW1 2705   1.821   1.964   6.547
  602SOL    HW2 2706   1.720   2.073   6.478
  603SOL     OW 2707   2.767   2.310   5.183
  603SOL    HW1 2708   2.826   2.242   5.227
  603SOL    HW2 2709   2.762   2.292   5.085
  604SOL     OW 2710   1.364   2.500   1.893
  604SOL    HW1 2711   1.372   2.408   1.931
  604SOL    HW2 2712   1.279   2.507   1.840
  605SOL     OW 2713   6.819   6.330   0.550
  605SOL    HW1 2714   6.750   6.316   0.621
  605SOL    HW2 2715   6.859   6.421   0.560
  606SOL     OW 2716   4.904   6.757   6.798
  606SOL    HW1 2717   4.978   6.740   6.733
  606SOL    HW2 2718   4.942   6.790   6.884
  607SOL     OW 2719   6.499   6.010   5.877
  607SOL    HW1 2720   6.513   5.922   5.832
  607SOL    HW2 2721   6.588   6.049   5.902
  608SOL     OW 2722   3.836   6.101   0.005
  608SOL    HW1 2723   3.922   6.114   0.055
  608SOL    HW2 2724   3.764   6.156   0.046
  609SOL     OW 2725   4.002   3.087   2.816
  609SOL    HW1 2726   3.952   3.032   2.882
  609SOL    HW2 2727   4.040   3.167   2.861
  610SOL     OW 2728   5.482   4.057   2.050
  610SOL    HW1 2729   5.499   3.959   2.057
  610SOL    HW2 2730   5.569   4.107   2.061
  611SOL     OW 2731   4.109   6.925   1.128
  611SOL    HW1 2732   4.150   6.835   1.111
  611SOL    HW2 2733   4.154   6.968   1.206
  612SOL     OW 2734   4.027   6.774   5.293
  612SOL    HW1 2735   4.047   6.751   5.198
  612SOL    HW2 2736   4.068   6.706   5.354
  613SOL     OW 2737   4.243   6.043   5.711
  613SOL    HW1 2738   4.156   6.071   5.752
  613SOL    HW2 2739   4.295   6.125   5.684
  614SOL     OW 2740   5.616   5.277   0.848
  614SOL    HW1 2741   5.610   5.178   0.839
  614SOL    HW2 2742   5.648   5.300   0.940
  615SOL     OW 2743   6.516   2.177   1.426
  615SOL    HW1 2744   6.548   2.238   1.354
  615SOL    HW2 2745   6.560   2.088   1.418
  616SOL     OW 2746   0.352   3.197   3.496
  616SOL    HW1 2747   0.411   3.124   3.530
  616SOL    HW2 2748   0.389   3.234   3.411
  617SOL     OW 2749   6.300   4.361   5.991
  617SOL    HW1 2750   6.256   4.278   5.957
  617SOL    HW2 2751   6.398   4.356   5.972
  618SOL     OW 2752   6.879   2.247   6.861
  618SOL    HW1 2753   6.819   2.171   6.887
  618SOL    HW2 2754   6.966   2.211   6.828
  619SOL     OW 2755   4.383   1.379   6.986
  619SOL    HW1 2756   4.443   1.449   6.945
  619SOL    HW2 2757   4.366   1.402   0.062
  620SOL     OW 2758   4.435   2.864   1.423
  620SOL    HW1 2759   4.463   2.867   1.520
  620SOL    HW2 2760   4.510   2.828   1.368
  621SOL     OW 2761   2.969   0.245   6.823
  621SOL    HW1 2762   2.963   0.192   6.738
  621SOL    HW2 2763   2.962   0.342   6.802
  622SOL     OW 2764   1.735   0.370   5.435
  622SOL    HW1 2765   1.756   0.398   5.529
  622SOL    HW2 2766   1.677   0.289   5.436
  623SOL     OW 2767   0.824   5.823   5.129
  623SOL    HW1 2768   0.854   5.761   5.201
  623SOL    HW2 2769   0.830   5.917   5.161
  624SOL     OW 2770   6.992   2.622   1.246
  624SOL    HW1 2771   0.046   2.688   1.230
  624SOL    HW2 2772   0.002   2.531   1.217
  625SOL     OW 2773   1.864   1.753   2.317
  625SOL    HW1 2774   1.823   1.784   2.231
  625SOL    HW2 2775   1.961   1.734   2.303
  626SOL     OW 2776   2.029   5.697   3.347
  626SOL    HW1 2777   2.073   5.759   3.281
  626SOL    HW2 2778   2.001   5.749   3.428
  627SOL     OW 2779   6.022   6.074   0.659
  627SOL    HW1 2780   6.097   6.123   0.614
  627SOL    HW2 2781   5.958   6.040   0.590
  628SOL     OW 2782   5.864   5.826   5.992
  628SOL    HW1 2783   5.913   5.765   5.930
  628SOL    HW2 2784   5.928   5.863   6.059
  629SOL     OW 2785   6.894   6.941   6.902
  629SOL    HW1 2786   6.970   6.998   6.873
  629SOL    HW2 2787   6.812   6.997   6.913
  630SOL     OW 2788   0.490   1.396   1.410
  630SOL    HW1 2789   0.432   1.375   1.332
  630SOL    HW2 2790   0.582   1.362   1.394
  631SOL     OW 2791   3.865   6.759   5.037
  631SOL    HW1 2792   3.784   6.711   5.072
  631SOL    HW2 2793   3.844   6.856   5.026
  632SOL     OW 2794   3.054   1.319   0.881
  632SOL    HW1 2795   3.050   1.312   0.781
  632SOL    HW2 2796   3.089   1.233   0.919
  633SOL     OW 2797   3.120   3.788   0.045
  633SOL    HW1 2798   3.121   3.867   7.004
  633SOL    HW2 2799   3.189   3.722   0.015
  634SOL     OW 2800   4.221   3.890   1.203
  634SOL    HW1 2801   4.128   3.924   1.191
  634SOL    HW2 2802   4.285   3.967   1.199
  635SOL     OW 2803   4.402   5.186   1.755
  635SOL    HW1 2804   4.391   5.088   1.743
  635SOL    HW2 2805   4.332   5.234   1.703
  636SOL     OW 2806   3.525   5.688   0.290
  636SOL    HW1 2807   3.455   5.617   0.299
  636SOL    HW2 2808   3.500   5.749   0.215
  637SOL     OW 2809   6.843   3.768   3.439
  637SOL    HW1 2810   6.799   3.684   3.406
  637SOL    HW2 2811   6.941   3.765   3.418
  638SOL     OW 2812   5.408   1.971   4.025
  638SOL    HW1 2813   5.423   1.904   3.952
  638SOL    HW2 2814   5.465   2.051   4.008
  639SOL     OW 2815   5.484   3.636   3.058
  639SOL    HW1 2816   5.406   3.630   3.120
  639SOL    HW2 2817   5.553   3.568   3.084
  640SOL     OW 2818   0.624   5.118   3.755
  640SOL    HW1 2819   0.666   5.197   3.710
  640SOL    HW2 2820   0.656   5.034   3.712
  641SOL     OW 2821   6.291   5.195   5.065
  641SOL    HW1 2822   6.373   5.138   5.071
  641SOL    HW2 2823   6.228   5.170   5.139
  642SOL     OW 2824   6.532   2.990   4.997
  642SOL    HW1 2825   6.551   2.973   5.094
  642SOL    HW2 2826   6.508   3.086   4.984
  643SOL     OW 2827   5.981   5.911   5.488
  643SOL    HW1 2828   6.049   5.957   5.430
  643SOL    HW2 2829   5.923   5.853   5.432
  644SOL     OW 2830   1.120   6.025   4.829
  644SOL    HW1 2831   1.060   6.063   4.900
  644SOL    HW2 2832   1.214   6.055   4.846
  645SOL     OW 2833   4.287   0.966   3.902
  645SOL    HW1 2834   4.232   1.042   3.937
  645SOL    HW2 2835   4.380   0.997   3.885
  646SOL     OW 2836   3.105   0.999   4.773
  646SOL    HW1 2837   3.032   0.935   4.749
  646SOL    HW2 2838   3.190   0.970   4.730
  647SOL     OW 2839   5.237   1.465   4.818
  647SOL    HW1 2840   5.330   1.463   4.854
  647SOL    HW2 2841   5.224   1.548   4.765
  648SOL     OW 2842   0.856   3.555   4.045
  648SOL    HW1 2843   0.796   3.492   3.996
  648SOL    HW2 2844   0.869   3.522   4.139
  649SOL     OW 2845   3.046   3.867   0.898
  649SOL    HW1 2846   3.048   3.965   0.878
  649SOL    HW2 2847   3.060   3.853   0.996
  650SOL     OW 2848   6.001   4.631   0.732
  650SOL    HW1 2849   5.920   4.627   0.791
  650SOL    HW2 2850   6.042   4.540   0.726
  651SOL     OW 2851   6.885   5.932   6.261
  651SOL    HW1 2852   6.955   5.879   6.213
  651SOL    HW2 2853   6.881   6.024   6.224
  652SOL     OW 2854   5.131   6.364   3.933
  652SOL    HW1 2855   5.216   6.346   3.983
  652SOL    HW2 2856   5.150   6.365   3.835
  653SOL     OW 2857   1.908   5.905   5.119
  653SOL    HW1 2858   1.933   5.920   5.215
  653SOL    HW2 2859   1.810   5.885   5.113
  654SOL     OW 2860   0.421   4.398   5.974
  654SOL    HW1 2861   0.413   4.392   6.073
  654SOL    HW2 2862   0.461   4.314   5.939
  655SOL     OW 2863   0.271   5.843   2.326
  655SOL    HW1 2864   0.319   5.929   2.307
  655SOL    HW2 2865   0.293   5.813   2.419
  656SOL     OW 2866   1.336   5.302   1.453
  656SOL    HW1 2867   1.384   5.275   1.369
  656SOL    HW2 2868   1.244   5.263   1.451
  657SOL     OW 2869   1.815   2.953   1.530
  657SOL    HW1 2870   1.770   2.974   1.617
  657SOL    HW2 2871   1.775   2.870   1.491
  658SOL     OW 2872   2.881   4.359   6.722
  658SOL    HW1 2873   2.947   4.375   6.650
  658SOL    HW2 2874   2.849   4.447   6.758
  659SOL     OW 2875   2.268   5.880   5.436
  659SOL    HW1 2876   2.326   5.847   5.362
  659SOL    HW2 2877   2.180   5.832   5.433
  660SOL     OW 2878   5.672   4.716   2.748
  660SOL    HW1 2879   5.755   4.669   2.779
  660SOL    HW2 2880   5.696   4.785   2.680
  661SOL     OW 2881   4.565   5.214   3.453
  661SOL    HW1 2882   4.649   5.161   3.463
  661SOL    HW2 2883   4.566   5.261   3.364
  662SOL     OW 2884   4.227   0.452   5.266
  662SOL    HW1 2885   4.284   0.390   5.321
  662SOL    HW2 2886   4.132   0.422   5.269
  663SOL     OW 2887   2.371   4.001   6.897
  663SOL    HW1 2888   2.460   3.959   6.914
  663SOL    HW2 2889   2.300   3.949   6.942
  664SOL     OW 2890   0.109   5.183   6.721
  664SOL    HW1 2891   0.137   5.128   6.642
  664SOL    HW2 2892   0.019   5.224   6.703
  665SOL     OW 2893   5.258   4.725   0.986
  665SOL    HW1 2894   5.250   4.701   1.083
  665SOL    HW2 2895   5.237   4.823   0.975
  666SOL     OW 2896   4.820   2.135   2.248
  666SOL    HW1 2897   4.744   2.173   2.301
  666SOL    HW2 2898   4.793   2.127   2.152
  667SOL     OW 2899   0.051   4.619   3.555
  667SOL    HW1 2900   0.081   4.709   3.586
  667SOL    HW2 2901   0.016   4.567   3.633
  668SOL     OW 2902   5.757   6.604   6.555
  668SOL    HW1 2903   5.672   6.592   6.606
  668SOL    HW2 2904   5.750   6.559   6.466
  669SOL     OW 2905   4.179   0.349   3.798
  669SOL    HW1 2906   4.080   0.351   3.789
  669SOL    HW2 2907   4.212   0.255   3.786
  670SOL     OW 2908   3.101   2.865   0.905
  670SOL    HW1 2909   3.031   2.882   0.974
  670SOL    HW2 2910   3.191   2.892   0.940
  671SOL     OW 2911   2.004   6.258   0.625
  671SOL    HW1 2912   2.103   6.245   0.619
  671SOL    HW2 2913   1.959   6.197   0.559
  672SOL     OW 2914   0.928   5.468   2.049
  672SOL    HW1 2915   1.025   5.464   2.026
  672SOL    HW2 2916   0.878   5.514   1.975
  673SOL     OW 2917   0.428   0.406   2.074
  673SOL    HW1 2918   0.526   0.406   2.092
  673SOL    HW2 2919   0.385   0.481   2.124
  674SOL     OW 2920   0.027   2.153   5.176
  674SOL    HW1 2921   0.101   2.200   5.128
  674SOL    HW2 2922   0.028   2.178   5.273
  675SOL     OW 2923   0.878   1.443   3.628
  675SOL    HW1 2924   0.855   1.482   3.717
  675SOL    HW2 2925   0.818   1.365   3.609
  676SOL     OW 2926   3.677   5.813   3.030
  676SOL    HW1 2927   3.618   5.773   3.101
  676SOL    HW2 2928   3.744   5.874   3.073
  677SOL     OW 2929   6.786   1.979   0.535
  677SOL    HW1 2930   6.733   1.936   0.608
  677SOL    HW2 2931   6.883   1.960   0.548
  678SOL     OW 2932   2.033   1.599   5.721
  678SOL    HW1 2933   2.001   1.675   5.778
  678SOL    HW2 2934   2.009   1.615   5.626
  679SOL     OW 2935   4.477   1.786   3.922
  679SOL    HW1 2936   4.456   1.882   3.903
  679SOL    HW2 2937   4.556   1.780   3.984
  680SOL     OW 2938   5.518   5.919   5.460
  680SOL    HW1 2939   5.582   5.996   5.459
  680SOL    HW2 2940   5.451   5.933   5.533
  681SOL     OW 2941   5.656   5.122   1.454
  681SOL    HW1 2942   5.665   5.095   1.358
  681SOL    HW2 2943   5.577   5.182   1.464
  682SOL     OW 2944   0.863   1.473   0.250
  682SOL    HW1 2945   0.832   1.503   0.340
  682SOL    HW2 2946   0.875   1.374   0.250
  683SOL     OW 2947   4.345   3.649   0.566
  683SOL    HW1 2948   4.301   3.561   0.584
  683SOL    HW2 2949   4.316   3.683   0.476
  684SOL     OW 2950   0.338   0.958   6.712
  684SOL    HW1 2951   0.344   0.860   6.690
  684SOL    HW2 2952   0.251   0.976   6.758
  685SOL     OW 2953   4.298   1.090   3.515
  685SOL    HW1 2954   4.386   1.066   3.555
  685SOL    HW2 2955   4.258   1.167   3.565
  686SOL     OW 2956   5.215   2.729   3.610
  686SOL    HW1 2957   5.140   2.792   3.588
  686SOL    HW2 2958   5.258   2.758   3.695
  687SOL     OW 2959   0.505   2.482   4.610
  687SOL    HW1 2960   0.415   2.496   4.567
  687SOL    HW2 2961   0.569   2.447   4.541
  688SOL     OW 2962   1.126   1.877   0.409
  688SOL    HW1 2963   1.224   1.895   0.404
  688SOL    HW2 2964   1.076   1.964   0.409
  689SOL     OW 2965   6.572   3.956   6.891
  689SOL    HW1 2966   6.648   3.893   6.907
  689SOL    HW2 2967   6.581   4.035   6.952
  690SOL     OW 2968   0.209   4.542   3.025
  690SOL    HW1 2969   0.303   4.556   2.995
  690SOL    HW2 2970   0.181   4.448   3.005
  691SOL     OW 2971   2.152   6.839   6.991
  691SOL    HW1 2972   2.193   6.906   0.033
  691SOL    HW2 2973   2.176   6.862   6.897
  692SOL     OW 2974   3.306   6.657   3.533
  692SOL    HW1 2975   3.243   6.713   3.478
  692SOL    HW2 2976   3.309   6.564   3.496
  693SOL     OW 2977   6.321   0.967   3.458
  693SOL    HW1 2978   6.258   0.890   3.467
  693SOL    HW2 2979   6.377   0.953   3.376
  694SOL     OW 2980   4.065   5.954   2.877
  694SOL    HW1 2981   4.054   5.938   2.779
  694SOL    HW2 2982   4.159   5.982   2.895
  695SOL     OW 2983   3.929   6.337   4.002
  695SOL    HW1 2984   3.922   6.293   4.091
  695SOL    HW2 2985   4.015   6.309   3.958
  696SOL     OW 2986   4.134   4.911   2.307
  696SOL    HW1 2987   4.114   4.904   2.404
  696SOL    HW2 2988   4.065   4.861   2.255
  697SOL     OW 2989   2.038   3.597   3.766
  697SOL    HW1 2990   2.039   3.569   3.862
  697SOL    HW2 2991   1.957   3.559   3.722
  698SOL     OW 2992   5.279   6.463   0.221
  698SOL    HW1 2993   5.270   6.557   0.188
  698SOL    HW2 2994   5.195   6.413   0.200
  699SOL     OW 2995   1.971   3.188   6.157
  699SOL    HW1 2996   1.997   3.169   6.252
  699SOL    HW2 2997   1.939   3.103   6.115
  700SOL     OW 2998   3.097   1.139   2.661
  700SOL    HW1 2999   3.187   1.155   2.621
  700SOL    HW2 3000   3.102   1.062   2.725
  701SOL     OW 3001   6.586   3.494   5.750
  701SOL    HW1 3002   6.658   3.438   5.790
  701SOL    HW2 3003   6.514   3.510   5.817
  702SOL     OW 3004   1.247   5.721   5.011
  702SOL    HW1 3005   1.329   5.748   4.960
  702SOL    HW2 3006   1.244   5.771   5.098
  703SOL     OW 3007   3.471   4.297   6.174
  703SOL    HW1 3008   3.391   4.357   6.187
  703SOL    HW2 3009   3.448   4.205   6.205
  704SOL     OW 3010   1.396   1.912   0.406
  704SOL    HW1 3011   1.445   1.959   0.479
  704SOL    HW2 3012   1.448   1.833   0.375
  705SOL     OW 3013   5.902   6.302   2.440
  705SOL    HW1 3014   5.944   6.243   2.509
  705SOL    HW2 3015   5.803   6.288   2.440
  706SOL     OW 3016   4.440   2.501   4.861
  706SOL    HW1 3017   4.430   2.472   4.766
  706SOL    HW2 3018   4.352   2.494   4.908
  707SOL     OW 3019   4.815   5.287   2.840
  707SOL    HW1 3020   4.877   5.273   2.917
  707SOL    HW2 3021   4.742   5.350   2.867
  708SOL     OW 3022   4.417   6.614   1.719
  708SOL    HW1 3023   4.491   6.622   1.785
  708SOL    HW2 3024   4.453   6.580   1.633
  709SOL     OW 3025   0.476   5.985   1.608
  709SOL    HW1 3026   0.470   5.920   1.533
  709SOL    HW2 3027   0.489   5.936   1.694
  710SOL     OW 3028   3.777   2.967   1.882
  710SOL    HW1 3029   3.804   2.944   1.975
  710SOL    HW2 3030   3.738   2.886   1.838
  711SOL     OW 3031   0.010   3.548   5.641
  711SOL    HW1 3032   6.993   3.510   5.556
  711SOL    HW2 3033   7.001   3.643   5.650
  712SOL     OW 3034   4.630   3.180   1.402
  712SOL    HW1 3035   4.654   3.091   1.363
  712SOL    HW2 3036   4.591   3.238   1.330
  713SOL     OW 3037   4.453   2.468   5.805
  713SOL    HW1 3038   4.400   2.548   5.775
  713SOL    HW2 3039   4.467   2.407   5.728
  714SOL     OW 3040   6.522   4.285   3.678
  714SOL    HW1 3041   6.561   4.239   3.758
  714SOL    HW2 3042   6.423   4.290   3.688
  715SOL     OW 3043   5.344   5.582   0.331
  715SOL    HW1 3044   5.286   5.561   0.409
  715SOL    HW2 3045   5.439   5.558   0.353
  716SOL     OW 3046   0.367   0.728   1.905
  716SOL    HW1 3047   0.361   0.693   1.998
  716SOL    HW2 3048   0.436   0.677   1.854
  717SOL     OW 3049   6.391   4.548   5.676
  717SOL    HW1 3050   6.477   4.567   5.722
  717SOL    HW2 3051   6.380   4.449   5.666
  718SOL     OW 3052   5.165   2.485   6.149
  718SOL    HW1 3053   5.115   2.572   6.149
  718SOL    HW2 3054   5.216   2.476   6.063
  719SOL     OW 3055   5.840   0.536   2.263
  719SOL    HW1 3056   5.929   0.580   2.271
  719SOL    HW2 3057   5.777   0.577   2.330
  720SOL     OW 3058   3.005   0.458   5.991
  720SOL    HW1 3059   2.994   0.555   5.971
  720SOL    HW2 3060   2.916   0.418   6.013
  721SOL     OW 3061   2.582   2.089   3.438
  721SOL    HW1 3062   2.625   2.010   3.395
  721SOL    HW2 3063   2.581   2.166   3.374
  722SOL     OW 3064   3.488   0.237   5.588
  722SOL    HW1 3065   3.400   0.194   5.567
  722SOL    HW2 3066   3.473   0.311   5.654
  723SOL     OW 3067   1.898   4.933   3.332
  723SOL    HW1 3068   1.823   4.981   3.378
  723SOL    HW2 3069   1.860   4.876   3.259
  724SOL     OW 3070   0.848   3.272   4.674
  724SOL    HW1 3071   0.881   3.365   4.661
  724SOL    HW2 3072   0.921   3.207   4.657
  725SOL     OW 3073   2.427   5.477   1.131
  725SOL    HW1 3074   2.427   5.448   1.227
  725SOL    HW2 3075   2.348   5.438   1.084
  726SOL     OW 3076   3.909   4.999   1.405
  726SOL    HW1 3077   3.874   5.004   1.499
  726SOL    HW2 3078   3.866   4.923   1.358
  727SOL     OW 3079   5.647   5.102   5.421
  727SOL    HW1 3080   5.643   5.144   5.330
  727SOL    HW2 3081   5.638   5.173   5.490
  728SOL     OW 3082   6.857   2.742   4.647
  728SOL    HW1 3083   6.850   2.644   4.667
  728SOL    HW2 3084   6.888   2.755   4.553
  729SOL     OW 3085   1.108   2.327   1.379
  729SOL    HW1 3086   1.180   2.327   1.309
  729SOL    HW2 3087   1.149   2.340   1.469
  730SOL     OW 3088   5.345   0.326   5.136
  730SOL    HW1 3089   5.373   0.405   5.191
  730SOL    HW2 3090   5.425   0.288   5.089
  731SOL     OW 3091   5.284   3.979   6.232
  731SOL    HW1 3092   5.372   3.948   6.196
  731SOL    HW2 3093   5.289   3.986   6.332
  732SOL     OW 3094   0.041   2.697   1.543
  732SOL    HW1 3095   0.116   2.652   1.495
  732SOL    HW2 3096   7.018   2.765   1.483
  733SOL     OW 3097   5.462   6.667   5.429
  733SOL    HW1 3098   5.460   6.648   5.527
  733SOL    HW2 3099   5.539   6.618   5.388
  734SOL     OW 3100   6.548   5.063   2.778
  734SOL    HW1 3101   6.552   5.038   2.681
  734SOL    HW2 3102   6.612   5.138   2.796
  735SOL     OW 3103   4.263   1.594   6.772
  735SOL    HW1 3104   4.244   1.639   6.859
  735SOL    HW2 3105   4.191   1.616   6.706
  736SOL     OW 3106   6.765   1.675   3.745
  736SOL    HW1 3107   6.842   1.659   3.805
  736SOL    HW2 3108   6.770   1.613   3.667
  737SOL     OW 3109   4.794   1.621   4.527
  737SOL    HW1 3110   4.800   1.609   4.626
  737SOL    HW2 3111   4.862   1.563   4.482
  738SOL     OW 3112   2.510   3.922   1.525
  738SOL    HW1 3113   2.479   3.975   1.446
  738SOL    HW2 3114   2.586   3.970   1.569
  739SOL     OW 3115   5.136   0.554   4.262
  739SOL    HW1 3116   5.129   0.645   4.303
  739SOL    HW2 3117   5.171   0.489   4.330
  740SOL     OW 3118   6.448   0.774   1.323
  740SOL    HW1 3119   6.371   0.711   1.309
  740SOL    HW2 3120   6.517   0.729   1.379
  741SOL     OW 3121   2.131   6.495   3.691
  741SOL    HW1 3122   2.069   6.545   3.751
  741SOL    HW2 3123   2.221   6.539   3.691
  742SOL     OW 3124   2.744   6.530   2.415
  742SOL    HW1 3125   2.817   6.583   2.458
  742SOL    HW2 3126   2.778   6.492   2.329
  743SOL     OW 3127   6.843   4.787   3.041
  743SOL    HW1 3128   6.910   4.780   3.115
  743SOL    HW2 3129   6.833   4.883   3.015
  744SOL     OW 3130   5.911   0.574   0.179
  744SOL    HW1 3131   5.838   0.587   0.246
  744SOL    HW2 3132   5.990   0.532   0.224
  745SOL     OW 3133   1.631   4.906   4.629
  745SOL    HW1 3134   1.640   4.989   4.684
  745SOL    HW2 3135   1.578   4.838   4.679
  746SOL     OW 3136   6.960   3.730   6.478
  746SOL    HW1 3137   6.999   3.653   6.529
  746SOL    HW2 3138   7.009   3.742   6.392
  747SOL     OW 3139   3.835   6.570   4.307
  747SOL    HW1 3140   3.869   6.614   4.390
  747SOL    HW2 3141   3.851   6.472   4.312
  748SOL     OW 3142   3.949   4.843   2.131
  748SOL    HW1 3143   3.880   4.778   2.099
  748SOL    HW2 3144   3.965   4.912   2.059
  749SOL     OW 3145   5.992   3.596   5.029
  749SOL    HW1 3146   6.070   3.647   5.064
  749SOL    HW2 3147   5.952   3.644   4.951
  750SOL     OW 3148   1.856   2.462   1.601
  750SOL    HW1 3149   1.765   2.479   1.639
  750SOL    HW2 3150   1.847   2.437   1.505
  751SOL     OW 3151   3.783   2.213   0.075
  751SOL    HW1 3152   3.785   2.286   0.143
  751SOL    HW2 3153   3.876   2.198   0.040
  752SOL     OW 3154   3.478   1.045   1.789
  752SOL    HW1 3155   3.411   0.972   1.776
  752SOL    HW2 3156   3.484   1.100   1.706
  753SOL     OW 3157   1.920   2.889   5.657
  753SOL    HW1 3158   1.837   2.928   5.697
  753SOL    HW2 3159   1.999   2.943   5.686
  754SOL     OW 3160   4.934   2.661   5.091
  754SOL    HW1 3161   4.960   2.658   5.187
  754SOL    HW2 3162   4.839   2.690   5.082
  755SOL     OW 3163   1.608   4.742   6.039
  755SOL    HW1 3164   1.609   4.765   5.941
  755SOL    HW2 3165   1.514   4.721   6.067
  756SOL     OW 3166   3.134   6.834   6.440
  756SOL    HW1 3167   3.216   6.781   6.418
  756SOL    HW2 3168   3.112   6.821   6.537
  757SOL     OW 3169   0.122   0.565   4.055
  757SOL    HW1 3170   0.069   0.490   4.016
  757SOL    HW2 3171   0.104   0.571   4.153
  758SOL     OW 3172   3.801   0.456   2.801
  758SOL    HW1 3173   3.722   0.454   2.863
  758SOL    HW2 3174   3.838   0.364   2.791
  759SOL     OW 3175   6.758   1.314   1.832
  759SOL    HW1 3176   6.782   1.264   1.748
  759SOL    HW2 3177   6.790   1.408   1.825
  760SOL     OW 3178   5.951   0.309   4.734
  760SOL    HW1 3179   5.949   0.401   4.696
  760SOL    HW2 3180   5.928   0.243   4.663
  761SOL     OW 3181   5.243   3.648   6.155
  761SOL    HW1 3182   5.194   3.561   6.152
  761SOL    HW2 3183   5.216   3.704   6.077
  762SOL     OW 3184   1.987   0.170   4.229
  762SOL    HW1 3185   2.042   0.140   4.151
  762SOL    HW2 3186   2.001   0.268   4.243
  763SOL     OW 3187   4.202   5.221   6.419
  763SOL    HW1 3188   4.239   5.309   6.450
  763SOL    HW2 3189   4.113   5.205   6.462
  764SOL     OW 3190   5.193   0.701   5.334
  764SOL    HW1 3191   5.138   0.778   5.367
  764SOL    HW2 3192   5.198   0.704   5.234
  765SOL     OW 3193   2.008   5.758   1.345
  765SOL    HW1 3194   2.050   5.698   1.413
  765SOL    HW2 3195   2.043   5.735   1.254
  766SOL     OW 3196   2.629   2.734   5.709
  766SOL    HW1 3197   2.685   2.719   5.627
  766SOL    HW2 3198   2.539   2.768   5.682
  767SOL     OW 3199   6.477   5.629   1.859
  767SOL    HW1 3200   6.442   5.722   1.850
  767SOL    HW2 3201   6.447   5.574   1.781
  768SOL     OW 3202   2.350   6.288   2.626
  768SOL    HW1 3203   2.304   6.322   2.708
  768SOL    HW2 3204   2.448   6.304   2.633
  769SOL     OW 3205   2.424   0.670   4.902
  769SOL    HW1 3206   2.355   0.599   4.915
  769SOL    HW2 3207   2.384   0.749   4.856
  770SOL     OW 3208   1.799   4.766   3.069
  770SOL    HW1 3209   1.786   4.724   3.159
  770SOL    HW2 3210   1.711   4.796   3.033
  771SOL     OW 3211   1.172   5.487   2.526
  771SOL    HW1 3212   1.190   5.559   2.594
  771SOL    HW2 3213   1.078   5.456   2.534
  772SOL     OW 3214   5.403   5.829   0.004
  772SOL    HW1 3215   5.497   5.797   7.014
  772SOL    HW2 3216   5.385   5.902   6.958
  773SOL     OW 3217   0.014   4.047   4.191
  773SOL    HW1 3218   0.096   4.069   4.246
  773SOL    HW2 3219   0.037   4.053   4.094
  774SOL     OW 3220   1.904   1.617   1.832
  774SOL    HW1 3221   1.901   1.523   1.865
  774SOL    HW2 3222   1.995   1.638   1.797
  775SOL     OW 3223   1.600   2.433   3.591
  775SOL    HW1 3224   1.618   2.335   3.594
  775SOL    HW2 3225   1.502   2.449   3.584
  776SOL     OW 3226   1.516   0.480   5.989
  776SOL    HW1 3227   1.523   0.507   5.893
  776SOL    HW2 3228   1.579   0.535   6.043
  777SOL     OW 3229   2.100   4.366   1.869
  777SOL    HW1 3230   2.024   4.305   1.847
  777SOL    HW2 3231   2.181   4.312   1.893
  778SOL     OW 3232   2.373   1.376   2.150
  778SOL    HW1 3233   2.413   1.463   2.121
  778SOL    HW2 3234   2.273   1.381   2.141
  779SOL     OW 3235   6.109   2.499   1.893
  779SOL    HW1 3236   6.009   2.495   1.888
  779SOL    HW2 3237   6.138   2.468   1.983
  780SOL     OW 3238   0.279   3.830   3.942
  780SOL    HW1 3239   0.357   3.771   3.967
  780SOL    HW2 3240   0.241   3.799   3.855
  781SOL     OW 3241   6.173   7.018   6.951
  781SOL    HW1 3242   6.219   6.933   6.925
  781SOL    HW2 3243   6.074   7.004   6.947
  782SOL     OW 3244   1.725   3.656   6.350
  782SOL    HW1 3245   1.696   3.703   6.434
  782SOL    HW2 3246   1.817   3.619   6.363
  783SOL     OW 3247   4.770   4.897   1.845
  783SOL    HW1 3248   4.721   4.978   1.811
  783SOL    HW2 3249   4.868   4.911   1.833
  784SOL     OW 3250   4.684   4.808   0.789
  784SOL    HW1 3251   4.732   4.846   0.710
  784SOL    HW2 3252   4.656   4.882   0.850
  785SOL     OW 3253   0.435   2.982   3.212
  785SOL    HW1 3254   0.503   3.012   3.280
  785SOL    HW2 3255   0.431   2.882   3.211
  786SOL     OW 3256   1.375   1.117   2.947
  786SOL    HW1 3257   1.289   1.164   2.969
  786SOL    HW2 3258   1.425   1.170   2.878
  787SOL     OW 3259   2.199   0.399   6.785
  787SOL    HW1 3260   2.193   0.452   6.701
  787SOL    HW2 3261   2.243   0.455   6.856
  788SOL     OW 3262   3.601   2.249   6.661
  788SOL    HW1 3263   3.600   2.233   6.760
  788SOL    HW2 3264   3.578   2.164   6.613
  789SOL     OW 3265   5.220   3.691   0.663
  789SOL    HW1 3266   5.142   3.698   0.725
  789SOL    HW2 3267   5.204   3.619   0.596
  790SOL     OW 3268   2.219   1.160   3.441
  790SOL    HW1 3269   2.160   1.241   3.437
  790SOL    HW2 3270   2.251   1.138   3.349
  791SOL     OW 3271   1.860   5.708   3.819
  791SOL    HW1 3272   1.881   5.789   3.874
  791SOL    HW2 3273   1.900   5.627   3.863
  792SOL     OW 3274   0.434   0.685   1.266
  792SOL    HW1 3275   0.478   0.602   1.233
  792SOL    HW2 3276   0.482   0.765   1.231
  793SOL     OW 3277   4.805   5.081   3.391
  793SOL    HW1 3278   4.877   5.024   3.431
  793SOL    HW2 3279   4.797   5.060   3.293
  794SOL     OW 3280   3.282   4.305   5.790
  794SOL    HW1 3281   3.281   4.207   5.775
  794SOL    HW2 3282   3.256   4.352   5.705
  795SOL     OW 3283   2.985   6.757   4.239
  795SOL    HW1 3284   3.066   6.699   4.233
  795SOL    HW2 3285   3.008   6.850   4.210
  796SOL     OW 3286   0.356   1.983   6.588
  796SOL    HW1 3287   0.450   1.995   6.619
  796SOL    HW2 3288   0.294   2.029   6.650
  797SOL     OW 3289   5.889   2.228   0.976
  797SOL    HW1 3290   5.873   2.324   1.001
  797SOL    HW2 3291   5.983   2.203   0.997
  798SOL     OW 3292   3.462   5.904   2.044
  798SOL    HW1 3293   3.432   5.894   2.138
  798SOL    HW2 3294   3.501   5.817   2.011
  799SOL     OW 3295   0.010   6.793   5.538
  799SOL    HW1 3296   7.019   6.739   5.622
  799SOL    HW2 3297   0.107   6.813   5.524
  800SOL     OW 3298   5.681   1.618   2.936
  800SOL    HW1 3299   5.779   1.612   2.957
  800SOL    HW2 3300   5.630   1.641   3.019
  801SOL     OW 3301   1.900   3.930   4.829
  801SOL    HW1 3302   1.883   3.964   4.737
  801SOL    HW2 3303   1.814   3.900   4.870
  802SOL     OW 3304   3.264   1.983   0.726
  802SOL    HW1 3305   3.278   1.928   0.644
  802SOL    HW2 3306   3.332   2.056   0.730
  803SOL     OW 3307   0.298   6.990   5.221
  803SOL    HW1 3308   0.314   6.970   5.124
  803SOL    HW2 3309   0.203   7.019   5.234
  804SOL     OW 3310   5.687   5.746   6.967
  804SOL    HW1 3311   5.747   5.820   6.997
  804SOL    HW2 3312   5.741   5.663   6.955
  805SOL     OW 3313   3.076   0.314   3.824
  805SOL    HW1 3314   3.162   0.343   3.780
  805SOL    HW2 3315   3.084   0.327   3.923
  806SOL     OW 3316   4.920   1.424   4.385
  806SOL    HW1 3317   4.870   1.438   4.299
  806SOL    HW2 3318   4.975   1.340   4.378
  807SOL     OW 3319   1.495   1.252   5.351
  807SOL    HW1 3320   1.442   1.170   5.332
  807SOL    HW2 3321   1.467   1.289   5.440
  808SOL     OW 3322   3.714   3.543   6.512
  808SOL    HW1 3323   3.636   3.533   6.450
  808SOL    HW2 3324   3.692   3.610   6.583
  809SOL     OW 3325   0.533   4.732   1.513
  809SOL    HW1 3326   0.477   4.774   1.585
  809SOL    HW2 3327   0.614   4.691   1.555
  810SOL     OW 3328   3.959   3.637   1.022
  810SOL    HW1 3329   3.986   3.683   0.937
  810SOL    HW2 3330   3.879   3.682   1.061
  811SOL     OW 3331   4.669   5.479   5.637
  811SOL    HW1 3332   4.611   5.407   5.676
  811SOL    HW2 3333   4.612   5.553   5.601
  812SOL     OW 3334   0.215   1.145   2.344
  812SOL    HW1 3335   0.305   1.134   2.385
  812SOL    HW2 3336   0.170   1.056   2.337
  813SOL     OW 3337   4.144   0.067   4.157
  813SOL    HW1 3338   4.161   0.014   4.240
  813SOL    HW2 3339   4.063   0.125   4.170
  814SOL     OW 3340   5.959   6.528   2.268
  814SOL    HW1 3341   5.898   6.507   2.192
  814SOL    HW2 3342   5.980   6.443   2.317
  815SOL     OW 3343   0.485   4.103   3.595
  815SOL    HW1 3344   0.460   4.178   3.535
  815SOL    HW2 3345   0.579   4.114   3.626
  816SOL     OW 3346   6.285   6.386   0.251
  816SOL    HW1 3347   6.353   6.445   0.295
  816SOL    HW2 3348   6.325   6.344   0.170
  817SOL     OW 3349   1.676   5.014   0.907
  817SOL    HW1 3350   1.608   5.026   0.978
  817SOL    HW2 3351   1.677   5.095   0.848
  818SOL     OW 3352   6.250   2.742   2.811
  818SOL    HW1 3353   6.283   2.745   2.717
  818SOL    HW2 3354   6.243   2.646   2.840
  819SOL     OW 3355   5.731   2.613   2.526
  819SOL    HW1 3356   5.696   2.563   2.447
  819SOL    HW2 3357   5.828   2.631   2.514
  820SOL     OW 3358   3.598   1.994   5.202
  820SOL    HW1 3359   3.682   2.042   5.179
  820SOL    HW2 3360   3.519   2.045   5.167
  821SOL     OW 3361   0.409   4.224   1.070
  821SOL    HW1 3362   0.416   4.202   0.973
  821SOL    HW2 3363   0.350   4.157   1.115
  822SOL     OW 3364   1.294   3.992   3.681
  822SOL    HW1 3365   1.273   4.058   3.609
  822SOL    HW2 3366   1.329   3.908   3.639
  823SOL     OW 3367   4.874   4.000   6.155
  823SOL    HW1 3368   4.960   4.045   6.179
  823SOL    HW2 3369   4.845   4.030   6.064
  824SOL     OW 3370   4.968   1.477   6.809
  824SOL    HW1 3371   4.894   1.411   6.819
  824SOL    HW2 3372   5.055   1.429   6.797
  825SOL     OW 3373   6.668   4.602   1.422
  825SOL    HW1 3374   6.622   4.516   1.400
  825SOL    HW2 3375   6.764   4.596   1.396
  826SOL     OW 3376   3.909   3.167   5.924
  826SOL    HW1 3377   3.819   3.145   5.888
  826SOL    HW2 3378   3.923   3.266   5.920
  827SOL     OW 3379   2.996   4.462   5.738
  827SOL    HW1 3380   3.081   4.443   5.690
  827SOL    HW2 3381   2.969   4.382   5.791
  828SOL     OW 3382   6.047   6.500   0.232
  828SOL    HW1 3383   6.019   6.520   0.326
  828SOL    HW2 3384   6.133   6.450   0.233
  829SOL     OW 3385   3.977   3.863   2.537
  829SOL    HW1 3386   4.041   3.937   2.518
  829SOL    HW2 3387   3.886   3.901   2.554
  830SOL     OW 3388   4.909   5.164   6.270
  830SOL    HW1 3389   4.911   5.103   6.349
  830SOL    HW2 3390   4.974   5.239   6.284
  831SOL     OW 3391   6.369   0.871   6.913
  831SOL    HW1 3392   6.316   0.823   6.844
  831SOL    HW2 3393   6.320   0.867   7.001
  832SOL     OW 3394   4.012   0.925   2.146
  832SOL    HW1 3395   4.034   0.999   2.210
  832SOL    HW2 3396   3.914   0.905   2.149
  833SOL     OW 3397   1.052   3.840   6.031
  833SOL    HW1 3398   1.073   3.938   6.028
  833SOL    HW2 3399   0.955   3.827   6.053
  834SOL     OW 3400   4.020   3.673   0.729
  834SOL    HW1 3401   3.991   3.578   0.729
  834SOL    HW2 3402   4.071   3.692   0.644
  835SOL     OW 3403   3.848   0.168   5.554
  835SOL    HW1 3404   3.840   0.179   5.653
  835SOL    HW2 3405   3.882   0.076   5.533
  836SOL     OW 3406   4.119   5.785   5.779
  836SOL    HW1 3407   4.190   5.855   5.780
  836SOL    HW2 3408   4.103   5.755   5.685
  837SOL     OW 3409   5.608   0.540   1.006
  837SOL    HW1 3410   5.636   0.609   0.939
  837SOL    HW2 3411   5.508   0.539   1.012
  838SOL     OW 3412   2.396   0.592   4.064
  838SOL    HW1 3413   2.484   0.598   4.017
  838SOL    HW2 3414   2.324   0.627   4.004
  839SOL     OW 3415   1.354   2.049   2.395
  839SOL    HW1 3416   1.279   2.037   2.460
  839SOL    HW2 3417   1.346   2.137   2.350
  840SOL     OW 3418   6.852   5.602   0.382
  840SOL    HW1 3419   6.866   5.511   0.421
  840SOL    HW2 3420   6.822   5.665   0.454
  841SOL     OW 3421   3.703   4.641   7.017
  841SOL    HW1 3422   3.767   4.718   7.011
  841SOL    HW2 3423   3.610   4.676   7.019
  842SOL     OW 3424   3.934   0.581   4.003
  842SOL    HW1 3425   3.985   0.624   3.929
  842SOL    HW2 3426   3.842   0.558   3.971
  843SOL     OW 3427   0.756   1.328   1.321
  843SOL    HW1 3428   0.765   1.427   1.331
  843SOL    HW2 3429   0.761   1.303   1.224
  844SOL     OW 3430   5.458   0.671   0.523
  844SOL    HW1 3431   5.400   0.597   0.558
  844SOL    HW2 3432   5.402   0.735   0.471
  845SOL     OW 3433   4.773   4.253   4.890
  845SOL    HW1 3434   4.713   4.259   4.810
  845SOL    HW2 3435   4.862   4.294   4.868
  846SOL     OW 3436   2.211   1.950   6.248
  846SOL    HW1 3437   2.208   2.009   6.328
  846SOL    HW2 3438   2.195   2.004   6.165
  847SOL     OW 3439   1.111   3.006   1.746
  847SOL    HW1 3440   1.123   2.952   1.663
  847SOL    HW2 3441   1.199   3.016   1.793
  848SOL     OW 3442   6.459   0.355   6.236
  848SOL    HW1 3443   6.547   0.319   6.205
  848SOL    HW2 3444   6.473   0.414   6.315
  849SOL     OW 3445   0.008   3.353   6.078
  849SOL    HW1 3446   7.006   3.400   6.164
  849SOL    HW2 3447   0.023   3.256   6.096
  850SOL     OW 3448   5.088   0.876   3.547
  850SOL    HW1 3449   5.124   0.823   3.624
  850SOL    HW2 3450   5.084   0.818   3.466
  851SOL     OW 3451   6.794   1.985   2.530
  851SOL    HW1 3452   6.701   1.949   2.516
  851SOL    HW2 3453   6.802   2.021   2.622
  852SOL     OW 3454   0.884   3.618   0.117
  852SOL    HW1 3455   0.908   3.714   0.110
  852SOL    HW2 3456   0.855   3.597   0.210
  853SOL     OW 3457   1.159   4.254   1.028
  853SOL    HW1 3458   1.188   4.339   0.983
  853SOL    HW2 3459   1.239   4.199   1.050
  854SOL     OW 3460   5.322   4.812   0.565
  854SOL    HW1 3461   5.321   4.864   0.650
  854SOL    HW2 3462   5.301   4.872   0.488
  855SOL     OW 3463   6.915   0.283   1.668
  855SOL    HW1 3464   6.983   0.323   1.606
  855SOL    HW2 3465   6.960   0.218   1.730
  856SOL     OW 3466   1.448   2.541   5.671
  856SOL    HW1 3467   1.515   2.573   5.604
  856SOL    HW2 3468   1.379   2.485   5.625
  857SOL     OW 3469   5.653   4.574   1.904
  857SOL    HW1 3470   5.644   4.663   1.860
  857SOL    HW2 3471   5.654   4.586   2.003
  858SOL     OW 3472   2.553   3.457   1.102
  858SOL    HW1 3473   2.651   3.478   1.093
  858SOL    HW2 3474   2.530   3.448   1.199
  859SOL     OW 3475   6.131   6.182   5.529
  859SOL    HW1 3476   6.055   6.137   5.577
  859SOL    HW2 3477   6.109   6.278   5.515
  860SOL     OW 3478   6.034   3.294   0.628
  860SOL    HW1 3479   6.080   3.367   0.577
  860SOL    HW2 3480   6.045   3.208   0.579
  861SOL     OW 3481   2.840   6.178   3.263
  861SOL    HW1 3482   2.866   6.183   3.167
  861SOL    HW2 3483   2.761   6.118   3.274
  862SOL     OW 3484   1.653   3.802   4.622
  862SOL    HW1 3485   1.719   3.735   4.656
  862SOL    HW2 3486   1.605   3.844   4.699
  863SOL     OW 3487   6.515   1.733   0.913
  863SOL    HW1 3488   6.490   1.714   1.008
  863SOL    HW2 3489   6.436   1.769   0.864
  864SOL     OW 3490   4.353   5.364   4.074
  864SOL    HW1 3491   4.426   5.424   4.043
  864SOL    HW2 3492   4.311   5.402   4.156
  865SOL     OW 3493   1.213   6.406   5.808
  865SOL    HW1 3494   1.298   6.387   5.855
  865SOL    HW2 3495   1.183   6.499   5.827
  866SOL     OW 3496   2.279   1.808   2.037
  866SOL    HW1 3497   2.298   1.898   2.075
  866SOL    HW2 3498   2.337   1.794   1.956
  867SOL     OW 3499   4.630   3.295   0.554
  867SOL    HW1 3500   4.666   3.235   0.625
  867SOL    HW2 3501   4.670   3.386   0.565
  868SOL     OW 3502   5.634   1.165   0.706
  868SOL    HW1 3503   5.731   1.143   0.694
  868SOL    HW2 3504   5.621   1.263   0.690
  869SOL     OW 3505   0.478   4.579   3.013
  869SOL    HW1 3506   0.460   4.676   3.027
  869SOL    HW2 3507   0.576   4.566   2.994
  870SOL     OW 3508   4.874   3.086   0.487
  870SOL    HW1 3509   4.810   3.117   0.557
  870SOL    HW2 3510   4.823   3.052   0.408
  871SOL     OW 3511   4.528   2.481   2.561
  871SOL    HW1 3512   4.615   2.461   2.515
  871SOL    HW2 3513   4.452   2.462   2.499
  872SOL     OW 3514   5.705   3.145   3.896
  872SOL    HW1 3515   5.793   3.159   3.849
  872SOL    HW2 3516   5.647   3.086   3.840
  873SOL     OW 3517   5.755   6.916   4.261
  873SOL    HW1 3518   5.671   6.970   4.252
  873SOL    HW2 3519   5.824   6.951   4.198
  874SOL     OW 3520   0.801   4.302   5.911
  874SOL    HW1 3521   0.708   4.266   5.923
  874SOL    HW2 3522   0.815   4.327   5.815
  875SOL     OW 3523   4.302   3.684   0.297
  875SOL    HW1 3524   4.238   3.712   0.226
  875SOL    HW2 3525   4.377   3.632   0.255
  876SOL     OW 3526   0.782   4.190   2.311
  876SOL    HW1 3527   0.786   4.231   2.402
  876SOL    HW2 3528   0.795   4.091   2.318
  877SOL     OW 3529   3.982   4.642   6.049
  877SOL    HW1 3530   4.059   4.704   6.067
  877SOL    HW2 3531   4.016   4.555   6.015
  878SOL     OW 3532   3.805   6.218   5.269
  878SOL    HW1 3533   3.893   6.178   5.296
  878SOL    HW2 3534   3.819   6.280   5.191
  879SOL     OW 3535   3.694   2.366   0.757
  879SOL    HW1 3536   3.688   2.437   0.687
  879SOL    HW2 3537   3.620   2.299   0.744
  880SOL     OW 3538   3.059   3.973   4.512
  880SOL    HW1 3539   3.033   3.898   4.451
  880SOL    HW2 3540   3.031   3.951   4.605
  881SOL     OW 3541   4.965   3.857   5.289
  881SOL    HW1 3542   5.025   3.936   5.301
  881SOL    HW2 3543   4.918   3.864   5.201
  882SOL     OW 3544   0.869   2.283   4.497
  882SOL    HW1 3545   0.784   2.280   4.445
  882SOL    HW2 3546   0.881   2.196   4.546
  883SOL     OW 3547   4.325   0.113   6.887
  883SOL    HW1 3548   4.381   0.033   6.864
  883SOL    HW2 3549   4.247   0.118   6.824
  884SOL     OW 3550   0.086   4.229   0.023
  884SOL    HW1 3551   0.005   4.288   0.026
  884SOL    HW2 3552   0.122   4.218   0.115
  885SOL     OW 3553   4.728   6.322   6.104
  885SOL    HW1 3554   4.712   6.395   6.170
  885SOL    HW2 3555   4.813   6.341   6.054
  886SOL     OW 3556   4.002   0.734   1.143
  886SOL    HW1 3557   4.064   0.764   1.216
  886SOL    HW2 3558   4.038   0.765   1.055
  887SOL     OW 3559   3.870   5.608   3.931
  887SOL    HW1 3560   3.951   5.549   3.925
  887SOL    HW2 3561   3.899   5.703   3.940
  888SOL     OW 3562   6.715   5.918   2.687
  888SOL    HW1 3563   6.648   5.847   2.708
  888SOL    HW2 3564   6.802   5.875   2.662
  889SOL     OW 3565   0.693   0.634   5.853
  889SOL    HW1 3566   0.733   0.542   5.856
  889SOL    HW2 3567   0.694   0.673   5.945
  890SOL     OW 3568   1.706   5.198   1.941
  890SOL    HW1 3569   1.659   5.246   2.015
  890SOL    HW2 3570   1.786   5.151   1.977
  891SOL     OW 3571   6.273   4.164   0.642
  891SOL    HW1 3572   6.247   4.260   0.652
  891SOL    HW2 3573   6.194   4.105   0.661
  892SOL     OW 3574   3.680   4.351   5.517
  892SOL    HW1 3575   3.695   4.450   5.528
  892SOL    HW2 3576   3.607   4.336   5.450
  893SOL     OW 3577   2.066   0.490   2.510
  893SOL    HW1 3578   2.119   0.567   2.544
  893SOL    HW2 3579   2.127   0.421   2.471
  894SOL     OW 3580   0.874   2.829   3.280
  894SOL    HW1 3581   0.929   2.775   3.216
  894SOL    HW2 3582   0.935   2.883   3.339
  895SOL     OW 3583   1.176   5.600   3.627
  895SOL    HW1 3584   1.196   5.672   3.693
  895SOL    HW2 3585   1.255   5.584   3.569
  896SOL     OW 3586   5.657   6.340   1.333
  896SOL    HW1 3587   5.663   6.334   1.433
  896SOL    HW2 3588   5.574   6.294   1.302
  897SOL     OW 3589   4.438   0.844   6.879
  897SOL    HW1 3590   4.434   0.937   6.843
  897SOL    HW2 3591   4.484   0.785   6.813
  898SOL     OW 3592   3.624   6.560   3.005
  898SOL    HW1 3593   3.580   6.618   3.073
  898SOL    HW2 3594   3.601   6.465   3.023
  899SOL     OW 3595   0.517   5.981   0.997
  899SOL    HW1 3596   0.508   6.044   1.074
  899SOL    HW2 3597   0.610   5.986   0.961
  900SOL     OW 3598   4.724   5.994   0.022
  900SOL    HW1 3599   4.791   5.927   0.053
  900SOL    HW2 3600   4.729   6.003   6.942
  901SOL     OW 3601   1.135   0.977   5.008
  901SOL    HW1 3602   1.092   0.912   5.071
  901SOL    HW2 3603   1.072   0.998   4.934
  902SOL     OW 3604   0.688   2.658   0.921
  902SOL    HW1 3605   0.601   2.626   0.882
  902SOL    HW2 3606   0.757   2.662   0.848
  903SOL     OW 3607   0.613   2.932   6.534
  903SOL    HW1 3608   0.707   2.918   6.567
  903SOL    HW2 3609   0.611   2.919   6.435
  904SOL     OW 3610   2.403   2.388   2.873
  904SOL    HW1 3611   2.450   2.412   2.788
  904SOL    HW2 3612   2.360   2.469   2.912
  905SOL     OW 3613   5.196   3.858   5.991
  905SOL    HW1 3614   5.107   3.881   5.953
  905SOL    HW2 3615   5.222   3.927   6.059
  906SOL     OW 3616   0.874   3.055   6.473
  906SOL    HW1 3617   0.810   3.076   6.399
  906SOL    HW2 3618   0.862   3.122   6.547
  907SOL     OW 3619   4.948   2.380   2.108
  907SOL    HW1 3620   4.860   2.403   2.148
  907SOL    HW2 3621   5.015   2.452   2.128
  908SOL     OW 3622   2.361   4.995   2.687
  908SOL    HW1 3623   2.271   5.008   2.729
  908SOL    HW2 3624   2.398   5.083   2.658
  909SOL     OW 3625   2.966   6.160   1.864
  909SOL    HW1 3626   2.923   6.244   1.899
  909SOL    HW2 3627   2.925   6.081   1.908
  910SOL     OW 3628   3.001   1.088   0.387
  910SOL    HW1 3629   2.985   1.154   0.314
  910SOL    HW2 3630   3.099   1.081   0.405
  911SOL     OW 3631   0.356   5.521   0.121
  911SOL    HW1 3632   0.290   5.544   0.049
  911SOL    HW2 3633   0.446   5.557   0.096
  912SOL     OW 3634   5.251   0.473   3.689
  912SOL    HW1 3635   5.269   0.446   3.784
  912SOL    HW2 3636   5.228   0.392   3.636
  913SOL     OW 3637   2.854   1.100   3.448
  913SOL    HW1 3638   2.902   1.029   3.397
  913SOL    HW2 3639   2.865   1.188   3.401
  914SOL     OW 3640   2.271   6.052   5.020
  914SOL    HW1 3641   2.286   6.114   5.097
  914SOL    HW2 3642   2.303   6.096   4.936
  915SOL     OW 3643   1.027   3.275   0.740
  915SOL    HW1 3644   1.117   3.268   0.697
  915SOL    HW2 3645   1.022   3.211   0.817
  916SOL     OW 3646   1.851   3.000   2.239
  916SOL    HW1 3647   1.840   3.051   2.153
  916SOL    HW2 3648   1.947   2.975   2.251
  917SOL     OW 3649   5.951   0.928   2.507
  917SOL    HW1 3650   5.944   1.015   2.557
  917SOL    HW2 3651   5.872   0.919   2.447
  918SOL     OW 3652   3.270   0.005   0.823
  918SOL    HW1 3653   3.324   0.070   0.876
  918SOL    HW2 3654   3.174   0.031   0.826
  919SOL     OW 3655   6.398   5.956   3.167
  919SOL    HW1 3656   6.409   5.954   3.068
  919SOL    HW2 3657   6.422   6.047   3.201
  920SOL     OW 3658   1.969   4.990   3.007
  920SOL    HW1 3659   2.001   5.019   3.097
  920SOL    HW2 3660   1.916   4.905   3.016
  921SOL     OW 3661   4.680   4.278   3.241
  921SOL    HW1 3662   4.724   4.327   3.166
  921SOL    HW2 3663   4.593   4.322   3.263
  922SOL     OW 3664   3.445   3.870   5.581
  922SOL    HW1 3665   3.398   3.783   5.569
  922SOL    HW2 3666   3.453   3.891   5.679
  923SOL     OW 3667   3.033   4.606   6.127
  923SOL    HW1 3668   3.115   4.560   6.093
  923SOL    HW2 3669   2.965   4.613   6.054
  924SOL     OW 3670   5.727   2.512   2.993
  924SOL    HW1 3671   5.761   2.596   2.952
  924SOL    HW2 3672   5.790   2.480   3.063
  925SOL     OW 3673   0.413   1.560   6.668
  925SOL    HW1 3674   0.355   1.529   6.743
  925SOL    HW2 3675   0.490   1.498   6.657
  926SOL     OW 3676   6.198   1.177   0.782
  926SOL    HW1 3677   6.138   1.158   0.860
  926SOL    HW2 3678   6.249   1.095   0.758
  927SOL     OW 3679   6.042   4.077   3.288
  927SOL    HW1 3680   6.039   4.152   3.354
  927SOL    HW2 3681   6.135   4.065   3.256
  928SOL     OW 3682   1.088   6.071   0.724
  928SOL    HW1 3683   1.152   6.008   0.679
  928SOL    HW2 3684   1.004   6.022   0.748
  929SOL     OW 3685   0.440   0.907   1.050
  929SOL    HW1 3686   0.537   0.931   1.049
  929SOL    HW2 3687   0.394   0.949   0.971
  930SOL     OW 3688   5.381   6.183   3.804
  930SOL    HW1 3689   5.288   6.161   3.773
  930SOL    HW2 3690   5.417   6.106   3.857
  931SOL     OW 3691   5.992   2.189   3.457
  931SOL    HW1 3692   5.986   2.239   3.543
  931SOL    HW2 3693   5.995   2.254   3.381
  932SOL     OW 3694   3.088   6.579   3.041
  932SOL    HW1 3695   3.169   6.631   3.068
  932SOL    HW2 3696   3.091   6.488   3.083
  933SOL     OW 3697   1.572   6.103   3.417
  933SOL    HW1 3698   1.572   6.081   3.320
  933SOL    HW2 3699   1.556   6.020   3.470
  934SOL     OW 3700   2.193   0.393   5.939
  934SOL    HW1 3701   2.285   0.362   5.965
  934SOL    HW2 3702   2.201   0.481   5.892
  935SOL     OW 3703   4.401   5.034   4.560
  935SOL    HW1 3704   4.305   5.061   4.552
  935SOL    HW2 3705   4.407   4.934   4.560
  936SOL     OW 3706   1.066   0.514   5.905
  936SOL    HW1 3707   1.019   0.433   5.938
  936SOL    HW2 3708   1.012   0.596   5.926
  937SOL     OW 3709   5.106   1.195   5.126
  937SOL    HW1 3710   5.130   1.288   5.100
  937SOL    HW2 3711   5.007   1.183   5.122
  938SOL     OW 3712   6.597   5.359   5.816
  938SOL    HW1 3713   6.594   5.353   5.916
  938SOL    HW2 3714   6.514   5.404   5.783
  939SOL     OW 3715   6.526   6.921   5.522
  939SOL    HW1 3716   6.432   6.916   5.555
  939SOL    HW2 3717   6.527   6.951   5.427
  940SOL     OW 3718   0.312   3.118   1.624
  940SOL    HW1 3719   0.341   3.175   1.547
  940SOL    HW2 3720   0.293   3.025   1.591
  941SOL     OW 3721   5.064   1.126   5.653
  941SOL    HW1 3722   5.000   1.202   5.667
  941SOL    HW2 3723   5.015   1.040   5.661
  942SOL     OW 3724   5.006   6.797   3.388
  942SOL    HW1 3725   5.084   6.766   3.442
  942SOL    HW2 3726   5.010   6.896   3.377
  943SOL     OW 3727   2.084   3.392   3.986
  943SOL    HW1 3728   2.098   3.297   3.959
  943SOL    HW2 3729   2.089   3.400   4.085
  944SOL     OW 3730   0.553   4.789   6.087
  944SOL    HW1 3731   0.514   4.715   6.141
  944SOL    HW2 3732   0.644   4.761   6.054
  945SOL     OW 3733   6.118   4.789   5.108
  945SOL    HW1 3734   6.057   4.710   5.108
  945SOL    HW2 3735   6.067   4.871   5.132
  946SOL     OW 3736   5.635   2.522   6.183
  946SOL    HW1 3737   5.676   2.605   6.220
  946SOL    HW2 3738   5.698   2.445   6.195
  947SOL     OW 3739   3.982   3.098   4.204
  947SOL    HW1 3740   3.981   2.999   4.190
  947SOL    HW2 3741   3.955   3.144   4.119
  948SOL     OW 3742   3.639   0.313   1.355
  948SOL    HW1 3743   3.635   0.223   1.401
  948SOL    HW2 3744   3.593   0.381   1.412
  949SOL     OW 3745   1.043   6.707   6.563
  949SOL    HW1 3746   1.057   6.635   6.495
  949SOL    HW2 3747   1.022   6.666   6.651
  950SOL     OW 3748   4.739   5.416   1.708
  950SOL    HW1 3749   4.712   5.372   1.622
  950SOL    HW2 3750   4.660   5.461   1.749
  951SOL     OW 3751   1.895   1.107   4.035
  951SOL    HW1 3752   1.942   1.112   3.947
  951SOL    HW2 3753   1.929   1.029   4.087
  952SOL     OW 3754   4.851   1.507   3.297
  952SOL    HW1 3755   4.919   1.433   3.292
  952SOL    HW2 3756   4.864   1.558   3.382
  953SOL     OW 3757   5.429   5.049   4.187
  953SOL    HW1 3758   5.505   5.055   4.252
  953SOL    HW2 3759   5.410   5.140   4.150
  954SOL     OW 3760   3.926   5.141   0.991
  954SOL    HW1 3761   3.875   5.215   0.947
  954SOL    HW2 3762   3.956   5.171   1.082
  955SOL     OW 3763   0.114   3.733   3.362
  955SOL    HW1 3764   0.205   3.743   3.321
  955SOL    HW2 3765   0.094   3.636   3.374
  956SOL     OW 3766   6.615   1.600   2.411
  956SOL    HW1 3767   6.591   1.678   2.469
  956SOL    HW2 3768   6.539   1.580   2.350
  957SOL     OW 3769   6.468   4.143   4.947
  957SOL    HW1 3770   6.473   4.239   4.922
  957SOL    HW2 3771   6.372   4.113   4.945
  958SOL     OW 3772   4.409   1.920   1.816
  958SOL    HW1 3773   4.395   1.992   1.748
  958SOL    HW2 3774   4.367   1.835   1.784
  959SOL     OW 3775   3.912   5.711   2.442
  959SOL    HW1 3776   3.869   5.762   2.368
  959SOL    HW2 3777   3.882   5.615   2.439
  960SOL     OW 3778   1.296   6.059   1.494
  960SOL    HW1 3779   1.202   6.033   1.471
  960SOL    HW2 3780   1.296   6.144   1.547
  961SOL     OW 3781   4.836   6.924   3.866
  961SOL    HW1 3782   4.810   6.990   3.796
  961SOL    HW2 3783   4.923   6.880   3.840
  962SOL     OW 3784   0.365   1.139   5.588
  962SOL    HW1 3785   0.438   1.177   5.531
  962SOL    HW2 3786   0.276   1.158   5.546
  963SOL     OW 3787   6.769   2.018   6.980
  963SOL    HW1 3788   6.740   1.938   6.927
  963SOL    HW2 3789   6.826   1.987   0.037
  964SOL     OW 3790   5.820   4.243   0.259
  964SOL    HW1 3791   5.784   4.153   0.280
  964SOL    HW2 3792   5.905   4.234   0.208
  965SOL     OW 3793   5.037   2.237   1.298
  965SOL    HW1 3794   4.971   2.212   1.227
  965SOL    HW2 3795   5.003   2.205   1.387
  966SOL     OW 3796   5.131   1.954   1.812
  966SOL    HW1 3797   5.115   1.867   1.859
  966SOL    HW2 3798   5.150   1.937   1.716
  967SOL     OW 3799   2.460   4.109   1.311
  967SOL    HW1 3800   2.370   4.137   1.347
  967SOL    HW2 3801   2.471   4.145   1.218
  968SOL     OW 3802   3.575   1.143   1.540
  968SOL    HW1 3803   3.527   1.129   1.453
  968SOL    HW2 3804   3.655   1.083   1.544
  969SOL     OW 3805   3.407   6.183   6.142
  969SOL    HW1 3806   3.490   6.133   6.168
  969SOL    HW2 3807   3.330   6.120   6.136
  970SOL     OW 3808   5.158   0.836   5.723
  970SOL    HW1 3809   5.186   0.778   5.799
  970SOL    HW2 3810   5.068   0.806   5.689
  971SOL     OW 3811   6.572   2.141   3.184
  971SOL    HW1 3812   6.497   2.094   3.230
  971SOL    HW2 3813   6.657   2.124   3.234
  972SOL     OW 3814   5.285   3.468   2.441
  972SOL    HW1 3815   5.369   3.424   2.410
  972SOL    HW2 3816   5.256   3.537   2.375
  973SOL     OW 3817   0.359   4.582   0.187
  973SOL    HW1 3818   0.369   4.506   0.122
  973SOL    HW2 3819   0.277   4.568   0.243
  974SOL     OW 3820   4.984   6.346   2.091
  974SOL    HW1 3821   4.905   6.407   2.089
  974SOL    HW2 3822   4.981   6.290   2.173
  975SOL     OW 3823   0.953   6.987   6.516
  975SOL    HW1 3824   1.020   6.919   6.485
  975SOL    HW2 3825   0.878   6.941   6.562
  976SOL     OW 3826   6.519   3.801   3.392
  976SOL    HW1 3827   6.594   3.766   3.337
  976SOL    HW2 3828   6.508   3.746   3.475
  977SOL     OW 3829   1.306   0.796   2.509
  977SOL    HW1 3830   1.247   0.876   2.494
  977SOL    HW2 3831   1.312   0.743   2.425
  978SOL     OW 3832   4.626   3.575   6.051
  978SOL    HW1 3833   4.632   3.481   6.016
  978SOL    HW2 3834   4.656   3.639   5.981
  979SOL     OW 3835   0.226   1.975   1.127
  979SOL    HW1 3836   0.267   1.884   1.123
  979SOL    HW2 3837   0.232   2.017   1.036
  980SOL     OW 3838   4.456   2.126   4.307
  980SOL    HW1 3839   4.377   2.065   4.294
  980SOL    HW2 3840   4.540   2.077   4.282
  981SOL     OW 3841   0.126   1.632   5.032
  981SOL    HW1 3842   0.212   1.612   4.985
  981SOL    HW2 3843   0.127   1.727   5.063
  982SOL     OW 3844   2.548   2.353   4.436
  982SOL    HW1 3845   2.613   2.350   4.512
  982SOL    HW2 3846   2.478   2.283   4.451
  983SOL     OW 3847   5.990   2.732   5.151
  983SOL    HW1 3848   5.907   2.768   5.108
  983SOL    HW2 3849   6.038   2.672   5.086
  984SOL     OW 3850   2.288   2.107   4.869
  984SOL    HW1 3851   2.311   2.112   4.966
  984SOL    HW2 3852   2.352   2.165   4.817
  985SOL     OW 3853   5.806   3.969   5.068
  985SOL    HW1 3854   5.819   3.970   4.968
  985SOL    HW2 3855   5.754   3.888   5.093
  986SOL     OW 3856   6.261   4.664   1.270
  986SOL    HW1 3857   6.174   4.709   1.289
  986SOL    HW2 3858   6.302   4.632   1.355
  987SOL     OW 3859   4.796   6.975   2.094
  987SOL    HW1 3860   4.821   6.887   2.134
  987SOL    HW2 3861   4.810   6.972   1.995
  988SOL     OW 3862   3.583   3.144   2.458
  988SOL    HW1 3863   3.616   3.154   2.551
  988SOL    HW2 3864   3.553   3.050   2.443
  989SOL     OW 3865   5.984   1.021   6.133
  989SOL    HW1 3866   5.904   1.021   6.072
  989SOL    HW2 3867   5.960   0.980   6.220
  990SOL     OW 3868   4.314   0.592   2.117
  990SOL    HW1 3869   4.232   0.622   2.165
  990SOL    HW2 3870   4.382   0.665   2.118
  991SOL     OW 3871   0.791   3.159   5.593
  991SOL    HW1 3872   0.799   3.066   5.629
  991SOL    HW2 3873   0.701   3.172   5.553
  992SOL     OW 3874   6.899   2.928   2.301
  992SOL    HW1 3875   6.901   2.828   2.306
  992SOL    HW2 3876   6.962   2.967   2.369
  993SOL     OW 3877   0.706   4.550   0.993
  993SOL    HW1 3878   0.649   4.565   0.912
  993SOL    HW2 3879   0.774   4.623   1.001
  994SOL     OW 3880   4.008   4.181   0.922
  994SOL    HW1 3881   4.019   4.083   0.906
  994SOL    HW2 3882   4.062   4.233   0.855
  995SOL     OW 3883   3.931   3.194   5.071
  995SOL    HW1 3884   3.891   3.277   5.032
  995SOL    HW2 3885   4.018   3.216   5.114
  996SOL     OW 3886   3.004   5.063   4.744
  996SOL    HW1 3887   2.910   5.031   4.758
  996SOL    HW2 3888   3.009   5.161   4.766
  997SOL     OW 3889   1.085   0.338   3.216
  997SOL    HW1 3890   1.099   0.437   3.229
  997SOL    HW2 3891   0.991   0.322   3.185
  998SOL     OW 3892   4.741   0.276   4.737
  998SOL    HW1 3893   4.701   0.220   4.664
  998SOL    HW2 3894   4.681   0.274   4.817
  999SOL     OW 3895   4.834   4.309   2.609
  999SOL    HW1 3896   4.918   4.290   2.560
  999SOL    HW2 3897   4.756   4.305   2.546
 1000SOL     OW 3898   2.292   1.279   1.615
 1000SOL    HW1 3899   2.213   1.240   1.662
 1000SOL    HW2 3900   2.343   1.337   1.679
 1001SOL     OW 3901   4.787   5.952   0.449
 1001SOL    HW1 3902   4.832   5.869   0.415
 1001SOL    HW2 3903   4.804   5.961   0.547
 1002SOL     OW 3904   6.170   1.362   1.282
 1002SOL    HW1 3905   6.124   1.290   1.334
 1002SOL    HW2 3906   6.238   1.408   1.340
 1003SOL     OW 3907   2.085   6.481   2.362
 1003SOL    HW1 3908   2.040   6.396   2.387
 1003SOL    HW2 3909   2.134   6.470   2.276
 1004SOL     OW 3910   0.615   6.941   2.566
 1004SOL    HW1 3911   0.571   6.853   2.547
 1004SOL    HW2 3912   0.670   6.934   2.649
 1005SOL     OW 3913   2.158   2.857   4.012
 1005SOL    HW1 3914   2.079   2.801   3.988
 1005SOL    HW2 3915   2.234   2.835   3.950
 1006SOL     OW 3916   0.773   4.630   1.592
 1006SOL    HW1 3917   0.801   4.612   1.498
 1006SOL    HW2 3918   0.841   4.688   1.637
 1007SOL     OW 3919   4.421   7.008   5.316
 1007SOL    HW1 3920   4.520   7.011   5.307
 1007SOL    HW2 3921   4.394   6.923   5.361
 1008SOL     OW 3922   1.865   3.180   5.609
 1008SOL    HW1 3923   1.847   3.271   5.646
 1008SOL    HW2 3924   1.856   3.183   5.509
 1009SOL     OW 3925   0.513   5.661   5.128
 1009SOL    HW1 3926   0.546   5.754   5.144
 1009SOL    HW2 3927   0.413   5.662   5.120
 1010SOL     OW 3928   3.807   2.952   6.238
 1010SOL    HW1 3929   3.858   2.900   6.169
 1010SOL    HW2 3930   3.793   3.045   6.206
 1011SOL     OW 3931   2.122   4.329   2.488
 1011SOL    HW1 3932   2.149   4.307   2.582
 1011SOL    HW2 3933   2.022   4.328   2.481
 1012SOL     OW 3934   6.865   0.678   2.241
 1012SOL    HW1 3935   6.959   0.675   2.276
 1012SOL    HW2 3936   6.807   0.615   2.293
 1013SOL     OW 3937   1.002   0.906   5.920
 1013SOL    HW1 3938   1.015   0.829   5.981
 1013SOL    HW2 3939   1.073   0.974   5.936
 1014SOL     OW 3940   6.302   5.371   6.263
 1014SOL    HW1 3941   6.371   5.308   6.228
 1014SOL    HW2 3942   6.225   5.319   6.299
 1015SOL     OW 3943   2.402   6.716   6.077
 1015SOL    HW1 3944   2.413   6.617   6.089
 1015SOL    HW2 3945   2.485   6.755   6.038
 1016SOL     OW 3946   3.809   3.340   6.973
 1016SOL    HW1 3947   3.897   3.318   7.016
 1016SOL    HW2 3948   3.743   3.269   6.995
 1017SOL     OW 3949   4.087   2.762   1.140
 1017SOL    HW1 3950   4.063   2.695   1.070
 1017SOL    HW2 3951   4.059   2.853   1.110
 1018SOL     OW 3952   0.178   4.480   4.436
 1018SOL    HW1 3953   0.199   4.453   4.342
 1018SOL    HW2 3954   0.111   4.416   4.475
 1019SOL     OW 3955   0.024   6.555   0.917
 1019SOL    HW1 3956   0.109   6.603   0.938
 1019SOL    HW2 3957   6.996   6.531   1.001
 1020SOL     OW 3958   7.001   1.123   1.199
 1020SOL    HW1 3959   6.944   1.118   1.117
 1020SOL    HW2 3960   6.956   1.077   1.275
 1021SOL     OW 3961   5.380   0.023   1.718
 1021SOL    HW1 3962   5.324   0.013   1.636
 1021SOL    HW2 3963   5.380   6.958   1.770
 1022SOL     OW 3964   3.510   4.610   5.366
 1022SOL    HW1 3965   3.416   4.614   5.401
 1022SOL    HW2 3966   3.524   4.685   5.301
 1023SOL     OW 3967   0.803   0.057   3.076
 1023SOL    HW1 3968   0.767   0.006   2.998
 1023SOL    HW2 3969   0.892   0.095   3.053
 1024SOL     OW 3970   0.713   2.717   3.872
 1024SOL    HW1 3971   0.697   2.660   3.791
 1024SOL    HW2 3972   0.777   2.670   3.933
 1025SOL     OW 3973   3.626   3.635   1.309
 1025SOL    HW1 3974   3.589   3.691   1.383
 1025SOL    HW2 3975   3.601   3.539   1.324
 1026SOL     OW 3976   2.058   3.213   0.863
 1026SOL    HW1 3977   2.084   3.117   0.873
 1026SOL    HW2 3978   2.079   3.263   0.947
 1027SOL     OW 3979   3.061   6.490   1.376
 1027SOL    HW1 3980   3.161   6.489   1.388
 1027SOL    HW2 3981   3.031   6.584   1.358
 1028SOL     OW 3982   2.833   6.447   1.005
 1028SOL    HW1 3983   2.784   6.497   1.076
 1028SOL    HW2 3984   2.769   6.420   0.933
 1029SOL     OW 3985   1.647   6.911   7.003
 1029SOL    HW1 3986   1.625   6.893   6.907
 1029SOL    HW2 3987   1.675   7.006   7.014
 1030SOL     OW 3988   3.132   2.616   1.720
 1030SOL    HW1 3989   3.058   2.563   1.761
 1030SOL    HW2 3990   3.094   2.694   1.670
 1031SOL     OW 3991   5.525   4.127   1.422
 1031SOL    HW1 3992   5.539   4.207   1.481
 1031SOL    HW2 3993   5.612   4.098   1.384
 1032SOL     OW 3994   2.138   2.316   5.264
 1032SOL    HW1 3995   2.111   2.392   5.322
 1032SOL    HW2 3996   2.087   2.320   5.178
 1033SOL     OW 3997   1.149   6.665   1.700
 1033SOL    HW1 3998   1.180   6.698   1.611
 1033SOL    HW2 3999   1.218   6.604   1.739
 1034SOL     OW 4000   0.275   5.123   4.753
 1034SOL    HW1 4001   0.353   5.089   4.699
 1034SOL    HW2 4002   0.287   5.097   4.848
 1035SOL     OW 4003   0.199   0.814   4.955
 1035SOL    HW1 4004   0.104   0.793   4.931
 1035SOL    HW2 4005   0.205   0.907   4.991
 1036SOL     OW 4006   3.658   1.405   1.540
 1036SOL    HW1 4007   3.627   1.314   1.570
 1036SOL    HW2 4008   3.582   1.469   1.545
 1037SOL     OW 4009   1.894   1.295   1.724
 1037SOL    HW1 4010   1.875   1.383   1.680
 1037SOL    HW2 4011   1.835   1.225   1.684
 1038SOL     OW 4012   1.379   0.858   4.870
 1038SOL    HW1 4013   1.314   0.844   4.945
 1038SOL    HW2 4014   1.376   0.953   4.840
 1039SOL     OW 4015   3.312   4.122   5.391
 1039SOL    HW1 4016   3.369   4.046   5.422
 1039SOL    HW2 4017   3.368   4.205   5.383
 1040SOL     OW 4018   4.623   1.548   2.720
 1040SOL    HW1 4019   4.576   1.613   2.779
 1040SOL    HW2 4020   4.606   1.571   2.624
 1041SOL     OW 4021   6.948   6.867   3.717
 1041SOL    HW1 4022   0.027   6.857   3.717
 1041SOL    HW2 4023   6.906   6.791   3.667
 1042SOL     OW 4024   4.820   5.225   2.240
 1042SOL    HW1 4025   4.826   5.282   2.322
 1042SOL    HW2 4026   4.908   5.224   2.193
 1043SOL     OW 4027   3.547   1.724   5.205
 1043SOL    HW1 4028   3.598   1.810   5.202
 1043SOL    HW2 4029   3.480   1.722   5.131
 1044SOL     OW 4030   5.599   5.273   2.684
 1044SOL    HW1 4031   5.650   5.187   2.672
 1044SOL    HW2 4032   5.663   5.349   2.692
 1045SOL     OW 4033   4.241   6.726   2.322
 1045SOL    HW1 4034   4.311   6.708   2.254
 1045SOL    HW2 4035   4.219   6.642   2.371
 1046SOL     OW 4036   2.001   0.500   0.526
 1046SOL    HW1 4037   2.093   0.497   0.488
 1046SOL    HW2 4038   2.001   0.560   0.607
 1047SOL     OW 4039   2.022   0.969   3.497
 1047SOL    HW1 4040   1.931   1.009   3.502
 1047SOL    HW2 4041   2.090   1.041   3.485
 1048SOL     OW 4042   4.382   6.434   3.712
 1048SOL    HW1 4043   4.439   6.356   3.686
 1048SOL    HW2 4044   4.427   6.519   3.684
 1049SOL     OW 4045   6.693   6.065   3.678
 1049SOL    HW1 4046   6.772   6.078   3.618
 1049SOL    HW2 4047   6.646   6.153   3.690
 1050SOL     OW 4048   4.209   4.659   1.327
 1050SOL    HW1 4049   4.252   4.573   1.299
 1050SOL    HW2 4050   4.113   4.659   1.298
 1051SOL     OW 4051   2.231   6.161   0.498
 1051SOL    HW1 4052   2.253   6.066   0.523
 1051SOL    HW2 4053   2.283   6.186   0.416
 1052SOL     OW 4054   3.824   0.754   4.469
 1052SOL    HW1 4055   3.869   0.756   4.380
 1052SOL    HW2 4056   3.762   0.832   4.476
 1053SOL     OW 4057   5.981   5.077   3.133
 1053SOL    HW1 4058   5.966   5.120   3.045
 1053SOL    HW2 4059   6.048   5.130   3.185
 1054SOL     OW 4060   3.133   4.067   6.347
 1054SOL    HW1 4061   3.043   4.052   6.388
 1054SOL    HW2 4062   3.151   3.996   6.278
 1055SOL     OW 4063   3.324   6.439   4.686
 1055SOL    HW1 4064   3.403   6.418   4.629
 1055SOL    HW2 4065   3.270   6.356   4.701
 1056SOL     OW 4066   1.753   4.960   6.538
 1056SOL    HW1 4067   1.754   4.942   6.439
 1056SOL    HW2 4068   1.701   5.044   6.556
 1057SOL     OW 4069   2.803   2.912   1.680
 1057SOL    HW1 4070   2.729   2.978   1.667
 1057SOL    HW2 4071   2.879   2.956   1.729
 1058SOL     OW 4072   5.193   1.646   3.160
 1058SOL    HW1 4073   5.099   1.680   3.159
 1058SOL    HW2 4074   5.192   1.546   3.169
 1059SOL     OW 4075   3.128   0.756   1.522
 1059SOL    HW1 4076   3.180   0.776   1.439
 1059SOL    HW2 4077   3.057   0.826   1.535
 1060SOL     OW 4078   0.445   4.538   4.905
 1060SOL    HW1 4079   0.452   4.549   5.004
 1060SOL    HW2 4080   0.450   4.441   4.882
 1061SOL     OW 4081   6.001   3.032   0.488
 1061SOL    HW1 4082   6.003   2.933   0.503
 1061SOL    HW2 4083   6.066   3.056   0.416
 1062SOL     OW 4084   5.532   3.945   6.037
 1062SOL    HW1 4085   5.459   3.885   6.006
 1062SOL    HW2 4086   5.592   3.968   5.960
 1063SOL     OW 4087   1.583   4.828   1.725
 1063SOL    HW1 4088   1.594   4.806   1.822
 1063SOL    HW2 4089   1.591   4.927   1.712
 1064SOL     OW 4090   1.477   4.082   2.181
 1064SOL    HW1 4091   1.547   4.121   2.240
 1064SOL    HW2 4092   1.489   4.114   2.087
 1065SOL     OW 4093   3.550   0.230   3.704
 1065SOL    HW1 4094   3.598   0.301   3.756
 1065SOL    HW2 4095   3.579   0.140   3.736
 1066SOL     OW 4096   4.806   6.479   2.987
 1066SOL    HW1 4097   4.862   6.522   3.059
 1066SOL    HW2 4098   4.769   6.550   2.927
 1067SOL     OW 4099   0.670   3.506   0.798
 1067SOL    HW1 4100   0.595   3.526   0.734
 1067SOL    HW2 4101   0.633   3.467   0.882
 1068SOL     OW 4102   5.568   5.536   3.130
 1068SOL    HW1 4103   5.583   5.479   3.049
 1068SOL    HW2 4104   5.631   5.507   3.203
 1069SOL     OW 4105   4.278   5.122   1.369
 1069SOL    HW1 4106   4.228   5.161   1.447
 1069SOL    HW2 4107   4.227   5.043   1.333
 1070SOL     OW 4108   6.796   0.257   2.393
 1070SOL    HW1 4109   6.883   0.306   2.390
 1070SOL    HW2 4110   6.807   0.174   2.447
 1071SOL     OW 4111   0.918   0.279   3.833
 1071SOL    HW1 4112   0.895   0.205   3.769
 1071SOL    HW2 4113   0.834   0.316   3.872
 1072SOL     OW 4114   2.122   0.796   1.312
 1072SOL    HW1 4115   2.110   0.716   1.372
 1072SOL    HW2 4116   2.165   0.767   1.227
 1073SOL     OW 4117   5.153   6.982   1.932
 1073SOL    HW1 4118   5.218   6.976   2.007
 1073SOL    HW2 4119   5.119   0.056   1.925
 1074SOL     OW 4120   2.167   5.440   1.047
 1074SOL    HW1 4121   2.133   5.346   1.042
 1074SOL    HW2 4122   2.146   5.487   0.961
 1075SOL     OW 4123   4.998   6.872   4.140
 1075SOL    HW1 4124   4.902   6.866   4.111
 1075SOL    HW2 4125   5.047   6.792   4.107
 1076SOL     OW 4126   6.810   2.638   5.185
 1076SOL    HW1 4127   6.728   2.594   5.222
 1076SOL    HW2 4128   6.804   2.643   5.086
 1077SOL     OW 4129   5.637   0.651   1.502
 1077SOL    HW1 4130   5.708   0.580   1.511
 1077SOL    HW2 4131   5.681   0.740   1.488
 1078SOL     OW 4132   1.116   1.611   2.472
 1078SOL    HW1 4133   1.125   1.693   2.415
 1078SOL    HW2 4134   1.154   1.629   2.562
 1079SOL     OW 4135   2.120   6.230   2.191
 1079SOL    HW1 4136   2.103   6.306   2.128
 1079SOL    HW2 4137   2.199   6.250   2.248
 1080SOL     OW 4138   1.158   4.085   3.926
 1080SOL    HW1 4139   1.159   4.060   3.830
 1080SOL    HW2 4140   1.249   4.115   3.955
 1081SOL     OW 4141   0.638   5.942   5.686
 1081SOL    HW1 4142   0.729   5.909   5.659
 1081SOL    HW2 4143   0.574   5.865   5.686
 1082SOL     OW 4144   4.365   1.949   5.353
 1082SOL    HW1 4145   4.332   1.947   5.447
 1082SOL    HW2 4146   4.328   1.871   5.303
 1083SOL     OW 4147   3.973   3.704   0.096
 1083SOL    HW1 4148   3.878   3.683   0.073
 1083SOL    HW2 4149   4.032   3.678   0.019
 1084SOL     OW 4150   5.896   5.945   6.990
 1084SOL    HW1 4151   5.898   6.032   6.942
 1084SOL    HW2 4152   5.987   5.921   0.002
 1085SOL     OW 4153   1.310   3.648   3.889
 1085SOL    HW1 4154   1.343   3.571   3.943
 1085SOL    HW2 4155   1.215   3.667   3.914
 1086SOL     OW 4156   6.890   5.816   0.716
 1086SOL    HW1 4157   6.828   5.870   0.773
 1086SOL    HW2 4158   6.851   5.806   0.624
 1087SOL     OW 4159   5.556   1.710   4.650
 1087SOL    HW1 4160   5.549   1.809   4.662
 1087SOL    HW2 4161   5.501   1.682   4.571
 1088SOL     OW 4162   6.977   4.775   3.264
 1088SOL    HW1 4163   6.927   4.734   3.340
 1088SOL    HW2 4164   0.014   4.850   3.298
 1089SOL     OW 4165   1.522   6.390   4.454
 1089SOL    HW1 4166   1.577   6.448   4.514
 1089SOL    HW2 4167   1.435   6.435   4.434
 1090SOL     OW 4168   2.550   2.133   3.699
 1090SOL    HW1 4169   2.577   2.130   3.602
 1090SOL    HW2 4170   2.630   2.151   3.755
 1091SOL     OW 4171   3.311   1.674   5.038
 1091SOL    HW1 4172   3.327   1.740   4.964
 1091SOL    HW2 4173   3.256   1.598   5.003
 1092SOL     OW 4174   1.948   3.504   1.359
 1092SOL    HW1 4175   1.900   3.565   1.297
 1092SOL    HW2 4176   1.893   3.422   1.374
 1093SOL     OW 4177   1.880   1.402   1.981
 1093SOL    HW1 4178   1.808   1.408   2.050
 1093SOL    HW2 4179   1.854   1.334   1.912
 1094SOL     OW 4180   0.277   6.958   3.141
 1094SOL    HW1 4181   0.359   6.960   3.199
 1094SOL    HW2 4182   0.293   6.898   3.063
 1095SOL     OW 4183   0.397   2.707   6.245
 1095SOL    HW1 4184   0.474   2.755   6.204
 1095SOL    HW2 4185   0.428   2.618   6.281
 1096SOL     OW 4186   3.548   4.229   1.751
 1096SOL    HW1 4187   3.574   4.176   1.832
 1096SOL    HW2 4188   3.595   4.317   1.753
 1097SOL     OW 4189   2.076   4.458   4.051
 1097SOL    HW1 4190   1.999   4.516   4.079
 1097SOL    HW2 4191   2.100   4.396   4.126
 1098SOL     OW 4192   3.759   3.604   6.996
 1098SOL    HW1 4193   3.716   3.637   6.912
 1098SOL    HW2 4194   3.775   3.506   6.989
 1099SOL     OW 4195   3.891   1.567   5.703
 1099SOL    HW1 4196   3.894   1.585   5.605
 1099SOL    HW2 4197   3.822   1.625   5.746
 1100SOL     OW 4198   3.424   1.930   5.421
 1100SOL    HW1 4199   3.481   1.928   5.503
 1100SOL    HW2 4200   3.480   1.956   5.342
 1101SOL     OW 4201   6.320   2.194   6.763
 1101SOL    HW1 4202   6.278   2.105   6.745
 1101SOL    HW2 4203   6.401   2.181   6.820
 1102SOL     OW 4204   0.427   6.579   4.994
 1102SOL    HW1 4205   0.513   6.550   4.954
 1102SOL    HW2 4206   0.445   6.652   5.061
 1103SOL     OW 4207   3.759   1.539   0.005
 1103SOL    HW1 4208   3.783   1.636   0.013
 1103SOL    HW2 4209   3.660   1.528   0.013
 1104SOL     OW 4210   2.101   2.792   5.310
 1104SOL    HW1 4211   2.023   2.847   5.281
 1104SOL    HW2 4212   2.147   2.838   5.386
 1105SOL     OW 4213   6.574   3.754   5.254
 1105SOL    HW1 4214   6.511   3.679   5.230
 1105SOL    HW2 4215   6.595   3.806   5.171
 1106SOL     OW 4216   0.251   2.401   1.749
 1106SOL    HW1 4217   0.152   2.390   1.741
 1106SOL    HW2 4218   0.297   2.351   1.676
 1107SOL     OW 4219   0.800   0.827   6.878
 1107SOL    HW1 4220   0.848   0.831   6.965
 1107SOL    HW2 4221   0.739   0.748   6.876
 1108SOL     OW 4222   3.327   0.144   5.907
 1108SOL    HW1 4223   3.420   0.166   5.935
 1108SOL    HW2 4224   3.286   0.223   5.861
 1109SOL     OW 4225   5.082   1.221   4.314
 1109SOL    HW1 4226   5.136   1.189   4.236
 1109SOL    HW2 4227   5.143   1.237   4.391
 1110SOL     OW 4228   2.805   1.254   3.046
 1110SOL    HW1 4229   2.876   1.282   2.981
 1110SOL    HW2 4230   2.720   1.303   3.026
 1111SOL     OW 4231   4.418   4.979   6.075
 1111SOL    HW1 4232   4.364   4.896   6.065
 1111SOL    HW2 4233   4.515   4.958   6.063
 1112SOL     OW 4234   4.792   1.358   2.137
 1112SOL    HW1 4235   4.740   1.311   2.209
 1112SOL    HW2 4236   4.765   1.323   2.048
 1113SOL     OW 4237   6.101   3.881   1.987
 1113SOL    HW1 4238   6.157   3.848   1.911
 1113SOL    HW2 4239   6.130   3.835   2.071
 1114SOL     OW 4240   3.896   1.658   6.259
 1114SOL    HW1 4241   3.821   1.606   6.299
 1114SOL    HW2 4242   3.876   1.756   6.264
 1115SOL     OW 4243   4.091   3.546   6.239
 1115SOL    HW1 4244   4.072   3.642   6.262
 1115SOL    HW2 4245   4.049   3.487   6.308
 1116SOL     OW 4246   4.975   7.005   6.022
 1116SOL    HW1 4247   4.909   7.015   5.947
 1116SOL    HW2 4248   5.068   7.006   5.985
 1117SOL     OW 4249   2.270   2.175   2.778
 1117SOL    HW1 4250   2.329   2.137   2.707
 1117SOL    HW2 4251   2.312   2.257   2.816
 1118SOL     OW 4252   2.601   4.776   0.773
 1118SOL    HW1 4253   2.506   4.763   0.803
 1118SOL    HW2 4254   2.604   4.798   0.676
 1119SOL     OW 4255   4.479   4.217   1.455
 1119SOL    HW1 4256   4.407   4.170   1.404
 1119SOL    HW2 4257   4.527   4.280   1.394
 1120SOL     OW 4258   6.022   6.448   6.486
 1120SOL    HW1 4259   6.108   6.490   6.457
 1120SOL    HW2 4260   6.010   6.461   6.585
 1121SOL     OW 4261   5.258   5.104   3.407
 1121SOL    HW1 4262   5.242   5.044   3.329
 1121SOL    HW2 4263   5.304   5.052   3.479
 1122SOL     OW 4264   5.388   2.694   0.184
 1122SOL    HW1 4265   5.438   2.610   0.206
 1122SOL    HW2 4266   5.450   2.772   0.194
 1123SOL     OW 4267   4.819   1.126   2.799
 1123SOL    HW1 4268   4.817   1.032   2.834
 1123SOL    HW2 4269   4.818   1.191   2.875
 1124SOL     OW 4270   0.550   3.393   5.112
 1124SOL    HW1 4271   0.506   3.423   5.197
 1124SOL    HW2 4272   0.584   3.299   5.124
 1125SOL     OW 4273   3.379   2.152   4.109
 1125SOL    HW1 4274   3.386   2.238   4.057
 1125SOL    HW2 4275   3.327   2.085   4.055
 1126SOL     OW 4276   6.058   4.891   6.871
 1126SOL    HW1 4277   6.091   4.827   6.940
 1126SOL    HW2 4278   5.968   4.927   6.899
 1127SOL     OW 4279   5.416   5.264   4.906
 1127SOL    HW1 4280   5.381   5.329   4.973
 1127SOL    HW2 4281   5.356   5.263   4.826
 1128SOL     OW 4282   5.717   1.763   5.157
 1128SOL    HW1 4283   5.658   1.717   5.090
 1128SOL    HW2 4284   5.775   1.829   5.110
 1129SOL     OW 4285   1.750   0.144   6.938
 1129SOL    HW1 4286   1.766   0.185   0.008
 1129SOL    HW2 4287   1.838   0.116   6.898
 1130SOL     OW 4288   2.955   4.599   0.999
 1130SOL    HW1 4289   2.876   4.577   0.943
 1130SOL    HW2 4290   2.926   4.611   1.094
 1131SOL     OW 4291   0.833   5.407   5.905
 1131SOL    HW1 4292   0.794   5.496   5.927
 1131SOL    HW2 4293   0.785   5.368   5.826
 1132SOL     OW 4294   5.454   0.397   1.647
 1132SOL    HW1 4295   5.488   0.473   1.701
 1132SOL    HW2 4296   5.530   0.338   1.621
 1133SOL     OW 4297   0.972   0.497   1.405
 1133SOL    HW1 4298   0.900   0.504   1.336
 1133SOL    HW2 4299   1.024   0.413   1.389
 1134SOL     OW 4300   5.105   0.739   1.759
 1134SOL    HW1 4301   5.049   0.775   1.684
 1134SOL    HW2 4302   5.156   0.814   1.801
 1135SOL     OW 4303   2.661   0.267   2.460
 1135SOL    HW1 4304   2.649   0.343   2.524
 1135SOL    HW2 4305   2.588   0.268   2.392
 1136SOL     OW 4306   4.006   4.794   3.095
 1136SOL    HW1 4307   3.927   4.788   3.156
 1136SOL    HW2 4308   4.088   4.765   3.145
 1137SOL     OW 4309   1.280   0.706   6.854
 1137SOL    HW1 4310   1.199   0.663   6.816
 1137SOL    HW2 4311   1.310   0.780   6.793
 1138SOL     OW 4312   6.763   0.561   5.751
 1138SOL    HW1 4313   6.677   0.514   5.731
 1138SOL    HW2 4314   6.774   0.637   5.687
 1139SOL     OW 4315   3.115   4.777   1.844
 1139SOL    HW1 4316   3.087   4.849   1.781
 1139SOL    HW2 4317   3.197   4.806   1.894
 1140SOL     OW 4318   4.076   1.549   1.694
 1140SOL    HW1 4319   4.066   1.457   1.733
 1140SOL    HW2 4320   3.995   1.604   1.715
 1141SOL     OW 4321   0.306   6.238   6.557
 1141SOL    HW1 4322   0.219   6.201   6.524
 1141SOL    HW2 4323   0.363   6.163   6.590
 1142SOL     OW 4324   2.852   0.055   4.599
 1142SOL    HW1 4325   2.817   6.987   4.632
 1142SOL    HW2 4326   2.790   0.091   4.529
 1143SOL     OW 4327   1.763   3.387   3.129
 1143SOL    HW1 4328   1.851   3.341   3.130
 1143SOL    HW2 4329   1.737   3.408   3.034
 1144SOL     OW 4330   6.330   4.801   4.585
 1144SOL    HW1 4331   6.419   4.769   4.616
 1144SOL    HW2 4332   6.336   4.830   4.490
 1145SOL     OW 4333   6.689   3.718   2.594
 1145SOL    HW1 4334   6.599   3.704   2.554
 1145SOL    HW2 4335   6.681   3.777   2.674
 1146SOL     OW 4336   6.973   0.355   2.651
 1146SOL    HW1 4337   6.951   0.452   2.642
 1146SOL    HW2 4338   0.050   0.342   2.632
 1147SOL     OW 4339   2.599   5.086   1.707
 1147SOL    HW1 4340   2.634   5.180   1.709
 1147SOL    HW2 4341   2.634   5.039   1.626
 1148SOL     OW 4342   4.674   6.134   0.263
 1148SOL    HW1 4343   4.714   6.064   0.322
 1148SOL    HW2 4344   4.662   6.097   0.171
 1149SOL     OW 4345   6.810   4.012   3.577
 1149SOL    HW1 4346   6.908   4.032   3.578
 1149SOL    HW2 4347   6.796   3.915   3.557
 1150SOL     OW 4348   2.386   4.032   0.438
 1150SOL    HW1 4349   2.423   3.942   0.463
 1150SOL    HW2 4350   2.434   4.066   0.357
 1151SOL     OW 4351   5.161   4.630   6.769
 1151SOL    HW1 4352   5.134   4.545   6.723
 1151SOL    HW2 4353   5.195   4.609   6.860
 1152SOL     OW 4354   5.412   4.515   6.066
 1152SOL    HW1 4355   5.326   4.511   6.015
 1152SOL    HW2 4356   5.399   4.480   6.158
 1153SOL     OW 4357   1.596   0.531   1.670
 1153SOL    HW1 4358   1.678   0.574   1.633
 1153SOL    HW2 4359   1.527   0.601   1.688
 1154SOL     OW 4360   0.009   4.370   0.937
 1154SOL    HW1 4361   0.030   4.375   1.035
 1154SOL    HW2 4362   6.939   4.329   0.923
 1155SOL     OW 4363   2.653   5.385   6.387
 1155SOL    HW1 4364   2.703   5.389   6.300
 1155SOL    HW2 4365   2.705   5.434   6.457
 1156SOL     OW 4366   4.237   1.515   4.660
 1156SOL    HW1 4367   4.219   1.488   4.565
 1156SOL    HW2 4368   4.333   1.541   4.669
 1157SOL     OW 4369   5.418   1.652   5.689
 1157SOL    HW1 4370   5.441   1.591   5.613
 1157SOL    HW2 4371   5.455   1.743   5.671
 1158SOL     OW 4372   0.223   5.113   5.292
 1158SOL    HW1 4373   0.126   5.098   5.276
 1158SOL    HW2 4374   0.262   5.032   5.337
 1159SOL     OW 4375   6.434   0.056   3.960
 1159SOL    HW1 4376   6.491   7.009   4.009
 1159SOL    HW2 4377   6.475   0.076   3.871
 1160SOL     OW 4378   5.332   3.940   0.716
 1160SOL    HW1 4379   5.267   4.009   0.682
 1160SOL    HW2 4380   5.294   3.849   0.702
 1161SOL     OW 4381   6.005   6.764   6.225
 1161SOL    HW1 4382   6.004   6.799   6.319
 1161SOL    HW2 4383   6.087   6.796   6.178
 1162SOL     OW 4384   3.062   2.211   6.623
 1162SOL    HW1 4385   3.007   2.138   6.582
 1162SOL    HW2 4386   3.149   2.219   6.575
 1163SOL     OW 4387   6.506   3.432   2.196
 1163SOL    HW1 4388   6.555   3.345   2.186
 1163SOL    HW2 4389   6.444   3.426   2.273
 1164SOL     OW 4390   6.343   2.825   4.859
 1164SOL    HW1 4391   6.356   2.874   4.945
 1164SOL    HW2 4392   6.426   2.835   4.803
 1165SOL     OW 4393   3.043   4.939   3.686
 1165SOL    HW1 4394   3.113   4.913   3.753
 1165SOL    HW2 4395   3.045   5.038   3.673
 1166SOL     OW 4396   3.989   7.006   0.166
 1166SOL    HW1 4397   3.923   0.049   0.124
 1166SOL    HW2 4398   3.994   0.004   0.264
 1167SOL     OW 4399   4.358   6.609   6.753
 1167SOL    HW1 4400   4.397   6.534   6.807
 1167SOL    HW2 4401   4.431   6.659   6.706
 1168SOL     OW 4402   5.194   2.351   3.296
 1168SOL    HW1 4403   5.240   2.435   3.324
 1168SOL    HW2 4404   5.177   2.353   3.198
 1169SOL     OW 4405   4.909   2.180   6.202
 1169SOL    HW1 4406   4.899   2.250   6.132
 1169SOL    HW2 4407   4.952   2.220   6.283
 1170SOL     OW 4408   4.987   0.651   3.347
 1170SOL    HW1 4409   5.051   0.676   3.274
 1170SOL    HW2 4410   4.931   0.574   3.318
 1171SOL     OW 4411   3.011   5.996   0.069
 1171SOL    HW1 4412   2.950   6.042   0.134
 1171SOL    HW2 4413   2.964   5.986   7.001
 1172SOL     OW 4414   3.014   4.171   1.756
 1172SOL    HW1 4415   2.995   4.169   1.658
 1172SOL    HW2 4416   2.997   4.263   1.791
 1173SOL     OW 4417   2.493   0.713   6.669
 1173SOL    HW1 4418   2.483   0.739   6.765
 1173SOL    HW2 4419   2.445   0.779   6.611
 1174SOL     OW 4420   3.310   4.611   1.335
 1174SOL    HW1 4421   3.317   4.578   1.430
 1174SOL    HW2 4422   3.230   4.569   1.292
 1175SOL     OW 4423   3.638   3.667   6.767
 1175SOL    HW1 4424   3.556   3.614   6.789
 1175SOL    HW2 4425   3.612   3.750   6.717
 1176SOL     OW 4426   5.675   4.719   6.627
 1176SOL    HW1 4427   5.773   4.706   6.637
 1176SOL    HW2 4428   5.649   4.809   6.663
 1177SOL     OW 4429   6.689   1.892   4.859
 1177SOL    HW1 4430   6.758   1.878   4.929
 1177SOL    HW2 4431   6.731   1.933   4.778
 1178SOL     OW 4432   3.300   3.783   0.800
 1178SOL    HW1 4433   3.204   3.805   0.816
 1178SOL    HW2 4434   3.335   3.729   0.877
 1179SOL     OW 4435   3.045   5.872   0.928
 1179SOL    HW1 4436   3.106   5.925   0.869
 1179SOL    HW2 4437   2.984   5.935   0.977
 1180SOL     OW 4438   2.154   6.118   4.057
 1180SOL    HW1 4439   2.234   6.070   4.023
 1180SOL    HW2 4440   2.075   6.097   4.000
 1181SOL     OW 4441   0.096   3.581   5.951
 1181SOL    HW1 4442   0.158   3.545   5.882
 1181SOL    HW2 4443   0.040   3.507   5.988
 1182SOL     OW 4444   3.133   4.870   2.897
 1182SOL    HW1 4445   3.117   4.866   2.798
 1182SOL    HW2 4446   3.052   4.837   2.945
 1183SOL     OW 4447   3.252   5.509   1.998
 1183SOL    HW1 4448   3.349   5.489   1.986
 1183SOL    HW2 4449   3.241   5.586   2.061
 1184SOL     OW 4450   5.862   6.974   5.847
 1184SOL    HW1 4451   5.845   0.024   5.778
 1184SOL    HW2 4452   5.784   6.969   5.909
 1185SOL     OW 4453   0.649   0.750   0.368
 1185SOL    HW1 4454   0.731   0.700   0.344
 1185SOL    HW2 4455   0.587   0.753   0.289
 1186SOL     OW 4456   5.571   6.240   5.133
 1186SOL    HW1 4457   5.590   6.191   5.218
 1186SOL    HW2 4458   5.561   6.174   5.058
 1187SOL     OW 4459   5.162   6.492   5.773
 1187SOL    HW1 4460   5.232   6.476   5.844
 1187SOL    HW2 4461   5.167   6.587   5.742
 1188SOL     OW 4462   3.012   5.280   6.023
 1188SOL    HW1 4463   2.991   5.242   5.932
 1188SOL    HW2 4464   3.000   5.380   6.020
 1189SOL     OW 4465   6.185   0.657   1.328
 1189SOL    HW1 4466   6.094   0.699   1.321
 1189SOL    HW2 4467   6.175   0.558   1.334
 1190SOL     OW 4468   2.876   5.394   3.016
 1190SOL    HW1 4469   2.845   5.486   3.044
 1190SOL    HW2 4470   2.963   5.402   2.968
 1191SOL     OW 4471   2.805   6.275   4.191
 1191SOL    HW1 4472   2.833   6.263   4.096
 1191SOL    HW2 4473   2.886   6.294   4.247
 1192SOL     OW 4474   5.997   6.455   3.388
 1192SOL    HW1 4475   6.016   6.359   3.366
 1192SOL    HW2 4476   6.063   6.487   3.457
 1193SOL     OW 4477   7.007   0.698   5.216
 1193SOL    HW1 4478   0.053   0.624   5.198
 1193SOL    HW2 4479   0.024   0.759   5.285
 1194SOL     OW 4480   6.510   1.338   1.610
 1194SOL    HW1 4481   6.555   1.304   1.527
 1194SOL    HW2 4482   6.578   1.386   1.666
 1195SOL     OW 4483   6.896   3.364   0.412
 1195SOL    HW1 4484   6.846   3.382   0.327
 1195SOL    HW2 4485   6.945   3.277   0.404
 1196SOL     OW 4486   6.836   4.382   3.570
 1196SOL    HW1 4487   6.786   4.430   3.642
 1196SOL    HW2 4488   6.774   4.319   3.523
 1197SOL     OW 4489   4.526   6.114   4.486
 1197SOL    HW1 4490   4.427   6.115   4.480
 1197SOL    HW2 4491   4.565   6.105   4.394
 1198SOL     OW 4492   1.034   3.729   1.822
 1198SOL    HW1 4493   1.074   3.672   1.750
 1198SOL    HW2 4494   1.072   3.821   1.816
 1199SOL     OW 4495   3.130   4.070   3.092
 1199SOL    HW1 4496   3.140   4.170   3.093
 1199SOL    HW2 4497   3.178   4.031   3.171
 1200SOL     OW 4498   3.790   4.061   4.444
 1200SOL    HW1 4499   3.742   4.098   4.523
 1200SOL    HW2 4500   3.756   4.106   4.361
 1201SOL     OW 4501   6.434   0.985   4.927
 1201SOL    HW1 4502   6.420   1.078   4.963
 1201SOL    HW2 4503   6.448   0.989   4.828
 1202SOL     OW 4504   0.206   5.958   5.463
 1202SOL    HW1 4505   0.238   5.907   5.382
 1202SOL    HW2 4506   0.205   6.055   5.442
 1203SOL     OW 4507   0.628   6.444   0.130
 1203SOL    HW1 4508   0.590   6.456   0.221
 1203SOL    HW2 4509   0.586   6.364   0.086
 1204SOL     OW 4510   4.836   1.544   1.458
 1204SOL    HW1 4511   4.799   1.522   1.367
 1204SOL    HW2 4512   4.762   1.539   1.525
 1205SOL     OW 4513   3.831   3.489   0.483
 1205SOL    HW1 4514   3.732   3.496   0.474
 1205SOL    HW2 4515   3.874   3.571   0.447
 1206SOL     OW 4516   1.033   3.197   5.231
 1206SOL    HW1 4517   1.079   3.243   5.307
 1206SOL    HW2 4518   1.019   3.101   5.254
 1207SOL     OW 4519   0.316   0.469   0.889
 1207SOL    HW1 4520   0.235   0.437   0.840
 1207SOL    HW2 4521   0.311   0.568   0.902
 1208SOL     OW 4522   2.816   3.358   1.334
 1208SOL    HW1 4523   2.836   3.325   1.242
 1208SOL    HW2 4524   2.893   3.413   1.368
 1209SOL     OW 4525   5.263   0.281   4.305
 1209SOL    HW1 4526   5.206   0.262   4.225
 1209SOL    HW2 4527   5.354   0.244   4.290
 1210SOL     OW 4528   4.167   6.369   3.856
 1210SOL    HW1 4529   4.249   6.387   3.801
 1210SOL    HW2 4530   4.089   6.419   3.817
 1211SOL     OW 4531   0.782   3.289   3.027
 1211SOL    HW1 4532   0.701   3.233   3.008
 1211SOL    HW2 4533   0.783   3.314   3.123
 1212SOL     OW 4534   6.245   6.820   6.080
 1212SOL    HW1 4535   6.335   6.781   6.061
 1212SOL    HW2 4536   6.234   6.904   6.027
 1213SOL     OW 4537   5.791   2.556   1.859
 1213SOL    HW1 4538   5.734   2.587   1.783
 1213SOL    HW2 4539   5.769   2.609   1.940
 1214SOL     OW 4540   1.295   2.394   6.916
 1214SOL    HW1 4541   1.327   2.382   7.010
 1214SOL    HW2 4542   1.213   2.338   6.901
 1215SOL     OW 4543   1.245   4.916   2.974
 1215SOL    HW1 4544   1.300   4.897   3.056
 1215SOL    HW2 4545   1.161   4.863   2.977
 1216SOL     OW 4546   5.352   1.317   0.501
 1216SOL    HW1 4547   5.379   1.233   0.455
 1216SOL    HW2 4548   5.432   1.356   0.547
 1217SOL     OW 4549   2.601   4.955   0.568
 1217SOL    HW1 4550   2.593   5.025   0.639
 1217SOL    HW2 4551   2.690   4.961   0.524
 1218SOL     OW 4552   1.776   2.430   4.900
 1218SOL    HW1 4553   1.742   2.372   4.973
 1218SOL    HW2 4554   1.700   2.482   4.860
 1219SOL     OW 4555   5.790   5.717   2.057
 1219SOL    HW1 4556   5.797   5.769   1.972
 1219SOL    HW2 4557   5.873   5.663   2.071
 1220SOL     OW 4558   6.978   4.211   2.405
 1220SOL    HW1 4559   0.018   4.239   2.330
 1220SOL    HW2 4560   6.899   4.272   2.409
 1221SOL     OW 4561   4.827   3.310   6.549
 1221SOL    HW1 4562   4.885   3.266   6.480
 1221SOL    HW2 4563   4.736   3.270   6.547
 1222SOL     OW 4564   6.417   1.219   6.422
 1222SOL    HW1 4565   6.399   1.138   6.366
 1222SOL    HW2 4566   6.503   1.207   6.471
 1223SOL     OW 4567   3.932   1.072   0.200
 1223SOL    HW1 4568   3.920   1.082   0.101
 1223SOL    HW2 4569   3.919   0.976   0.225
 1224SOL     OW 4570   2.856   6.308   6.851
 1224SOL    HW1 4571   2.905   6.339   6.770
 1224SOL    HW2 4572   2.867   6.209   6.862
 1225SOL     OW 4573   3.508   2.674   6.395
 1225SOL    HW1 4574   3.415   2.666   6.361
 1225SOL    HW2 4575   3.529   2.770   6.414
 1226SOL     OW 4576   3.629   6.630   0.608
 1226SOL    HW1 4577   3.544   6.583   0.628
 1226SOL    HW2 4578   3.706   6.567   0.621
 1227SOL     OW 4579   5.229   4.785   5.675
 1227SOL    HW1 4580   5.299   4.716   5.653
 1227SOL    HW2 4581   5.268   4.854   5.736
 1228SOL     OW 4582   2.698   2.255   6.108
 1228SOL    HW1 4583   2.682   2.205   6.193
 1228SOL    HW2 4584   2.623   2.319   6.093
 1229SOL     OW 4585   2.620   5.364   6.770
 1229SOL    HW1 4586   2.561   5.358   6.689
 1229SOL    HW2 4587   2.710   5.399   6.743
 1230SOL     OW 4588   5.527   6.452   1.770
 1230SOL    HW1 4589   5.442   6.463   1.719
 1230SOL    HW2 4590   5.601   6.429   1.706
 1231SOL     OW 4591   1.797   2.010   5.347
 1231SOL    HW1 4592   1.759   2.099   5.374
 1231SOL    HW2 4593   1.808   2.006   5.248
 1232SOL     OW 4594   6.465   1.731   4.847
 1232SOL    HW1 4595   6.440   1.678   4.928
 1232SOL    HW2 4596   6.531   1.802   4.873
 1233SOL     OW 4597   0.727   5.463   5.069
 1233SOL    HW1 4598   0.816   5.509   5.073
 1233SOL    HW2 4599   0.658   5.520   5.112
 1234SOL     OW 4600   6.099   2.952   5.987
 1234SOL    HW1 4601   6.163   2.895   5.935
 1234SOL    HW2 4602   6.034   2.894   6.035
 1235SOL     OW 4603   5.916   5.552   2.260
 1235SOL    HW1 4604   5.977   5.620   2.221
 1235SOL    HW2 4605   5.885   5.582   2.350
 1236SOL     OW 4606   4.172   0.924   0.932
 1236SOL    HW1 4607   4.170   1.024   0.944
 1236SOL    HW2 4608   4.189   0.903   0.835
 1237SOL     OW 4609   1.899   4.193   6.069
 1237SOL    HW1 4610   1.884   4.129   5.994
 1237SOL    HW2 4611   1.949   4.147   6.143
 1238SOL     OW 4612   1.502   0.924   6.375
 1238SOL    HW1 4613   1.589   0.957   6.413
 1238SOL    HW2 4614   1.450   1.001   6.340
 1239SOL     OW 4615   0.215   6.743   0.247
 1239SOL    HW1 4616   0.261   6.806   0.310
 1239SOL    HW2 4617   0.121   6.773   0.232
 1240SOL     OW 4618   5.582   6.158   0.540
 1240SOL    HW1 4619   5.499   6.162   0.484
 1240SOL    HW2 4620   5.590   6.067   0.582
 1241SOL     OW 4621   5.482   4.346   4.960
 1241SOL    HW1 4622   5.509   4.272   5.021
 1241SOL    HW2 4623   5.547   4.352   4.884
 1242SOL     OW 4624   1.563   3.605   1.140
 1242SOL    HW1 4625   1.494   3.630   1.072
 1242SOL    HW2 4626   1.559   3.506   1.156
 1243SOL     OW 4627   0.877   0.650   5.057
 1243SOL    HW1 4628   0.954   0.619   5.001
 1243SOL    HW2 4629   0.910   0.714   5.126
 1244SOL     OW 4630   5.875   6.222   4.050
 1244SOL    HW1 4631   5.830   6.192   3.966
 1244SOL    HW2 4632   5.858   6.156   4.122
 1245SOL     OW 4633   5.767   4.430   0.053
 1245SOL    HW1 4634   5.738   4.390   6.986
 1245SOL    HW2 4635   5.774   4.359   0.123
 1246SOL     OW 4636   3.003   1.125   1.277
 1246SOL    HW1 4637   3.082   1.124   1.215
 1246SOL    HW2 4638   2.974   1.219   1.291
 1247SOL     OW 4639   0.007   6.465   6.110
 1247SOL    HW1 4640   0.017   6.366   6.098
 1247SOL    HW2 4641   6.934   6.492   6.086
 1248SOL     OW 4642   2.119   6.878   4.879
 1248SOL    HW1 4643   2.080   6.940   4.810
 1248SOL    HW2 4644   2.060   6.875   4.959
 1249SOL     OW 4645   6.657   1.989   2.147
 1249SOL    HW1 4646   6.739   1.950   2.105
 1249SOL    HW2 4647   6.608   2.044   2.080
 1250SOL     OW 4648   5.465   5.270   3.236
 1250SOL    HW1 4649   5.398   5.202   3.266
 1250SOL    HW2 4650   5.442   5.300   3.143
 1251SOL     OW 4651   2.909   0.805   3.412
 1251SOL    HW1 4652   2.837   0.822   3.345
 1251SOL    HW2 4653   2.934   0.708   3.411
 1252SOL     OW 4654   4.679   3.951   6.557
 1252SOL    HW1 4655   4.613   4.015   6.597
 1252SOL    HW2 4656   4.631   3.889   6.494
 1253SOL     OW 4657   3.245   6.540   1.860
 1253SOL    HW1 4658   3.298   6.515   1.779
 1253SOL    HW2 4659   3.254   6.468   1.929
 1254SOL     OW 4660   0.693   3.354   3.284
 1254SOL    HW1 4661   0.753   3.427   3.314
 1254SOL    HW2 4662   0.687   3.283   3.355
 1255SOL     OW 4663   6.064   1.426   6.616
 1255SOL    HW1 4664   6.007   1.433   6.534
 1255SOL    HW2 4665   6.041   1.500   6.679
 1256SOL     OW 4666   6.526   6.923   3.251
 1256SOL    HW1 4667   6.598   6.865   3.212
 1256SOL    HW2 4668   6.447   6.924   3.190
 1257SOL     OW 4669   6.598   5.422   4.721
 1257SOL    HW1 4670   6.602   5.330   4.683
 1257SOL    HW2 4671   6.510   5.463   4.700
 1258SOL     OW 4672   1.377   5.047   2.727
 1258SOL    HW1 4673   1.465   5.095   2.722
 1258SOL    HW2 4674   1.343   5.049   2.821
 1259SOL     OW 4675   3.386   0.352   4.204
 1259SOL    HW1 4676   3.287   0.333   4.200
 1259SOL    HW2 4677   3.435   0.286   4.147
 1260SOL     OW 4678   2.797   2.558   0.006
 1260SOL    HW1 4679   2.838   2.468   0.017
 1260SOL    HW2 4680   2.697   2.550   0.013
 1261SOL     OW 4681   6.895   5.470   6.964
 1261SOL    HW1 4682   6.860   5.423   0.024
 1261SOL    HW2 4683   6.848   5.558   6.954
 1262SOL     OW 4684   6.283   4.023   1.305
 1262SOL    HW1 4685   6.259   3.927   1.322
 1262SOL    HW2 4686   6.295   4.070   1.393
 1263SOL     OW 4687   0.136   2.151   1.504
 1263SOL    HW1 4688   0.152   2.130   1.601
 1263SOL    HW2 4689   0.103   2.070   1.457
 1264SOL     OW 4690   6.779   3.814   1.992
 1264SOL    HW1 4691   6.783   3.765   1.905
 1264SOL    HW2 4692   6.773   3.749   2.067
 1265SOL     OW 4693   4.605   5.721   3.831
 1265SOL    HW1 4694   4.702   5.746   3.827
 1265SOL    HW2 4695   4.552   5.784   3.774
 1266SOL     OW 4696   0.197   1.694   4.593
 1266SOL    HW1 4697   0.271   1.740   4.643
 1266SOL    HW2 4698   0.110   1.737   4.616
 1267SOL     OW 4699   4.864   7.006   1.170
 1267SOL    HW1 4700   4.823   6.971   1.086
 1267SOL    HW2 4701   4.793   0.033   1.224
 1268SOL     OW 4702   2.968   2.908   0.297
 1268SOL    HW1 4703   2.988   2.877   0.204
 1268SOL    HW2 4704   2.870   2.928   0.304
 1269SOL     OW 4705   5.875   5.394   5.282
 1269SOL    HW1 4706   5.887   5.328   5.208
 1269SOL    HW2 4707   5.915   5.482   5.256
 1270SOL     OW 4708   1.497   3.116   3.479
 1270SOL    HW1 4709   1.578   3.134   3.422
 1270SOL    HW2 4710   1.525   3.112   3.575
 1271SOL     OW 4711   2.787   2.212   3.819
 1271SOL    HW1 4712   2.844   2.206   3.901
 1271SOL    HW2 4713   2.755   2.306   3.807
 1272SOL     OW 4714   5.699   5.259   0.366
 1272SOL    HW1 4715   5.748   5.171   0.365
 1272SOL    HW2 4716   5.626   5.254   0.434
 1273SOL     OW 4717   0.616   3.430   0.392
 1273SOL    HW1 4718   0.683   3.356   0.393
 1273SOL    HW2 4719   0.664   3.518   0.402
 1274SOL     OW 4720   6.259   4.392   1.413
 1274SOL    HW1 4721   6.344   4.341   1.420
 1274SOL    HW2 4722   6.208   4.360   1.333
 1275SOL     OW 4723   3.917   1.868   4.959
 1275SOL    HW1 4724   3.973   1.806   4.903
 1275SOL    HW2 4725   3.925   1.961   4.922
 1276SOL     OW 4726   6.797   5.973   4.814
 1276SOL    HW1 4727   6.817   6.063   4.855
 1276SOL    HW2 4728   6.723   5.982   4.748
 1277SOL     OW 4729   1.489   5.428   6.011
 1277SOL    HW1 4730   1.568   5.392   6.061
 1277SOL    HW2 4731   1.405   5.400   6.057
 1278SOL     OW 4732   0.854   0.193   4.541
 1278SOL    HW1 4733   0.871   0.094   4.548
 1278SOL    HW2 4734   0.932   0.237   4.497
 1279SOL     OW 4735   2.338   5.911   0.630
 1279SOL    HW1 4736   2.422   5.857   0.636
 1279SOL    HW2 4737   2.266   5.866   0.684
 1280SOL     OW 4738   3.007   6.431   4.765
 1280SOL    HW1 4739   3.002   6.488   4.683
 1280SOL    HW2 4740   3.039   6.487   4.842
 1281SOL     OW 4741   2.375   6.302   3.340
 1281SOL    HW1 4742   2.397   6.399   3.353
 1281SOL    HW2 4743   2.452   6.256   3.294
 1282SOL     OW 4744   0.391   2.337   0.079
 1282SOL    HW1 4745   0.410   2.302   7.007
 1282SOL    HW2 4746   0.315   2.286   0.119
 1283SOL     OW 4747   0.408   3.731   5.607
 1283SOL    HW1 4748   0.460   3.682   5.537
 1283SOL    HW2 4749   0.349   3.666   5.655
 1284SOL     OW 4750   4.822   2.227   1.124
 1284SOL    HW1 4751   4.776   2.305   1.165
 1284SOL    HW2 4752   4.774   2.200   1.040
 1285SOL     OW 4753   4.533   2.618   6.355
 1285SOL    HW1 4754   4.442   2.595   6.320
 1285SOL    HW2 4755   4.527   2.638   6.452
 1286SOL     OW 4756   4.933   3.511   1.283
 1286SOL    HW1 4757   4.983   3.508   1.370
 1286SOL    HW2 4758   4.834   3.514   1.302
 1287SOL     OW 4759   5.764   5.771   5.382
 1287SOL    HW1 4760   5.681   5.820   5.409
 1287SOL    HW2 4761   5.746   5.673   5.380
 1288SOL     OW 4762   4.153   3.017   6.054
 1288SOL    HW1 4763   4.060   3.035   6.023
 1288SOL    HW2 4764   4.172   3.070   6.136
 1289SOL     OW 4765   0.045   6.989   1.387
 1289SOL    HW1 4766   0.050   0.057   1.340
 1289SOL    HW2 4767   0.093   6.919   1.334
 1290SOL     OW 4768   0.544   6.302   6.392
 1290SOL    HW1 4769   0.449   6.287   6.367
 1290SOL    HW2 4770   0.592   6.347   6.316
 1291SOL     OW 4771   0.134   3.825   4.891
 1291SOL    HW1 4772   0.088   3.752   4.941
 1291SOL    HW2 4773   0.230   3.801   4.878
 1292SOL     OW 4774   0.647   5.730   2.725
 1292SOL    HW1 4775   0.639   5.725   2.626
 1292SOL    HW2 4776   0.737   5.767   2.750
 1293SOL     OW 4777   0.513   1.806   0.043
 1293SOL    HW1 4778   0.521   1.712   0.074
 1293SOL    HW2 4779   0.588   1.826   6.999
 1294SOL     OW 4780   1.235   3.126   6.436
 1294SOL    HW1 4781   1.235   3.153   6.340
 1294SOL    HW2 4782   1.200   3.033   6.446
 1295SOL     OW 4783   0.180   3.595   1.622
 1295SOL    HW1 4784   0.095   3.543   1.626
 1295SOL    HW2 4785   0.257   3.533   1.609
 1296SOL     OW 4786   3.713   6.518   5.540
 1296SOL    HW1 4787   3.674   6.426   5.551
 1296SOL    HW2 4788   3.739   6.554   5.629
 1297SOL     OW 4789   6.846   0.960   1.414
 1297SOL    HW1 4790   6.919   0.891   1.416
 1297SOL    HW2 4791   6.820   0.984   1.508
 1298SOL     OW 4792   5.505   5.329   2.945
 1298SOL    HW1 4793   5.546   5.289   2.864
 1298SOL    HW2 4794   5.437   5.397   2.918
 1299SOL     OW 4795   1.724   3.602   3.304
 1299SOL    HW1 4796   1.722   3.512   3.261
 1299SOL    HW2 4797   1.641   3.652   3.281
 1300SOL     OW 4798   2.535   3.071   1.274
 1300SOL    HW1 4799   2.597   3.045   1.348
 1300SOL    HW2 4800   2.463   3.131   1.310
 1301SOL     OW 4801   0.488   0.136   1.170
 1301SOL    HW1 4802   0.503   0.045   1.130
 1301SOL    HW2 4803   0.476   0.203   1.096
 1302SOL     OW 4804   4.580   0.483   5.895
 1302SOL    HW1 4805   4.644   0.559   5.901
 1302SOL    HW2 4806   4.487   0.517   5.897
 1303SOL     OW 4807   3.981   2.349   1.201
 1303SOL    HW1 4808   4.061   2.369   1.143
 1303SOL    HW2 4809   3.992   2.259   1.243
 1304SOL     OW 4810   2.157   1.001   6.690
 1304SOL    HW1 4811   2.058   0.998   6.705
 1304SOL    HW2 4812   2.202   1.040   6.770
 1305SOL     OW 4813   5.796   3.702   0.526
 1305SOL    HW1 4814   5.759   3.776   0.582
 1305SOL    HW2 4815   5.751   3.616   0.551
 1306SOL     OW 4816   0.972   4.594   3.911
 1306SOL    HW1 4817   1.006   4.558   3.997
 1306SOL    HW2 4818   0.995   4.691   3.904
 1307SOL     OW 4819   1.042   4.239   3.637
 1307SOL    HW1 4820   1.029   4.201   3.545
 1307SOL    HW2 4821   1.130   4.285   3.641
 1308SOL     OW 4822   6.068   6.787   5.130
 1308SOL    HW1 4823   6.004   6.806   5.204
 1308SOL    HW2 4824   6.074   6.688   5.116
 1309SOL     OW 4825   5.670   4.214   5.127
 1309SOL    HW1 4826   5.734   4.160   5.074
 1309SOL    HW2 4827   5.591   4.158   5.152
 1310SOL     OW 4828   6.790   3.764   4.148
 1310SOL    HW1 4829   6.852   3.688   4.131
 1310SOL    HW2 4830   6.806   3.836   4.081
 1311SOL     OW 4831   0.401   6.197   5.193
 1311SOL    HW1 4832   0.367   6.242   5.111
 1311SOL    HW2 4833   0.447   6.264   5.252
 1312SOL     OW 4834   1.146   6.674   6.967
 1312SOL    HW1 4835   1.197   6.634   0.023
 1312SOL    HW2 4836   1.206   6.686   6.888
 1313SOL     OW 4837   0.432   4.451   2.745
 1313SOL    HW1 4838   0.490   4.469   2.825
 1313SOL    HW2 4839   0.372   4.374   2.764
 1314SOL     OW 4840   4.160   1.519   5.448
 1314SOL    HW1 4841   4.083   1.582   5.458
 1314SOL    HW2 4842   4.212   1.515   5.533
 1315SOL     OW 4843   0.629   1.446   2.258
 1315SOL    HW1 4844   0.724   1.475   2.270
 1315SOL    HW2 4845   0.570   1.526   2.252
 1316SOL     OW 4846   1.985   6.134   4.986
 1316SOL    HW1 4847   1.958   6.056   5.042
 1316SOL    HW2 4848   2.080   6.158   5.004
 1317SOL     OW 4849   2.642   4.493   6.228
 1317SOL    HW1 4850   2.721   4.501   6.168
 1317SOL    HW2 4851   2.583   4.573   6.217
 1318SOL     OW 4852   0.518   1.814   1.211
 1318SOL    HW1 4853   0.530   1.722   1.250
 1318SOL    HW2 4854   0.549   1.882   1.278
 1319SOL     OW 4855   6.962   6.496   0.164
 1319SOL    HW1 4856   6.976   6.584   0.119
 1319SOL    HW2 4857   0.027   6.444   0.163
 1320SOL     OW 4858   4.511   4.290   0.498
 1320SOL    HW1 4859   4.547   4.295   0.404
 1320SOL    HW2 4860   4.430   4.232   0.499
 1321SOL     OW 4861   5.509   1.370   6.586
 1321SOL    HW1 4862   5.534   1.395   6.492
 1321SOL    HW2 4863   5.413   1.392   6.602
 1322SOL     OW 4864   4.157   0.864   3.228
 1322SOL    HW1 4865   4.226   0.856   3.300
 1322SOL    HW2 4866   4.187   0.930   3.159
 1323SOL     OW 4867   4.307   0.570   5.874
 1323SOL    HW1 4868   4.306   0.620   5.787
 1323SOL    HW2 4869   4.242   0.613   5.937
 1324SOL     OW 4870   0.883   3.950   0.123
 1324SOL    HW1 4871   0.920   3.973   0.213
 1324SOL    HW2 4872   0.958   3.934   0.059
 1325SOL     OW 4873   2.383   0.070   3.151
 1325SOL    HW1 4874   2.475   0.039   3.128
 1325SOL    HW2 4875   2.366   0.054   3.248
 1326SOL     OW 4876   5.158   3.657   5.004
 1326SOL    HW1 4877   5.163   3.604   4.920
 1326SOL    HW2 4878   5.062   3.672   5.028
 1327SOL     OW 4879   0.773   6.008   1.573
 1327SOL    HW1 4880   0.680   6.041   1.589
 1327SOL    HW2 4881   0.838   6.082   1.589
 1328SOL     OW 4882   1.552   2.850   0.705
 1328SOL    HW1 4883   1.595   2.792   0.774
 1328SOL    HW2 4884   1.593   2.941   0.707
 1329SOL     OW 4885   0.183   2.071   1.768
 1329SOL    HW1 4886   0.232   2.045   1.852
 1329SOL    HW2 4887   0.103   2.126   1.792
 1330SOL     OW 4888   0.535   1.302   1.816
 1330SOL    HW1 4889   0.449   1.300   1.866
 1330SOL    HW2 4890   0.607   1.259   1.871
 1331SOL     OW 4891   4.805   3.025   3.008
 1331SOL    HW1 4892   4.809   3.088   2.930
 1331SOL    HW2 4893   4.742   2.951   2.988
 1332SOL     OW 4894   2.760   6.925   6.624
 1332SOL    HW1 4895   2.853   6.918   6.661
 1332SOL    HW2 4896   2.730   0.001   6.628
 1333SOL     OW 4897   3.316   3.667   4.364
 1333SOL    HW1 4898   3.251   3.692   4.292
 1333SOL    HW2 4899   3.300   3.572   4.392
 1334SOL     OW 4900   6.084   1.640   4.332
 1334SOL    HW1 4901   6.002   1.665   4.382
 1334SOL    HW2 4902   6.087   1.690   4.245
 1335SOL     OW 4903   2.378   1.941   3.021
 1335SOL    HW1 4904   2.396   2.032   3.057
 1335SOL    HW2 4905   2.285   1.937   2.985
 1336SOL     OW 4906   1.718   2.938   5.007
 1336SOL    HW1 4907   1.737   2.872   5.080
 1336SOL    HW2 4908   1.623   2.969   5.014
 1337SOL     OW 4909   1.714   2.069   4.420
 1337SOL    HW1 4910   1.657   2.150   4.408
 1337SOL    HW2 4911   1.732   2.054   4.517
 1338SOL     OW 4912   5.329   2.259   5.036
 1338SOL    HW1 4913   5.281   2.172   5.054
 1338SOL    HW2 4914   5.402   2.243   4.970
 1339SOL     OW 4915   0.062   1.938   6.486
 1339SOL    HW1 4916   0.128   1.993   6.538
 1339SOL    HW2 4917   0.016   1.874   6.548
 1340SOL     OW 4918   6.545   1.885   2.414
 1340SOL    HW1 4919   6.586   1.902   2.324
 1340SOL    HW2 4920   6.450   1.915   2.413
 1341SOL     OW 4921   5.297   6.692   6.064
 1341SOL    HW1 4922   5.288   6.727   5.970
 1341SOL    HW2 4923   5.232   6.739   6.123
 1342SOL     OW 4924   2.530   5.465   5.568
 1342SOL    HW1 4925   2.620   5.449   5.610
 1342SOL    HW2 4926   2.515   5.398   5.496
 1343SOL     OW 4927   4.760   5.756   2.708
 1343SOL    HW1 4928   4.813   5.709   2.779
 1343SOL    HW2 4929   4.680   5.800   2.750
 1344SOL     OW 4930   6.364   5.498   4.579
 1344SOL    HW1 4931   6.378   5.458   4.489
 1344SOL    HW2 4932   6.267   5.516   4.594
 1345SOL     OW 4933   1.756   0.516   2.851
 1345SOL    HW1 4934   1.829   0.449   2.838
 1345SOL    HW2 4935   1.670   0.477   2.817
 1346SOL     OW 4936   0.940   6.171   4.983
 1346SOL    HW1 4937   0.880   6.211   4.914
 1346SOL    HW2 4938   0.928   6.219   5.070
 1347SOL     OW 4939   0.083   6.570   4.906
 1347SOL    HW1 4940   0.043   6.504   4.969
 1347SOL    HW2 4941   0.149   6.627   4.955
 1348SOL     OW 4942   5.566   5.632   2.654
 1348SOL    HW1 4943   5.492   5.654   2.718
 1348SOL    HW2 4944   5.539   5.659   2.561
 1349SOL     OW 4945   4.680   2.605   5.925
 1349SOL    HW1 4946   4.632   2.689   5.900
 1349SOL    HW2 4947   4.623   2.526   5.902
 1350SOL     OW 4948   5.401   5.134   5.190
 1350SOL    HW1 4949   5.318   5.078   5.190
 1350SOL    HW2 4950   5.405   5.188   5.106
 1351SOL     OW 4951   6.023   1.656   3.584
 1351SOL    HW1 4952   6.078   1.646   3.501
 1351SOL    HW2 4953   6.012   1.753   3.605
 1352SOL     OW 4954   7.008   6.268   2.078
 1352SOL    HW1 4955   6.935   6.328   2.045
 1352SOL    HW2 4956   0.063   6.323   2.113
 1353SOL     OW 4957   0.787   3.196   0.336
 1353SOL    HW1 4958   0.883   3.196   0.364
 1353SOL    HW2 4959   0.781   3.180   0.237
 1354SOL     OW 4960   0.721   3.587   1.689
 1354SOL    HW1 4961   0.799   3.527   1.702
 1354SOL    HW2 4962   0.671   3.596   1.775
 1355SOL     OW 4963   6.935   2.826   4.408
 1355SOL    HW1 4964   6.934   2.920   4.444
 1355SOL    HW2 4965   6.996   2.821   4.330
 1356SOL     OW 4966   3.263   2.912   2.868
 1356SOL    HW1 4967   3.196   2.863   2.812
 1356SOL    HW2 4968   3.224   2.999   2.899
 1357SOL     OW 4969   0.985   3.155   5.833
 1357SOL    HW1 4970   0.891   3.181   5.854
 1357SOL    HW2 4971   1.006   3.179   5.738
 1358SOL     OW 4972   3.854   0.168   5.833
 1358SOL    HW1 4973   3.948   0.139   5.849
 1358SOL    HW2 4974   3.844   0.265   5.856
 1359SOL     OW 4975   5.583   4.697   2.161
 1359SOL    HW1 4976   5.511   4.765   2.143
 1359SOL    HW2 4977   5.546   4.621   2.213
 1360SOL     OW 4978   3.282   2.697   0.254
 1360SOL    HW1 4979   3.361   2.718   0.195
 1360SOL    HW2 4980   3.221   2.635   0.205
 1361SOL     OW 4981   0.128   5.530   5.178
 1361SOL    HW1 4982   0.077   5.608   5.214
 1361SOL    HW2 4983   0.071   5.482   5.110
 1362SOL     OW 4984   3.440   4.041   4.307
 1362SOL    HW1 4985   3.343   4.061   4.316
 1362SOL    HW2 4986   3.466   3.971   4.373
 1363SOL     OW 4987   0.176   5.349   2.913
 1363SOL    HW1 4988   0.125   5.276   2.960
 1363SOL    HW2 4989   0.213   5.412   2.982
 1364SOL     OW 4990   6.613   3.088   1.292
 1364SOL    HW1 4991   6.630   3.079   1.194
 1364SOL    HW2 4992   6.684   3.145   1.333
 1365SOL     OW 4993   1.025   3.375   6.474
 1365SOL    HW1 4994   1.045   3.283   6.441
 1365SOL    HW2 4995   1.111   3.419   6.502
 1366SOL     OW 4996   1.105   4.619   0.259
 1366SOL    HW1 4997   1.156   4.693   0.215
 1366SOL    HW2 4998   1.127   4.533   0.214
 1367SOL     OW 4999   2.119   0.055   2.892
 1367SOL    HW1 5000   2.173   0.127   2.934
 1367SOL    HW2 5001   2.163   6.986   2.908
 1368SOL     OW 5002   6.351   0.247   3.596
 1368SOL    HW1 5003   6.296   0.167   3.572
 1368SOL    HW2 5004   6.408   0.274   3.518
 1369SOL     OW 5005   2.572   0.063   1.899
 1369SOL    HW1 5006   2.641   0.032   1.833
 1369SOL    HW2 5007   2.524   0.142   1.861
 1370SOL     OW 5008   4.431   1.546   0.914
 1370SOL    HW1 5009   4.373   1.621   0.881
 1370SOL    HW2 5010   4.526   1.575   0.915
 1371SOL     OW 5011   6.082   1.354   4.406
 1371SOL    HW1 5012   6.118   1.317   4.320
 1371SOL    HW2 5013   6.077   1.454   4.399
 1372SOL     OW 5014   1.039   3.165   0.439
 1372SOL    HW1 5015   1.061   3.259   0.465
 1372SOL    HW2 5016   1.047   3.105   0.519
 1373SOL     OW 5017   4.907   2.739   0.192
 1373SOL    HW1 5018   4.832   2.770   0.133
 1373SOL    HW2 5019   4.905   2.791   0.278
 1374SOL     OW 5020   4.985   2.074   0.204
 1374SOL    HW1 5021   5.018   2.107   0.115
 1374SOL    HW2 5022   4.945   1.984   0.193
 1375SOL     OW 5023   0.626   4.325   6.357
 1375SOL    HW1 5024   0.643   4.228   6.370
 1375SOL    HW2 5025   0.567   4.359   6.430
 1376SOL     OW 5026   4.064   4.834   4.791
 1376SOL    HW1 5027   4.015   4.775   4.856
 1376SOL    HW2 5028   4.161   4.838   4.815
 1377SOL     OW 5029   0.872   3.975   5.726
 1377SOL    HW1 5030   0.884   3.879   5.702
 1377SOL    HW2 5031   0.881   3.986   5.825
 1378SOL     OW 5032   5.947   0.615   4.924
 1378SOL    HW1 5033   6.045   0.607   4.943
 1378SOL    HW2 5034   5.907   0.523   4.919
 1379SOL     OW 5035   3.893   0.230   2.723
 1379SOL    HW1 5036   3.837   0.184   2.654
 1379SOL    HW2 5037   3.988   0.233   2.693
 1380SOL     OW 5038   0.058   6.707   2.439
 1380SOL    HW1 5039   0.081   6.663   2.525
 1380SOL    HW2 5040   0.136   6.762   2.408
 1381SOL     OW 5041   5.870   2.212   7.000
 1381SOL    HW1 5042   5.800   2.201   0.050
 1381SOL    HW2 5043   5.867   2.134   6.938
 1382SOL     OW 5044   4.754   3.819   0.547
 1382SOL    HW1 5045   4.685   3.810   0.475
 1382SOL    HW2 5046   4.822   3.886   0.520
 1383SOL     OW 5047   1.333   0.438   2.031
 1383SOL    HW1 5048   1.385   0.363   1.991
 1383SOL    HW2 5049   1.395   0.515   2.047
 1384SOL     OW 5050   4.554   6.978   1.667
 1384SOL    HW1 5051   4.593   6.982   1.576
 1384SOL    HW2 5052   4.560   0.049   1.710
 1385SOL     OW 5053   1.700   3.624   3.843
 1385SOL    HW1 5054   1.744   3.549   3.793
 1385SOL    HW2 5055   1.758   3.651   3.919
 1386SOL     OW 5056   3.100   0.692   4.327
 1386SOL    HW1 5057   3.030   0.745   4.374
 1386SOL    HW2 5058   3.176   0.751   4.302
 1387SOL     OW 5059   3.502   5.917   2.672
 1387SOL    HW1 5060   3.495   5.820   2.651
 1387SOL    HW2 5061   3.594   5.949   2.652
 1388SOL     OW 5062   0.365   6.899   2.895
 1388SOL    HW1 5063   0.366   6.812   2.846
 1388SOL    HW2 5064   0.402   6.971   2.837
 1389SOL     OW 5065   0.135   1.047   3.502
 1389SOL    HW1 5066   0.104   1.121   3.442
 1389SOL    HW2 5067   0.057   0.990   3.529
 1390SOL     OW 5068   5.904   2.750   6.115
 1390SOL    HW1 5069   5.838   2.750   6.191
 1390SOL    HW2 5070   5.856   2.735   6.029
 1391SOL     OW 5071   6.225   0.276   5.590
 1391SOL    HW1 5072   6.222   0.248   5.686
 1391SOL    HW2 5073   6.320   0.281   5.560
 1392SOL     OW 5074   5.557   6.597   6.731
 1392SOL    HW1 5075   5.563   6.668   6.801
 1392SOL    HW2 5076   5.558   6.507   6.774
 1393SOL     OW 5077   6.166   3.760   5.751
 1393SOL    HW1 5078   6.080   3.718   5.723
 1393SOL    HW2 5079   6.193   3.830   5.685
 1394SOL     OW 5080   4.014   6.005   4.231
 1394SOL    HW1 5081   3.985   5.940   4.161
 1394SOL    HW2 5082   4.026   6.095   4.191
 1395SOL     OW 5083   1.443   4.420   4.257
 1395SOL    HW1 5084   1.456   4.322   4.267
 1395SOL    HW2 5085   1.525   4.461   4.215
 1396SOL     OW 5086   0.725   0.389   3.996
 1396SOL    HW1 5087   0.688   0.479   4.021
 1396SOL    HW2 5088   0.726   0.330   4.077
 1397SOL     OW 5089   0.494   6.014   4.871
 1397SOL    HW1 5090   0.448   5.977   4.953
 1397SOL    HW2 5091   0.572   5.956   4.849
 1398SOL     OW 5092   1.808   1.955   7.002
 1398SOL    HW1 5093   1.821   1.993   0.073
 1398SOL    HW2 5094   1.718   1.913   6.995
 1399SOL     OW 5095   3.896   0.032   6.701
 1399SOL    HW1 5096   3.990   0.003   6.714
 1399SOL    HW2 5097   3.835   6.973   6.710
 1400SOL     OW 5098   6.984   2.286   4.181
 1400SOL    HW1 5099   6.949   2.223   4.111
 1400SOL    HW2 5100   0.046   2.247   4.224
 1401SOL     OW 5101   6.315   6.714   4.130
 1401SOL    HW1 5102   6.267   6.678   4.050
 1401SOL    HW2 5103   6.394   6.768   4.101
 1402SOL     OW 5104   5.737   4.346   6.777
 1402SOL    HW1 5105   5.718   4.261   6.729
 1402SOL    HW2 5106   5.831   4.376   6.758
 1403SOL     OW 5107   1.996   2.092   1.610
 1403SOL    HW1 5108   1.953   2.119   1.696
 1403SOL    HW2 5109   1.957   2.005   1.579
 1404SOL     OW 5110   6.687   6.997   0.207
 1404SOL    HW1 5111   6.666   0.075   0.195
 1404SOL    HW2 5112   6.671   6.971   0.302
 1405SOL     OW 5113   2.639   4.278   0.765
 1405SOL    HW1 5114   2.640   4.193   0.818
 1405SOL    HW2 5115   2.587   4.265   0.681
 1406SOL     OW 5116   2.123   5.240   1.320
 1406SOL    HW1 5117   2.060   5.176   1.276
 1406SOL    HW2 5118   2.215   5.227   1.281
 1407SOL     OW 5119   1.566   4.225   3.607
 1407SOL    HW1 5120   1.534   4.279   3.686
 1407SOL    HW2 5121   1.643   4.168   3.635
 1408SOL     OW 5122   5.405   6.724   6.506
 1408SOL    HW1 5123   5.382   6.662   6.431
 1408SOL    HW2 5124   5.470   6.680   6.568
 1409SOL     OW 5125   6.816   0.407   5.202
 1409SOL    HW1 5126   6.834   0.425   5.298
 1409SOL    HW2 5127   6.902   0.391   5.154
 1410SOL     OW 5128   3.000   3.749   0.421
 1410SOL    HW1 5129   2.905   3.782   0.412
 1410SOL    HW2 5130   3.062   3.822   0.391
 1411SOL     OW 5131   3.584   5.737   6.910
 1411SOL    HW1 5132   3.562   5.676   6.834
 1411SOL    HW2 5133   3.656   5.800   6.882
 1412SOL     OW 5134   0.762   3.719   1.440
 1412SOL    HW1 5135   0.859   3.737   1.420
 1412SOL    HW2 5136   0.754   3.675   1.529
 1413SOL     OW 5137   2.020   1.199   4.363
 1413SOL    HW1 5138   1.940   1.168   4.414
 1413SOL    HW2 5139   2.003   1.289   4.324
 1414SOL     OW 5140   2.596   2.157   1.836
 1414SOL    HW1 5141   2.587   2.243   1.887
 1414SOL    HW2 5142   2.692   2.131   1.831
 1415SOL     OW 5143   3.344   1.458   4.527
 1415SOL    HW1 5144   3.266   1.521   4.521
 1415SOL    HW2 5145   3.407   1.476   4.451
 1416SOL     OW 5146   3.622   0.179   4.521
 1416SOL    HW1 5147   3.606   0.168   4.619
 1416SOL    HW2 5148   3.598   0.272   4.493
 1417SOL     OW 5149   2.943   2.934   6.499
 1417SOL    HW1 5150   2.995   2.913   6.416
 1417SOL    HW2 5151   2.848   2.905   6.487
 1418SOL     OW 5152   2.993   3.663   0.707
 1418SOL    HW1 5153   2.984   3.707   0.617
 1418SOL    HW2 5154   3.001   3.733   0.778
 1419SOL     OW 5155   2.643   5.839   3.566
 1419SOL    HW1 5156   2.560   5.889   3.540
 1419SOL    HW2 5157   2.715   5.905   3.588
 1420SOL     OW 5158   3.615   6.025   3.316
 1420SOL    HW1 5159   3.686   5.987   3.258
 1420SOL    HW2 5160   3.556   5.951   3.349
 1421SOL     OW 5161   0.811   4.272   3.795
 1421SOL    HW1 5162   0.839   4.290   3.889
 1421SOL    HW2 5163   0.892   4.257   3.738
 1422SOL     OW 5164   3.453   4.824   6.743
 1422SOL    HW1 5165   3.458   4.762   6.822
 1422SOL    HW2 5166   3.521   4.797   6.676
 1423SOL     OW 5167   3.266   0.963   4.454
 1423SOL    HW1 5168   3.299   1.050   4.492
 1423SOL    HW2 5169   3.327   0.889   4.484
 1424SOL     OW 5170   6.526   3.391   6.587
 1424SOL    HW1 5171   6.438   3.391   6.540
 1424SOL    HW2 5172   6.559   3.486   6.595
 1425SOL     OW 5173   2.298   5.604   5.063
 1425SOL    HW1 5174   2.309   5.519   5.011
 1425SOL    HW2 5175   2.201   5.620   5.081
 1426SOL     OW 5176   2.173   2.175   5.495
 1426SOL    HW1 5177   2.086   2.133   5.523
 1426SOL    HW2 5178   2.169   2.197   5.398
 1427SOL     OW 5179   0.154   6.916   4.202
 1427SOL    HW1 5180   0.169   6.832   4.148
 1427SOL    HW2 5181   0.207   6.990   4.162
 1428SOL     OW 5182   0.098   1.744   1.698
 1428SOL    HW1 5183   0.023   1.807   1.720
 1428SOL    HW2 5184   0.161   1.787   1.634
 1429SOL     OW 5185   6.451   1.615   0.543
 1429SOL    HW1 5186   6.416   1.582   0.455
 1429SOL    HW2 5187   6.382   1.674   0.586
 1430SOL     OW 5188   1.883   4.726   3.844
 1430SOL    HW1 5189   1.925   4.748   3.756
 1430SOL    HW2 5190   1.906   4.797   3.910
 1431SOL     OW 5191   2.701   2.612   5.969
 1431SOL    HW1 5192   2.708   2.663   5.883
 1431SOL    HW2 5193   2.757   2.658   6.039
 1432SOL     OW 5194   2.624   0.758   1.282
 1432SOL    HW1 5195   2.573   0.844   1.276
 1432SOL    HW2 5196   2.717   0.772   1.248
 1433SOL     OW 5197   4.351   0.102   4.602
 1433SOL    HW1 5198   4.418   0.029   4.617
 1433SOL    HW2 5199   4.400   0.188   4.584
 1434SOL     OW 5200   0.028   0.552   6.015
 1434SOL    HW1 5201   0.052   0.524   5.922
 1434SOL    HW2 5202   0.081   0.499   6.081
 1435SOL     OW 5203   6.658   0.123   3.354
 1435SOL    HW1 5204   6.749   0.104   3.315
 1435SOL    HW2 5205   6.599   0.044   3.341
 1436SOL     OW 5206   5.799   3.790   6.782
 1436SOL    HW1 5207   5.870   3.833   6.839
 1436SOL    HW2 5208   5.820   3.693   6.771
 1437SOL     OW 5209   2.994   0.727   5.939
 1437SOL    HW1 5210   2.903   0.770   5.944
 1437SOL    HW2 5211   3.057   0.788   5.892
 1438SOL     OW 5212   2.802   0.129   1.467
 1438SOL    HW1 5213   2.880   0.177   1.507
 1438SOL    HW2 5214   2.754   0.190   1.403
 1439SOL     OW 5215   0.752   5.115   1.135
 1439SOL    HW1 5216   0.698   5.063   1.201
 1439SOL    HW2 5217   0.693   5.148   1.061
 1440SOL     OW 5218   3.174   3.443   5.551
 1440SOL    HW1 5219   3.158   3.540   5.533
 1440SOL    HW2 5220   3.122   3.415   5.632
 1441SOL     OW 5221   6.337   3.699   4.798
 1441SOL    HW1 5222   6.303   3.738   4.713
 1441SOL    HW2 5223   6.286   3.736   4.875
 1442SOL     OW 5224   6.758   4.936   6.851
 1442SOL    HW1 5225   6.800   4.972   6.934
 1442SOL    HW2 5226   6.812   4.963   6.771
 1443SOL     OW 5227   1.019   2.639   5.118
 1443SOL    HW1 5228   1.023   2.673   5.024
 1443SOL    HW2 5229   0.934   2.589   5.132
 1444SOL     OW 5230   4.261   5.647   1.588
 1444SOL    HW1 5231   4.249   5.716   1.517
 1444SOL    HW2 5232   4.172   5.624   1.627
 1445SOL     OW 5233   0.272   2.634   2.457
 1445SOL    HW1 5234   0.306   2.671   2.370
 1445SOL    HW2 5235   0.202   2.566   2.439
 1446SOL     OW 5236   5.295   2.034   6.701
 1446SOL    HW1 5237   5.318   2.105   6.769
 1446SOL    HW2 5238   5.311   1.944   6.741
 1447SOL     OW 5239   6.305   6.913   5.660
 1447SOL    HW1 5240   6.308   6.816   5.681
 1447SOL    HW2 5241   6.245   6.960   5.725
 1448SOL     OW 5242   6.611   2.596   6.950
 1448SOL    HW1 5243   6.667   2.516   6.974
 1448SOL    HW2 5244   6.633   2.625   6.857
 1449SOL     OW 5245   6.198   1.174   0.241
 1449SOL    HW1 5246   6.263   1.204   0.310
 1449SOL    HW2 5247   6.105   1.196   0.271
 1450SOL     OW 5248   0.464   2.244   2.367
 1450SOL    HW1 5249   0.450   2.255   2.466
 1450SOL    HW2 5250   0.436   2.152   2.340
 1451SOL     OW 5251   2.900   0.997   2.445
 1451SOL    HW1 5252   2.959   1.025   2.521
 1451SOL    HW2 5253   2.944   1.019   2.359
 1452SOL     OW 5254   4.171   1.297   4.390
 1452SOL    HW1 5255   4.137   1.228   4.326
 1452SOL    HW2 5256   4.241   1.256   4.448
 1453SOL     OW 5257   0.584   3.684   5.407
 1453SOL    HW1 5258   0.617   3.744   5.334
 1453SOL    HW2 5259   0.513   3.624   5.370
 1454SOL     OW 5260   6.235   2.492   2.926
 1454SOL    HW1 5261   6.317   2.451   2.966
 1454SOL    HW2 5262   6.171   2.419   2.901
 1455SOL     OW 5263   1.727   0.366   1.836
 1455SOL    HW1 5264   1.818   0.407   1.846
 1455SOL    HW2 5265   1.675   0.416   1.767
 1456SOL     OW 5266   6.472   0.277   5.434
 1456SOL    HW1 5267   6.446   0.311   5.344
 1456SOL    HW2 5268   6.483   0.177   5.431
 1457SOL     OW 5269   1.255   6.896   0.881
 1457SOL    HW1 5270   1.224   6.802   0.868
 1457SOL    HW2 5271   1.229   6.952   0.802
 1458SOL     OW 5272   5.809   6.442   3.197
 1458SOL    HW1 5273   5.751   6.371   3.238
 1458SOL    HW2 5274   5.882   6.466   3.261
 1459SOL     OW 5275   2.596   4.997   5.234
 1459SOL    HW1 5276   2.598   4.908   5.188
 1459SOL    HW2 5277   2.662   4.996   5.309
 1460SOL     OW 5278   0.521   5.236   6.028
 1460SOL    HW1 5279   0.504   5.225   5.930
 1460SOL    HW2 5280   0.501   5.330   6.056
 1461SOL     OW 5281   0.812   4.909   3.655
 1461SOL    HW1 5282   0.811   4.959   3.569
 1461SOL    HW2 5283   0.901   4.918   3.699
 1462SOL     OW 5284   0.975   0.830   5.664
 1462SOL    HW1 5285   0.994   0.835   5.762
 1462SOL    HW2 5286   0.909   0.901   5.640
 1463SOL     OW 5287   0.232   5.555   6.529
 1463SOL    HW1 5288   0.236   5.646   6.488
 1463SOL    HW2 5289   0.156   5.504   6.488
 1464SOL     OW 5290   6.450   6.898   0.650
 1464SOL    HW1 5291   6.456   6.800   0.665
 1464SOL    HW2 5292   6.465   6.946   0.736
 1465SOL     OW 5293   1.794   1.742   3.791
 1465SOL    HW1 5294   1.777   1.658   3.740
 1465SOL    HW2 5295   1.713   1.764   3.847
 1466SOL     OW 5296   1.444   1.030   2.607
 1466SOL    HW1 5297   1.410   0.937   2.620
 1466SOL    HW2 5298   1.529   1.042   2.658
 1467SOL     OW 5299   2.119   1.686   2.254
 1467SOL    HW1 5300   2.187   1.689   2.327
 1467SOL    HW2 5301   2.163   1.712   2.167
 1468SOL     OW 5302   5.418   5.043   2.920
 1468SOL    HW1 5303   5.390   5.055   2.824
 1468SOL    HW2 5304   5.447   5.131   2.957
 1469SOL     OW 5305   1.207   1.165   1.997
 1469SOL    HW1 5306   1.128   1.106   1.981
 1469SOL    HW2 5307   1.188   1.225   2.075
 1470SOL     OW 5308   1.908   1.052   2.922
 1470SOL    HW1 5309   1.864   0.965   2.946
 1470SOL    HW2 5310   1.910   1.063   2.823
 1471SOL     OW 5311   0.685   0.723   0.789
 1471SOL    HW1 5312   0.751   0.691   0.720
 1471SOL    HW2 5313   0.646   0.810   0.759
 1472SOL     OW 5314   3.966   5.683   4.978
 1472SOL    HW1 5315   3.919   5.595   4.975
 1472SOL    HW2 5316   3.914   5.746   5.036
 1473SOL     OW 5317   5.747   6.054   3.566
 1473SOL    HW1 5318   5.816   6.023   3.500
 1473SOL    HW2 5319   5.746   6.154   3.569
 1474SOL     OW 5320   6.118   5.888   3.193
 1474SOL    HW1 5321   6.215   5.907   3.176
 1474SOL    HW2 5322   6.074   5.864   3.106
 1475SOL     OW 5323   6.694   0.588   1.448
 1475SOL    HW1 5324   6.672   0.493   1.468
 1475SOL    HW2 5325   6.769   0.592   1.382
 1476SOL     OW 5326   1.885   1.640   1.370
 1476SOL    HW1 5327   1.984   1.650   1.364
 1476SOL    HW2 5328   1.846   1.723   1.412
 1477SOL     OW 5329   2.958   0.500   6.741
 1477SOL    HW1 5330   2.958   0.535   6.835
 1477SOL    HW2 5331   2.890   0.550   6.687
 1478SOL     OW 5332   5.215   4.666   0.141
 1478SOL    HW1 5333   5.286   4.611   0.098
 1478SOL    HW2 5334   5.164   4.610   0.206
 1479SOL     OW 5335   1.713   3.639   0.038
 1479SOL    HW1 5336   1.681   3.726   0.075
 1479SOL    HW2 5337   1.813   3.637   0.039
 1480SOL     OW 5338   2.765   0.361   6.073
 1480SOL    HW1 5339   2.723   0.451   6.088
 1480SOL    HW2 5340   2.702   0.302   6.023
 1481SOL     OW 5341   6.873   1.900   5.053
 1481SOL    HW1 5342   6.940   1.971   5.075
 1481SOL    HW2 5343   6.833   1.864   5.138
 1482SOL     OW 5344   4.792   2.608   0.845
 1482SOL    HW1 5345   4.819   2.522   0.801
 1482SOL    HW2 5346   4.838   2.616   0.933
 1483SOL     OW 5347   6.240   1.939   6.762
 1483SOL    HW1 5348   6.333   1.903   6.756
 1483SOL    HW2 5349   6.193   1.926   6.674
 1484SOL     OW 5350   5.870   4.902   4.045
 1484SOL    HW1 5351   5.906   4.836   3.979
 1484SOL    HW2 5352   5.780   4.933   4.015
 1485SOL     OW 5353   4.120   2.264   2.801
 1485SOL    HW1 5354   4.210   2.307   2.803
 1485SOL    HW2 5355   4.130   2.165   2.810
 1486SOL     OW 5356   5.288   2.264   2.807
 1486SOL    HW1 5357   5.323   2.357   2.790
 1486SOL    HW2 5358   5.212   2.245   2.745
 1487SOL     OW 5359   6.858   2.533   6.735
 1487SOL    HW1 5360   6.777   2.591   6.732
 1487SOL    HW2 5361   6.844   2.459   6.800
 1488SOL     OW 5362   5.478   1.916   3.207
 1488SOL    HW1 5363   5.439   1.918   3.299
 1488SOL    HW2 5364   5.410   1.881   3.142
 1489SOL     OW 5365   4.246   5.085   3.659
 1489SOL    HW1 5366   4.329   5.035   3.686
 1489SOL    HW2 5367   4.166   5.028   3.674
 1490SOL     OW 5368   1.352   3.129   1.366
 1490SOL    HW1 5369   1.392   3.211   1.408
 1490SOL    HW2 5370   1.267   3.154   1.320
 1491SOL     OW 5371   6.080   3.832   4.146
 1491SOL    HW1 5372   6.055   3.771   4.071
 1491SOL    HW2 5373   6.168   3.875   4.125
 1492SOL     OW 5374   5.652   1.648   2.663
 1492SOL    HW1 5375   5.664   1.661   2.762
 1492SOL    HW2 5376   5.580   1.708   2.630
 1493SOL     OW 5377   5.056   6.800   3.782
 1493SOL    HW1 5378   5.004   6.730   3.733
 1493SOL    HW2 5379   5.148   6.765   3.802
 1494SOL     OW 5380   5.356   2.057   5.851
 1494SOL    HW1 5381   5.268   2.090   5.817
 1494SOL    HW2 5382   5.342   2.002   5.932
 1495SOL     OW 5383   6.532   2.961   4.547
 1495SOL    HW1 5384   6.597   3.028   4.512
 1495SOL    HW2 5385   6.554   2.937   4.641
 1496SOL     OW 5386   0.825   1.727   2.507
 1496SOL    HW1 5387   0.847   1.671   2.428
 1496SOL    HW2 5388   0.772   1.673   2.572
 1497SOL     OW 5389   0.046   2.983   3.781
 1497SOL    HW1 5390   0.029   2.889   3.752
 1497SOL    HW2 5391   0.071   3.039   3.703
 1498SOL     OW 5392   2.177   4.505   6.388
 1498SOL    HW1 5393   2.174   4.462   6.298
 1498SOL    HW2 5394   2.084   4.519   6.422
 1499SOL     OW 5395   1.345   3.982   5.847
 1499SOL    HW1 5396   1.246   3.973   5.840
 1499SOL    HW2 5397   1.370   4.009   5.940
 1500SOL     OW 5398   6.484   6.484   6.857
 1500SOL    HW1 5399   6.560   6.542   6.886
 1500SOL    HW2 5400   6.400   6.515   6.902
 1501SOL     OW 5401   4.832   1.548   6.564
 1501SOL    HW1 5402   4.887   1.538   6.647
 1501SOL    HW2 5403   4.761   1.617   6.579
 1502SOL     OW 5404   6.351   6.706   1.641
 1502SOL    HW1 5405   6.420   6.668   1.579
 1502SOL    HW2 5406   6.264   6.659   1.627
 1503SOL     OW 5407   2.504   1.475   2.368
 1503SOL    HW1 5408   2.435   1.431   2.310
 1503SOL    HW2 5409   2.569   1.407   2.400
 1504SOL     OW 5410   0.548   0.962   4.617
 1504SOL    HW1 5411   0.523   0.871   4.585
 1504SOL    HW2 5412   0.645   0.979   4.597
 1505SOL     OW 5413   6.317   0.262   5.991
 1505SOL    HW1 5414   6.352   0.335   5.933
 1505SOL    HW2 5415   6.364   0.264   6.080
 1506SOL     OW 5416   1.807   5.203   1.527
 1506SOL    HW1 5417   1.771   5.173   1.438
 1506SOL    HW2 5418   1.866   5.132   1.565
 1507SOL     OW 5419   0.668   2.442   5.503
 1507SOL    HW1 5420   0.696   2.347   5.494
 1507SOL    HW2 5421   0.687   2.491   5.417
 1508SOL     OW 5422   0.035   0.524   1.863
 1508SOL    HW1 5423   6.965   0.506   1.822
 1508SOL    HW2 5424   0.095   0.565   1.795
 1509SOL     OW 5425   4.807   2.421   6.090
 1509SOL    HW1 5426   4.781   2.488   6.021
 1509SOL    HW2 5427   4.771   2.449   6.179
 1510SOL     OW 5428   5.941   2.697   4.687
 1510SOL    HW1 5429   5.980   2.608   4.712
 1510SOL    HW2 5430   5.842   2.695   4.700
 1511SOL     OW 5431   3.020   2.446   1.383
 1511SOL    HW1 5432   3.101   2.451   1.441
 1511SOL    HW2 5433   3.022   2.521   1.316
 1512SOL     OW 5434   0.323   6.121   1.905
 1512SOL    HW1 5435   0.232   6.130   1.863
 1512SOL    HW2 5436   0.348   6.024   1.909
 1513SOL     OW 5437   3.643   0.467   4.098
 1513SOL    HW1 5438   3.543   0.465   4.105
 1513SOL    HW2 5439   3.683   0.474   4.189
 1514SOL     OW 5440   4.870   2.371   5.534
 1514SOL    HW1 5441   4.825   2.428   5.603
 1514SOL    HW2 5442   4.924   2.300   5.579
 1515SOL     OW 5443   6.539   3.214   5.283
 1515SOL    HW1 5444   6.603   3.267   5.339
 1515SOL    HW2 5445   6.510   3.268   5.205
 1516SOL     OW 5446   0.527   0.341   0.950
 1516SOL    HW1 5447   0.442   0.369   0.906
 1516SOL    HW2 5448   0.595   0.319   0.879
 1517SOL     OW 5449   3.848   5.642   3.237
 1517SOL    HW1 5450   3.938   5.685   3.227
 1517SOL    HW2 5451   3.780   5.710   3.262
 1518SOL     OW 5452   0.714   2.800   0.503
 1518SOL    HW1 5453   0.703   2.895   0.533
 1518SOL    HW2 5454   0.757   2.798   0.413
 1519SOL     OW 5455   6.318   5.067   1.871
 1519SOL    HW1 5456   6.387   4.995   1.882
 1519SOL    HW2 5457   6.338   5.142   1.933
 1520SOL     OW 5458   0.630   3.729   2.369
 1520SOL    HW1 5459   0.567   3.723   2.292
 1520SOL    HW2 5460   0.596   3.795   2.435
 1521SOL     OW 5461   2.858   4.171   0.159
 1521SOL    HW1 5462   2.861   4.170   0.059
 1521SOL    HW2 5463   2.944   4.136   0.196
 1522SOL     OW 5464   6.389   0.329   5.170
 1522SOL    HW1 5465   6.446   0.387   5.112
 1522SOL    HW2 5466   6.362   0.247   5.119
 1523SOL     OW 5467   5.053   3.829   0.199
 1523SOL    HW1 5468   5.122   3.766   0.164
 1523SOL    HW2 5469   4.964   3.784   0.198
 1524SOL     OW 5470   1.345   2.292   2.061
 1524SOL    HW1 5471   1.364   2.310   2.157
 1524SOL    HW2 5472   1.275   2.221   2.053
 1525SOL     OW 5473   6.649   2.267   0.215
 1525SOL    HW1 5474   6.560   2.293   0.252
 1525SOL    HW2 5475   6.675   2.177   0.250
 1526SOL     OW 5476   1.373   0.500   6.366
 1526SOL    HW1 5477   1.336   0.591   6.387
 1526SOL    HW2 5478   1.304   0.447   6.316
 1527SOL     OW 5479   3.469   1.238   5.909
 1527SOL    HW1 5480   3.423   1.290   5.837
 1527SOL    HW2 5481   3.547   1.290   5.944
 1528SOL     OW 5482   5.092   5.835   1.951
 1528SOL    HW1 5483   5.006   5.880   1.928
 1528SOL    HW2 5484   5.073   5.754   2.007
 1529SOL     OW 5485   3.716   6.762   0.114
 1529SOL    HW1 5486   3.790   6.791   0.054
 1529SOL    HW2 5487   3.632   6.809   0.088
 1530SOL     OW 5488   3.675   1.000   2.587
 1530SOL    HW1 5489   3.643   1.088   2.622
 1530SOL    HW2 5490   3.599   0.954   2.541
 1531SOL     OW 5491   5.659   0.773   4.656
 1531SOL    HW1 5492   5.635   0.677   4.672
 1531SOL    HW2 5493   5.617   0.804   4.571
 1532SOL     OW 5494   2.793   3.462   6.011
 1532SOL    HW1 5495   2.833   3.370   6.014
 1532SOL    HW2 5496   2.694   3.455   6.002
 1533SOL     OW 5497   0.570   2.840   0.201
 1533SOL    HW1 5498   0.662   2.821   0.235
 1533SOL    HW2 5499   0.503   2.801   0.264
 1534SOL     OW 5500   1.290   4.915   6.602
 1534SOL    HW1 5501   1.372   4.945   6.552
 1534SOL    HW2 5502   1.244   4.843   6.549
 1535SOL     OW 5503   5.119   6.094   4.094
 1535SOL    HW1 5504   5.191   6.163   4.086
 1535SOL    HW2 5505   5.123   6.051   4.184
 1536SOL     OW 5506   4.193   4.285   5.293
 1536SOL    HW1 5507   4.112   4.342   5.312
 1536SOL    HW2 5508   4.248   4.328   5.222
 1537SOL     OW 5509   3.642   6.280   2.936
 1537SOL    HW1 5510   3.595   6.192   2.941
 1537SOL    HW2 5511   3.735   6.271   2.969
 1538SOL     OW 5512   3.492   5.776   6.102
 1538SOL    HW1 5513   3.415   5.713   6.094
 1538SOL    HW2 5514   3.540   5.782   6.015
 1539SOL     OW 5515   4.569   4.059   1.646
 1539SOL    HW1 5516   4.556   4.121   1.568
 1539SOL    HW2 5517   4.568   4.112   1.731
 1540SOL     OW 5518   1.037   0.139   5.391
 1540SOL    HW1 5519   0.978   0.154   5.311
 1540SOL    HW2 5520   1.035   0.043   5.416
 1541SOL     OW 5521   3.488   2.830   2.063
 1541SOL    HW1 5522   3.579   2.870   2.076
 1541SOL    HW2 5523   3.421   2.884   2.113
 1542SOL     OW 5524   6.465   6.011   1.630
 1542SOL    HW1 5525   6.421   6.099   1.647
 1542SOL    HW2 5526   6.543   6.024   1.569
 1543SOL     OW 5527   3.004   3.931   4.040
 1543SOL    HW1 5528   3.000   3.840   3.999
 1543SOL    HW2 5529   2.964   3.929   4.131
 1544SOL     OW 5530   3.220   3.787   1.812
 1544SOL    HW1 5531   3.271   3.719   1.865
 1544SOL    HW2 5532   3.178   3.852   1.875
 1545SOL     OW 5533   5.265   0.870   4.843
 1545SOL    HW1 5534   5.219   0.952   4.810
 1545SOL    HW2 5535   5.355   0.894   4.879
 1546SOL     OW 5536   5.332   0.020   6.237
 1546SOL    HW1 5537   5.427   7.018   6.259
 1546SOL    HW2 5538   5.329   0.083   6.160
 1547SOL     OW 5539   1.955   4.120   2.851
 1547SOL    HW1 5540   2.052   4.144   2.847
 1547SOL    HW2 5541   1.911   4.172   2.924
 1548SOL     OW 5542   4.697   3.711   5.803
 1548SOL    HW1 5543   4.684   3.809   5.791
 1548SOL    HW2 5544   4.690   3.665   5.715
 1549SOL     OW 5545   4.953   1.556   2.234
 1549SOL    HW1 5546   4.887   1.484   2.210
 1549SOL    HW2 5547   4.904   1.643   2.246
 1550SOL     OW 5548   3.349   5.525   6.114
 1550SOL    HW1 5549   3.360   5.426   6.107
 1550SOL    HW2 5550   3.252   5.547   6.122
 1551SOL     OW 5551   2.493   3.765   0.470
 1551SOL    HW1 5552   2.488   3.677   0.517
 1551SOL    HW2 5553   2.445   3.759   0.382
 1552SOL     OW 5554   0.086   0.564   1.086
 1552SOL    HW1 5555   0.118   0.552   1.180
 1552SOL    HW2 5556   0.156   0.613   1.033
 1553SOL     OW 5557   6.314   0.815   5.615
 1553SOL    HW1 5558   6.282   0.818   5.710
 1553SOL    HW2 5559   6.277   0.892   5.565
 1554SOL     OW 5560   3.818   2.182   3.317
 1554SOL    HW1 5561   3.867   2.102   3.350
 1554SOL    HW2 5562   3.727   2.185   3.359
 1555SOL     OW 5563   4.944   1.981   5.926
 1555SOL    HW1 5564   5.001   1.956   6.004
 1555SOL    HW2 5565   4.857   2.017   5.959
 1556SOL     OW 5566   4.079   1.281   0.242
 1556SOL    HW1 5567   4.147   1.261   0.312
 1556SOL    HW2 5568   4.023   1.200   0.226
 1557SOL     OW 5569   1.929   1.825   6.536
 1557SOL    HW1 5570   1.905   1.753   6.601
 1557SOL    HW2 5571   1.923   1.790   6.443
 1558SOL     OW 5572   5.459   1.189   4.370
 1558SOL    HW1 5573   5.546   1.208   4.416
 1558SOL    HW2 5574   5.441   1.257   4.300
 1559SOL     OW 5575   0.404   2.698   0.371
 1559SOL    HW1 5576   0.401   2.657   0.463
 1559SOL    HW2 5577   0.350   2.642   0.308
 1560SOL     OW 5578   3.086   1.309   6.551
 1560SOL    HW1 5579   3.065   1.218   6.514
 1560SOL    HW2 5580   3.139   1.361   6.484
 1561SOL     OW 5581   6.033   6.658   2.951
 1561SOL    HW1 5582   6.024   6.601   2.869
 1561SOL    HW2 5583   5.971   6.736   2.944
 1562SOL     OW 5584   3.916   6.645   0.938
 1562SOL    HW1 5585   3.855   6.575   0.975
 1562SOL    HW2 5586   3.864   6.728   0.918
 1563SOL     OW 5587   2.441   1.824   6.170
 1563SOL    HW1 5588   2.468   1.848   6.077
 1563SOL    HW2 5589   2.357   1.873   6.195
 1564SOL     OW 5590   1.750   2.486   2.307
 1564SOL    HW1 5591   1.711   2.519   2.393
 1564SOL    HW2 5592   1.715   2.541   2.231
 1565SOL     OW 5593   4.046   5.674   4.231
 1565SOL    HW1 5594   3.948   5.673   4.212
 1565SOL    HW2 5595   4.093   5.722   4.157
 1566SOL     OW 5596   6.063   5.142   4.662
 1566SOL    HW1 5597   6.124   5.083   4.715
 1566SOL    HW2 5598   6.055   5.231   4.708
 1567SOL     OW 5599   6.532   5.805   0.137
 1567SOL    HW1 5600   6.625   5.823   0.107
 1567SOL    HW2 5601   6.469   5.815   0.060
 1568SOL     OW 5602   2.083   6.573   1.737
 1568SOL    HW1 5603   2.005   6.611   1.687
 1568SOL    HW2 5604   2.054   6.492   1.788
 1569SOL     OW 5605   3.484   6.730   3.726
 1569SOL    HW1 5606   3.576   6.701   3.698
 1569SOL    HW2 5607   3.419   6.706   3.654
 1570SOL     OW 5608   2.615   6.624   0.501
 1570SOL    HW1 5609   2.560   6.583   0.428
 1570SOL    HW2 5610   2.657   6.709   0.468
 1571SOL     OW 5611   6.372   2.012   3.293
 1571SOL    HW1 5612   6.361   2.050   3.385
 1571SOL    HW2 5613   6.286   2.020   3.243
 1572SOL     OW 5614   2.194   6.070   0.858
 1572SOL    HW1 5615   2.176   6.168   0.870
 1572SOL    HW2 5616   2.275   6.045   0.911
 1573SOL     OW 5617   6.616   3.843   1.433
 1573SOL    HW1 5618   6.705   3.797   1.430
 1573SOL    HW2 5619   6.546   3.785   1.392
 1574SOL     OW 5620   6.101   2.268   4.147
 1574SOL    HW1 5621   6.173   2.313   4.094
 1574SOL    HW2 5622   6.142   2.220   4.225
 1575SOL     OW 5623   2.433   1.636   1.339
 1575SOL    HW1 5624   2.460   1.719   1.387
 1575SOL    HW2 5625   2.494   1.561   1.365
 1576SOL     OW 5626   1.270   0.154   3.166
 1576SOL    HW1 5627   1.201   0.221   3.194
 1576SOL    HW2 5628   1.320   0.188   3.087
 1577SOL     OW 5629   2.554   0.784   5.557
 1577SOL    HW1 5630   2.571   0.727   5.476
 1577SOL    HW2 5631   2.464   0.763   5.594
 1578SOL     OW 5632   4.884   1.675   5.554
 1578SOL    HW1 5633   4.804   1.619   5.574
 1578SOL    HW2 5634   4.926   1.644   5.468
 1579SOL     OW 5635   6.802   1.842   1.998
 1579SOL    HW1 5636   6.900   1.824   2.008
 1579SOL    HW2 5637   6.751   1.758   2.019
 1580SOL     OW 5638   3.559   4.192   3.923
 1580SOL    HW1 5639   3.542   4.184   3.825
 1580SOL    HW2 5640   3.517   4.114   3.970
 1581SOL     OW 5641   6.256   4.981   5.448
 1581SOL    HW1 5642   6.201   5.058   5.416
 1581SOL    HW2 5643   6.290   5.000   5.540
 1582SOL     OW 5644   1.903   6.615   4.776
 1582SOL    HW1 5645   1.934   6.542   4.716
 1582SOL    HW2 5646   1.924   6.592   4.871
 1583SOL     OW 5647   0.806   6.153   3.242
 1583SOL    HW1 5648   0.865   6.213   3.188
 1583SOL    HW2 5649   0.750   6.098   3.180
 1584SOL     OW 5650   0.624   5.777   5.438
 1584SOL    HW1 5651   0.581   5.854   5.391
 1584SOL    HW2 5652   0.719   5.799   5.460
 1585SOL     OW 5653   4.512   2.159   3.411
 1585SOL    HW1 5654   4.565   2.100   3.471
 1585SOL    HW2 5655   4.422   2.176   3.451
 1586SOL     OW 5656   3.282   5.226   2.328
 1586SOL    HW1 5657   3.335   5.240   2.245
 1586SOL    HW2 5658   3.281   5.129   2.351
 1587SOL     OW 5659   2.363   5.561   5.383
 1587SOL    HW1 5660   2.393   5.641   5.331
 1587SOL    HW2 5661   2.429   5.543   5.456
 1588SOL     OW 5662   4.640   1.235   2.310
 1588SOL    HW1 5663   4.644   1.251   2.409
 1588SOL    HW2 5664   4.565   1.289   2.271
 1589SOL     OW 5665   6.790   3.251   2.107
 1589SOL    HW1 5666   6.693   3.231   2.121
 1589SOL    HW2 5667   6.832   3.273   2.196
 1590SOL     OW 5668   4.525   0.306   4.364
 1590SOL    HW1 5669   4.497   0.384   4.307
 1590SOL    HW2 5670   4.582   0.244   4.310
 1591SOL     OW 5671   6.922   5.596   1.610
 1591SOL    HW1 5672   7.013   5.554   1.606
 1591SOL    HW2 5673   6.852   5.525   1.616
 1592SOL     OW 5674   2.718   3.981   6.320
 1592SOL    HW1 5675   2.772   4.034   6.384
 1592SOL    HW2 5676   2.670   4.042   6.257
 1593SOL     OW 5677   1.233   0.007   5.239
 1593SOL    HW1 5678   1.195   0.022   5.148
 1593SOL    HW2 5679   1.170   0.043   5.308
 1594SOL     OW 5680   1.074   6.407   1.930
 1594SOL    HW1 5681   1.008   6.465   1.978
 1594SOL    HW2 5682   1.026   6.331   1.886
 1595SOL     OW 5683   1.098   5.286   0.741
 1595SOL    HW1 5684   1.004   5.317   0.752
 1595SOL    HW2 5685   1.154   5.325   0.814
 1596SOL     OW 5686   0.383   3.426   3.952
 1596SOL    HW1 5687   0.423   3.364   4.020
 1596SOL    HW2 5688   0.290   3.451   3.981
 1597SOL     OW 5689   1.489   6.070   0.811
 1597SOL    HW1 5690   1.476   6.169   0.818
 1597SOL    HW2 5691   1.459   6.027   0.896
 1598SOL     OW 5692   6.691   4.533   5.772
 1598SOL    HW1 5693   6.688   4.624   5.814
 1598SOL    HW2 5694   6.784   4.515   5.741
 1599SOL     OW 5695   4.960   5.464   4.592
 1599SOL    HW1 5696   4.884   5.529   4.594
 1599SOL    HW2 5697   4.943   5.396   4.521
 1600SOL     OW 5698   3.612   1.283   3.751
 1600SOL    HW1 5699   3.548   1.240   3.814
 1600SOL    HW2 5700   3.661   1.357   3.798
 1601SOL     OW 5701   6.856   6.154   3.957
 1601SOL    HW1 5702   6.902   6.142   4.045
 1601SOL    HW2 5703   6.882   6.079   3.896
 1602SOL     OW 5704   4.208   5.020   4.214
 1602SOL    HW1 5705   4.147   5.096   4.238
 1602SOL    HW2 5706   4.293   5.056   4.177
 1603SOL     OW 5707   1.645   6.370   3.131
 1603SOL    HW1 5708   1.595   6.440   3.080
 1603SOL    HW2 5709   1.633   6.385   3.229
 1604SOL     OW 5710   5.368   4.472   1.512
 1604SOL    HW1 5711   5.432   4.418   1.567
 1604SOL    HW2 5712   5.297   4.509   1.571
 1605SOL     OW 5713   6.754   5.601   1.933
 1605SOL    HW1 5714   6.656   5.607   1.915
 1605SOL    HW2 5715   6.802   5.575   1.849
 1606SOL     OW 5716   4.038   6.232   6.056
 1606SOL    HW1 5717   4.138   6.227   6.066
 1606SOL    HW2 5718   4.011   6.327   6.038
 1607SOL     OW 5719   3.989   0.455   1.042
 1607SOL    HW1 5720   3.976   0.531   1.106
 1607SOL    HW2 5721   3.965   0.369   1.088
 1608SOL     OW 5722   0.658   1.284   3.708
 1608SOL    HW1 5723   0.678   1.203   3.652
 1608SOL    HW2 5724   0.611   1.256   3.792
 1609SOL     OW 5725   4.288   0.005   0.394
 1609SOL    HW1 5726   4.324   6.932   0.404
 1609SOL    HW2 5727   4.258   0.020   0.300
 1610SOL     OW 5728   6.132   4.982   0.217
 1610SOL    HW1 5729   6.203   4.929   0.171
 1610SOL    HW2 5730   6.044   4.935   0.207
 1611SOL     OW 5731   2.713   3.906   0.663
 1611SOL    HW1 5732   2.771   3.825   0.666
 1611SOL    HW2 5733   2.729   3.955   0.577
 1612SOL     OW 5734   2.732   0.301   0.371
 1612SOL    HW1 5735   2.701   0.390   0.337
 1612SOL    HW2 5736   2.806   0.267   0.313
 1613SOL     OW 5737   1.582   5.815   2.093
 1613SOL    HW1 5738   1.604   5.792   1.999
 1613SOL    HW2 5739   1.666   5.815   2.148
 1614SOL     OW 5740   5.265   2.455   5.876
 1614SOL    HW1 5741   5.264   2.358   5.851
 1614SOL    HW2 5742   5.220   2.508   5.805
 1615SOL     OW 5743   6.179   5.616   0.864
 1615SOL    HW1 5744   6.216   5.541   0.809
 1615SOL    HW2 5745   6.198   5.703   0.817
 1616SOL     OW 5746   3.675   0.910   5.072
 1616SOL    HW1 5747   3.625   0.980   5.020
 1616SOL    HW2 5748   3.642   0.909   5.166
 1617SOL     OW 5749   5.429   6.612   2.882
 1617SOL    HW1 5750   5.459   6.669   2.806
 1617SOL    HW2 5751   5.479   6.525   2.881
 1618SOL     OW 5752   1.832   6.164   2.721
 1618SOL    HW1 5753   1.802   6.077   2.759
 1618SOL    HW2 5754   1.909   6.199   2.774
 1619SOL     OW 5755   0.326   4.345   1.344
 1619SOL    HW1 5756   0.398   4.287   1.382
 1619SOL    HW2 5757   0.316   4.326   1.246
 1620SOL     OW 5758   2.800   4.374   1.555
 1620SOL    HW1 5759   2.702   4.361   1.539
 1620SOL    HW2 5760   2.814   4.409   1.648
 1621SOL     OW 5761   6.769   1.106   0.455
 1621SOL    HW1 5762   6.771   1.206   0.465
 1621SOL    HW2 5763   6.690   1.070   0.505
 1622SOL     OW 5764   0.559   3.270   5.521
 1622SOL    HW1 5765   0.526   3.260   5.615
 1622SOL    HW2 5766   0.481   3.288   5.461
 1623SOL     OW 5767   1.469   3.037   5.023
 1623SOL    HW1 5768   1.437   3.125   5.059
 1623SOL    HW2 5769   1.435   3.025   4.930
 1624SOL     OW 5770   3.780   1.387   4.799
 1624SOL    HW1 5771   3.745   1.467   4.847
 1624SOL    HW2 5772   3.874   1.404   4.769
 1625SOL     OW 5773   1.372   4.207   0.283
 1625SOL    HW1 5774   1.422   4.186   0.367
 1625SOL    HW2 5775   1.436   4.216   0.207
 1626SOL     OW 5776   3.613   1.354   0.598
 1626SOL    HW1 5777   3.529   1.402   0.622
 1626SOL    HW2 5778   3.620   1.345   0.499
 1627SOL     OW 5779   6.247   3.168   3.638
 1627SOL    HW1 5780   6.232   3.266   3.650
 1627SOL    HW2 5781   6.335   3.153   3.593
 1628SOL     OW 5782   4.417   4.948   0.560
 1628SOL    HW1 5783   4.445   5.035   0.601
 1628SOL    HW2 5784   4.394   4.883   0.632
 1629SOL     OW 5785   2.647   1.370   3.954
 1629SOL    HW1 5786   2.659   1.443   4.021
 1629SOL    HW2 5787   2.718   1.377   3.883
 1630SOL     OW 5788   1.012   5.075   6.127
 1630SOL    HW1 5789   1.030   5.115   6.217
 1630SOL    HW2 5790   1.061   4.988   6.118
 1631SOL     OW 5791   1.254   2.717   0.811
 1631SOL    HW1 5792   1.275   2.651   0.883
 1631SOL    HW2 5793   1.339   2.754   0.774
 1632SOL     OW 5794   5.759   2.844   1.743
 1632SOL    HW1 5795   5.719   2.923   1.791
 1632SOL    HW2 5796   5.685   2.788   1.705
 1633SOL     OW 5797   4.848   3.898   4.348
 1633SOL    HW1 5798   4.833   3.800   4.362
 1633SOL    HW2 5799   4.860   3.942   4.437
 1634SOL     OW 5800   4.650   5.847   4.502
 1634SOL    HW1 5801   4.614   5.940   4.500
 1634SOL    HW2 5802   4.633   5.803   4.415
 1635SOL     OW 5803   0.430   5.121   6.816
 1635SOL    HW1 5804   0.483   5.196   6.776
 1635SOL    HW2 5805   0.345   5.109   6.764
 1636SOL     OW 5806   3.241   4.136   1.027
 1636SOL    HW1 5807   3.315   4.123   0.960
 1636SOL    HW2 5808   3.189   4.217   1.002
 1637SOL     OW 5809   6.809   0.755   2.901
 1637SOL    HW1 5810   6.803   0.843   2.853
 1637SOL    HW2 5811   6.900   0.746   2.942
 1638SOL     OW 5812   0.004   4.195   3.567
 1638SOL    HW1 5813   0.055   4.228   3.488
 1638SOL    HW2 5814   6.954   4.262   3.593
 1639SOL     OW 5815   5.606   6.006   1.571
 1639SOL    HW1 5816   5.698   6.024   1.536
 1639SOL    HW2 5817   5.601   5.912   1.605
 1640SOL     OW 5818   6.096   0.475   6.851
 1640SOL    HW1 5819   6.106   0.417   6.932
 1640SOL    HW2 5820   6.033   0.550   6.871
 1641SOL     OW 5821   4.569   2.231   2.369
 1641SOL    HW1 5822   4.496   2.297   2.350
 1641SOL    HW2 5823   4.573   2.215   2.468
 1642SOL     OW 5824   0.187   3.430   0.104
 1642SOL    HW1 5825   0.217   3.344   0.146
 1642SOL    HW2 5826   0.224   3.436   0.011
 1643SOL     OW 5827   2.284   5.183   4.305
 1643SOL    HW1 5828   2.346   5.120   4.351
 1643SOL    HW2 5829   2.295   5.175   4.206
 1644SOL     OW 5830   5.995   3.923   6.577
 1644SOL    HW1 5831   5.976   3.875   6.492
 1644SOL    HW2 5832   5.935   4.003   6.584
 1645SOL     OW 5833   3.214   5.405   6.413
 1645SOL    HW1 5834   3.260   5.384   6.499
 1645SOL    HW2 5835   3.179   5.321   6.372
 1646SOL     OW 5836   2.586   0.055   0.650
 1646SOL    HW1 5837   2.553   0.051   0.555
 1646SOL    HW2 5838   2.539   7.005   0.704
 1647SOL     OW 5839   5.895   3.464   4.615
 1647SOL    HW1 5840   5.897   3.368   4.640
 1647SOL    HW2 5841   5.988   3.495   4.592
 1648SOL     OW 5842   5.195   5.545   0.569
 1648SOL    HW1 5843   5.236   5.485   0.638
 1648SOL    HW2 5844   5.096   5.541   0.576
 1649SOL     OW 5845   3.894   1.546   3.782
 1649SOL    HW1 5846   3.929   1.454   3.763
 1649SOL    HW2 5847   3.970   1.609   3.795
 1650SOL     OW 5848   1.017   5.752   4.756
 1650SOL    HW1 5849   1.088   5.698   4.710
 1650SOL    HW2 5850   1.058   5.809   4.827
 1651SOL     OW 5851   6.795   2.065   1.573
 1651SOL    HW1 5852   6.830   2.005   1.645
 1651SOL    HW2 5853   6.761   2.009   1.497
 1652SOL     OW 5854   1.065   3.275   2.701
 1652SOL    HW1 5855   1.032   3.317   2.617
 1652SOL    HW2 5856   1.164   3.261   2.695
 1653SOL     OW 5857   1.164   6.974   6.780
 1653SOL    HW1 5858   1.216   6.996   6.862
 1653SOL    HW2 5859   1.201   6.891   6.737
 1654SOL     OW 5860   0.280   3.865   1.593
 1654SOL    HW1 5861   0.257   3.892   1.500
 1654SOL    HW2 5862   0.246   3.772   1.610
 1655SOL     OW 5863   0.138   1.951   4.748
 1655SOL    HW1 5864   0.058   1.904   4.711
 1655SOL    HW2 5865   0.160   2.030   4.690
 1656SOL     OW 5866   2.408   4.421   2.686
 1656SOL    HW1 5867   2.474   4.433   2.612
 1656SOL    HW2 5868   2.450   4.447   2.773
 1657SOL     OW 5869   6.492   1.099   4.660
 1657SOL    HW1 5870   6.535   1.185   4.687
 1657SOL    HW2 5871   6.408   1.119   4.609
 1658SOL     OW 5872   6.620   0.332   1.487
 1658SOL    HW1 5873   6.567   0.322   1.571
 1658SOL    HW2 5874   6.581   0.273   1.416
 1659SOL     OW 5875   3.637   6.956   6.864
 1659SOL    HW1 5876   3.599   0.002   6.798
 1659SOL    HW2 5877   3.670   6.875   6.814
 1660SOL     OW 5878   1.934   5.876   2.551
 1660SOL    HW1 5879   2.023   5.853   2.511
 1660SOL    HW2 5880   1.947   5.912   2.643
 1661SOL     OW 5881   2.446   6.656   1.055
 1661SOL    HW1 5882   2.440   6.689   0.961
 1661SOL    HW2 5883   2.541   6.664   1.087
 1662SOL     OW 5884   0.741   1.090   4.146
 1662SOL    HW1 5885   0.730   1.009   4.203
 1662SOL    HW2 5886   0.705   1.170   4.194
 1663SOL     OW 5887   4.178   6.095   3.131
 1663SOL    HW1 5888   4.187   6.178   3.187
 1663SOL    HW2 5889   4.130   6.025   3.184
 1664SOL     OW 5890   2.015   6.446   5.119
 1664SOL    HW1 5891   2.068   6.461   5.202
 1664SOL    HW2 5892   1.936   6.387   5.140
 1665SOL     OW 5893   6.654   2.595   2.471
 1665SOL    HW1 5894   6.585   2.614   2.402
 1665SOL    HW2 5895   6.615   2.538   2.543
 1666SOL     OW 5896   5.039   1.533   6.347
 1666SOL    HW1 5897   5.116   1.570   6.400
 1666SOL    HW2 5898   4.964   1.512   6.410
 1667SOL     OW 5899   0.520   6.889   1.108
 1667SOL    HW1 5900   0.587   6.883   1.034
 1667SOL    HW2 5901   0.550   6.831   1.184
 1668SOL     OW 5902   4.832   6.366   3.554
 1668SOL    HW1 5903   4.782   6.358   3.468
 1668SOL    HW2 5904   4.925   6.331   3.542
 1669SOL     OW 5905   6.258   4.882   6.619
 1669SOL    HW1 5906   6.229   4.871   6.714
 1669SOL    HW2 5907   6.178   4.871   6.559
 1670SOL     OW 5908   0.346   3.990   5.591
 1670SOL    HW1 5909   0.442   4.016   5.581
 1670SOL    HW2 5910   0.341   3.892   5.610
 1671SOL     OW 5911   5.326   1.819   3.021
 1671SOL    HW1 5912   5.281   1.749   3.076
 1671SOL    HW2 5913   5.311   1.799   2.924
 1672SOL     OW 5914   1.445   2.717   1.140
 1672SOL    HW1 5915   1.465   2.815   1.144
 1672SOL    HW2 5916   1.352   2.701   1.174
 1673SOL     OW 5917   0.067   1.368   4.990
 1673SOL    HW1 5918   0.072   1.338   4.894
 1673SOL    HW2 5919   0.105   1.460   4.998
 1674SOL     OW 5920   1.059   3.160   2.409
 1674SOL    HW1 5921   1.077   3.062   2.405
 1674SOL    HW2 5922   1.146   3.209   2.423
 1675SOL     OW 5923   5.290   6.801   0.400
 1675SOL    HW1 5924   5.308   6.711   0.440
 1675SOL    HW2 5925   5.211   6.842   0.446
 1676SOL     OW 5926   2.289   2.581   1.242
 1676SOL    HW1 5927   2.381   2.594   1.277
 1676SOL    HW2 5928   2.222   2.598   1.314
 1677SOL     OW 5929   3.186   2.959   4.049
 1677SOL    HW1 5930   3.216   2.973   3.955
 1677SOL    HW2 5931   3.247   2.895   4.095
 1678SOL     OW 5932   6.236   4.305   3.713
 1678SOL    HW1 5933   6.184   4.226   3.679
 1678SOL    HW2 5934   6.202   4.387   3.667
 1679SOL     OW 5935   2.521   2.616   4.428
 1679SOL    HW1 5936   2.547   2.520   4.414
 1679SOL    HW2 5937   2.501   2.657   4.340
 1680SOL     OW 5938   0.487   2.858   5.355
 1680SOL    HW1 5939   0.574   2.890   5.317
 1680SOL    HW2 5940   0.411   2.894   5.300
 1681SOL     OW 5941   0.075   5.175   6.992
 1681SOL    HW1 5942   0.064   5.267   0.010
 1681SOL    HW2 5943   0.099   5.182   6.895
 1682SOL     OW 5944   1.853   0.725   5.284
 1682SOL    HW1 5945   1.884   0.655   5.348
 1682SOL    HW2 5946   1.890   0.706   5.193
 1683SOL     OW 5947   5.272   5.028   2.263
 1683SOL    HW1 5948   5.306   4.981   2.345
 1683SOL    HW2 5949   5.173   5.033   2.266
 1684SOL     OW 5950   0.908   6.126   2.292
 1684SOL    HW1 5951   0.986   6.118   2.230
 1684SOL    HW2 5952   0.849   6.200   2.261
 1685SOL     OW 5953   2.098   0.910   5.229
 1685SOL    HW1 5954   2.082   0.893   5.131
 1685SOL    HW2 5955   2.152   0.834   5.267
 1686SOL     OW 5956   2.437   5.882   4.155
 1686SOL    HW1 5957   2.405   5.874   4.061
 1686SOL    HW2 5958   2.359   5.874   4.217
 1687SOL     OW 5959   2.155   3.047   2.158
 1687SOL    HW1 5960   2.124   3.051   2.063
 1687SOL    HW2 5961   2.190   3.137   2.186
 1688SOL     OW 5962   2.467   1.765   4.040
 1688SOL    HW1 5963   2.553   1.776   3.989
 1688SOL    HW2 5964   2.428   1.855   4.059
 1689SOL     OW 5965   6.490   0.985   2.881
 1689SOL    HW1 5966   6.427   0.998   2.804
 1689SOL    HW2 5967   6.475   0.895   2.922
 1690SOL     OW 5968   1.472   2.713   4.218
 1690SOL    HW1 5969   1.425   2.755   4.296
 1690SOL    HW2 5970   1.552   2.664   4.250
 1691SOL     OW 5971   5.222   3.279   3.476
 1691SOL    HW1 5972   5.204   3.224   3.558
 1691SOL    HW2 5973   5.319   3.275   3.453
 1692SOL     OW 5974   4.820   6.343   1.135
 1692SOL    HW1 5975   4.885   6.340   1.058
 1692SOL    HW2 5976   4.841   6.421   1.193
 1693SOL     OW 5977   6.208   1.963   2.354
 1693SOL    HW1 5978   6.184   2.007   2.268
 1693SOL    HW2 5979   6.202   1.864   2.343
 1694SOL     OW 5980   5.545   1.164   2.986
 1694SOL    HW1 5981   5.530   1.249   2.937
 1694SOL    HW2 5982   5.523   1.177   3.083
 1695SOL     OW 5983   4.151   0.907   6.178
 1695SOL    HW1 5984   4.225   0.913   6.111
 1695SOL    HW2 5985   4.188   0.922   6.269
 1696SOL     OW 5986   4.362   5.988   0.523
 1696SOL    HW1 5987   4.438   5.924   0.521
 1696SOL    HW2 5988   4.344   6.021   0.430
 1697SOL     OW 5989   6.504   1.068   0.534
 1697SOL    HW1 5990   6.451   1.148   0.504
 1697SOL    HW2 5991   6.471   1.038   0.623
 1698SOL     OW 5992   2.926   0.208   0.202
 1698SOL    HW1 5993   3.023   0.207   0.229
 1698SOL    HW2 5994   2.913   0.148   0.123
 1699SOL     OW 5995   2.336   1.428   0.144
 1699SOL    HW1 5996   2.380   1.339   0.153
 1699SOL    HW2 5997   2.254   1.420   0.087
 1700SOL     OW 5998   6.150   4.052   3.591
 1700SOL    HW1 5999   6.227   4.013   3.541
 1700SOL    HW2 6000   6.076   3.984   3.598
 1701SOL     OW 6001   5.180   4.790   5.390
 1701SOL    HW1 6002   5.082   4.809   5.382
 1701SOL    HW2 6003   5.206   4.794   5.487
 1702SOL     OW 6004   6.424   1.300   0.913
 1702SOL    HW1 6005   6.484   1.360   0.860
 1702SOL    HW2 6006   6.347   1.272   0.857
 1703SOL     OW 6007   3.421   2.214   0.758
 1703SOL    HW1 6008   3.394   2.306   0.728
 1703SOL    HW2 6009   3.379   2.194   0.846
 1704SOL     OW 6010   0.971   1.825   1.451
 1704SOL    HW1 6011   0.913   1.849   1.529
 1704SOL    HW2 6012   1.064   1.809   1.483
 1705SOL     OW 6013   3.163   2.162   2.737
 1705SOL    HW1 6014   3.159   2.074   2.690
 1705SOL    HW2 6015   3.250   2.206   2.717
 1706SOL     OW 6016   5.127   1.279   2.189
 1706SOL    HW1 6017   5.059   1.336   2.143
 1706SOL    HW2 6018   5.129   1.188   2.147
 1707SOL     OW 6019   4.598   2.287   1.588
 1707SOL    HW1 6020   4.550   2.327   1.666
 1707SOL    HW2 6021   4.673   2.347   1.560
 1708SOL     OW 6022   5.067   5.285   2.136
 1708SOL    HW1 6023   5.157   5.306   2.173
 1708SOL    HW2 6024   5.052   5.339   2.053
 1709SOL     OW 6025   3.130   6.138   2.253
 1709SOL    HW1 6026   3.035   6.154   2.282
 1709SOL    HW2 6027   3.192   6.174   2.323
 1710SOL     OW 6028   5.010   4.928   3.499
 1710SOL    HW1 6029   5.038   4.858   3.433
 1710SOL    HW2 6030   5.071   4.927   3.578
 1711SOL     OW 6031   1.470   4.688   4.419
 1711SOL    HW1 6032   1.377   4.724   4.409
 1711SOL    HW2 6033   1.533   4.763   4.439
 1712SOL     OW 6034   6.830   2.476   4.709
 1712SOL    HW1 6035   6.750   2.439   4.756
 1712SOL    HW2 6036   6.859   2.412   4.638
 1713SOL     OW 6037   4.605   2.663   1.888
 1713SOL    HW1 6038   4.551   2.593   1.935
 1713SOL    HW2 6039   4.644   2.725   1.955
 1714SOL     OW 6040   3.308   1.238   6.300
 1714SOL    HW1 6041   3.402   1.220   6.329
 1714SOL    HW2 6042   3.296   1.210   6.205
 1715SOL     OW 6043   1.872   5.386   2.677
 1715SOL    HW1 6044   1.928   5.466   2.656
 1715SOL    HW2 6045   1.900   5.348   2.765
 1716SOL     OW 6046   4.585   0.122   2.836
 1716SOL    HW1 6047   4.590   0.035   2.886
 1716SOL    HW2 6048   4.587   0.104   2.738
 1717SOL     OW 6049   2.998   5.858   5.395
 1717SOL    HW1 6050   3.000   5.945   5.445
 1717SOL    HW2 6051   2.974   5.875   5.300
 1718SOL     OW 6052   2.912   1.442   2.037
 1718SOL    HW1 6053   2.912   1.477   2.131
 1718SOL    HW2 6054   3.006   1.421   2.010
 1719SOL     OW 6055   2.249   3.198   1.310
 1719SOL    HW1 6056   2.193   3.226   1.232
 1719SOL    HW2 6057   2.248   3.098   1.317
 1720SOL     OW 6058   0.255   3.228   0.273
 1720SOL    HW1 6059   0.263   3.135   0.239
 1720SOL    HW2 6060   0.314   3.239   0.354
 1721SOL     OW 6061   2.289   6.838   1.747
 1721SOL    HW1 6062   2.203   6.888   1.734
 1721SOL    HW2 6063   2.355   6.868   1.679
 1722SOL     OW 6064   2.971   1.400   4.016
 1722SOL    HW1 6065   2.949   1.473   3.951
 1722SOL    HW2 6066   2.932   1.314   3.984
 1723SOL     OW 6067   6.081   2.475   0.851
 1723SOL    HW1 6068   5.986   2.502   0.838
 1723SOL    HW2 6069   6.085   2.386   0.896
 1724SOL     OW 6070   6.972   3.068   2.521
 1724SOL    HW1 6071   0.052   3.071   2.530
 1724SOL    HW2 6072   6.930   3.087   2.609
 1725SOL     OW 6073   2.012   4.435   5.954
 1725SOL    HW1 6074   1.959   4.354   5.981
 1725SOL    HW2 6075   1.963   4.517   5.982
 1726SOL     OW 6076   5.920   4.745   5.485
 1726SOL    HW1 6077   5.863   4.671   5.448
 1726SOL    HW2 6078   6.004   4.706   5.522
 1727SOL     OW 6079   3.441   2.893   3.777
 1727SOL    HW1 6080   3.376   2.968   3.766
 1727SOL    HW2 6081   3.424   2.848   3.865
 1728SOL     OW 6082   5.428   5.808   5.228
 1728SOL    HW1 6083   5.471   5.853   5.307
 1728SOL    HW2 6084   5.329   5.813   5.236
 1729SOL     OW 6085   2.355   4.288   3.219
 1729SOL    HW1 6086   2.376   4.260   3.312
 1729SOL    HW2 6087   2.293   4.367   3.221
 1730SOL     OW 6088   1.551   6.893   4.893
 1730SOL    HW1 6089   1.528   6.818   4.831
 1730SOL    HW2 6090   1.518   6.980   4.855
 1731SOL     OW 6091   0.611   4.477   4.088
 1731SOL    HW1 6092   0.535   4.416   4.066
 1731SOL    HW2 6093   0.696   4.441   4.050
 1732SOL     OW 6094   2.169   4.740   5.601
 1732SOL    HW1 6095   2.207   4.766   5.690
 1732SOL    HW2 6096   2.205   4.801   5.531
 1733SOL     OW 6097   1.723   4.536   1.600
 1733SOL    HW1 6098   1.727   4.635   1.590
 1733SOL    HW2 6099   1.654   4.512   1.669
 1734SOL     OW 6100   4.730   2.939   1.120
 1734SOL    HW1 6101   4.803   2.990   1.075
 1734SOL    HW2 6102   4.642   2.965   1.079
 1735SOL     OW 6103   4.634   4.933   6.810
 1735SOL    HW1 6104   4.582   4.872   6.869
 1735SOL    HW2 6105   4.732   4.914   6.820
 1736SOL     OW 6106   3.764   3.803   1.140
 1736SOL    HW1 6107   3.709   3.854   1.073
 1736SOL    HW2 6108   3.703   3.749   1.198
 1737SOL     OW 6109   4.192   0.986   4.562
 1737SOL    HW1 6110   4.189   1.069   4.618
 1737SOL    HW2 6111   4.206   0.906   4.621
 1738SOL     OW 6112   1.945   2.653   4.214
 1738SOL    HW1 6113   1.924   2.729   4.276
 1738SOL    HW2 6114   1.979   2.575   4.267
 1739SOL     OW 6115   6.782   1.765   5.282
 1739SOL    HW1 6116   6.715   1.736   5.350
 1739SOL    HW2 6117   6.853   1.820   5.326
 1740SOL     OW 6118   6.775   2.224   5.074
 1740SOL    HW1 6119   6.711   2.266   5.010
 1740SOL    HW2 6120   6.869   2.234   5.041
 1741SOL     OW 6121   2.400   0.525   3.752
 1741SOL    HW1 6122   2.447   0.446   3.791
 1741SOL    HW2 6123   2.464   0.576   3.695
 1742SOL     OW 6124   5.605   0.853   6.015
 1742SOL    HW1 6125   5.528   0.872   5.954
 1742SOL    HW2 6126   5.661   0.935   6.025
 1743SOL     OW 6127   0.689   2.513   2.469
 1743SOL    HW1 6128   0.690   2.602   2.425
 1743SOL    HW2 6129   0.701   2.441   2.400
 1744SOL     OW 6130   5.901   2.708   3.128
 1744SOL    HW1 6131   5.904   2.682   3.031
 1744SOL    HW2 6132   5.968   2.654   3.179
 1745SOL     OW 6133   5.527   5.716   2.399
 1745SOL    HW1 6134   5.441   5.752   2.434
 1745SOL    HW2 6135   5.518   5.695   2.302
 1746SOL     OW 6136   1.856   3.999   4.555
 1746SOL    HW1 6137   1.793   4.076   4.549
 1746SOL    HW2 6138   1.806   3.914   4.545
 1747SOL     OW 6139   4.836   1.851   2.992
 1747SOL    HW1 6140   4.795   1.882   2.906
 1747SOL    HW2 6141   4.794   1.899   3.069
 1748SOL     OW 6142   0.147   1.840   5.267
 1748SOL    HW1 6143   0.165   1.857   5.364
 1748SOL    HW2 6144   0.214   1.890   5.212
 1749SOL     OW 6145   2.196   6.732   5.143
 1749SOL    HW1 6146   2.286   6.772   5.128
 1749SOL    HW2 6147   2.165   6.686   5.060
 1750SOL     OW 6148   5.075   6.204   3.487
 1750SOL    HW1 6149   5.079   6.117   3.436
 1750SOL    HW2 6150   5.168   6.236   3.504
 1751SOL     OW 6151   4.011   0.637   3.750
 1751SOL    HW1 6152   3.967   0.564   3.698
 1751SOL    HW2 6153   4.096   0.664   3.704
 1752SOL     OW 6154   6.285   1.427   2.403
 1752SOL    HW1 6155   6.307   1.378   2.319
 1752SOL    HW2 6156   6.358   1.413   2.469
 1753SOL     OW 6157   6.629   0.929   1.219
 1753SOL    HW1 6158   6.698   0.946   1.289
 1753SOL    HW2 6159   6.551   0.883   1.261
 1754SOL     OW 6160   1.542   4.930   0.012
 1754SOL    HW1 6161   1.460   4.985   7.020
 1754SOL    HW2 6162   1.614   4.963   6.969
 1755SOL     OW 6163   0.376   6.613   1.262
 1755SOL    HW1 6164   0.433   6.579   1.337
 1755SOL    HW2 6165   0.322   6.538   1.225
 1756SOL     OW 6166   4.291   5.387   5.507
 1756SOL    HW1 6167   4.204   5.430   5.481
 1756SOL    HW2 6168   4.309   5.406   5.603
 1757SOL     OW 6169   2.382   5.481   4.576
 1757SOL    HW1 6170   2.283   5.494   4.584
 1757SOL    HW2 6171   2.419   5.454   4.665
 1758SOL     OW 6172   2.276   0.596   4.334
 1758SOL    HW1 6173   2.322   0.598   4.245
 1758SOL    HW2 6174   2.344   0.591   4.407
 1759SOL     OW 6175   2.213   6.440   5.564
 1759SOL    HW1 6176   2.224   6.341   5.555
 1759SOL    HW2 6177   2.211   6.482   5.473
 1760SOL     OW 6178   5.714   0.619   3.543
 1760SOL    HW1 6179   5.671   0.614   3.453
 1760SOL    HW2 6180   5.644   0.614   3.614
 1761SOL     OW 6181   0.032   0.759   1.439
 1761SOL    HW1 6182   6.990   0.717   1.505
 1761SOL    HW2 6183   0.124   0.765   1.479
 1762SOL     OW 6184   0.903   1.288   3.953
 1762SOL    HW1 6185   0.998   1.281   3.921
 1762SOL    HW2 6186   0.855   1.202   3.935
 1763SOL     OW 6187   0.640   4.507   4.388
 1763SOL    HW1 6188   0.624   4.524   4.291
 1763SOL    HW2 6189   0.581   4.568   4.442
 1764SOL     OW 6190   2.165   3.220   2.572
 1764SOL    HW1 6191   2.125   3.248   2.484
 1764SOL    HW2 6192   2.185   3.301   2.627
 1765SOL     OW 6193   3.782   0.984   1.544
 1765SOL    HW1 6194   3.730   0.905   1.513
 1765SOL    HW2 6195   3.878   0.959   1.555
 1766SOL     OW 6196   5.600   4.486   3.475
 1766SOL    HW1 6197   5.651   4.417   3.423
 1766SOL    HW2 6198   5.631   4.577   3.448
 1767SOL     OW 6199   0.867   4.238   2.621
 1767SOL    HW1 6200   0.931   4.264   2.550
 1767SOL    HW2 6201   0.885   4.291   2.704
 1768SOL     OW 6202   3.487   1.030   0.093
 1768SOL    HW1 6203   3.401   1.008   0.046
 1768SOL    HW2 6204   3.489   1.127   0.115
 1769SOL     OW 6205   4.627   1.549   6.910
 1769SOL    HW1 6206   4.609   1.636   6.954
 1769SOL    HW2 6207   4.666   1.564   6.819
 1770SOL     OW 6208   6.735   4.298   4.743
 1770SOL    HW1 6209   6.752   4.236   4.820
 1770SOL    HW2 6210   6.681   4.376   4.774
 1771SOL     OW 6211   2.034   5.200   0.939
 1771SOL    HW1 6212   2.114   5.184   0.880
 1771SOL    HW2 6213   1.963   5.247   0.886
 1772SOL     OW 6214   3.833   5.927   3.507
 1772SOL    HW1 6215   3.839   6.006   3.568
 1772SOL    HW2 6216   3.742   5.886   3.514
 1773SOL     OW 6217   2.845   2.988   6.228
 1773SOL    HW1 6218   2.890   3.060   6.176
 1773SOL    HW2 6219   2.763   3.024   6.272
 1774SOL     OW 6220   4.865   5.742   1.604
 1774SOL    HW1 6221   4.820   5.724   1.691
 1774SOL    HW2 6222   4.797   5.766   1.535
 1775SOL     OW 6223   2.278   4.890   5.387
 1775SOL    HW1 6224   2.198   4.948   5.402
 1775SOL    HW2 6225   2.288   4.873   5.289
 1776SOL     OW 6226   4.930   1.043   6.300
 1776SOL    HW1 6227   4.980   0.999   6.374
 1776SOL    HW2 6228   4.839   1.002   6.292
 1777SOL     OW 6229   3.383   6.362   5.945
 1777SOL    HW1 6230   3.454   6.421   5.984
 1777SOL    HW2 6231   3.365   6.285   6.007
 1778SOL     OW 6232   4.945   2.133   4.221
 1778SOL    HW1 6233   4.869   2.068   4.234
 1778SOL    HW2 6234   5.023   2.085   4.181
 1779SOL     OW 6235   4.262   0.928   5.429
 1779SOL    HW1 6236   4.271   1.020   5.467
 1779SOL    HW2 6237   4.170   0.915   5.393
 1780SOL     OW 6238   2.077   3.758   5.842
 1780SOL    HW1 6239   2.021   3.726   5.766
 1780SOL    HW2 6240   2.170   3.778   5.809
 1781SOL     OW 6241   5.812   5.444   3.990
 1781SOL    HW1 6242   5.840   5.439   3.895
 1781SOL    HW2 6243   5.801   5.539   4.018
 1782SOL     OW 6244   3.371   1.221   2.958
 1782SOL    HW1 6245   3.379   1.134   2.910
 1782SOL    HW2 6246   3.275   1.238   2.980
 1783SOL     OW 6247   2.359   3.062   5.945
 1783SOL    HW1 6248   2.393   3.123   6.016
 1783SOL    HW2 6249   2.359   2.968   5.979
 1784SOL     OW 6250   2.096   1.104   1.737
 1784SOL    HW1 6251   2.030   1.176   1.717
 1784SOL    HW2 6252   2.101   1.090   1.836
 1785SOL     OW 6253   6.109   6.125   3.635
 1785SOL    HW1 6254   6.157   6.043   3.667
 1785SOL    HW2 6255   6.175   6.189   3.594
 1786SOL     OW 6256   1.897   4.021   0.715
 1786SOL    HW1 6257   1.817   4.035   0.774
 1786SOL    HW2 6258   1.890   4.081   0.635
 1787SOL     OW 6259   2.759   1.634   5.274
 1787SOL    HW1 6260   2.679   1.680   5.312
 1787SOL    HW2 6261   2.735   1.595   5.185
 1788SOL     OW 6262   3.712   4.024   0.298
 1788SOL    HW1 6263   3.624   3.981   0.322
 1788SOL    HW2 6264   3.705   4.123   0.310
 1789SOL     OW 6265   5.548   2.927   2.156
 1789SOL    HW1 6266   5.463   2.899   2.114
 1789SOL    HW2 6267   5.539   2.921   2.256
 1790SOL     OW 6268   3.003   0.921   4.447
 1790SOL    HW1 6269   3.096   0.941   4.478
 1790SOL    HW2 6270   2.984   0.971   4.362
 1791SOL     OW 6271   6.691   1.523   4.104
 1791SOL    HW1 6272   6.621   1.593   4.087
 1791SOL    HW2 6273   6.675   1.481   4.194
 1792SOL     OW 6274   0.304   1.338   4.428
 1792SOL    HW1 6275   0.281   1.280   4.506
 1792SOL    HW2 6276   0.225   1.344   4.367
 1793SOL     OW 6277   6.785   1.162   4.356
 1793SOL    HW1 6278   6.828   1.122   4.275
 1793SOL    HW2 6279   6.787   1.262   4.349
 1794SOL     OW 6280   4.753   6.418   5.814
 1794SOL    HW1 6281   4.678   6.477   5.845
 1794SOL    HW2 6282   4.796   6.375   5.894
 1795SOL     OW 6283   6.590   5.294   2.140
 1795SOL    HW1 6284   6.490   5.290   2.145
 1795SOL    HW2 6285   6.625   5.335   2.224
 1796SOL     OW 6286   2.018   1.028   4.696
 1796SOL    HW1 6287   2.035   1.083   4.778
 1796SOL    HW2 6288   1.933   0.976   4.708
 1797SOL     OW 6289   1.731   6.811   5.636
 1797SOL    HW1 6290   1.739   6.905   5.669
 1797SOL    HW2 6291   1.665   6.806   5.562
 1798SOL     OW 6292   3.890   3.193   5.551
 1798SOL    HW1 6293   3.935   3.238   5.474
 1798SOL    HW2 6294   3.892   3.253   5.630
 1799SOL     OW 6295   5.997   2.634   6.400
 1799SOL    HW1 6296   6.046   2.715   6.370
 1799SOL    HW2 6297   5.924   2.660   6.465
 1800SOL     OW 6298   4.554   4.780   3.391
 1800SOL    HW1 6299   4.562   4.830   3.477
 1800SOL    HW2 6300   4.644   4.749   3.361
 1801SOL     OW 6301   1.178   1.636   2.732
 1801SOL    HW1 6302   1.211   1.730   2.740
 1801SOL    HW2 6303   1.252   1.572   2.757
 1802SOL     OW 6304   6.382   6.005   2.914
 1802SOL    HW1 6305   6.445   6.082   2.918
 1802SOL    HW2 6306   6.342   5.998   2.823
 1803SOL     OW 6307   6.646   6.790   2.337
 1803SOL    HW1 6308   6.567   6.782   2.397
 1803SOL    HW2 6309   6.661   6.886   2.314
 1804SOL     OW 6310   3.876   3.407   5.377
 1804SOL    HW1 6311   3.908   3.486   5.429
 1804SOL    HW2 6312   3.787   3.428   5.335
 1805SOL     OW 6313   1.104   4.760   5.626
 1805SOL    HW1 6314   1.202   4.777   5.621
 1805SOL    HW2 6315   1.075   4.760   5.722
 1806SOL     OW 6316   0.659   2.252   1.971
 1806SOL    HW1 6317   0.578   2.305   1.995
 1806SOL    HW2 6318   0.661   2.234   1.873
 1807SOL     OW 6319   6.748   2.150   6.325
 1807SOL    HW1 6320   6.724   2.156   6.422
 1807SOL    HW2 6321   6.671   2.114   6.274
 1808SOL     OW 6322   5.628   4.561   4.445
 1808SOL    HW1 6323   5.560   4.513   4.499
 1808SOL    HW2 6324   5.588   4.645   4.408
 1809SOL     OW 6325   2.938   2.147   4.941
 1809SOL    HW1 6326   2.952   2.077   4.871
 1809SOL    HW2 6327   3.025   2.169   4.985
 1810SOL     OW 6328   0.971   1.011   4.796
 1810SOL    HW1 6329   0.876   1.008   4.763
 1810SOL    HW2 6330   1.033   1.012   4.718
 1811SOL     OW 6331   5.214   4.670   3.014
 1811SOL    HW1 6332   5.246   4.673   2.919
 1811SOL    HW2 6333   5.238   4.581   3.054
 1812SOL     OW 6334   4.664   0.023   6.656
 1812SOL    HW1 6335   4.610   6.969   6.616
 1812SOL    HW2 6336   4.732   7.004   6.718
 1813SOL     OW 6337   5.286   4.943   1.692
 1813SOL    HW1 6338   5.202   4.916   1.739
 1813SOL    HW2 6339   5.355   4.968   1.760
 1814SOL     OW 6340   5.967   0.578   0.961
 1814SOL    HW1 6341   5.984   0.512   0.888
 1814SOL    HW2 6342   5.868   0.585   0.977
 1815SOL     OW 6343   5.975   0.375   2.921
 1815SOL    HW1 6344   5.961   0.376   3.020
 1815SOL    HW2 6345   6.072   0.389   2.902
 1816SOL     OW 6346   2.895   5.205   0.090
 1816SOL    HW1 6347   2.894   5.111   0.053
 1816SOL    HW2 6348   2.879   5.202   0.189
 1817SOL     OW 6349   4.623   0.438   2.711
 1817SOL    HW1 6350   4.530   0.402   2.704
 1817SOL    HW2 6351   4.642   0.463   2.806
 1818SOL     OW 6352   1.959   6.668   0.887
 1818SOL    HW1 6353   1.926   6.721   0.809
 1818SOL    HW2 6354   1.962   6.571   0.863
 1819SOL     OW 6355   1.382   6.503   1.597
 1819SOL    HW1 6356   1.453   6.439   1.569
 1819SOL    HW2 6357   1.421   6.571   1.661
 1820SOL     OW 6358   3.558   0.053   2.325
 1820SOL    HW1 6359   3.586   6.993   2.272
 1820SOL    HW2 6360   3.587   0.136   2.277
 1821SOL     OW 6361   2.853   1.422   1.625
 1821SOL    HW1 6362   2.808   1.352   1.680
 1821SOL    HW2 6363   2.868   1.504   1.680
 1822SOL     OW 6364   0.626   2.754   1.685
 1822SOL    HW1 6365   0.655   2.813   1.761
 1822SOL    HW2 6366   0.544   2.704   1.711
 1823SOL     OW 6367   3.117   5.988   2.964
 1823SOL    HW1 6368   3.150   5.995   2.870
 1823SOL    HW2 6369   3.190   6.016   3.027
 1824SOL     OW 6370   3.861   4.404   1.033
 1824SOL    HW1 6371   3.911   4.326   0.994
 1824SOL    HW2 6372   3.906   4.434   1.117
 1825SOL     OW 6373   0.817   2.543   4.667
 1825SOL    HW1 6374   0.848   2.463   4.615
 1825SOL    HW2 6375   0.717   2.542   4.672
 1826SOL     OW 6376   2.942   1.385   1.338
 1826SOL    HW1 6377   2.918   1.411   1.432
 1826SOL    HW2 6378   2.886   1.438   1.274
 1827SOL     OW 6379   6.020   5.422   1.269
 1827SOL    HW1 6380   6.065   5.347   1.318
 1827SOL    HW2 6381   5.954   5.467   1.329
 1828SOL     OW 6382   1.505   3.022   6.665
 1828SOL    HW1 6383   1.518   3.100   6.603
 1828SOL    HW2 6384   1.530   3.049   6.758
 1829SOL     OW 6385   4.218   0.676   2.956
 1829SOL    HW1 6386   4.238   0.695   3.052
 1829SOL    HW2 6387   4.137   0.727   2.927
 1830SOL     OW 6388   5.981   6.243   4.859
 1830SOL    HW1 6389   5.895   6.266   4.813
 1830SOL    HW2 6390   6.029   6.174   4.805
 1831SOL     OW 6391   5.868   6.698   2.475
 1831SOL    HW1 6392   5.777   6.699   2.515
 1831SOL    HW2 6393   5.867   6.643   2.391
 1832SOL     OW 6394   4.074   1.536   0.852
 1832SOL    HW1 6395   4.150   1.600   0.869
 1832SOL    HW2 6396   4.099   1.476   0.775
 1833SOL     OW 6397   5.702   0.623   2.021
 1833SOL    HW1 6398   5.616   0.595   2.063
 1833SOL    HW2 6399   5.779   0.592   2.078
 1834SOL     OW 6400   2.076   4.312   1.080
 1834SOL    HW1 6401   2.164   4.355   1.061
 1834SOL    HW2 6402   2.004   4.358   1.027
 1835SOL     OW 6403   0.500   4.800   2.043
 1835SOL    HW1 6404   0.483   4.856   2.123
 1835SOL    HW2 6405   0.423   4.737   2.029
 1836SOL     OW 6406   5.311   2.373   1.730
 1836SOL    HW1 6407   5.337   2.439   1.801
 1836SOL    HW2 6408   5.390   2.318   1.703
 1837SOL     OW 6409   1.559   0.166   5.478
 1837SOL    HW1 6410   1.539   0.143   5.574
 1837SOL    HW2 6411   1.474   0.194   5.433
 1838SOL     OW 6412   5.738   1.236   5.805
 1838SOL    HW1 6413   5.779   1.312   5.854
 1838SOL    HW2 6414   5.744   1.252   5.706
 1839SOL     OW 6415   6.932   1.347   5.473
 1839SOL    HW1 6416   6.970   1.419   5.530
 1839SOL    HW2 6417   6.989   1.336   5.391
 1840SOL     OW 6418   4.454   0.098   1.979
 1840SOL    HW1 6419   4.427   0.180   2.029
 1840SOL    HW2 6420   4.502   0.036   2.042
 1841SOL     OW 6421   2.475   0.567   3.224
 1841SOL    HW1 6422   2.394   0.561   3.166
 1841SOL    HW2 6423   2.473   0.653   3.275
 1842SOL     OW 6424   1.047   5.977   1.458
 1842SOL    HW1 6425   1.026   5.882   1.438
 1842SOL    HW2 6426   1.011   6.001   1.548
 1843SOL     OW 6427   5.621   0.510   4.691
 1843SOL    HW1 6428   5.710   0.506   4.645
 1843SOL    HW2 6429   5.557   0.447   4.645
 1844SOL     OW 6430   3.861   0.424   4.903
 1844SOL    HW1 6431   3.939   0.379   4.858
 1844SOL    HW2 6432   3.883   0.438   5.000
 1845SOL     OW 6433   2.770   6.681   3.950
 1845SOL    HW1 6434   2.670   6.681   3.953
 1845SOL    HW2 6435   2.806   6.662   4.041
 1846SOL     OW 6436   4.438   1.065   2.738
 1846SOL    HW1 6437   4.485   1.017   2.665
 1846SOL    HW2 6438   4.380   1.001   2.788
 1847SOL     OW 6439   1.504   0.096   5.732
 1847SOL    HW1 6440   1.426   0.152   5.760
 1847SOL    HW2 6441   1.513   0.018   5.795
 1848SOL     OW 6442   1.884   6.235   3.126
 1848SOL    HW1 6443   1.810   6.301   3.119
 1848SOL    HW2 6444   1.967   6.280   3.157
 1849SOL     OW 6445   4.266   2.427   1.507
 1849SOL    HW1 6446   4.305   2.356   1.448
 1849SOL    HW2 6447   4.253   2.511   1.454
 1850SOL     OW 6448   6.579   2.206   2.293
 1850SOL    HW1 6449   6.619   2.238   2.379
 1850SOL    HW2 6450   6.617   2.117   2.269
 1851SOL     OW 6451   1.188   3.445   0.463
 1851SOL    HW1 6452   1.149   3.513   0.524
 1851SOL    HW2 6453   1.161   3.466   0.368
 1852SOL     OW 6454   6.903   4.654   2.399
 1852SOL    HW1 6455   6.876   4.745   2.430
 1852SOL    HW2 6456   6.981   4.661   2.338
 1853SOL     OW 6457   6.699   2.647   3.138
 1853SOL    HW1 6458   6.679   2.738   3.174
 1853SOL    HW2 6459   6.692   2.579   3.211
 1854SOL     OW 6460   1.901   5.056   2.080
 1854SOL    HW1 6461   1.871   4.982   2.140
 1854SOL    HW2 6462   1.975   5.107   2.124
 1855SOL     OW 6463   5.757   3.513   5.130
 1855SOL    HW1 6464   5.855   3.531   5.130
 1855SOL    HW2 6465   5.736   3.442   5.063
 1856SOL     OW 6466   4.640   2.915   6.301
 1856SOL    HW1 6467   4.657   2.884   6.394
 1856SOL    HW2 6468   4.703   2.869   6.238
 1857SOL     OW 6469   4.254   1.690   7.016
 1857SOL    HW1 6470   4.343   1.703   0.042
 1857SOL    HW2 6471   4.200   1.623   0.047
 1858SOL     OW 6472   5.190   2.960   3.045
 1858SOL    HW1 6473   5.108   2.938   2.994
 1858SOL    HW2 6474   5.177   2.937   3.142
 1859SOL     OW 6475   4.231   1.727   3.823
 1859SOL    HW1 6476   4.157   1.792   3.840
 1859SOL    HW2 6477   4.312   1.755   3.874
 1860SOL     OW 6478   7.007   1.618   5.511
 1860SOL    HW1 6479   0.037   1.585   5.430
 1860SOL    HW2 6480   7.017   1.717   5.518
 1861SOL     OW 6481   5.210   0.448   2.801
 1861SOL    HW1 6482   5.128   0.434   2.746
 1861SOL    HW2 6483   5.262   0.363   2.807
 1862SOL     OW 6484   2.251   6.852   6.740
 1862SOL    HW1 6485   2.307   6.922   6.694
 1862SOL    HW2 6486   2.222   6.784   6.672
 1863SOL     OW 6487   6.980   3.105   3.340
 1863SOL    HW1 6488   6.977   3.007   3.362
 1863SOL    HW2 6489   0.021   3.120   3.262
 1864SOL     OW 6490   3.377   5.617   4.655
 1864SOL    HW1 6491   3.431   5.698   4.679
 1864SOL    HW2 6492   3.330   5.632   4.568
 1865SOL     OW 6493   3.446   0.426   0.717
 1865SOL    HW1 6494   3.536   0.386   0.704
 1865SOL    HW2 6495   3.447   0.486   0.797
 1866SOL     OW 6496   0.093   4.905   3.688
 1866SOL    HW1 6497   0.033   4.947   3.758
 1866SOL    HW2 6498   0.186   4.902   3.723
 1867SOL     OW 6499   1.893   4.484   1.400
 1867SOL    HW1 6500   1.926   4.394   1.369
 1867SOL    HW2 6501   1.828   4.471   1.474
 1868SOL     OW 6502   5.375   3.524   6.548
 1868SOL    HW1 6503   5.369   3.505   6.450
 1868SOL    HW2 6504   5.467   3.556   6.570
 1869SOL     OW 6505   6.179   3.341   4.811
 1869SOL    HW1 6506   6.272   3.374   4.796
 1869SOL    HW2 6507   6.163   3.330   4.909
 1870SOL     OW 6508   1.198   3.390   4.900
 1870SOL    HW1 6509   1.262   3.465   4.885
 1870SOL    HW2 6510   1.120   3.423   4.953
 1871SOL     OW 6511   0.181   0.018   0.833
 1871SOL    HW1 6512   0.116   0.044   0.904
 1871SOL    HW2 6513   0.227   6.952   0.859
 1872SOL     OW 6514   4.262   2.380   6.963
 1872SOL    HW1 6515   4.245   2.479   6.962
 1872SOL    HW2 6516   4.183   2.332   6.926
 1873SOL     OW 6517   6.359   0.502   5.837
 1873SOL    HW1 6518   6.404   0.498   5.748
 1873SOL    HW2 6519   6.317   0.592   5.849
 1874SOL     OW 6520   1.385   1.447   6.556
 1874SOL    HW1 6521   1.383   1.509   6.635
 1874SOL    HW2 6522   1.379   1.353   6.588
 1875SOL     OW 6523   6.742   0.245   0.690
 1875SOL    HW1 6524   6.690   0.221   0.608
 1875SOL    HW2 6525   6.806   0.172   0.712
 1876SOL     OW 6526   3.692   5.800   6.456
 1876SOL    HW1 6527   3.783   5.791   6.497
 1876SOL    HW2 6528   3.641   5.872   6.503
 1877SOL     OW 6529   1.213   1.718   3.642
 1877SOL    HW1 6530   1.212   1.809   3.600
 1877SOL    HW2 6531   1.173   1.652   3.579
 1878SOL     OW 6532   6.872   3.491   4.168
 1878SOL    HW1 6533   6.901   3.399   4.193
 1878SOL    HW2 6534   6.798   3.521   4.228
 1879SOL     OW 6535   2.598   6.421   4.049
 1879SOL    HW1 6536   2.529   6.358   4.084
 1879SOL    HW2 6537   2.687   6.398   4.088
 1880SOL     OW 6538   0.173   2.061   2.829
 1880SOL    HW1 6539   0.219   1.980   2.793
 1880SOL    HW2 6540   0.224   2.142   2.802
 1881SOL     OW 6541   1.586   2.163   3.633
 1881SOL    HW1 6542   1.495   2.132   3.658
 1881SOL    HW2 6543   1.647   2.154   3.712
 1882SOL     OW 6544   0.659   4.923   6.815
 1882SOL    HW1 6545   0.583   4.986   6.824
 1882SOL    HW2 6546   0.730   4.945   6.882
 1883SOL     OW 6547   1.159   3.367   4.114
 1883SOL    HW1 6548   1.251   3.331   4.104
 1883SOL    HW2 6549   1.112   3.364   4.025
 1884SOL     OW 6550   5.907   2.549   1.208
 1884SOL    HW1 6551   5.862   2.536   1.120
 1884SOL    HW2 6552   5.965   2.470   1.228
 1885SOL     OW 6553   0.266   2.093   0.877
 1885SOL    HW1 6554   0.184   2.118   0.825
 1885SOL    HW2 6555   0.312   2.016   0.833
 1886SOL     OW 6556   2.530   2.444   0.233
 1886SOL    HW1 6557   2.617   2.438   0.281
 1886SOL    HW2 6558   2.522   2.368   0.169
 1887SOL     OW 6559   0.748   4.656   5.121
 1887SOL    HW1 6560   0.817   4.695   5.182
 1887SOL    HW2 6561   0.657   4.671   5.160
 1888SOL     OW 6562   2.805   1.839   5.872
 1888SOL    HW1 6563   2.743   1.901   5.920
 1888SOL    HW2 6564   2.809   1.865   5.775
 1889SOL     OW 6565   5.605   2.606   6.528
 1889SOL    HW1 6566   5.633   2.688   6.578
 1889SOL    HW2 6567   5.670   2.532   6.546
 1890SOL     OW 6568   1.289   5.895   5.261
 1890SOL    HW1 6569   1.380   5.935   5.270
 1890SOL    HW2 6570   1.222   5.968   5.248
 1891SOL     OW 6571   5.524   2.863   4.340
 1891SOL    HW1 6572   5.609   2.812   4.332
 1891SOL    HW2 6573   5.451   2.802   4.372
 1892SOL     OW 6574   3.758   0.195   0.971
 1892SOL    HW1 6575   3.807   0.108   0.968
 1892SOL    HW2 6576   3.784   0.246   1.053
 1893SOL     OW 6577   3.019   1.507   5.236
 1893SOL    HW1 6578   2.935   1.560   5.249
 1893SOL    HW2 6579   3.049   1.515   5.141
 1894SOL     OW 6580   4.160   3.685   1.969
 1894SOL    HW1 6581   4.210   3.764   2.003
 1894SOL    HW2 6582   4.159   3.685   1.869
 1895SOL     OW 6583   5.525   0.903   2.648
 1895SOL    HW1 6584   5.496   0.933   2.738
 1895SOL    HW2 6585   5.510   0.976   2.581
 1896SOL     OW 6586   0.481   0.684   3.137
 1896SOL    HW1 6587   0.458   0.638   3.223
 1896SOL    HW2 6588   0.456   0.626   3.060
 1897SOL     OW 6589   0.580   5.373   2.586
 1897SOL    HW1 6590   0.486   5.375   2.551
 1897SOL    HW2 6591   0.595   5.289   2.637
 1898SOL     OW 6592   3.144   5.105   1.970
 1898SOL    HW1 6593   3.170   5.039   2.040
 1898SOL    HW2 6594   3.059   5.150   1.996
 1899SOL     OW 6595   0.877   2.703   2.759
 1899SOL    HW1 6596   0.812   2.757   2.812
 1899SOL    HW2 6597   0.856   2.605   2.770
 1900SOL     OW 6598   0.704   0.317   5.285
 1900SOL    HW1 6599   0.741   0.261   5.210
 1900SOL    HW2 6600   0.773   0.324   5.358
 1901SOL     OW 6601   2.482   1.386   1.452
 1901SOL    HW1 6602   2.411   1.353   1.514
 1901SOL    HW2 6603   2.562   1.327   1.459
 1902SOL     OW 6604   2.644   2.410   4.880
 1902SOL    HW1 6605   2.740   2.384   4.880
 1902SOL    HW2 6606   2.632   2.492   4.825
 1903SOL     OW 6607   6.831   3.978   3.949
 1903SOL    HW1 6608   6.847   3.952   3.854
 1903SOL    HW2 6609   6.909   4.032   3.982
 1904SOL     OW 6610   5.800   6.705   3.996
 1904SOL    HW1 6611   5.739   6.702   4.075
 1904SOL    HW2 6612   5.878   6.645   4.012
 1905SOL     OW 6613   1.331   1.478   4.478
 1905SOL    HW1 6614   1.344   1.562   4.530
 1905SOL    HW2 6615   1.281   1.412   4.533
 1906SOL     OW 6616   3.096   6.878   5.186
 1906SOL    HW1 6617   3.111   6.964   5.236
 1906SOL    HW2 6618   3.168   6.813   5.210
 1907SOL     OW 6619   3.700   6.894   3.240
 1907SOL    HW1 6620   3.666   6.943   3.320
 1907SOL    HW2 6621   3.709   6.957   3.163
 1908SOL     OW 6622   4.534   0.756   5.053
 1908SOL    HW1 6623   4.492   0.667   5.037
 1908SOL    HW2 6624   4.525   0.780   5.150
 1909SOL     OW 6625   1.690   3.685   2.780
 1909SOL    HW1 6626   1.714   3.772   2.737
 1909SOL    HW2 6627   1.592   3.685   2.803
 1910SOL     OW 6628   0.107   2.471   6.515
 1910SOL    HW1 6629   0.069   2.423   6.436
 1910SOL    HW2 6630   0.032   2.506   6.572
 1911SOL     OW 6631   5.956   2.171   5.200
 1911SOL    HW1 6632   6.022   2.200   5.268
 1911SOL    HW2 6633   5.890   2.109   5.242
 1912SOL     OW 6634   3.621   6.799   1.616
 1912SOL    HW1 6635   3.665   6.781   1.704
 1912SOL    HW2 6636   3.610   6.713   1.567
 1913SOL     OW 6637   1.565   5.828   5.561
 1913SOL    HW1 6638   1.642   5.771   5.592
 1913SOL    HW2 6639   1.593   5.924   5.563
 1914SOL     OW 6640   3.175   2.417   6.772
 1914SOL    HW1 6641   3.136   2.336   6.727
 1914SOL    HW2 6642   3.111   2.493   6.763
 1915SOL     OW 6643   3.969   1.687   5.184
 1915SOL    HW1 6644   3.959   1.609   5.122
 1915SOL    HW2 6645   3.962   1.772   5.131
 1916SOL     OW 6646   3.472   6.124   1.109
 1916SOL    HW1 6647   3.393   6.136   1.170
 1916SOL    HW2 6648   3.556   6.140   1.161
 1917SOL     OW 6649   3.230   3.090   4.375
 1917SOL    HW1 6650   3.259   3.014   4.316
 1917SOL    HW2 6651   3.290   3.168   4.360
 1918SOL     OW 6652   0.003   0.085   6.235
 1918SOL    HW1 6653   0.020   0.125   6.145
 1918SOL    HW2 6654   6.943   0.128   6.276
 1919SOL     OW 6655   2.106   6.869   1.282
 1919SOL    HW1 6656   2.114   6.770   1.289
 1919SOL    HW2 6657   2.043   6.903   1.352
 1920SOL     OW 6658   1.145   4.919   2.633
 1920SOL    HW1 6659   1.229   4.966   2.658
 1920SOL    HW2 6660   1.067   4.978   2.652
 1921SOL     OW 6661   1.489   4.653   6.971
 1921SOL    HW1 6662   1.479   4.752   6.982
 1921SOL    HW2 6663   1.399   4.610   6.971
 1922SOL     OW 6664   3.445   4.072   0.862
 1922SOL    HW1 6665   3.414   4.057   0.768
 1922SOL    HW2 6666   3.522   4.012   0.882
 1923SOL     OW 6667   3.083   1.282   5.839
 1923SOL    HW1 6668   3.135   1.364   5.863
 1923SOL    HW2 6669   3.143   1.218   5.790
 1924SOL     OW 6670   5.513   4.993   1.866
 1924SOL    HW1 6671   5.586   5.027   1.924
 1924SOL    HW2 6672   5.548   4.919   1.809
 1925SOL     OW 6673   2.778   3.548   1.871
 1925SOL    HW1 6674   2.748   3.626   1.816
 1925SOL    HW2 6675   2.743   3.463   1.831
 1926SOL     OW 6676   1.152   0.215   3.475
 1926SOL    HW1 6677   1.139   0.238   3.378
 1926SOL    HW2 6678   1.196   0.293   3.521
 1927SOL     OW 6679   3.546   5.335   6.359
 1927SOL    HW1 6680   3.550   5.428   6.323
 1927SOL    HW2 6681   3.567   5.270   6.285
 1928SOL     OW 6682   7.019   4.144   6.183
 1928SOL    HW1 6683   0.007   4.242   6.198
 1928SOL    HW2 6684   6.924   4.121   6.162
 1929SOL     OW 6685   0.406   6.230   1.558
 1929SOL    HW1 6686   0.437   6.233   1.463
 1929SOL    HW2 6687   0.423   6.138   1.595
 1930SOL     OW 6688   3.488   3.923   6.717
 1930SOL    HW1 6689   3.477   3.935   6.816
 1930SOL    HW2 6690   3.555   3.989   6.683
 1931SOL     OW 6691   0.321   2.806   2.717
 1931SOL    HW1 6692   0.296   2.744   2.642
 1931SOL    HW2 6693   0.245   2.868   2.736
 1932SOL     OW 6694   5.005   3.551   3.078
 1932SOL    HW1 6695   5.038   3.509   2.993
 1932SOL    HW2 6696   5.036   3.497   3.156
 1933SOL     OW 6697   2.752   4.519   0.830
 1933SOL    HW1 6698   2.694   4.444   0.800
 1933SOL    HW2 6699   2.705   4.606   0.816
 1934SOL     OW 6700   0.554   0.528   4.351
 1934SOL    HW1 6701   0.650   0.544   4.373
 1934SOL    HW2 6702   0.497   0.598   4.393
 1935SOL     OW 6703   3.834   6.767   4.694
 1935SOL    HW1 6704   3.858   6.828   4.770
 1935SOL    HW2 6705   3.883   6.795   4.612
 1936SOL     OW 6706   6.035   4.239   4.088
 1936SOL    HW1 6707   6.028   4.176   4.165
 1936SOL    HW2 6708   6.124   4.286   4.091
 1937SOL     OW 6709   5.342   0.600   1.002
 1937SOL    HW1 6710   5.330   0.527   1.070
 1937SOL    HW2 6711   5.274   0.588   0.929
 1938SOL     OW 6712   3.366   1.064   2.078
 1938SOL    HW1 6713   3.381   1.051   1.980
 1938SOL    HW2 6714   3.372   0.976   2.124
 1939SOL     OW 6715   0.648   6.960   4.318
 1939SOL    HW1 6716   0.731   6.928   4.272
 1939SOL    HW2 6717   0.607   6.884   4.369
 1940SOL     OW 6718   4.235   4.740   6.697
 1940SOL    HW1 6719   4.205   4.730   6.602
 1940SOL    HW2 6720   4.182   4.677   6.754
 1941SOL     OW 6721   0.156   4.252   3.322
 1941SOL    HW1 6722   0.154   4.347   3.288
 1941SOL    HW2 6723   0.118   4.192   3.252
 1942SOL     OW 6724   5.465   0.243   2.019
 1942SOL    HW1 6725   5.419   0.300   2.087
 1942SOL    HW2 6726   5.421   0.254   1.930
 1943SOL     OW 6727   2.344   6.324   2.352
 1943SOL    HW1 6728   2.365   6.420   2.333
 1943SOL    HW2 6729   2.320   6.314   2.449
 1944SOL     OW 6730   5.957   2.048   0.754
 1944SOL    HW1 6731   5.987   1.984   0.825
 1944SOL    HW2 6732   5.907   2.124   0.796
 1945SOL     OW 6733   3.531   5.607   2.004
 1945SOL    HW1 6734   3.628   5.609   1.977
 1945SOL    HW2 6735   3.520   5.552   2.087
 1946SOL     OW 6736   6.516   0.572   1.083
 1946SOL    HW1 6737   6.449   0.535   1.018
 1946SOL    HW2 6738   6.514   0.672   1.078
 1947SOL     OW 6739   4.547   6.410   4.469
 1947SOL    HW1 6740   4.635   6.453   4.451
 1947SOL    HW2 6741   4.555   6.311   4.452
 1948SOL     OW 6742   5.523   5.606   3.777
 1948SOL    HW1 6743   5.616   5.640   3.760
 1948SOL    HW2 6744   5.462   5.635   3.704
 1949SOL     OW 6745   3.728   4.695   6.655
 1949SOL    HW1 6746   3.749   4.661   6.563
 1949SOL    HW2 6747   3.810   4.736   6.695
 1950SOL     OW 6748   3.621   4.861   0.934
 1950SOL    HW1 6749   3.663   4.793   0.995
 1950SOL    HW2 6750   3.691   4.898   0.872
 1951SOL     OW 6751   5.769   4.057   7.001
 1951SOL    HW1 6752   5.737   4.076   6.908
 1951SOL    HW2 6753   5.804   4.141   0.022
 1952SOL     OW 6754   3.819   2.555   0.009
 1952SOL    HW1 6755   3.911   2.564   6.992
 1952SOL    HW2 6756   3.754   2.603   6.969
 1953SOL     OW 6757   5.683   2.172   0.141
 1953SOL    HW1 6758   5.585   2.153   0.148
 1953SOL    HW2 6759   5.730   2.127   0.217
 1954SOL     OW 6760   5.578   1.428   3.869
 1954SOL    HW1 6761   5.622   1.383   3.947
 1954SOL    HW2 6762   5.480   1.439   3.889
 1955SOL     OW 6763   1.135   1.365   2.216
 1955SOL    HW1 6764   1.208   1.432   2.235
 1955SOL    HW2 6765   1.092   1.386   2.128
 1956SOL     OW 6766   4.753   6.473   2.179
 1956SOL    HW1 6767   4.803   6.463   2.266
 1956SOL    HW2 6768   4.687   6.399   2.170
 1957SOL     OW 6769   6.117   5.316   4.898
 1957SOL    HW1 6770   6.180   5.282   4.967
 1957SOL    HW2 6771   6.130   5.414   4.886
 1958SOL     OW 6772   5.297   2.231   2.428
 1958SOL    HW1 6773   5.298   2.207   2.331
 1958SOL    HW2 6774   5.270   2.151   2.481
 1959SOL     OW 6775   0.466   1.088   5.154
 1959SOL    HW1 6776   0.538   1.113   5.089
 1959SOL    HW2 6777   0.454   0.989   5.154
 1960SOL     OW 6778   6.749   4.417   1.997
 1960SOL    HW1 6779   6.748   4.340   2.060
 1960SOL    HW2 6780   6.713   4.498   2.043
 1961SOL     OW 6781   5.771   4.598   4.209
 1961SOL    HW1 6782   5.719   4.585   4.293
 1961SOL    HW2 6783   5.818   4.686   4.212
 1962SOL     OW 6784   2.474   6.595   3.371
 1962SOL    HW1 6785   2.402   6.657   3.339
 1962SOL    HW2 6786   2.551   6.598   3.307
 1963SOL     OW 6787   0.879   1.138   1.910
 1963SOL    HW1 6788   0.806   1.193   1.951
 1963SOL    HW2 6789   0.838   1.070   1.848
 1964SOL     OW 6790   4.476   4.017   1.204
 1964SOL    HW1 6791   4.448   4.050   1.114
 1964SOL    HW2 6792   4.575   4.016   1.210
 1965SOL     OW 6793   1.237   3.589   4.222
 1965SOL    HW1 6794   1.192   3.509   4.183
 1965SOL    HW2 6795   1.205   3.672   4.177
 1966SOL     OW 6796   6.779   6.133   0.367
 1966SOL    HW1 6797   6.682   6.114   0.349
 1966SOL    HW2 6798   6.786   6.199   0.442
 1967SOL     OW 6799   4.991   2.263   4.733
 1967SOL    HW1 6800   5.039   2.272   4.820
 1967SOL    HW2 6801   4.927   2.340   4.722
 1968SOL     OW 6802   3.227   7.010   0.079
 1968SOL    HW1 6803   3.235   0.053   0.157
 1968SOL    HW2 6804   3.159   6.940   0.099
 1969SOL     OW 6805   0.667   1.749   1.873
 1969SOL    HW1 6806   0.702   1.675   1.816
 1969SOL    HW2 6807   0.568   1.743   1.878
 1970SOL     OW 6808   2.099   6.739   6.074
 1970SOL    HW1 6809   2.069   6.715   6.166
 1970SOL    HW2 6810   2.194   6.711   6.060
 1971SOL     OW 6811   0.310   6.687   5.598
 1971SOL    HW1 6812   0.400   6.651   5.623
 1971SOL    HW2 6813   0.282   6.756   5.665
 1972SOL     OW 6814   5.466   2.416   2.560
 1972SOL    HW1 6815   5.534   2.374   2.619
 1972SOL    HW2 6816   5.415   2.345   2.512
 1973SOL     OW 6817   2.420   2.678   0.159
 1973SOL    HW1 6818   2.421   2.732   0.243
 1973SOL    HW2 6819   2.454   2.586   0.177
 1974SOL     OW 6820   5.522   5.989   3.959
 1974SOL    HW1 6821   5.527   6.045   4.042
 1974SOL    HW2 6822   5.520   5.892   3.984
 1975SOL     OW 6823   2.097   1.422   3.900
 1975SOL    HW1 6824   2.180   1.400   3.848
 1975SOL    HW2 6825   2.120   1.486   3.973
 1976SOL     OW 6826   0.828   6.637   6.332
 1976SOL    HW1 6827   0.919   6.596   6.343
 1976SOL    HW2 6828   0.784   6.647   6.421
 1977SOL     OW 6829   0.799   3.429   4.328
 1977SOL    HW1 6830   0.874   3.490   4.353
 1977SOL    HW2 6831   0.833   3.336   4.321
 1978SOL     OW 6832   1.051   0.161   2.956
 1978SOL    HW1 6833   1.062   0.176   2.858
 1978SOL    HW2 6834   1.141   0.161   3.000
 1979SOL     OW 6835   6.074   4.349   5.676
 1979SOL    HW1 6836   6.051   4.446   5.683
 1979SOL    HW2 6837   6.169   4.341   5.644
 1980SOL     OW 6838   2.598   0.437   5.164
 1980SOL    HW1 6839   2.646   0.470   5.083
 1980SOL    HW2 6840   2.661   0.384   5.221
 1981SOL     OW 6841   6.324   2.020   2.575
 1981SOL    HW1 6842   6.335   2.117   2.593
 1981SOL    HW2 6843   6.277   2.007   2.487
 1982SOL     OW 6844   0.656   4.412   5.029
 1982SOL    HW1 6845   0.712   4.478   5.080
 1982SOL    HW2 6846   0.590   4.462   4.973
 1983SOL     OW 6847   0.660   1.556   2.669
 1983SOL    HW1 6848   0.728   1.491   2.701
 1983SOL    HW2 6849   0.576   1.508   2.645
 1984SOL     OW 6850   6.194   1.828   4.843
 1984SOL    HW1 6851   6.278   1.791   4.884
 1984SOL    HW2 6852   6.140   1.874   4.913
 1985SOL     OW 6853   1.362   6.160   2.142
 1985SOL    HW1 6854   1.361   6.144   2.241
 1985SOL    HW2 6855   1.455   6.152   2.108
 1986SOL     OW 6856   1.419   0.495   0.214
 1986SOL    HW1 6857   1.486   0.550   0.165
 1986SOL    HW2 6858   1.412   0.527   0.308
 1987SOL     OW 6859   2.164   2.358   2.200
 1987SOL    HW1 6860   2.100   2.326   2.130
 1987SOL    HW2 6861   2.123   2.434   2.250
 1988SOL     OW 6862   5.683   4.232   0.818
 1988SOL    HW1 6863   5.682   4.141   0.859
 1988SOL    HW2 6864   5.777   4.263   0.808
 1989SOL     OW 6865   2.155   6.451   4.346
 1989SOL    HW1 6866   2.206   6.490   4.423
 1989SOL    HW2 6867   2.057   6.450   4.367
 1990SOL     OW 6868   2.930   6.504   0.000
 1990SOL    HW1 6869   2.895   6.433   6.960
 1990SOL    HW2 6870   3.026   6.485   0.022
 1991SOL     OW 6871   4.268   4.377   6.122
 1991SOL    HW1 6872   4.271   4.298   6.183
 1991SOL    HW2 6873   4.358   4.420   6.118
 1992SOL     OW 6874   0.635   0.586   6.906
 1992SOL    HW1 6875   0.633   0.536   6.819
 1992SOL    HW2 6876   0.632   0.521   6.982
 1993SOL     OW 6877   3.944   3.152   4.774
 1993SOL    HW1 6878   4.007   3.115   4.842
 1993SOL    HW2 6879   3.884   3.219   4.817
 1994SOL     OW 6880   1.024   0.971   0.356
 1994SOL    HW1 6881   1.016   0.948   0.453
 1994SOL    HW2 6882   1.106   0.928   0.318
 1995SOL     OW 6883   5.543   2.350   3.127
 1995SOL    HW1 6884   5.589   2.418   3.069
 1995SOL    HW2 6885   5.525   2.267   3.073
 1996SOL     OW 6886   2.316   3.479   0.964
 1996SOL    HW1 6887   2.410   3.462   0.992
 1996SOL    HW2 6888   2.299   3.578   0.962
 1997SOL     OW 6889   4.048   1.154   4.901
 1997SOL    HW1 6890   3.982   1.080   4.919
 1997SOL    HW2 6891   4.126   1.144   4.962
 1998SOL     OW 6892   2.417   4.332   6.282
 1998SOL    HW1 6893   2.398   4.331   6.380
 1998SOL    HW2 6894   2.510   4.363   6.266
 1999SOL     OW 6895   3.101   6.620   1.076
 1999SOL    HW1 6896   3.090   6.527   1.111
 1999SOL    HW2 6897   3.026   6.677   1.111
 2000SOL     OW 6898   4.562   2.489   5.173
 2000SOL    HW1 6899   4.613   2.541   5.242
 2000SOL    HW2 6900   4.604   2.502   5.083
 2001SOL     OW 6901   2.607   1.497   2.023
 2001SOL    HW1 6902   2.668   1.439   2.077
 2001SOL    HW2 6903   2.645   1.589   2.017
 2002SOL     OW 6904   0.966   4.569   6.872
 2002SOL    HW1 6905   0.925   4.490   6.916
 2002SOL    HW2 6906   0.895   4.622   6.825
 2003SOL     OW 6907   6.121   6.209   2.253
 2003SOL    HW1 6908   6.078   6.119   2.252
 2003SOL    HW2 6909   6.134   6.239   2.347
 2004SOL     OW 6910   4.798   1.303   5.591
 2004SOL    HW1 6911   4.864   1.344   5.654
 2004SOL    HW2 6912   4.835   1.305   5.498
 2005SOL     OW 6913   1.136   5.143   0.156
 2005SOL    HW1 6914   1.070   5.191   0.098
 2005SOL    HW2 6915   1.226   5.184   0.144
 2006SOL     OW 6916   4.942   6.020   3.710
 2006SOL    HW1 6917   4.893   6.098   3.748
 2006SOL    HW2 6918   4.949   6.029   3.611
 2007SOL     OW 6919   4.259   4.648   0.661
 2007SOL    HW1 6920   4.287   4.704   0.739
 2007SOL    HW2 6921   4.159   4.644   0.658
 2008SOL     OW 6922   2.072   5.153   3.365
 2008SOL    HW1 6923   2.013   5.073   3.359
 2008SOL    HW2 6924   2.033   5.220   3.427
 2009SOL     OW 6925   5.696   0.305   2.203
 2009SOL    HW1 6926   5.747   0.391   2.206
 2009SOL    HW2 6927   5.599   0.325   2.188
 2010SOL     OW 6928   1.634   1.690   1.100
 2010SOL    HW1 6929   1.691   1.608   1.093
 2010SOL    HW2 6930   1.569   1.692   1.024
 2011SOL     OW 6931   6.586   0.834   4.719
 2011SOL    HW1 6932   6.672   0.879   4.742
 2011SOL    HW2 6933   6.549   0.873   4.635
 2012SOL     OW 6934   1.810   3.161   1.996
 2012SOL    HW1 6935   1.897   3.210   2.002
 2012SOL    HW2 6936   1.798   3.127   1.902
 2013SOL     OW 6937   6.258   2.350   3.410
 2013SOL    HW1 6938   6.289   2.266   3.454
 2013SOL    HW2 6939   6.246   2.334   3.312
 2014SOL     OW 6940   2.259   5.331   2.917
 2014SOL    HW1 6941   2.166   5.293   2.924
 2014SOL    HW2 6942   2.318   5.287   2.985
 2015SOL     OW 6943   1.919   1.119   0.407
 2015SOL    HW1 6944   1.850   1.190   0.419
 2015SOL    HW2 6945   1.918   1.058   0.486
 2016SOL     OW 6946   0.689   6.242   4.838
 2016SOL    HW1 6947   0.680   6.340   4.856
 2016SOL    HW2 6948   0.609   6.194   4.874
 2017SOL     OW 6949   2.932   0.281   4.244
 2017SOL    HW1 6950   2.978   0.230   4.317
 2017SOL    HW2 6951   2.913   0.374   4.275
 2018SOL     OW 6952   5.632   6.506   5.270
 2018SOL    HW1 6953   5.597   6.437   5.207
 2018SOL    HW2 6954   5.692   6.462   5.337
 2019SOL     OW 6955   5.527   2.690   0.652
 2019SOL    HW1 6956   5.590   2.712   0.727
 2019SOL    HW2 6957   5.455   2.758   0.648
 2020SOL     OW 6958   1.495   6.200   5.106
 2020SOL    HW1 6959   1.556   6.155   5.042
 2020SOL    HW2 6960   1.511   6.299   5.103
 2021SOL     OW 6961   1.461   5.826   3.581
 2021SOL    HW1 6962   1.390   5.849   3.648
 2021SOL    HW2 6963   1.523   5.758   3.620
 2022SOL     OW 6964   1.656   3.998   3.279
 2022SOL    HW1 6965   1.607   3.977   3.363
 2022SOL    HW2 6966   1.601   3.971   3.200
 2023SOL     OW 6967   6.315   0.943   6.388
 2023SOL    HW1 6968   6.289   0.846   6.382
 2023SOL    HW2 6969   6.245   0.993   6.438
 2024SOL     OW 6970   0.382   6.726   3.433
 2024SOL    HW1 6971   0.390   6.824   3.449
 2024SOL    HW2 6972   0.436   6.676   3.501
 2025SOL     OW 6973   2.415   2.182   3.137
 2025SOL    HW1 6974   2.497   2.228   3.172
 2025SOL    HW2 6975   2.336   2.211   3.190
 2026SOL     OW 6976   0.258   3.181   5.509
 2026SOL    HW1 6977   0.312   3.111   5.556
 2026SOL    HW2 6978   0.285   3.184   5.413
 2027SOL     OW 6979   0.616   0.909   0.603
 2027SOL    HW1 6980   0.699   0.962   0.618
 2027SOL    HW2 6981   0.619   0.868   0.512
 2028SOL     OW 6982   3.045   0.196   4.907
 2028SOL    HW1 6983   3.102   0.266   4.950
 2028SOL    HW2 6984   2.980   0.161   4.974
 2029SOL     OW 6985   6.345   0.957   0.745
 2029SOL    HW1 6986   6.391   0.946   0.833
 2029SOL    HW2 6987   6.369   0.881   0.685
 2030SOL     OW 6988   2.837   0.802   2.879
 2030SOL    HW1 6989   2.808   0.722   2.931
 2030SOL    HW2 6990   2.772   0.877   2.894
 2031SOL     OW 6991   6.295   5.785   1.616
 2031SOL    HW1 6992   6.356   5.748   1.546
 2031SOL    HW2 6993   6.329   5.874   1.647
 2032SOL     OW 6994   5.109   6.797   1.607
 2032SOL    HW1 6995   5.064   6.803   1.518
 2032SOL    HW2 6996   5.059   6.734   1.666
 2033SOL     OW 6997   3.277   3.542   0.077
 2033SOL    HW1 6998   3.204   3.478   0.099
 2033SOL    HW2 6999   3.322   3.571   0.161
 2034SOL     OW 7000   3.277   6.484   5.170
 2034SOL    HW1 7001   3.344   6.529   5.111
 2034SOL    HW2 7002   3.250   6.546   5.244
 2035SOL     OW 7003   0.470   0.661   2.636
 2035SOL    HW1 7004   0.427   0.748   2.611
 2035SOL    HW2 7005   0.425   0.586   2.587
 2036SOL     OW 7006   1.686   4.922   2.699
 2036SOL    HW1 7007   1.686   4.959   2.792
 2036SOL    HW2 7008   1.613   4.854   2.690
 2037SOL     OW 7009   6.656   3.365   5.530
 2037SOL    HW1 7010   6.606   3.392   5.612
 2037SOL    HW2 7011   6.701   3.444   5.489
 2038SOL     OW 7012   1.057   2.257   6.789
 2038SOL    HW1 7013   0.993   2.181   6.802
 2038SOL    HW2 7014   1.027   2.313   6.711
 2039SOL     OW 7015   0.868   5.771   3.362
 2039SOL    HW1 7016   0.936   5.788   3.433
 2039SOL    HW2 7017   0.911   5.725   3.284
 2040SOL     OW 7018   3.123   3.045   4.642
 2040SOL    HW1 7019   3.156   3.028   4.549
 2040SOL    HW2 7020   3.201   3.043   4.705
 2041SOL     OW 7021   0.169   6.256   5.398
 2041SOL    HW1 7022   0.128   6.341   5.365
 2041SOL    HW2 7023   0.230   6.218   5.328
 2042SOL     OW 7024   4.886   4.953   6.516
 2042SOL    HW1 7025   4.956   4.943   6.445
 2042SOL    HW2 7026   4.886   4.871   6.574
 2043SOL     OW 7027   6.740   3.372   3.958
 2043SOL    HW1 7028   6.737   3.300   4.028
 2043SOL    HW2 7029   6.783   3.454   3.996
 2044SOL     OW 7030   6.148   6.678   1.253
 2044SOL    HW1 7031   6.125   6.597   1.200
 2044SOL    HW2 7032   6.065   6.715   1.295
 2045SOL     OW 7033   2.822   4.746   3.702
 2045SOL    HW1 7034   2.909   4.794   3.709
 2045SOL    HW2 7035   2.792   4.717   3.792
 2046SOL     OW 7036   6.522   2.205   3.779
 2046SOL    HW1 7037   6.584   2.163   3.713
 2046SOL    HW2 7038   6.538   2.164   3.870
 2047SOL     OW 7039   6.822   1.669   6.881
 2047SOL    HW1 7040   6.816   1.648   6.979
 2047SOL    HW2 7041   6.733   1.702   6.849
 2048SOL     OW 7042   1.511   6.591   6.606
 2048SOL    HW1 7043   1.506   6.553   6.514
 2048SOL    HW2 7044   1.540   6.520   6.670
 2049SOL     OW 7045   5.769   1.609   5.631
 2049SOL    HW1 7046   5.709   1.538   5.592
 2049SOL    HW2 7047   5.858   1.569   5.651
 2050SOL     OW 7048   0.317   2.864   3.808
 2050SOL    HW1 7049   0.359   2.929   3.744
 2050SOL    HW2 7050   0.265   2.915   3.877
 2051SOL     OW 7051   1.113   5.810   0.393
 2051SOL    HW1 7052   1.017   5.783   0.386
 2051SOL    HW2 7053   1.168   5.752   0.332
 2052SOL     OW 7054   1.356   3.639   0.969
 2052SOL    HW1 7055   1.294   3.718   0.973
 2052SOL    HW2 7056   1.302   3.555   0.958
 2053SOL     OW 7057   5.789   6.687   4.864
 2053SOL    HW1 7058   5.877   6.642   4.850
 2053SOL    HW2 7059   5.767   6.688   4.962
 2054SOL     OW 7060   3.575   3.879   2.803
 2054SOL    HW1 7061   3.488   3.913   2.839
 2054SOL    HW2 7062   3.645   3.883   2.874
 2055SOL     OW 7063   5.945   3.627   3.194
 2055SOL    HW1 7064   5.922   3.709   3.247
 2055SOL    HW2 7065   6.030   3.644   3.143
 2056SOL     OW 7066   3.183   6.313   2.682
 2056SOL    HW1 7067   3.219   6.381   2.746
 2056SOL    HW2 7068   3.084   6.305   2.695
 2057SOL     OW 7069   5.637   3.774   5.123
 2057SOL    HW1 7070   5.544   3.764   5.089
 2057SOL    HW2 7071   5.678   3.683   5.136
 2058SOL     OW 7072   0.374   1.677   3.510
 2058SOL    HW1 7073   0.458   1.705   3.556
 2058SOL    HW2 7074   0.360   1.733   3.428
 2059SOL     OW 7075   1.621   5.893   6.264
 2059SOL    HW1 7076   1.619   5.823   6.193
 2059SOL    HW2 7077   1.715   5.908   6.294
 2060SOL     OW 7078   0.137   4.114   1.169
 2060SOL    HW1 7079   0.078   4.049   1.121
 2060SOL    HW2 7080   0.088   4.200   1.182
 2061SOL     OW 7081   0.107   2.148   3.396
 2061SOL    HW1 7082   0.085   2.079   3.328
 2061SOL    HW2 7083   0.023   2.185   3.435
 2062SOL     OW 7084   5.985   6.968   3.910
 2062SOL    HW1 7085   5.918   6.954   3.838
 2062SOL    HW2 7086   6.028   6.881   3.934
 2063SOL     OW 7087   2.103   0.147   6.291
 2063SOL    HW1 7088   2.094   0.058   6.335
 2063SOL    HW2 7089   2.016   0.196   6.298
 2064SOL     OW 7090   0.913   2.575   5.661
 2064SOL    HW1 7091   0.857   2.501   5.623
 2064SOL    HW2 7092   0.934   2.555   5.756
 2065SOL     OW 7093   6.503   2.664   5.173
 2065SOL    HW1 7094   6.554   2.584   5.203
 2065SOL    HW2 7095   6.540   2.746   5.216
 2066SOL     OW 7096   1.037   5.008   3.906
 2066SOL    HW1 7097   1.079   4.998   3.815
 2066SOL    HW2 7098   1.055   5.100   3.941
 2067SOL     OW 7099   6.471   5.100   1.148
 2067SOL    HW1 7100   6.447   5.003   1.144
 2067SOL    HW2 7101   6.426   5.143   1.226
 2068SOL     OW 7102   1.841   1.285   4.817
 2068SOL    HW1 7103   1.835   1.329   4.907
 2068SOL    HW2 7104   1.780   1.206   4.814
 2069SOL     OW 7105   0.408   2.610   3.791
 2069SOL    HW1 7106   0.389   2.707   3.799
 2069SOL    HW2 7107   0.499   2.597   3.751
 2070SOL     OW 7108   1.430   1.099   1.832
 2070SOL    HW1 7109   1.371   1.125   1.908
 2070SOL    HW2 7110   1.377   1.101   1.747
 2071SOL     OW 7111   6.748   6.127   5.947
 2071SOL    HW1 7112   6.723   6.107   6.042
 2071SOL    HW2 7113   6.716   6.218   5.922
 2072SOL     OW 7114   4.209   6.231   4.201
 2072SOL    HW1 7115   4.264   6.169   4.145
 2072SOL    HW2 7116   4.235   6.325   4.182
 2073SOL     OW 7117   3.933   6.830   4.435
 2073SOL    HW1 7118   3.874   6.901   4.396
 2073SOL    HW2 7119   4.022   6.870   4.457
 2074SOL     OW 7120   1.739   2.364   0.432
 2074SOL    HW1 7121   1.655   2.417   0.436
 2074SOL    HW2 7122   1.720   2.270   0.461
 2075SOL     OW 7123   5.815   3.337   2.357
 2075SOL    HW1 7124   5.745   3.345   2.428
 2075SOL    HW2 7125   5.863   3.424   2.347
 2076SOL     OW 7126   5.948   0.175   0.164
 2076SOL    HW1 7127   5.853   0.143   0.170
 2076SOL    HW2 7128   6.009   0.096   0.162
 2077SOL     OW 7129   5.341   2.748   2.954
 2077SOL    HW1 7130   5.438   2.770   2.959
 2077SOL    HW2 7131   5.287   2.831   2.966
 2078SOL     OW 7132   1.137   5.887   6.062
 2078SOL    HW1 7133   1.133   5.916   5.966
 2078SOL    HW2 7134   1.080   5.806   6.074
 2079SOL     OW 7135   5.532   2.088   3.507
 2079SOL    HW1 7136   5.552   2.153   3.433
 2079SOL    HW2 7137   5.510   2.139   3.590
 2080SOL     OW 7138   1.804   6.912   4.669
 2080SOL    HW1 7139   1.833   6.841   4.734
 2080SOL    HW2 7140   1.880   6.936   4.609
 2081SOL     OW 7141   1.336   5.212   4.482
 2081SOL    HW1 7142   1.331   5.116   4.508
 2081SOL    HW2 7143   1.399   5.260   4.544
 2082SOL     OW 7144   0.551   0.319   2.855
 2082SOL    HW1 7145   0.547   0.341   2.952
 2082SOL    HW2 7146   0.620   0.376   2.810
 2083SOL     OW 7147   6.095   4.848   6.414
 2083SOL    HW1 7148   6.078   4.942   6.384
 2083SOL    HW2 7149   6.066   4.784   6.342
 2084SOL     OW 7150   1.436   3.541   3.149
 2084SOL    HW1 7151   1.399   3.460   3.105
 2084SOL    HW2 7152   1.448   3.524   3.247
 2085SOL     OW 7153   4.419   0.352   6.783
 2085SOL    HW1 7154   4.391   0.264   6.821
 2085SOL    HW2 7155   4.390   0.358   6.688
 2086SOL     OW 7156   4.377   5.895   5.519
 2086SOL    HW1 7157   4.347   5.939   5.604
 2086SOL    HW2 7158   4.436   5.958   5.469
 2087SOL     OW 7159   5.320   0.396   1.201
 2087SOL    HW1 7160   5.325   0.379   1.299
 2087SOL    HW2 7161   5.328   0.310   1.151
 2088SOL     OW 7162   1.353   6.240   0.472
 2088SOL    HW1 7163   1.336   6.303   0.548
 2088SOL    HW2 7164   1.446   6.254   0.437
 2089SOL     OW 7165   5.392   1.860   6.458
 2089SOL    HW1 7166   5.439   1.903   6.381
 2089SOL    HW2 7167   5.354   1.931   6.518
 2090SOL     OW 7168   4.113   2.794   5.730
 2090SOL    HW1 7169   4.114   2.893   5.715
 2090SOL    HW2 7170   4.034   2.754   5.682
 2091SOL     OW 7171   0.449   5.662   0.656
 2091SOL    HW1 7172   0.437   5.690   0.561
 2091SOL    HW2 7173   0.421   5.736   0.717
 2092SOL     OW 7174   5.395   3.454   0.264
 2092SOL    HW1 7175   5.444   3.397   0.199
 2092SOL    HW2 7176   5.345   3.525   0.214
 2093SOL     OW 7177   2.864   2.066   1.529
 2093SOL    HW1 7178   2.900   2.144   1.581
 2093SOL    HW2 7179   2.765   2.059   1.545
 2094SOL     OW 7180   5.830   1.860   2.363
 2094SOL    HW1 7181   5.898   1.854   2.290
 2094SOL    HW2 7182   5.755   1.796   2.344
 2095SOL     OW 7183   6.006   0.102   5.453
 2095SOL    HW1 7184   5.944   0.144   5.387
 2095SOL    HW2 7185   6.090   0.156   5.459
 2096SOL     OW 7186   4.866   3.787   3.023
 2096SOL    HW1 7187   4.857   3.817   2.928
 2096SOL    HW2 7188   4.894   3.691   3.025
 2097SOL     OW 7189   2.926   3.562   6.558
 2097SOL    HW1 7190   3.015   3.553   6.512
 2097SOL    HW2 7191   2.857   3.509   6.509
 2098SOL     OW 7192   3.291   5.706   1.752
 2098SOL    HW1 7193   3.339   5.750   1.827
 2098SOL    HW2 7194   3.207   5.664   1.786
 2099SOL     OW 7195   3.158   2.905   6.322
 2099SOL    HW1 7196   3.159   2.929   6.225
 2099SOL    HW2 7197   3.179   2.807   6.332
 2100SOL     OW 7198   5.354   2.269   6.825
 2100SOL    HW1 7199   5.312   2.321   6.750
 2100SOL    HW2 7200   5.380   2.332   6.898
 2101SOL     OW 7201   0.960   6.740   1.848
 2101SOL    HW1 7202   1.035   6.711   1.789
 2101SOL    HW2 7203   0.986   6.821   1.899
 2102SOL     OW 7204   5.582   4.516   3.035
 2102SOL    HW1 7205   5.618   4.572   3.110
 2102SOL    HW2 7206   5.515   4.568   2.983
 2103SOL     OW 7207   3.783   4.296   6.303
 2103SOL    HW1 7208   3.850   4.225   6.282
 2103SOL    HW2 7209   3.695   4.272   6.260
 2104SOL     OW 7210   1.660   4.792   1.467
 2104SOL    HW1 7211   1.691   4.882   1.438
 2104SOL    HW2 7212   1.658   4.787   1.567
 2105SOL     OW 7213   5.489   5.810   4.965
 2105SOL    HW1 7214   5.420   5.741   4.943
 2105SOL    HW2 7215   5.490   5.826   5.064
 2106SOL     OW 7216   4.868   4.161   1.026
 2106SOL    HW1 7217   4.827   4.119   0.945
 2106SOL    HW2 7218   4.834   4.115   1.108
 2107SOL     OW 7219   5.355   2.880   5.640
 2107SOL    HW1 7220   5.358   2.890   5.739
 2107SOL    HW2 7221   5.439   2.836   5.608
 2108SOL     OW 7222   6.119   5.588   4.859
 2108SOL    HW1 7223   6.210   5.630   4.860
 2108SOL    HW2 7224   6.076   5.603   4.769
 2109SOL     OW 7225   4.184   5.810   2.168
 2109SOL    HW1 7226   4.165   5.739   2.237
 2109SOL    HW2 7227   4.126   5.796   2.089
 2110SOL     OW 7228   1.943   1.502   0.332
 2110SOL    HW1 7229   2.005   1.534   0.404
 2110SOL    HW2 7230   1.930   1.575   0.265
 2111SOL     OW 7231   1.815   2.855   6.668
 2111SOL    HW1 7232   1.784   2.764   6.694
 2111SOL    HW2 7233   1.736   2.914   6.651
 2112SOL     OW 7234   5.751   3.090   0.343
 2112SOL    HW1 7235   5.813   3.074   0.420
 2112SOL    HW2 7236   5.702   3.176   0.358
 2113SOL     OW 7237   2.493   1.988   4.620
 2113SOL    HW1 7238   2.518   1.892   4.634
 2113SOL    HW2 7239   2.524   2.042   4.698
 2114SOL     OW 7240   1.895   2.115   6.119
 2114SOL    HW1 7241   1.988   2.148   6.138
 2114SOL    HW2 7242   1.840   2.122   6.202
 2115SOL     OW 7243   1.893   4.049   3.427
 2115SOL    HW1 7244   1.814   4.040   3.365
 2115SOL    HW2 7245   1.972   4.003   3.386
 2116SOL     OW 7246   0.944   5.137   3.385
 2116SOL    HW1 7247   0.951   5.234   3.363
 2116SOL    HW2 7248   1.031   5.091   3.366
 2117SOL     OW 7249   6.854   4.661   1.702
 2117SOL    HW1 7250   6.855   4.656   1.602
 2117SOL    HW2 7251   6.900   4.580   1.739
 2118SOL     OW 7252   6.229   3.134   2.932
 2118SOL    HW1 7253   6.273   3.224   2.933
 2118SOL    HW2 7254   6.135   3.143   2.899
 2119SOL     OW 7255   1.107   0.243   1.305
 2119SOL    HW1 7256   1.026   0.185   1.312
 2119SOL    HW2 7257   1.183   0.202   1.356
 2120SOL     OW 7258   0.522   4.777   3.549
 2120SOL    HW1 7259   0.610   4.824   3.553
 2120SOL    HW2 7260   0.507   4.729   3.636
 2121SOL     OW 7261   1.453   4.134   6.511
 2121SOL    HW1 7262   1.425   4.143   6.415
 2121SOL    HW2 7263   1.448   4.038   6.538
 2122SOL     OW 7264   5.557   4.360   5.639
 2122SOL    HW1 7265   5.602   4.377   5.552
 2122SOL    HW2 7266   5.625   4.354   5.712
 2123SOL     OW 7267   0.257   5.185   2.709
 2123SOL    HW1 7268   0.171   5.162   2.665
 2123SOL    HW2 7269   0.239   5.244   2.788
 2124SOL     OW 7270   3.303   2.229   1.010
 2124SOL    HW1 7271   3.267   2.179   1.088
 2124SOL    HW2 7272   3.247   2.311   0.994
 2125SOL     OW 7273   1.957   0.813   2.493
 2125SOL    HW1 7274   1.866   0.798   2.533
 2125SOL    HW2 7275   1.949   0.877   2.416
 2126SOL     OW 7276   3.616   2.137   6.353
 2126SOL    HW1 7277   3.630   2.232   6.323
 2126SOL    HW2 7278   3.518   2.119   6.362
 2127SOL     OW 7279   1.062   2.772   5.561
 2127SOL    HW1 7280   1.153   2.748   5.528
 2127SOL    HW2 7281   1.016   2.690   5.594
 2128SOL     OW 7282   6.294   3.651   3.976
 2128SOL    HW1 7283   6.324   3.746   3.971
 2128SOL    HW2 7284   6.198   3.644   3.948
 2129SOL     OW 7285   4.335   3.357   5.434
 2129SOL    HW1 7286   4.300   3.313   5.517
 2129SOL    HW2 7287   4.305   3.452   5.432
 2130SOL     OW 7288   3.941   0.472   3.100
 2130SOL    HW1 7289   3.874   0.405   3.071
 2130SOL    HW2 7290   3.992   0.437   3.178
 2131SOL     OW 7291   4.709   1.388   0.103
 2131SOL    HW1 7292   4.793   1.407   0.153
 2131SOL    HW2 7293   4.682   1.469   0.051
 2132SOL     OW 7294   3.401   0.200   0.943
 2132SOL    HW1 7295   3.390   0.201   1.042
 2132SOL    HW2 7296   3.498   0.208   0.920
 2133SOL     OW 7297   3.143   2.640   0.778
 2133SOL    HW1 7298   3.139   2.713   0.846
 2133SOL    HW2 7299   3.146   2.680   0.686
 2134SOL     OW 7300   0.402   0.920   5.966
 2134SOL    HW1 7301   0.351   0.900   6.050
 2134SOL    HW2 7302   0.362   0.869   5.890
 2135SOL     OW 7303   1.473   3.531   5.173
 2135SOL    HW1 7304   1.466   3.510   5.270
 2135SOL    HW2 7305   1.410   3.604   5.150
 2136SOL     OW 7306   0.917   3.845   4.224
 2136SOL    HW1 7307   0.873   3.934   4.214
 2136SOL    HW2 7308   0.939   3.808   4.134
 2137SOL     OW 7309   1.914   5.505   4.424
 2137SOL    HW1 7310   1.861   5.563   4.363
 2137SOL    HW2 7311   1.974   5.446   4.369
 2138SOL     OW 7312   6.411   0.647   2.709
 2138SOL    HW1 7313   6.487   0.583   2.695
 2138SOL    HW2 7314   6.427   0.730   2.656
 2139SOL     OW 7315   3.547   0.446   2.975
 2139SOL    HW1 7316   3.476   0.430   3.045
 2139SOL    HW2 7317   3.523   0.396   2.892
 2140SOL     OW 7318   3.902   6.293   4.281
 2140SOL    HW1 7319   3.825   6.232   4.263
 2140SOL    HW2 7320   3.949   6.265   4.364
 2141SOL     OW 7321   6.281   3.962   2.709
 2141SOL    HW1 7322   6.358   3.899   2.719
 2141SOL    HW2 7323   6.298   4.023   2.631
 2142SOL     OW 7324   1.186   2.252   3.300
 2142SOL    HW1 7325   1.163   2.218   3.208
 2142SOL    HW2 7326   1.262   2.316   3.293
 2143SOL     OW 7327   2.997   4.508   1.443
 2143SOL    HW1 7328   3.042   4.535   1.528
 2143SOL    HW2 7329   2.916   4.453   1.463
 2144SOL     OW 7330   1.280   5.360   4.259
 2144SOL    HW1 7331   1.212   5.419   4.304
 2144SOL    HW2 7332   1.312   5.291   4.323
 2145SOL     OW 7333   4.260   6.165   4.468
 2145SOL    HW1 7334   4.247   6.181   4.370
 2145SOL    HW2 7335   4.190   6.215   4.520
 2146SOL     OW 7336   2.656   3.726   1.702
 2146SOL    HW1 7337   2.669   3.664   1.625
 2146SOL    HW2 7338   2.573   3.779   1.690
 2147SOL     OW 7339   6.578   1.509   5.816
 2147SOL    HW1 7340   6.594   1.419   5.776
 2147SOL    HW2 7341   6.640   1.522   5.894
 2148SOL     OW 7342   5.505   1.932   5.658
 2148SOL    HW1 7343   5.462   1.979   5.735
 2148SOL    HW2 7344   5.547   1.999   5.597
 2149SOL     OW 7345   3.439   2.499   1.076
 2149SOL    HW1 7346   3.534   2.476   1.052
 2149SOL    HW2 7347   3.381   2.419   1.062
 2150SOL     OW 7348   3.074   1.901   2.659
 2150SOL    HW1 7349   3.078   1.829   2.729
 2150SOL    HW2 7350   2.987   1.894   2.610
 2151SOL     OW 7351   1.501   0.628   4.798
 2151SOL    HW1 7352   1.450   0.708   4.828
 2151SOL    HW2 7353   1.548   0.587   4.876
 2152SOL     OW 7354   3.784   5.800   1.214
 2152SOL    HW1 7355   3.770   5.851   1.129
 2152SOL    HW2 7356   3.698   5.758   1.241
 2153SOL     OW 7357   3.682   0.714   2.941
 2153SOL    HW1 7358   3.780   0.697   2.929
 2153SOL    HW2 7359   3.641   0.636   2.987
 2154SOL     OW 7360   4.812   6.964   5.047
 2154SOL    HW1 7361   4.904   7.001   5.055
 2154SOL    HW2 7362   4.796   6.934   4.953
 2155SOL     OW 7363   2.054   6.097   0.032
 2155SOL    HW1 7364   2.077   6.035   0.106
 2155SOL    HW2 7365   2.033   6.188   0.070
 2156SOL     OW 7366   2.429   1.296   4.715
 2156SOL    HW1 7367   2.372   1.319   4.794
 2156SOL    HW2 7368   2.372   1.254   4.645
 2157SOL     OW 7369   6.131   0.775   3.477
 2157SOL    HW1 7370   6.182   0.691   3.497
 2157SOL    HW2 7371   6.092   0.768   3.385
 2158SOL     OW 7372   3.988   6.173   0.983
 2158SOL    HW1 7373   3.945   6.253   0.941
 2158SOL    HW2 7374   4.079   6.197   1.016
 2159SOL     OW 7375   1.883   6.397   5.418
 2159SOL    HW1 7376   1.956   6.342   5.377
 2159SOL    HW2 7377   1.846   6.459   5.349
 2160SOL     OW 7378   3.894   3.918   0.463
 2160SOL    HW1 7379   3.857   3.889   0.551
 2160SOL    HW2 7380   3.823   3.963   0.410
 2161SOL     OW 7381   5.327   4.542   3.324
 2161SOL    HW1 7382   5.339   4.476   3.250
 2161SOL    HW2 7383   5.407   4.601   3.331
 2162SOL     OW 7384   2.444   1.004   1.661
 2162SOL    HW1 7385   2.457   1.099   1.630
 2162SOL    HW2 7386   2.346   0.984   1.667
 2163SOL     OW 7387   0.748   4.683   6.455
 2163SOL    HW1 7388   0.700   4.640   6.379
 2163SOL    HW2 7389   0.739   4.782   6.449
 2164SOL     OW 7390   1.513   3.231   6.869
 2164SOL    HW1 7391   1.467   3.282   6.796
 2164SOL    HW2 7392   1.452   3.224   6.948
 2165SOL     OW 7393   0.363   2.267   2.777
 2165SOL    HW1 7394   0.379   2.333   2.704
 2165SOL    HW2 7395   0.414   2.294   2.859
 2166SOL     OW 7396   1.440   2.252   4.824
 2166SOL    HW1 7397   1.475   2.305   4.746
 2166SOL    HW2 7398   1.424   2.158   4.795
 2167SOL     OW 7399   1.676   1.497   3.752
 2167SOL    HW1 7400   1.623   1.449   3.822
 2167SOL    HW2 7401   1.613   1.546   3.691
 2168SOL     OW 7402   0.705   2.056   3.935
 2168SOL    HW1 7403   0.750   2.142   3.961
 2168SOL    HW2 7404   0.771   1.981   3.939
 2169SOL     OW 7405   5.371   1.335   6.126
 2169SOL    HW1 7406   5.407   1.337   6.032
 2169SOL    HW2 7407   5.287   1.387   6.131
 2170SOL     OW 7408   6.653   5.222   5.565
 2170SOL    HW1 7409   6.670   5.125   5.576
 2170SOL    HW2 7410   6.622   5.260   5.653
 2171SOL     OW 7411   0.223   4.110   1.787
 2171SOL    HW1 7412   0.192   4.015   1.779
 2171SOL    HW2 7413   0.265   4.124   1.876
 2172SOL     OW 7414   2.484   2.696   0.456
 2172SOL    HW1 7415   2.515   2.607   0.424
 2172SOL    HW2 7416   2.503   2.706   0.554
 2173SOL     OW 7417   4.127   0.684   5.217
 2173SOL    HW1 7418   4.184   0.730   5.150
 2173SOL    HW2 7419   4.171   0.599   5.246
 2174SOL     OW 7420   5.150   6.095   5.166
 2174SOL    HW1 7421   5.150   6.167   5.235
 2174SOL    HW2 7422   5.080   6.115   5.097
 2175SOL     OW 7423   2.354   2.491   4.181
 2175SOL    HW1 7424   2.296   2.426   4.231
 2175SOL    HW2 7425   2.349   2.580   4.224
 2176SOL     OW 7426   0.793   2.185   0.280
 2176SOL    HW1 7427   0.819   2.282   0.273
 2176SOL    HW2 7428   0.702   2.178   0.320
 2177SOL     OW 7429   5.715   1.714   3.750
 2177SOL    HW1 7430   5.787   1.654   3.785
 2177SOL    HW2 7431   5.674   1.764   3.826
 2178SOL     OW 7432   1.645   2.684   0.962
 2178SOL    HW1 7433   1.629   2.611   0.894
 2178SOL    HW2 7434   1.575   2.679   1.033
 2179SOL     OW 7435   1.823   5.539   4.932
 2179SOL    HW1 7436   1.796   5.624   4.887
 2179SOL    HW2 7437   1.776   5.462   4.888
 2180SOL     OW 7438   2.035   2.768   1.631
 2180SOL    HW1 7439   1.956   2.753   1.690
 2180SOL    HW2 7440   2.080   2.853   1.655
 2181SOL     OW 7441   4.312   5.103   4.943
 2181SOL    HW1 7442   4.375   5.091   5.020
 2181SOL    HW2 7443   4.295   5.015   4.900
 2182SOL     OW 7444   0.990   3.523   4.662
 2182SOL    HW1 7445   1.062   3.457   4.640
 2182SOL    HW2 7446   0.970   3.578   4.581
 2183SOL     OW 7447   2.854   4.281   6.320
 2183SOL    HW1 7448   2.793   4.359   6.302
 2183SOL    HW2 7449   2.848   4.255   6.416
 2184SOL     OW 7450   4.488   2.212   6.980
 2184SOL    HW1 7451   4.553   2.245   0.028
 2184SOL    HW2 7452   4.407   2.270   6.979
 2185SOL     OW 7453   1.501   2.275   1.025
 2185SOL    HW1 7454   1.592   2.270   1.067
 2185SOL    HW2 7455   1.488   2.195   0.966
 2186SOL     OW 7456   0.439   5.649   2.027
 2186SOL    HW1 7457   0.340   5.662   2.022
 2186SOL    HW2 7458   0.469   5.661   2.122
 2187SOL     OW 7459   6.803   0.827   2.507
 2187SOL    HW1 7460   6.807   0.776   2.421
 2187SOL    HW2 7461   6.818   0.924   2.490
 2188SOL     OW 7462   6.123   6.517   5.087
 2188SOL    HW1 7463   6.173   6.532   5.002
 2188SOL    HW2 7464   6.188   6.505   5.163
 2189SOL     OW 7465   1.887   0.257   0.605
 2189SOL    HW1 7466   1.938   0.338   0.575
 2189SOL    HW2 7467   1.919   0.229   0.695
 2190SOL     OW 7468   7.002   3.142   1.984
 2190SOL    HW1 7469   6.921   3.194   2.012
 2190SOL    HW2 7470   6.989   3.046   2.007
 2191SOL     OW 7471   2.870   2.039   6.825
 2191SOL    HW1 7472   2.800   2.109   6.807
 2191SOL    HW2 7473   2.911   2.010   6.738
 2192SOL     OW 7474   3.536   1.478   2.841
 2192SOL    HW1 7475   3.535   1.386   2.881
 2192SOL    HW2 7476   3.581   1.541   2.904
 2193SOL     OW 7477   6.594   5.660   6.108
 2193SOL    HW1 7478   6.639   5.702   6.029
 2193SOL    HW2 7479   6.629   5.701   6.192
 2194SOL     OW 7480   2.455   4.711   6.265
 2194SOL    HW1 7481   2.370   4.680   6.221
 2194SOL    HW2 7482   2.469   4.808   6.246
 2195SOL     OW 7483   6.986   0.301   3.925
 2195SOL    HW1 7484   6.916   0.263   3.986
 2195SOL    HW2 7485   6.943   0.343   3.846
 2196SOL     OW 7486   3.376   0.145   5.054
 2196SOL    HW1 7487   3.287   0.141   5.098
 2196SOL    HW2 7488   3.442   0.187   5.116
 2197SOL     OW 7489   3.278   3.426   0.970
 2197SOL    HW1 7490   3.212   3.401   0.900
 2197SOL    HW2 7491   3.233   3.482   1.039
 2198SOL     OW 7492   6.672   1.623   0.358
 2198SOL    HW1 7493   6.581   1.647   0.393
 2198SOL    HW2 7494   6.738   1.627   0.432
 2199SOL     OW 7495   5.420   1.247   3.272
 2199SOL    HW1 7496   5.439   1.303   3.353
 2199SOL    HW2 7497   5.391   1.156   3.301
 2200SOL     OW 7498   2.566   0.510   4.746
 2200SOL    HW1 7499   2.657   0.482   4.778
 2200SOL    HW2 7500   2.515   0.550   4.822
 2201SOL     OW 7501   6.522   2.902   3.643
 2201SOL    HW1 7502   6.543   2.928   3.737
 2201SOL    HW2 7503   6.499   2.983   3.590
 2202SOL     OW 7504   2.833   4.931   2.307
 2202SOL    HW1 7505   2.897   5.007   2.320
 2202SOL    HW2 7506   2.859   4.879   2.225
 2203SOL     OW 7507   2.078   2.711   1.382
 2203SOL    HW1 7508   2.052   2.721   1.478
 2203SOL    HW2 7509   1.995   2.704   1.325
 2204SOL     OW 7510   4.117   1.039   0.483
 2204SOL    HW1 7511   4.125   1.022   0.581
 2204SOL    HW2 7512   4.179   1.112   0.457
 2205SOL     OW 7513   1.459   0.559   5.712
 2205SOL    HW1 7514   1.410   0.642   5.685
 2205SOL    HW2 7515   1.540   0.548   5.655
 2206SOL     OW 7516   3.112   4.465   6.571
 2206SOL    HW1 7517   3.123   4.547   6.516
 2206SOL    HW2 7518   3.108   4.490   6.668
 2207SOL     OW 7519   2.952   4.583   0.026
 2207SOL    HW1 7520   2.887   4.555   0.097
 2207SOL    HW2 7521   2.902   4.620   6.968
 2208SOL     OW 7522   1.645   6.331   2.554
 2208SOL    HW1 7523   1.701   6.283   2.622
 2208SOL    HW2 7524   1.643   6.278   2.469
 2209SOL     OW 7525   1.589   6.161   5.532
 2209SOL    HW1 7526   1.508   6.182   5.587
 2209SOL    HW2 7527   1.637   6.246   5.511
 2210SOL     OW 7528   6.683   5.005   3.733
 2210SOL    HW1 7529   6.696   5.104   3.744
 2210SOL    HW2 7530   6.590   4.987   3.703
 2211SOL     OW 7531   5.286   0.835   0.394
 2211SOL    HW1 7532   5.218   0.862   0.463
 2211SOL    HW2 7533   5.296   0.909   0.327
 2212SOL     OW 7534   1.629   6.285   6.971
 2212SOL    HW1 7535   1.704   6.348   6.949
 2212SOL    HW2 7536   1.595   6.306   0.043
 2213SOL     OW 7537   3.698   2.712   5.270
 2213SOL    HW1 7538   3.690   2.739   5.174
 2213SOL    HW2 7539   3.628   2.758   5.324
 2214SOL     OW 7540   3.708   2.856   4.814
 2214SOL    HW1 7541   3.772   2.912   4.867
 2214SOL    HW2 7542   3.737   2.760   4.817
 2215SOL     OW 7543   6.880   1.846   0.146
 2215SOL    HW1 7544   6.823   1.859   0.227
 2215SOL    HW2 7545   6.888   1.749   0.126
 2216SOL     OW 7546   2.201   0.638   5.820
 2216SOL    HW1 7547   2.204   0.717   5.882
 2216SOL    HW2 7548   2.208   0.670   5.725
 2217SOL     OW 7549   3.737   6.459   1.489
 2217SOL    HW1 7550   3.804   6.529   1.469
 2217SOL    HW2 7551   3.693   6.478   1.577
 2218SOL     OW 7552   0.778   6.872   0.226
 2218SOL    HW1 7553   0.849   6.807   0.201
 2218SOL    HW2 7554   0.814   6.965   0.224
 2219SOL     OW 7555   5.880   1.763   2.089
 2219SOL    HW1 7556   5.934   1.682   2.111
 2219SOL    HW2 7557   5.826   1.745   2.007
 2220SOL     OW 7558   1.394   0.224   4.329
 2220SOL    HW1 7559   1.468   0.282   4.295
 2220SOL    HW2 7560   1.432   0.137   4.359
 2221SOL     OW 7561   5.733   0.649   5.174
 2221SOL    HW1 7562   5.662   0.695   5.227
 2221SOL    HW2 7563   5.822   0.685   5.200
 2222SOL     OW 7564   4.493   7.019   0.783
 2222SOL    HW1 7565   4.405   0.033   0.816
 2222SOL    HW2 7566   4.490   6.920   0.771
 2223SOL     OW 7567   5.983   0.834   4.580
 2223SOL    HW1 7568   6.041   0.879   4.648
 2223SOL    HW2 7569   5.898   0.885   4.570
 2224SOL     OW 7570   1.988   4.235   1.342
 2224SOL    HW1 7571   2.039   4.160   1.383
 2224SOL    HW2 7572   2.014   4.244   1.245
 2225SOL     OW 7573   6.084   6.374   2.997
 2225SOL    HW1 7574   6.038   6.357   2.910
 2225SOL    HW2 7575   6.080   6.471   3.019
 2226SOL     OW 7576   4.147   4.591   1.022
 2226SOL    HW1 7577   4.085   4.624   0.952
 2226SOL    HW2 7578   4.095   4.547   1.095
 2227SOL     OW 7579   5.685   3.547   0.851
 2227SOL    HW1 7580   5.717   3.503   0.767
 2227SOL    HW2 7581   5.590   3.575   0.840
 2228SOL     OW 7582   2.830   5.134   1.342
 2228SOL    HW1 7583   2.861   5.198   1.412
 2228SOL    HW2 7584   2.770   5.066   1.384
 2229SOL     OW 7585   4.340   1.594   4.381
 2229SOL    HW1 7586   4.396   1.673   4.404
 2229SOL    HW2 7587   4.399   1.519   4.350
 2230SOL     OW 7588   5.711   5.926   6.633
 2230SOL    HW1 7589   5.740   5.918   6.538
 2230SOL    HW2 7590   5.757   5.857   6.688
 2231SOL     OW 7591   0.611   0.598   2.286
 2231SOL    HW1 7592   0.653   0.599   2.196
 2231SOL    HW2 7593   0.612   0.504   2.322
 2232SOL     OW 7594   0.655   3.259   4.869
 2232SOL    HW1 7595   0.719   3.219   4.804
 2232SOL    HW2 7596   0.702   3.277   4.956
 2233SOL     OW 7597   2.508   4.220   1.080
 2233SOL    HW1 7598   2.563   4.290   1.125
 2233SOL    HW2 7599   2.563   4.174   1.011
 2234SOL     OW 7600   4.070   1.979   1.862
 2234SOL    HW1 7601   4.058   2.077   1.873
 2234SOL    HW2 7602   4.114   1.960   1.774
 2235SOL     OW 7603   2.456   0.395   1.596
 2235SOL    HW1 7604   2.364   0.427   1.618
 2235SOL    HW2 7605   2.490   0.444   1.516
 2236SOL     OW 7606   1.228   4.558   6.638
 2236SOL    HW1 7607   1.327   4.558   6.627
 2236SOL    HW2 7608   1.203   4.510   6.722
 2237SOL     OW 7609   5.593   5.017   3.712
 2237SOL    HW1 7610   5.684   5.036   3.675
 2237SOL    HW2 7611   5.599   5.007   3.811
 2238SOL     OW 7612   5.481   4.659   0.870
 2238SOL    HW1 7613   5.414   4.703   0.930
 2238SOL    HW2 7614   5.495   4.564   0.899
 2239SOL     OW 7615   3.260   4.929   3.156
 2239SOL    HW1 7616   3.220   4.918   3.247
 2239SOL    HW2 7617   3.194   4.900   3.087
 2240SOL     OW 7618   4.693   5.940   3.521
 2240SOL    HW1 7619   4.613   5.882   3.514
 2240SOL    HW2 7620   4.725   5.943   3.615
 2241SOL     OW 7621   0.061   6.643   2.700
 2241SOL    HW1 7622   0.149   6.628   2.744
 2241SOL    HW2 7623   7.007   6.624   2.765
 2242SOL     OW 7624   4.937   1.615   3.061
 2242SOL    HW1 7625   4.911   1.565   3.144
 2242SOL    HW2 7626   4.891   1.703   3.059
 2243SOL     OW 7627   2.968   6.123   5.768
 2243SOL    HW1 7628   2.972   6.222   5.782
 2243SOL    HW2 7629   2.890   6.085   5.819
 2244SOL     OW 7630   2.328   6.609   2.224
 2244SOL    HW1 7631   2.348   6.602   2.127
 2244SOL    HW2 7632   2.232   6.632   2.237
 2245SOL     OW 7633   0.302   1.971   1.988
 2245SOL    HW1 7634   0.316   1.876   1.960
 2245SOL    HW2 7635   0.359   1.991   2.067
 2246SOL     OW 7636   0.756   1.425   5.743
 2246SOL    HW1 7637   0.682   1.492   5.741
 2246SOL    HW2 7638   0.760   1.384   5.834
 2247SOL     OW 7639   3.146   3.308   4.845
 2247SOL    HW1 7640   3.224   3.310   4.783
 2247SOL    HW2 7641   3.123   3.212   4.865
 2248SOL     OW 7642   4.020   4.375   5.988
 2248SOL    HW1 7643   3.949   4.305   6.000
 2248SOL    HW2 7644   4.105   4.343   6.029
 2249SOL     OW 7645   6.281   6.535   2.752
 2249SOL    HW1 7646   6.336   6.484   2.685
 2249SOL    HW2 7647   6.341   6.574   2.821
 2250SOL     OW 7648   4.250   3.034   0.010
 2250SOL    HW1 7649   4.325   3.067   0.067
 2250SOL    HW2 7650   4.258   2.935   7.017
 2251SOL     OW 7651   4.988   0.828   0.252
 2251SOL    HW1 7652   4.945   0.770   0.184
 2251SOL    HW2 7653   4.937   0.824   0.338
 2252SOL     OW 7654   5.328   2.558   2.770
 2252SOL    HW1 7655   5.398   2.576   2.701
 2252SOL    HW2 7656   5.335   2.625   2.843
 2253SOL     OW 7657   1.303   3.527   6.465
 2253SOL    HW1 7658   1.324   3.461   6.392
 2253SOL    HW2 7659   1.231   3.589   6.435
 2254SOL     OW 7660   3.666   3.534   5.252
 2254SOL    HW1 7661   3.586   3.480   5.280
 2254SOL    HW2 7662   3.639   3.628   5.234
 2255SOL     OW 7663   5.160   2.678   6.530
 2255SOL    HW1 7664   5.152   2.583   6.501
 2255SOL    HW2 7665   5.193   2.682   6.624
 2256SOL     OW 7666   4.838   5.732   1.305
 2256SOL    HW1 7667   4.847   5.824   1.267
 2256SOL    HW2 7668   4.926   5.684   1.295
 2257SOL     OW 7669   0.486   2.111   4.248
 2257SOL    HW1 7670   0.468   2.013   4.241
 2257SOL    HW2 7671   0.519   2.146   4.161
 2258SOL     OW 7672   1.389   5.441   5.756
 2258SOL    HW1 7673   1.449   5.444   5.836
 2258SOL    HW2 7674   1.430   5.382   5.686
 2259SOL     OW 7675   5.296   4.082   6.755
 2259SOL    HW1 7676   5.362   4.057   6.826
 2259SOL    HW2 7677   5.268   4.177   6.767
 2260SOL     OW 7678   5.883   4.625   2.995
 2260SOL    HW1 7679   5.922   4.571   2.920
 2260SOL    HW2 7680   5.862   4.565   3.072
 2261SOL     OW 7681   6.747   5.436   0.198
 2261SOL    HW1 7682   6.764   5.498   0.274
 2261SOL    HW2 7683   6.691   5.483   0.129
 2262SOL     OW 7684   5.405   1.517   1.937
 2262SOL    HW1 7685   5.371   1.505   2.030
 2262SOL    HW2 7686   5.436   1.612   1.925
 2263SOL     OW 7687   2.735   5.743   6.909
 2263SOL    HW1 7688   2.762   5.703   6.996
 2263SOL    HW2 7689   2.794   5.709   6.836
 2264SOL     OW 7690   3.381   3.471   0.670
 2264SOL    HW1 7691   3.319   3.427   0.735
 2264SOL    HW2 7692   3.331   3.492   0.585
 2265SOL     OW 7693   0.333   1.000   4.346
 2265SOL    HW1 7694   0.418   1.052   4.350
 2265SOL    HW2 7695   0.268   1.037   4.411
 2266SOL     OW 7696   6.175   1.994   1.351
 2266SOL    HW1 7697   6.118   2.071   1.382
 2266SOL    HW2 7698   6.131   1.950   1.272
 2267SOL     OW 7699   5.063   2.673   4.872
 2267SOL    HW1 7700   5.018   2.645   4.957
 2267SOL    HW2 7701   5.000   2.661   4.795
 2268SOL     OW 7702   6.685   3.674   6.533
 2268SOL    HW1 7703   6.771   3.711   6.499
 2268SOL    HW2 7704   6.636   3.744   6.584
 2269SOL     OW 7705   5.865   5.953   5.167
 2269SOL    HW1 7706   5.962   5.968   5.147
 2269SOL    HW2 7707   5.854   5.871   5.223
 2270SOL     OW 7708   3.609   2.406   6.280
 2270SOL    HW1 7709   3.578   2.497   6.307
 2270SOL    HW2 7710   3.634   2.407   6.184
 2271SOL     OW 7711   6.070   4.388   0.482
 2271SOL    HW1 7712   5.975   4.414   0.463
 2271SOL    HW2 7713   6.100   4.321   0.413
 2272SOL     OW 7714   5.879   1.740   6.077
 2272SOL    HW1 7715   5.955   1.676   6.067
 2272SOL    HW2 7716   5.862   1.784   5.989
 2273SOL     OW 7717   2.009   0.182   2.286
 2273SOL    HW1 7718   2.041   0.125   2.210
 2273SOL    HW2 7719   2.087   0.213   2.339
 2274SOL     OW 7720   0.948   2.998   6.175
 2274SOL    HW1 7721   1.015   3.036   6.111
 2274SOL    HW2 7722   0.927   3.064   6.246
 2275SOL     OW 7723   6.159   0.758   3.827
 2275SOL    HW1 7724   6.069   0.724   3.802
 2275SOL    HW2 7725   6.195   0.705   3.904
 2276SOL     OW 7726   2.879   5.332   1.532
 2276SOL    HW1 7727   2.967   5.378   1.549
 2276SOL    HW2 7728   2.828   5.325   1.618
 2277SOL     OW 7729   3.179   3.730   5.466
 2277SOL    HW1 7730   3.099   3.789   5.456
 2277SOL    HW2 7731   3.221   3.716   5.376
 2278SOL     OW 7732   6.941   5.004   3.868
 2278SOL    HW1 7733   6.852   4.979   3.832
 2278SOL    HW2 7734   6.931   5.039   3.961
 2279SOL     OW 7735   4.859   5.916   4.876
 2279SOL    HW1 7736   4.818   5.825   4.881
 2279SOL    HW2 7737   4.931   5.915   4.807
 2280SOL     OW 7738   6.819   6.266   4.261
 2280SOL    HW1 7739   6.779   6.332   4.198
 2280SOL    HW2 7740   6.916   6.253   4.239
 2281SOL     OW 7741   3.213   1.402   1.367
 2281SOL    HW1 7742   3.201   1.319   1.421
 2281SOL    HW2 7743   3.126   1.424   1.322
 2282SOL     OW 7744   4.524   6.092   5.194
 2282SOL    HW1 7745   4.582   6.086   5.112
 2282SOL    HW2 7746   4.497   6.187   5.209
 2283SOL     OW 7747   6.979   4.451   1.832
 2283SOL    HW1 7748   0.044   4.444   1.885
 2283SOL    HW2 7749   6.901   4.437   1.892
 2284SOL     OW 7750   2.009   2.319   0.513
 2284SOL    HW1 7751   1.912   2.331   0.493
 2284SOL    HW2 7752   2.054   2.409   0.516
 2285SOL     OW 7753   1.794   2.302   0.858
 2285SOL    HW1 7754   1.887   2.338   0.855
 2285SOL    HW2 7755   1.759   2.309   0.952
 2286SOL     OW 7756   0.193   0.356   4.451
 2286SOL    HW1 7757   0.136   0.289   4.403
 2286SOL    HW2 7758   0.254   0.401   4.385
 2287SOL     OW 7759   1.848   1.401   3.152
 2287SOL    HW1 7760   1.869   1.482   3.207
 2287SOL    HW2 7761   1.756   1.369   3.172
 2288SOL     OW 7762   6.090   5.285   4.392
 2288SOL    HW1 7763   6.047   5.252   4.476
 2288SOL    HW2 7764   6.020   5.304   4.324
 2289SOL     OW 7765   6.695   4.418   2.700
 2289SOL    HW1 7766   6.721   4.513   2.710
 2289SOL    HW2 7767   6.610   4.401   2.751
 2290SOL     OW 7768   1.534   3.810   2.127
 2290SOL    HW1 7769   1.526   3.909   2.140
 2290SOL    HW2 7770   1.452   3.775   2.083
 2291SOL     OW 7771   2.190   2.518   6.420
 2291SOL    HW1 7772   2.109   2.577   6.426
 2291SOL    HW2 7773   2.195   2.459   6.500
 2292SOL     OW 7774   5.698   3.097   4.150
 2292SOL    HW1 7775   5.607   3.098   4.191
 2292SOL    HW2 7776   5.694   3.136   4.058
 2293SOL     OW 7777   5.501   6.485   0.888
 2293SOL    HW1 7778   5.496   6.392   0.851
 2293SOL    HW2 7779   5.455   6.488   0.976
 2294SOL     OW 7780   3.704   0.794   6.423
 2294SOL    HW1 7781   3.722   0.701   6.389
 2294SOL    HW2 7782   3.663   0.848   6.350
 2295SOL     OW 7783   0.444   1.427   2.556
 2295SOL    HW1 7784   0.402   1.350   2.604
 2295SOL    HW2 7785   0.495   1.393   2.477
 2296SOL     OW 7786   3.258   5.677   2.210
 2296SOL    HW1 7787   3.342   5.698   2.261
 2296SOL    HW2 7788   3.212   5.762   2.186
 2297SOL     OW 7789   5.094   4.130   5.304
 2297SOL    HW1 7790   5.155   4.158   5.377
 2297SOL    HW2 7791   5.119   4.178   5.219
 2298SOL     OW 7792   4.107   3.448   1.757
 2298SOL    HW1 7793   4.112   3.384   1.680
 2298SOL    HW2 7794   4.150   3.534   1.731
 2299SOL     OW 7795   4.717   4.739   5.098
 2299SOL    HW1 7796   4.805   4.754   5.144
 2299SOL    HW2 7797   4.646   4.792   5.145
 2300SOL     OW 7798   2.554   5.992   2.329
 2300SOL    HW1 7799   2.606   6.066   2.288
 2300SOL    HW2 7800   2.567   5.993   2.428
 2301SOL     OW 7801   3.587   2.870   3.237
 2301SOL    HW1 7802   3.550   2.840   3.325
 2301SOL    HW2 7803   3.675   2.916   3.252
 2302SOL     OW 7804   3.639   0.483   1.105
 2302SOL    HW1 7805   3.668   0.572   1.138
 2302SOL    HW2 7806   3.644   0.416   1.179
 2303SOL     OW 7807   2.397   3.246   6.903
 2303SOL    HW1 7808   2.369   3.193   6.983
 2303SOL    HW2 7809   2.323   3.307   6.875
 2304SOL     OW 7810   5.474   6.723   4.477
 2304SOL    HW1 7811   5.497   6.691   4.569
 2304SOL    HW2 7812   5.549   6.779   4.442
 2305SOL     OW 7813   3.063   6.953   2.379
 2305SOL    HW1 7814   3.002   0.011   2.367
 2305SOL    HW2 7815   3.122   6.944   2.299
 2306SOL     OW 7816   1.963   4.991   1.578
 2306SOL    HW1 7817   1.935   4.929   1.651
 2306SOL    HW2 7818   1.990   4.939   1.497
 2307SOL     OW 7819   6.936   3.255   4.281
 2307SOL    HW1 7820   6.963   3.204   4.363
 2307SOL    HW2 7821   6.876   3.199   4.224
 2308SOL     OW 7822   1.884   4.542   1.844
 2308SOL    HW1 7823   1.824   4.521   1.767
 2308SOL    HW2 7824   1.967   4.488   1.836
 2309SOL     OW 7825   1.777   0.605   5.639
 2309SOL    HW1 7826   1.832   0.614   5.722
 2309SOL    HW2 7827   1.837   0.583   5.562
 2310SOL     OW 7828   5.837   5.490   0.774
 2310SOL    HW1 7829   5.890   5.450   0.700
 2310SOL    HW2 7830   5.746   5.449   0.777
 2311SOL     OW 7831   2.449   0.151   1.459
 2311SOL    HW1 7832   2.469   0.066   1.508
 2311SOL    HW2 7833   2.452   0.228   1.522
 2312SOL     OW 7834   4.349   6.169   2.942
 2312SOL    HW1 7835   4.296   6.132   3.018
 2312SOL    HW2 7836   4.393   6.254   2.970
 2313SOL     OW 7837   5.878   5.555   1.450
 2313SOL    HW1 7838   5.779   5.553   1.435
 2313SOL    HW2 7839   5.905   5.647   1.479
 2314SOL     OW 7840   5.337   6.282   3.506
 2314SOL    HW1 7841   5.356   6.315   3.414
 2314SOL    HW2 7842   5.400   6.208   3.529
 2315SOL     OW 7843   5.400   2.953   6.560
 2315SOL    HW1 7844   5.405   2.884   6.487
 2315SOL    HW2 7845   5.318   2.936   6.615
 2316SOL     OW 7846   4.522   1.509   3.917
 2316SOL    HW1 7847   4.507   1.607   3.916
 2316SOL    HW2 7848   4.436   1.461   3.897
 2317SOL     OW 7849   0.727   6.681   3.064
 2317SOL    HW1 7850   0.825   6.687   3.044
 2317SOL    HW2 7851   0.713   6.629   3.149
 2318SOL     OW 7852   1.228   2.647   3.820
 2318SOL    HW1 7853   1.136   2.611   3.805
 2318SOL    HW2 7854   1.271   2.599   3.896
 2319SOL     OW 7855   1.656   4.586   4.216
 2319SOL    HW1 7856   1.748   4.578   4.254
 2319SOL    HW2 7857   1.591   4.606   4.289
 2320SOL     OW 7858   1.116   2.256   4.686
 2320SOL    HW1 7859   1.152   2.337   4.733
 2320SOL    HW2 7860   1.069   2.284   4.602
 2321SOL     OW 7861   2.656   0.158   6.590
 2321SOL    HW1 7862   2.700   0.182   6.504
 2321SOL    HW2 7863   2.599   0.234   6.621
 2322SOL     OW 7864   2.973   1.945   5.311
 2322SOL    HW1 7865   2.913   1.973   5.236
 2322SOL    HW2 7866   3.042   1.881   5.278
 2323SOL     OW 7867   2.542   4.846   2.033
 2323SOL    HW1 7868   2.569   4.769   2.091
 2323SOL    HW2 7869   2.447   4.833   2.003
 2324SOL     OW 7870   5.894   6.476   1.455
 2324SOL    HW1 7871   5.809   6.484   1.404
 2324SOL    HW2 7872   5.929   6.383   1.450
 2325SOL     OW 7873   1.347   4.490   2.375
 2325SOL    HW1 7874   1.378   4.585   2.378
 2325SOL    HW2 7875   1.295   4.475   2.290
 2326SOL     OW 7876   3.625   5.337   5.561
 2326SOL    HW1 7877   3.620   5.334   5.462
 2326SOL    HW2 7878   3.676   5.257   5.594
 2327SOL     OW 7879   6.199   3.365   5.095
 2327SOL    HW1 7880   6.139   3.445   5.099
 2327SOL    HW2 7881   6.181   3.306   5.174
 2328SOL     OW 7882   3.429   2.084   3.195
 2328SOL    HW1 7883   3.492   2.110   3.122
 2328SOL    HW2 7884   3.476   2.088   3.283
 2329SOL     OW 7885   1.667   3.476   4.701
 2329SOL    HW1 7886   1.744   3.537   4.716
 2329SOL    HW2 7887   1.587   3.511   4.750
 2330SOL     OW 7888   1.018   3.916   2.121
 2330SOL    HW1 7889   0.953   3.884   2.190
 2330SOL    HW2 7890   0.979   3.995   2.073
 2331SOL     OW 7891   5.982   4.106   1.037
 2331SOL    HW1 7892   5.972   4.161   0.954
 2331SOL    HW2 7893   6.041   4.027   1.017
 2332SOL     OW 7894   4.221   1.910   5.582
 2332SOL    HW1 7895   4.137   1.893   5.634
 2332SOL    HW2 7896   4.300   1.900   5.642
 2333SOL     OW 7897   0.304   5.949   3.104
 2333SOL    HW1 7898   0.329   5.922   3.011
 2333SOL    HW2 7899   0.232   5.888   3.138
 2334SOL     OW 7900   2.296   0.551   7.011
 2334SOL    HW1 7901   2.337   0.595   0.072
 2334SOL    HW2 7902   2.261   0.621   6.949
 2335SOL     OW 7903   6.052   1.022   3.261
 2335SOL    HW1 7904   6.027   0.928   3.240
 2335SOL    HW2 7905   6.048   1.076   3.177
 2336SOL     OW 7906   4.386   1.804   5.010
 2336SOL    HW1 7907   4.314   1.835   4.948
 2336SOL    HW2 7908   4.346   1.780   5.098
 2337SOL     OW 7909   4.407   0.873   3.344
 2337SOL    HW1 7910   4.488   0.878   3.285
 2337SOL    HW2 7911   4.418   0.937   3.420
 2338SOL     OW 7912   1.660   1.329   6.095
 2338SOL    HW1 7913   1.654   1.427   6.114
 2338SOL    HW2 7914   1.616   1.309   6.007
 2339SOL     OW 7915   3.562   4.184   5.076
 2339SOL    HW1 7916   3.606   4.110   5.128
 2339SOL    HW2 7917   3.518   4.146   4.995
 2340SOL     OW 7918   5.429   4.807   6.194
 2340SOL    HW1 7919   5.418   4.761   6.281
 2340SOL    HW2 7920   5.491   4.755   6.135
 2341SOL     OW 7921   5.841   4.200   1.639
 2341SOL    HW1 7922   5.916   4.259   1.667
 2341SOL    HW2 7923   5.862   4.159   1.550
 2342SOL     OW 7924   6.922   6.252   5.203
 2342SOL    HW1 7925   6.923   6.197   5.286
 2342SOL    HW2 7926   6.956   6.344   5.222
 2343SOL     OW 7927   1.768   6.528   1.955
 2343SOL    HW1 7928   1.777   6.515   1.856
 2343SOL    HW2 7929   1.675   6.509   1.983
 2344SOL     OW 7930   1.845   0.391   1.269
 2344SOL    HW1 7931   1.838   0.319   1.338
 2344SOL    HW2 7932   1.780   0.463   1.290
 2345SOL     OW 7933   2.486   5.272   5.381
 2345SOL    HW1 7934   2.389   5.286   5.362
 2345SOL    HW2 7935   2.512   5.178   5.355
 2346SOL     OW 7936   4.867   2.902   4.865
 2346SOL    HW1 7937   4.830   2.943   4.948
 2346SOL    HW2 7938   4.948   2.847   4.887
 2347SOL     OW 7939   2.139   3.564   1.684
 2347SOL    HW1 7940   2.140   3.554   1.784
 2347SOL    HW2 7941   2.127   3.474   1.642
 2348SOL     OW 7942   3.413   6.267   4.087
 2348SOL    HW1 7943   3.419   6.341   4.154
 2348SOL    HW2 7944   3.412   6.304   3.995
 2349SOL     OW 7945   0.815   5.300   6.162
 2349SOL    HW1 7946   0.839   5.348   6.078
 2349SOL    HW2 7947   0.783   5.208   6.140
 2350SOL     OW 7948   5.432   0.019   6.519
 2350SOL    HW1 7949   5.437   6.945   6.483
 2350SOL    HW2 7950   5.523   0.059   6.519
 2351SOL     OW 7951   4.231   5.112   2.109
 2351SOL    HW1 7952   4.287   5.193   2.129
 2351SOL    HW2 7953   4.219   5.058   2.192
 2352SOL     OW 7954   1.301   3.669   2.361
 2352SOL    HW1 7955   1.310   3.722   2.276
 2352SOL    HW2 7956   1.341   3.721   2.437
 2353SOL     OW 7957   2.860   4.881   5.074
 2353SOL    HW1 7958   2.865   4.784   5.050
 2353SOL    HW2 7959   2.781   4.922   5.028
 2354SOL     OW 7960   2.887   2.023   6.522
 2354SOL    HW1 7961   2.865   2.095   6.457
 2354SOL    HW2 7962   2.906   1.938   6.473
 2355SOL     OW 7963   1.092   5.397   6.613
 2355SOL    HW1 7964   1.144   5.466   6.563
 2355SOL    HW2 7965   1.156   5.334   6.659
 2356SOL     OW 7966   2.134   4.139   0.472
 2356SOL    HW1 7967   2.212   4.076   0.476
 2356SOL    HW2 7968   2.166   4.233   0.485
 2357SOL     OW 7969   4.092   5.446   3.893
 2357SOL    HW1 7970   4.146   5.373   3.934
 2357SOL    HW2 7971   4.153   5.521   3.865
 2358SOL     OW 7972   2.328   5.361   4.941
 2358SOL    HW1 7973   2.238   5.332   4.910
 2358SOL    HW2 7974   2.378   5.283   4.979
 2359SOL     OW 7975   6.887   1.068   5.438
 2359SOL    HW1 7976   6.899   1.160   5.477
 2359SOL    HW2 7977   6.925   1.000   5.501
 2360SOL     OW 7978   4.968   6.322   5.996
 2360SOL    HW1 7979   5.015   6.274   5.922
 2360SOL    HW2 7980   5.030   6.332   6.074
 2361SOL     OW 7981   3.028   6.850   4.594
 2361SOL    HW1 7982   3.030   6.818   4.689
 2361SOL    HW2 7983   2.954   6.916   4.584
 2362SOL     OW 7984   3.268   6.703   5.330
 2362SOL    HW1 7985   3.346   6.764   5.312
 2362SOL    HW2 7986   3.253   6.696   5.428
 2363SOL     OW 7987   4.291   2.619   5.633
 2363SOL    HW1 7988   4.357   2.692   5.613
 2363SOL    HW2 7989   4.208   2.659   5.670
 2364SOL     OW 7990   6.963   2.587   3.088
 2364SOL    HW1 7991   6.868   2.612   3.106
 2364SOL    HW2 7992   7.003   2.549   3.171
 2365SOL     OW 7993   6.074   2.043   6.181
 2365SOL    HW1 7994   6.119   2.125   6.215
 2365SOL    HW2 7995   5.977   2.063   6.164
 2366SOL     OW 7996   1.533   4.401   6.069
 2366SOL    HW1 7997   1.579   4.373   6.153
 2366SOL    HW2 7998   1.568   4.348   5.992
 2367SOL     OW 7999   3.171   3.499   6.808
 2367SOL    HW1 8000   3.079   3.536   6.820
 2367SOL    HW2 8001   3.221   3.506   6.894
 2368SOL     OW 8002   4.583   0.300   3.880
 2368SOL    HW1 8003   4.670   0.323   3.924
 2368SOL    HW2 8004   4.535   0.384   3.855
 2369SOL     OW 8005   2.161   2.322   4.635
 2369SOL    HW1 8006   2.241   2.357   4.683
 2369SOL    HW2 8007   2.078   2.364   4.671
 2370SOL     OW 8008   4.552   4.103   6.346
 2370SOL    HW1 8009   4.566   4.055   6.259
 2370SOL    HW2 8010   4.460   4.143   6.347
 2371SOL     OW 8011   1.063   6.444   1.529
 2371SOL    HW1 8012   0.990   6.485   1.475
 2371SOL    HW2 8013   1.094   6.509   1.598
 2372SOL     OW 8014   0.912   2.239   1.546
 2372SOL    HW1 8015   0.981   2.179   1.585
 2372SOL    HW2 8016   0.946   2.279   1.461
 2373SOL     OW 8017   6.157   0.329   0.054
 2373SOL    HW1 8018   6.085   0.263   0.077
 2373SOL    HW2 8019   6.156   0.404   0.120
 2374SOL     OW 8020   6.407   0.928   4.151
 2374SOL    HW1 8021   6.482   0.924   4.085
 2374SOL    HW2 8022   6.444   0.953   4.241
 2375SOL     OW 8023   1.282   6.808   4.563
 2375SOL    HW1 8024   1.380   6.805   4.542
 2375SOL    HW2 8025   1.231   6.762   4.490
 2376SOL     OW 8026   6.188   2.653   4.039
 2376SOL    HW1 8027   6.283   2.637   4.064
 2376SOL    HW2 8028   6.146   2.715   4.107
 2377SOL     OW 8029   3.444   4.123   3.630
 2377SOL    HW1 8030   3.346   4.104   3.625
 2377SOL    HW2 8031   3.492   4.041   3.659
 2378SOL     OW 8032   5.589   1.700   6.567
 2378SOL    HW1 8033   5.553   1.607   6.562
 2378SOL    HW2 8034   5.517   1.765   6.543
 2379SOL     OW 8035   0.038   1.658   6.261
 2379SOL    HW1 8036   6.960   1.655   6.282
 2379SOL    HW2 8037   0.091   1.654   6.345
 2380SOL     OW 8038   6.560   6.577   6.166
 2380SOL    HW1 8039   6.596   6.525   6.244
 2380SOL    HW2 8040   6.527   6.666   6.198
 2381SOL     OW 8041   2.400   4.319   3.806
 2381SOL    HW1 8042   2.356   4.259   3.873
 2381SOL    HW2 8043   2.386   4.282   3.714
 2382SOL     OW 8044   2.109   4.666   2.549
 2382SOL    HW1 8045   2.122   4.628   2.641
 2382SOL    HW2 8046   2.104   4.766   2.555
 2383SOL     OW 8047   5.309   6.015   6.855
 2383SOL    HW1 8048   5.289   5.988   6.761
 2383SOL    HW2 8049   5.339   6.110   6.857
 2384SOL     OW 8050   0.845   0.290   2.480
 2384SOL    HW1 8051   0.874   0.206   2.433
 2384SOL    HW2 8052   0.879   0.370   2.429
 2385SOL     OW 8053   6.255   0.137   0.903
 2385SOL    HW1 8054   6.348   0.108   0.879
 2385SOL    HW2 8055   6.199   0.056   0.920
 2386SOL     OW 8056   4.202   5.448   4.290
 2386SOL    HW1 8057   4.276   5.473   4.352
 2386SOL    HW2 8058   4.149   5.530   4.266
 2387SOL     OW 8059   0.080   2.608   4.093
 2387SOL    HW1 8060   0.058   2.624   3.997
 2387SOL    HW2 8061   0.117   2.515   4.103
 2388SOL     OW 8062   0.957   1.493   4.520
 2388SOL    HW1 8063   0.907   1.412   4.491
 2388SOL    HW2 8064   1.019   1.522   4.447
 2389SOL     OW 8065   5.038   4.142   3.655
 2389SOL    HW1 8066   5.069   4.073   3.721
 2389SOL    HW2 8067   5.100   4.144   3.577
 2390SOL     OW 8068   3.759   3.028   4.598
 2390SOL    HW1 8069   3.723   2.966   4.667
 2390SOL    HW2 8070   3.842   3.072   4.633
 2391SOL     OW 8071   4.203   4.241   5.712
 2391SOL    HW1 8072   4.292   4.276   5.684
 2391SOL    HW2 8073   4.135   4.315   5.707
 2392SOL     OW 8074   3.226   5.954   5.582
 2392SOL    HW1 8075   3.300   5.976   5.646
 2392SOL    HW2 8076   3.139   5.959   5.630
 2393SOL     OW 8077   3.549   5.209   0.749
 2393SOL    HW1 8078   3.554   5.179   0.845
 2393SOL    HW2 8079   3.495   5.143   0.697
 2394SOL     OW 8080   1.612   3.236   4.785
 2394SOL    HW1 8081   1.641   3.318   4.735
 2394SOL    HW2 8082   1.681   3.213   4.853
 2395SOL     OW 8083   6.783   2.406   0.036
 2395SOL    HW1 8084   6.826   2.346   6.988
 2395SOL    HW2 8085   6.740   2.350   0.107
 2396SOL     OW 8086   4.514   5.617   0.249
 2396SOL    HW1 8087   4.532   5.540   0.311
 2396SOL    HW2 8088   4.521   5.585   0.155
 2397SOL     OW 8089   0.075   4.551   0.226
 2397SOL    HW1 8090   0.013   4.555   0.304
 2397SOL    HW2 8091   0.054   4.471   0.171
 2398SOL     OW 8092   2.841   4.850   5.833
 2398SOL    HW1 8093   2.896   4.907   5.893
 2398SOL    HW2 8094   2.836   4.757   5.870
 2399SOL     OW 8095   4.534   1.561   2.169
 2399SOL    HW1 8096   4.479   1.478   2.157
 2399SOL    HW2 8097   4.473   1.639   2.182
 2400SOL     OW 8098   4.259   4.590   0.375
 2400SOL    HW1 8099   4.263   4.490   0.368
 2400SOL    HW2 8100   4.254   4.616   0.471
 2401SOL     OW 8101   3.813   0.438   5.820
 2401SOL    HW1 8102   3.804   0.489   5.905
 2401SOL    HW2 8103   3.873   0.488   5.757
 2402SOL     OW 8104   0.123   2.884   4.185
 2402SOL    HW1 8105   0.133   2.925   4.095
 2402SOL    HW2 8106   0.104   2.786   4.176
 2403SOL     OW 8107   2.971   2.594   6.826
 2403SOL    HW1 8108   2.907   2.589   6.902
 2403SOL    HW2 8109   2.986   2.689   6.800
 2404SOL     OW 8110   5.412   1.417   2.552
 2404SOL    HW1 8111   5.322   1.454   2.530
 2404SOL    HW2 8112   5.468   1.414   2.470
 2405SOL     OW 8113   3.491   3.847   5.066
 2405SOL    HW1 8114   3.552   3.793   5.009
 2405SOL    HW2 8115   3.453   3.923   5.013
 2406SOL     OW 8116   1.639   0.288   3.674
 2406SOL    HW1 8117   1.636   0.317   3.579
 2406SOL    HW2 8118   1.733   0.264   3.699
 2407SOL     OW 8119   4.755   2.527   3.155
 2407SOL    HW1 8120   4.768   2.459   3.226
 2407SOL    HW2 8121   4.726   2.482   3.070
 2408SOL     OW 8122   3.726   5.266   2.367
 2408SOL    HW1 8123   3.750   5.360   2.391
 2408SOL    HW2 8124   3.671   5.225   2.440
 2409SOL     OW 8125   1.717   2.861   2.010
 2409SOL    HW1 8126   1.621   2.833   2.017
 2409SOL    HW2 8127   1.751   2.885   2.100
 2410SOL     OW 8128   6.305   2.781   5.884
 2410SOL    HW1 8129   6.239   2.716   5.847
 2410SOL    HW2 8130   6.385   2.731   5.917
 2411SOL     OW 8131   4.138   4.812   5.480
 2411SOL    HW1 8132   4.103   4.906   5.479
 2411SOL    HW2 8133   4.154   4.781   5.386
 2412SOL     OW 8134   3.110   4.162   0.275
 2412SOL    HW1 8135   3.149   4.203   0.193
 2412SOL    HW2 8136   3.114   4.229   0.350
 2413SOL     OW 8137   0.002   3.064   6.917
 2413SOL    HW1 8138   0.102   3.056   6.913
 2413SOL    HW2 8139   6.986   3.083   6.825
 2414SOL     OW 8140   5.567   3.738   2.553
 2414SOL    HW1 8141   5.635   3.804   2.584
 2414SOL    HW2 8142   5.509   3.712   2.631
 2415SOL     OW 8143   0.901   0.241   1.053
 2415SOL    HW1 8144   0.917   0.336   1.024
 2415SOL    HW2 8145   0.837   0.241   1.130
 2416SOL     OW 8146   2.570   1.962   5.037
 2416SOL    HW1 8147   2.523   1.890   4.986
 2416SOL    HW2 8148   2.524   1.977   5.125
 2417SOL     OW 8149   4.205   3.015   0.352
 2417SOL    HW1 8150   4.119   3.062   0.333
 2417SOL    HW2 8151   4.263   3.073   0.409
 2418SOL     OW 8152   3.290   3.415   4.141
 2418SOL    HW1 8153   3.262   3.350   4.212
 2418SOL    HW2 8154   3.377   3.457   4.167
 2419SOL     OW 8155   0.378   6.525   3.832
 2419SOL    HW1 8156   0.372   6.485   3.923
 2419SOL    HW2 8157   0.326   6.468   3.767
 2420SOL     OW 8158   4.389   0.312   2.172
 2420SOL    HW1 8159   4.353   0.384   2.113
 2420SOL    HW2 8160   4.480   0.337   2.204
 2421SOL     OW 8161   2.460   0.473   4.502
 2421SOL    HW1 8162   2.519   0.482   4.582
 2421SOL    HW2 8163   2.514   0.446   4.423
 2422SOL     OW 8164   5.644   0.226   1.367
 2422SOL    HW1 8165   5.655   0.171   1.449
 2422SOL    HW2 8166   5.643   0.323   1.392
 2423SOL     OW 8167   1.288   6.244   3.295
 2423SOL    HW1 8168   1.249   6.278   3.210
 2423SOL    HW2 8169   1.216   6.233   3.363
 2424SOL     OW 8170   5.537   5.538   6.031
 2424SOL    HW1 8171   5.449   5.502   6.064
 2424SOL    HW2 8172   5.607   5.522   6.100
 2425SOL     OW 8173   6.263   0.209   4.419
 2425SOL    HW1 8174   6.192   0.140   4.436
 2425SOL    HW2 8175   6.316   0.183   4.338
 2426SOL     OW 8176   0.830   4.755   4.685
 2426SOL    HW1 8177   0.876   4.697   4.618
 2426SOL    HW2 8178   0.757   4.807   4.640
 2427SOL     OW 8179   6.364   5.582   0.229
 2427SOL    HW1 8180   6.425   5.643   0.179
 2427SOL    HW2 8181   6.369   5.490   0.190
 2428SOL     OW 8182   0.568   6.897   3.153
 2428SOL    HW1 8183   0.628   6.818   3.170
 2428SOL    HW2 8184   0.624   6.979   3.140
 2429SOL     OW 8185   6.464   5.599   3.580
 2429SOL    HW1 8186   6.500   5.542   3.506
 2429SOL    HW2 8187   6.524   5.677   3.594
 2430SOL     OW 8188   6.311   2.592   1.533
 2430SOL    HW1 8189   6.240   2.635   1.477
 2430SOL    HW2 8190   6.383   2.659   1.552
 2431SOL     OW 8191   4.291   6.875   1.687
 2431SOL    HW1 8192   4.372   6.931   1.671
 2431SOL    HW2 8193   4.319   6.784   1.719
 2432SOL     OW 8194   4.196   6.322   2.760
 2432SOL    HW1 8195   4.221   6.321   2.663
 2432SOL    HW2 8196   4.266   6.274   2.812
 2433SOL     OW 8197   2.990   6.859   0.681
 2433SOL    HW1 8198   2.925   6.783   0.671
 2433SOL    HW2 8199   3.008   6.874   0.778
 2434SOL     OW 8200   4.455   1.402   3.577
 2434SOL    HW1 8201   4.358   1.415   3.596
 2434SOL    HW2 8202   4.496   1.490   3.550
 2435SOL     OW 8203   4.602   5.377   6.168
 2435SOL    HW1 8204   4.558   5.297   6.210
 2435SOL    HW2 8205   4.653   5.348   6.087
 2436SOL     OW 8206   2.026   0.131   0.845
 2436SOL    HW1 8207   2.126   0.135   0.838
 2436SOL    HW2 8208   2.000   0.063   0.914
 2437SOL     OW 8209   4.781   5.280   0.606
 2437SOL    HW1 8210   4.732   5.297   0.692
 2437SOL    HW2 8211   4.723   5.307   0.529
 2438SOL     OW 8212   3.844   0.883   5.677
 2438SOL    HW1 8213   3.858   0.929   5.589
 2438SOL    HW2 8214   3.900   0.800   5.680
 2439SOL     OW 8215   1.328   3.969   6.999
 2439SOL    HW1 8216   1.284   3.941   6.914
 2439SOL    HW2 8217   1.266   3.955   0.056
 2440SOL     OW 8218   3.569   6.171   4.943
 2440SOL    HW1 8219   3.561   6.133   5.035
 2440SOL    HW2 8220   3.584   6.269   4.948
 2441SOL     OW 8221   6.477   1.371   6.842
 2441SOL    HW1 8222   6.459   1.275   6.867
 2441SOL    HW2 8223   6.420   1.396   6.764
 2442SOL     OW 8224   6.216   5.897   3.707
 2442SOL    HW1 8225   6.310   5.874   3.729
 2442SOL    HW2 8226   6.183   5.839   3.633
 2443SOL     OW 8227   3.385   0.028   6.479
 2443SOL    HW1 8228   3.285   0.029   6.476
 2443SOL    HW2 8229   3.417   6.956   6.500
 2444SOL     OW 8230   3.941   4.209   6.538
 2444SOL    HW1 8231   3.975   4.301   6.558
 2444SOL    HW2 8232   3.909   4.204   6.444
 2445SOL     OW 8233   6.917   1.340   2.261
 2445SOL    HW1 8234   6.907   1.370   2.356
 2445SOL    HW2 8235   6.831   1.354   2.212
 2446SOL     OW 8236   0.814   2.923   4.336
 2446SOL    HW1 8237   0.722   2.891   4.315
 2446SOL    HW2 8238   0.832   2.912   4.434
 2447SOL     OW 8239   2.684   1.024   0.715
 2447SOL    HW1 8240   2.760   1.001   0.776
 2447SOL    HW2 8241   2.617   0.951   0.715
 2448SOL     OW 8242   0.510   0.844   4.138
 2448SOL    HW1 8243   0.460   0.782   4.078
 2448SOL    HW2 8244   0.450   0.919   4.167
 2449SOL     OW 8245   6.599   4.296   3.012
 2449SOL    HW1 8246   6.622   4.393   2.998
 2449SOL    HW2 8247   6.533   4.268   2.942
 2450SOL     OW 8248   2.995   5.382   4.542
 2450SOL    HW1 8249   2.905   5.337   4.538
 2450SOL    HW2 8250   3.022   5.395   4.637
 2451SOL     OW 8251   0.513   0.525   3.675
 2451SOL    HW1 8252   0.541   0.442   3.724
 2451SOL    HW2 8253   0.417   0.517   3.649
 2452SOL     OW 8254   2.911   2.194   3.349
 2452SOL    HW1 8255   3.008   2.192   3.323
 2452SOL    HW2 8256   2.901   2.171   3.446
 2453SOL     OW 8257   6.634   3.263   0.548
 2453SOL    HW1 8258   6.700   3.263   0.624
 2453SOL    HW2 8259   6.550   3.218   0.577
 2454SOL     OW 8260   3.133   0.577   0.148
 2454SOL    HW1 8261   3.208   0.539   0.202
 2454SOL    HW2 8262   3.128   0.676   0.163
 2455SOL     OW 8263   5.055   1.209   1.347
 2455SOL    HW1 8264   5.038   1.266   1.267
 2455SOL    HW2 8265   4.972   1.202   1.402
 2456SOL     OW 8266   5.744   1.552   0.151
 2456SOL    HW1 8267   5.722   1.502   0.234
 2456SOL    HW2 8268   5.686   1.633   0.144
 2457SOL     OW 8269   6.511   5.961   6.383
 2457SOL    HW1 8270   6.454   5.996   6.309
 2457SOL    HW2 8271   6.561   5.881   6.351
 2458SOL     OW 8272   2.364   5.937   3.879
 2458SOL    HW1 8273   2.324   5.903   3.794
 2458SOL    HW2 8274   2.457   5.969   3.861
 2459SOL     OW 8275   2.496   6.021   5.958
 2459SOL    HW1 8276   2.412   5.967   5.952
 2459SOL    HW2 8277   2.474   6.118   5.948
 2460SOL     OW 8278   1.614   1.693   1.851
 2460SOL    HW1 8279   1.712   1.674   1.852
 2460SOL    HW2 8280   1.595   1.763   1.782
 2461SOL     OW 8281   4.641   6.931   3.013
 2461SOL    HW1 8282   4.587   6.847   3.021
 2461SOL    HW2 8283   4.651   6.972   3.104
 2462SOL     OW 8284   1.888   5.657   0.391
 2462SOL    HW1 8285   1.854   5.714   0.467
 2462SOL    HW2 8286   1.890   5.561   0.420
 2463SOL     OW 8287   6.615   2.596   4.882
 2463SOL    HW1 8288   6.563   2.616   4.965
 2463SOL    HW2 8289   6.643   2.682   4.838
 2464SOL     OW 8290   1.865   4.187   1.789
 2464SOL    HW1 8291   1.826   4.168   1.699
 2464SOL    HW2 8292   1.921   4.110   1.818
 2465SOL     OW 8293   1.111   0.808   1.977
 2465SOL    HW1 8294   1.068   0.831   1.889
 2465SOL    HW2 8295   1.108   0.709   1.990
 2466SOL     OW 8296   2.669   1.745   2.887
 2466SOL    HW1 8297   2.662   1.669   2.822
 2466SOL    HW2 8298   2.631   1.828   2.846
 2467SOL     OW 8299   5.218   1.360   4.532
 2467SOL    HW1 8300   5.237   1.398   4.623
 2467SOL    HW2 8301   5.212   1.435   4.466
 2468SOL     OW 8302   5.124   6.250   1.653
 2468SOL    HW1 8303   5.185   6.176   1.627
 2468SOL    HW2 8304   5.058   6.218   1.721
 2469SOL     OW 8305   4.149   4.072   5.469
 2469SOL    HW1 8306   4.135   4.114   5.559
 2469SOL    HW2 8307   4.167   4.144   5.402
 2470SOL     OW 8308   3.685   4.619   5.638
 2470SOL    HW1 8309   3.642   4.632   5.549
 2470SOL    HW2 8310   3.781   4.644   5.633
 2471SOL     OW 8311   2.651   5.816   0.871
 2471SOL    HW1 8312   2.603   5.779   0.791
 2471SOL    HW2 8313   2.659   5.744   0.940
 2472SOL     OW 8314   5.186   2.381   3.857
 2472SOL    HW1 8315   5.236   2.294   3.865
 2472SOL    HW2 8316   5.141   2.385   3.768
 2473SOL     OW 8317   2.112   4.185   5.140
 2473SOL    HW1 8318   2.118   4.136   5.227
 2473SOL    HW2 8319   2.154   4.130   5.068
 2474SOL     OW 8320   0.700   5.900   0.237
 2474SOL    HW1 8321   0.653   5.945   0.313
 2474SOL    HW2 8322   0.765   5.964   0.195
 2475SOL     OW 8323   5.370   1.212   1.437
 2475SOL    HW1 8324   5.401   1.221   1.531
 2475SOL    HW2 8325   5.282   1.259   1.426
 2476SOL     OW 8326   0.272   2.397   3.676
 2476SOL    HW1 8327   0.319   2.480   3.708
 2476SOL    HW2 8328   0.258   2.402   3.577
 2477SOL     OW 8329   4.785   1.959   2.743
 2477SOL    HW1 8330   4.709   1.917   2.693
 2477SOL    HW2 8331   4.853   1.992   2.679
 2478SOL     OW 8332   6.239   0.928   1.871
 2478SOL    HW1 8333   6.156   0.949   1.818
 2478SOL    HW2 8334   6.304   1.003   1.862
 2479SOL     OW 8335   1.434   3.746   1.353
 2479SOL    HW1 8336   1.477   3.696   1.278
 2479SOL    HW2 8337   1.406   3.680   1.424
 2480SOL     OW 8338   6.166   3.881   1.046
 2480SOL    HW1 8339   6.259   3.912   1.029
 2480SOL    HW2 8340   6.142   3.809   0.980
 2481SOL     OW 8341   3.003   1.257   0.150
 2481SOL    HW1 8342   3.069   1.321   0.190
 2481SOL    HW2 8343   2.997   1.273   0.051
 2482SOL     OW 8344   4.546   3.231   5.702
 2482SOL    HW1 8345   4.583   3.168   5.770
 2482SOL    HW2 8346   4.446   3.226   5.704
 2483SOL     OW 8347   2.098   2.188   0.085
 2483SOL    HW1 8348   2.079   2.154   7.013
 2483SOL    HW2 8349   2.031   2.258   0.110
 2484SOL     OW 8350   2.511   0.548   0.215
 2484SOL    HW1 8351   2.473   0.456   0.214
 2484SOL    HW2 8352   2.575   0.559   0.138
 2485SOL     OW 8353   5.509   3.636   2.201
 2485SOL    HW1 8354   5.471   3.676   2.284
 2485SOL    HW2 8355   5.504   3.704   2.127
 2486SOL     OW 8356   2.542   5.048   4.041
 2486SOL    HW1 8357   2.539   4.964   4.095
 2486SOL    HW2 8358   2.574   5.028   3.949
 2487SOL     OW 8359   3.888   5.875   0.250
 2487SOL    HW1 8360   3.810   5.929   0.217
 2487SOL    HW2 8361   3.858   5.815   0.324
 2488SOL     OW 8362   1.778   4.452   2.284
 2488SOL    HW1 8363   1.759   4.415   2.193
 2488SOL    HW2 8364   1.805   4.548   2.276
 2489SOL     OW 8365   1.801   5.510   3.289
 2489SOL    HW1 8366   1.887   5.538   3.331
 2489SOL    HW2 8367   1.729   5.576   3.313
 2490SOL     OW 8368   6.734   5.078   1.504
 2490SOL    HW1 8369   6.667   5.149   1.530
 2490SOL    HW2 8370   6.735   5.007   1.574
 2491SOL     OW 8371   2.820   5.497   1.316
 2491SOL    HW1 8372   2.856   5.452   1.398
 2491SOL    HW2 8373   2.869   5.463   1.236
 2492SOL     OW 8374   4.741   2.835   6.995
 2492SOL    HW1 8375   4.650   2.877   6.998
 2492SOL    HW2 8376   4.786   2.857   6.909
 2493SOL     OW 8377   6.268   0.306   2.366
 2493SOL    HW1 8378   6.318   0.268   2.444
 2493SOL    HW2 8379   6.330   0.311   2.287
 2494SOL     OW 8380   5.976   3.943   2.410
 2494SOL    HW1 8381   6.013   3.866   2.357
 2494SOL    HW2 8382   5.893   3.977   2.367
 2495SOL     OW 8383   5.216   0.632   4.981
 2495SOL    HW1 8384   5.219   0.715   4.926
 2495SOL    HW2 8385   5.308   0.592   4.985
 2496SOL     OW 8386   0.371   4.031   6.459
 2496SOL    HW1 8387   0.310   4.109   6.472
 2496SOL    HW2 8388   0.464   4.064   6.444
 2497SOL     OW 8389   0.167   1.360   1.020
 2497SOL    HW1 8390   0.106   1.346   1.098
 2497SOL    HW2 8391   0.121   1.415   0.951
 2498SOL     OW 8392   3.425   1.883   3.879
 2498SOL    HW1 8393   3.475   1.814   3.827
 2498SOL    HW2 8394   3.488   1.956   3.906
 2499SOL     OW 8395   5.095   2.328   4.368
 2499SOL    HW1 8396   5.138   2.264   4.431
 2499SOL    HW2 8397   5.015   2.284   4.327
 2500SOL     OW 8398   4.365   2.875   6.287
 2500SOL    HW1 8399   4.460   2.903   6.278
 2500SOL    HW2 8400   4.323   2.868   6.197
 2501SOL     OW 8401   6.747   5.673   6.863
 2501SOL    HW1 8402   6.667   5.613   6.865
 2501SOL    HW2 8403   6.720   5.762   6.827
 2502SOL     OW 8404   2.167   5.951   3.153
 2502SOL    HW1 8405   2.076   5.954   3.194
 2502SOL    HW2 8406   2.163   5.897   3.069
 2503SOL     OW 8407   3.314   5.195   5.004
 2503SOL    HW1 8408   3.282   5.287   5.029
 2503SOL    HW2 8409   3.262   5.126   5.054
 2504SOL     OW 8410   2.854   5.192   5.447
 2504SOL    HW1 8411   2.794   5.236   5.381
 2504SOL    HW2 8412   2.870   5.097   5.420
 2505SOL     OW 8413   1.702   5.993   4.172
 2505SOL    HW1 8414   1.766   5.985   4.248
 2505SOL    HW2 8415   1.670   6.088   4.165
 2506SOL     OW 8416   6.006   3.293   6.803
 2506SOL    HW1 8417   5.990   3.197   6.826
 2506SOL    HW2 8418   6.002   3.304   6.703
 2507SOL     OW 8419   0.614   4.214   0.357
 2507SOL    HW1 8420   0.597   4.249   0.449
 2507SOL    HW2 8421   0.641   4.290   0.298
 2508SOL     OW 8422   2.666   1.288   2.458
 2508SOL    HW1 8423   2.708   1.299   2.548
 2508SOL    HW2 8424   2.736   1.302   2.388
 2509SOL     OW 8425   5.901   2.401   2.683
 2509SOL    HW1 8426   5.863   2.434   2.597
 2509SOL    HW2 8427   5.826   2.375   2.744
 2510SOL     OW 8428   3.492   4.069   1.400
 2510SOL    HW1 8429   3.582   4.029   1.416
 2510SOL    HW2 8430   3.498   4.135   1.326
 2511SOL     OW 8431   2.251   1.602   4.048
 2511SOL    HW1 8432   2.319   1.666   4.010
 2511SOL    HW2 8433   2.287   1.509   4.042
 2512SOL     OW 8434   4.746   5.252   5.112
 2512SOL    HW1 8435   4.801   5.333   5.130
 2512SOL    HW2 8436   4.774   5.210   5.026
 2513SOL     OW 8437   1.402   3.149   5.391
 2513SOL    HW1 8438   1.468   3.074   5.390
 2513SOL    HW2 8439   1.394   3.187   5.298
 2514SOL     OW 8440   6.196   4.183   4.457
 2514SOL    HW1 8441   6.162   4.255   4.397
 2514SOL    HW2 8442   6.240   4.111   4.403
 2515SOL     OW 8443   1.589   6.870   0.396
 2515SOL    HW1 8444   1.562   6.964   0.372
 2515SOL    HW2 8445   1.638   6.872   0.483
 2516SOL     OW 8446   5.893   0.078   3.468
 2516SOL    HW1 8447   5.919   0.128   3.550
 2516SOL    HW2 8448   5.844   0.139   3.406
 2517SOL     OW 8449   1.502   5.689   5.852
 2517SOL    HW1 8450   1.486   5.649   5.761
 2517SOL    HW2 8451   1.420   5.738   5.881
 2518SOL     OW 8452   2.558   3.673   0.110
 2518SOL    HW1 8453   2.475   3.692   0.163
 2518SOL    HW2 8454   2.594   3.584   0.136
 2519SOL     OW 8455   4.545   5.871   4.094
 2519SOL    HW1 8456   4.581   5.826   4.012
 2519SOL    HW2 8457   4.544   5.807   4.170
 2520SOL     OW 8458   1.048   2.975   0.651
 2520SOL    HW1 8459   1.143   2.962   0.621
 2520SOL    HW2 8460   1.007   2.886   0.670
 2521SOL     OW 8461   1.309   6.487   5.455
 2521SOL    HW1 8462   1.280   6.481   5.551
 2521SOL    HW2 8463   1.290   6.579   5.420
 2522SOL     OW 8464   0.002   3.333   5.420
 2522SOL    HW1 8465   6.959   3.265   5.381
 2522SOL    HW2 8466   0.074   3.286   5.471
 2523SOL     OW 8467   0.118   3.091   1.248
 2523SOL    HW1 8468   0.053   3.154   1.205
 2523SOL    HW2 8469   0.069   3.030   1.310
 2524SOL     OW 8470   0.499   5.652   4.839
 2524SOL    HW1 8471   0.594   5.680   4.852
 2524SOL    HW2 8472   0.497   5.559   4.803
 2525SOL     OW 8473   1.130   2.469   4.301
 2525SOL    HW1 8474   1.148   2.560   4.339
 2525SOL    HW2 8475   1.034   2.463   4.273
 2526SOL     OW 8476   1.586   3.879   5.743
 2526SOL    HW1 8477   1.507   3.914   5.795
 2526SOL    HW2 8478   1.649   3.955   5.725
 2527SOL     OW 8479   4.980   6.652   5.370
 2527SOL    HW1 8480   4.953   6.588   5.442
 2527SOL    HW2 8481   5.078   6.641   5.351
 2528SOL     OW 8482   6.354   4.424   1.116
 2528SOL    HW1 8483   6.381   4.505   1.169
 2528SOL    HW2 8484   6.257   4.405   1.132
 2529SOL     OW 8485   6.573   5.283   6.108
 2529SOL    HW1 8486   6.542   5.199   6.153
 2529SOL    HW2 8487   6.669   5.299   6.130
 2530SOL     OW 8488   1.286   6.007   4.562
 2530SOL    HW1 8489   1.286   5.910   4.540
 2530SOL    HW2 8490   1.199   6.032   4.605
 2531SOL     OW 8491   5.523   5.722   4.007
 2531SOL    HW1 8492   5.528   5.665   3.925
 2531SOL    HW2 8493   5.437   5.704   4.055
 2532SOL     OW 8494   0.916   6.040   1.031
 2532SOL    HW1 8495   0.853   6.005   0.962
 2532SOL    HW2 8496   0.989   5.974   1.046
 2533SOL     OW 8497   4.365   6.513   3.274
 2533SOL    HW1 8498   4.454   6.552   3.298
 2533SOL    HW2 8499   4.324   6.567   3.200
 2534SOL     OW 8500   2.174   0.217   3.218
 2534SOL    HW1 8501   2.243   0.147   3.198
 2534SOL    HW2 8502   2.141   0.257   3.132
 2535SOL     OW 8503   2.608   2.806   6.512
 2535SOL    HW1 8504   2.657   2.719   6.506
 2535SOL    HW2 8505   2.527   2.794   6.568
 2536SOL     OW 8506   0.046   2.522   3.778
 2536SOL    HW1 8507   0.092   2.601   3.738
 2536SOL    HW2 8508   0.083   2.438   3.740
 2537SOL     OW 8509   5.613   6.959   6.270
 2537SOL    HW1 8510   5.652   6.928   6.183
 2537SOL    HW2 8511   5.685   7.002   6.324
 2538SOL     OW 8512   1.647   4.403   4.770
 2538SOL    HW1 8513   1.648   4.503   4.774
 2538SOL    HW2 8514   1.741   4.369   4.763
 2539SOL     OW 8515   4.290   0.036   5.667
 2539SOL    HW1 8516   4.230   0.029   5.747
 2539SOL    HW2 8517   4.288   6.970   5.616
 2540SOL     OW 8518   4.685   1.287   1.902
 2540SOL    HW1 8519   4.625   1.212   1.875
 2540SOL    HW2 8520   4.634   1.373   1.898
 2541SOL     OW 8521   1.764   0.000   5.362
 2541SOL    HW1 8522   1.774   7.007   5.263
 2541SOL    HW2 8523   1.686   0.061   5.379
 2542SOL     OW 8524   4.426   1.970   5.764
 2542SOL    HW1 8525   4.419   1.871   5.780
 2542SOL    HW2 8526   4.520   1.999   5.777
 2543SOL     OW 8527   1.918   1.135   3.269
 2543SOL    HW1 8528   1.923   1.195   3.189
 2543SOL    HW2 8529   1.928   1.040   3.239
 2544SOL     OW 8530   0.025   5.343   2.329
 2544SOL    HW1 8531   0.008   5.341   2.231
 2544SOL    HW2 8532   0.036   5.438   2.359
 2545SOL     OW 8533   1.982   0.703   0.739
 2545SOL    HW1 8534   1.999   0.781   0.800
 2545SOL    HW2 8535   1.965   0.621   0.793
 2546SOL     OW 8536   6.766   2.457   2.144
 2546SOL    HW1 8537   6.802   2.525   2.080
 2546SOL    HW2 8538   6.672   2.480   2.168
 2547SOL     OW 8539   6.060   5.267   0.020
 2547SOL    HW1 8540   5.975   5.212   0.018
 2547SOL    HW2 8541   6.057   5.335   6.967
 2548SOL     OW 8542   2.830   6.556   5.147
 2548SOL    HW1 8543   2.846   6.494   5.223
 2548SOL    HW2 8544   2.858   6.648   5.173
 2549SOL     OW 8545   2.165   1.641   1.286
 2549SOL    HW1 8546   2.264   1.637   1.302
 2549SOL    HW2 8547   2.147   1.695   1.204
 2550SOL     OW 8548   6.340   0.538   6.603
 2550SOL    HW1 8549   6.310   0.450   6.640
 2550SOL    HW2 8550   6.292   0.612   6.650
 2551SOL     OW 8551   2.831   5.542   0.152
 2551SOL    HW1 8552   2.770   5.509   0.224
 2551SOL    HW2 8553   2.922   5.558   0.189
 2552SOL     OW 8554   1.112   5.923   5.525
 2552SOL    HW1 8555   1.207   5.892   5.525
 2552SOL    HW2 8556   1.087   5.953   5.433
 2553SOL     OW 8557   2.907   3.610   0.125
 2553SOL    HW1 8558   2.973   3.682   0.105
 2553SOL    HW2 8559   2.840   3.605   0.051
 2554SOL     OW 8560   1.653   5.741   6.510
 2554SOL    HW1 8561   1.720   5.810   6.538
 2554SOL    HW2 8562   1.620   5.762   6.418
 2555SOL     OW 8563   5.794   6.056   5.890
 2555SOL    HW1 8564   5.763   6.112   5.967
 2555SOL    HW2 8565   5.840   5.974   5.924
 2556SOL     OW 8566   4.100   5.944   0.603
 2556SOL    HW1 8567   4.194   5.962   0.576
 2556SOL    HW2 8568   4.046   6.028   0.598
 2557SOL     OW 8569   2.087   2.410   6.744
 2557SOL    HW1 8570   2.059   2.493   6.793
 2557SOL    HW2 8571   2.009   2.350   6.733
 2558SOL     OW 8572   3.512   3.525   6.337
 2558SOL    HW1 8573   3.433   3.585   6.332
 2558SOL    HW2 8574   3.521   3.474   6.251
 2559SOL     OW 8575   6.273   2.954   4.638
 2559SOL    HW1 8576   6.360   2.933   4.593
 2559SOL    HW2 8577   6.271   2.911   4.728
 2560SOL     OW 8578   5.219   3.316   4.234
 2560SOL    HW1 8579   5.256   3.405   4.207
 2560SOL    HW2 8580   5.152   3.286   4.166
 2561SOL     OW 8581   3.900   0.439   3.554
 2561SOL    HW1 8582   3.961   0.426   3.476
 2561SOL    HW2 8583   3.894   0.353   3.606
 2562SOL     OW 8584   2.118   5.249   2.130
 2562SOL    HW1 8585   2.173   5.243   2.048
 2562SOL    HW2 8586   2.175   5.276   2.208
 2563SOL     OW 8587   4.156   1.728   6.354
 2563SOL    HW1 8588   4.229   1.662   6.335
 2563SOL    HW2 8589   4.071   1.697   6.310
 2564SOL     OW 8590   1.273   0.453   6.098
 2564SOL    HW1 8591   1.195   0.476   6.039
 2564SOL    HW2 8592   1.358   0.474   6.050
 2565SOL     OW 8593   0.031   0.596   0.625
 2565SOL    HW1 8594   0.116   0.642   0.599
 2565SOL    HW2 8595   6.983   0.606   0.552
 2566SOL     OW 8596   1.352   0.117   1.007
 2566SOL    HW1 8597   1.296   0.199   1.000
 2566SOL    HW2 8598   1.300   0.037   0.975
 2567SOL     OW 8599   1.121   1.847   2.307
 2567SOL    HW1 8600   1.204   1.891   2.273
 2567SOL    HW2 8601   1.049   1.854   2.238
 2568SOL     OW 8602   2.644   1.005   6.702
 2568SOL    HW1 8603   2.584   0.925   6.712
 2568SOL    HW2 8604   2.656   1.049   6.791
 2569SOL     OW 8605   2.716   1.046   2.176
 2569SOL    HW1 8606   2.650   1.116   2.205
 2569SOL    HW2 8607   2.668   0.974   2.127
 2570SOL     OW 8608   5.879   0.862   6.409
 2570SOL    HW1 8609   5.886   0.854   6.508
 2570SOL    HW2 8610   5.799   0.918   6.385
 2571SOL     OW 8611   2.631   3.560   5.455
 2571SOL    HW1 8612   2.678   3.635   5.500
 2571SOL    HW2 8613   2.698   3.491   5.425
 2572SOL     OW 8614   2.013   6.578   1.312
 2572SOL    HW1 8615   1.937   6.559   1.249
 2572SOL    HW2 8616   2.100   6.555   1.267
 2573SOL     OW 8617   6.550   1.611   2.745
 2573SOL    HW1 8618   6.482   1.621   2.818
 2573SOL    HW2 8619   6.563   1.514   2.725
 2574SOL     OW 8620   0.424   3.018   0.728
 2574SOL    HW1 8621   0.519   3.011   0.697
 2574SOL    HW2 8622   0.413   3.101   0.783
 2575SOL     OW 8623   5.341   4.219   0.073
 2575SOL    HW1 8624   5.247   4.186   0.075
 2575SOL    HW2 8625   5.398   4.152   0.025
 2576SOL     OW 8626   3.926   0.207   3.708
 2576SOL    HW1 8627   3.848   0.174   3.762
 2576SOL    HW2 8628   3.981   0.130   3.677
 2577SOL     OW 8629   4.593   6.386   2.493
 2577SOL    HW1 8630   4.584   6.479   2.457
 2577SOL    HW2 8631   4.687   6.355   2.481
 2578SOL     OW 8632   4.575   2.827   5.208
 2578SOL    HW1 8633   4.605   2.880   5.288
 2578SOL    HW2 8634   4.486   2.786   5.227
 2579SOL     OW 8635   1.297   0.821   3.718
 2579SOL    HW1 8636   1.338   0.836   3.807
 2579SOL    HW2 8637   1.203   0.787   3.729
 2580SOL     OW 8638   2.191   2.905   0.157
 2580SOL    HW1 8639   2.219   2.891   0.252
 2580SOL    HW2 8640   2.092   2.891   0.150
 2581SOL     OW 8641   6.433   4.487   1.661
 2581SOL    HW1 8642   6.498   4.541   1.713
 2581SOL    HW2 8643   6.350   4.541   1.644
 2582SOL     OW 8644   1.282   4.392   2.626
 2582SOL    HW1 8645   1.343   4.423   2.553
 2582SOL    HW2 8646   1.334   4.382   2.710
 2583SOL     OW 8647   0.850   1.607   1.328
 2583SOL    HW1 8648   0.872   1.692   1.376
 2583SOL    HW2 8649   0.902   1.602   1.243
 2584SOL     OW 8650   3.944   5.699   0.687
 2584SOL    HW1 8651   4.016   5.767   0.674
 2584SOL    HW2 8652   3.879   5.704   0.611
 2585SOL     OW 8653   3.655   0.660   0.154
 2585SOL    HW1 8654   3.617   0.727   0.090
 2585SOL    HW2 8655   3.724   0.605   0.108
 2586SOL     OW 8656   4.036   1.829   3.297
 2586SOL    HW1 8657   4.039   1.889   3.217
 2586SOL    HW2 8658   3.965   1.860   3.359
 2587SOL     OW 8659   6.546   0.651   4.088
 2587SOL    HW1 8660   6.545   0.676   4.184
 2587SOL    HW2 8661   6.639   0.623   4.061
 2588SOL     OW 8662   4.549   0.291   0.080
 2588SOL    HW1 8663   4.573   0.206   0.032
 2588SOL    HW2 8664   4.594   0.293   0.168
 2589SOL     OW 8665   0.310   5.867   5.684
 2589SOL    HW1 8666   0.360   5.781   5.691
 2589SOL    HW2 8667   0.286   5.884   5.588
 2590SOL     OW 8668   3.219   6.133   1.652
 2590SOL    HW1 8669   3.253   6.083   1.731
 2590SOL    HW2 8670   3.123   6.111   1.637
 2591SOL     OW 8671   6.650   6.218   2.194
 2591SOL    HW1 8672   6.640   6.172   2.282
 2591SOL    HW2 8673   6.579   6.186   2.131
 2592SOL     OW 8674   2.720   6.682   1.169
 2592SOL    HW1 8675   2.704   6.770   1.213
 2592SOL    HW2 8676   2.746   6.614   1.237
 2593SOL     OW 8677   2.798   6.494   1.346
 2593SOL    HW1 8678   2.734   6.505   1.422
 2593SOL    HW2 8679   2.891   6.489   1.382
 2594SOL     OW 8680   0.309   5.808   6.003
 2594SOL    HW1 8681   0.380   5.795   6.073
 2594SOL    HW2 8682   0.338   5.881   5.940
 2595SOL     OW 8683   6.255   1.281   5.234
 2595SOL    HW1 8684   6.328   1.263   5.168
 2595SOL    HW2 8685   6.275   1.365   5.284
 2596SOL     OW 8686   3.790   2.060   1.746
 2596SOL    HW1 8687   3.847   1.987   1.783
 2596SOL    HW2 8688   3.786   2.135   1.812
 2597SOL     OW 8689   2.043   3.874   6.498
 2597SOL    HW1 8690   2.032   3.832   6.408
 2597SOL    HW2 8691   2.139   3.869   6.525
 2598SOL     OW 8692   6.212   0.791   4.291
 2598SOL    HW1 8693   6.284   0.831   4.234
 2598SOL    HW2 8694   6.223   0.824   4.385
 2599SOL     OW 8695   3.124   0.386   0.834
 2599SOL    HW1 8696   3.089   0.428   0.751
 2599SOL    HW2 8697   3.224   0.378   0.828
 2600SOL     OW 8698   4.882   3.242   4.612
 2600SOL    HW1 8699   4.914   3.275   4.523
 2600SOL    HW2 8700   4.833   3.315   4.659
 2601SOL     OW 8701   2.574   1.768   6.593
 2601SOL    HW1 8702   2.506   1.707   6.553
 2601SOL    HW2 8703   2.664   1.723   6.591
 2602SOL     OW 8704   6.789   4.537   3.802
 2602SOL    HW1 8705   6.726   4.520   3.879
 2602SOL    HW2 8706   6.883   4.525   3.833
 2603SOL     OW 8707   2.104   1.779   2.664
 2603SOL    HW1 8708   2.180   1.733   2.620
 2603SOL    HW2 8709   2.074   1.856   2.607
 2604SOL     OW 8710   5.028   1.039   3.194
 2604SOL    HW1 8711   5.077   1.010   3.112
 2604SOL    HW2 8712   4.930   1.022   3.182
 2605SOL     OW 8713   2.662   4.621   2.887
 2605SOL    HW1 8714   2.668   4.713   2.926
 2605SOL    HW2 8715   2.741   4.604   2.828
 2606SOL     OW 8716   0.011   4.705   1.074
 2606SOL    HW1 8717   6.994   4.793   1.043
 2606SOL    HW2 8718   0.053   4.657   0.997
 2607SOL     OW 8719   0.582   1.034   5.747
 2607SOL    HW1 8720   0.572   0.978   5.828
 2607SOL    HW2 8721   0.492   1.058   5.710
 2608SOL     OW 8722   4.432   5.293   2.207
 2608SOL    HW1 8723   4.362   5.352   2.246
 2608SOL    HW2 8724   4.474   5.238   2.280
 2609SOL     OW 8725   0.046   1.723   1.964
 2609SOL    HW1 8726   0.111   1.674   2.023
 2609SOL    HW2 8727   0.087   1.736   1.874
 2610SOL     OW 8728   6.946   4.907   4.369
 2610SOL    HW1 8729   6.966   4.935   4.275
 2610SOL    HW2 8730   6.968   4.810   4.381
 2611SOL     OW 8731   4.570   5.952   1.375
 2611SOL    HW1 8732   4.652   6.010   1.364
 2611SOL    HW2 8733   4.524   5.944   1.286
 2612SOL     OW 8734   6.401   6.437   5.999
 2612SOL    HW1 8735   6.467   6.376   5.954
 2612SOL    HW2 8736   6.446   6.485   6.074
 2613SOL     OW 8737   2.634   6.440   0.752
 2613SOL    HW1 8738   2.605   6.359   0.803
 2613SOL    HW2 8739   2.557   6.476   0.699
 2614SOL     OW 8740   6.554   0.820   6.265
 2614SOL    HW1 8741   6.574   0.776   6.177
 2614SOL    HW2 8742   6.457   0.844   6.269
 2615SOL     OW 8743   6.347   3.671   3.573
 2615SOL    HW1 8744   6.346   3.736   3.649
 2615SOL    HW2 8745   6.295   3.708   3.497
 2616SOL     OW 8746   3.660   3.303   4.609
 2616SOL    HW1 8747   3.656   3.346   4.519
 2616SOL    HW2 8748   3.699   3.212   4.601
 2617SOL     OW 8749   3.748   6.856   0.926
 2617SOL    HW1 8750   3.674   6.868   0.860
 2617SOL    HW2 8751   3.820   6.923   0.909
 2618SOL     OW 8752   0.200   6.801   4.437
 2618SOL    HW1 8753   0.194   6.856   4.355
 2618SOL    HW2 8754   0.283   6.824   4.487
 2619SOL     OW 8755   3.965   1.587   3.024
 2619SOL    HW1 8756   4.003   1.625   2.940
 2619SOL    HW2 8757   3.933   1.493   3.007
 2620SOL     OW 8758   0.490   6.148   2.696
 2620SOL    HW1 8759   0.420   6.217   2.714
 2620SOL    HW2 8760   0.563   6.155   2.764
 2621SOL     OW 8761   1.422   5.742   2.335
 2621SOL    HW1 8762   1.495   5.709   2.395
 2621SOL    HW2 8763   1.435   5.840   2.317
 2622SOL     OW 8764   2.144   2.396   5.778
 2622SOL    HW1 8765   2.219   2.402   5.711
 2622SOL    HW2 8766   2.173   2.340   5.856
 2623SOL     OW 8767   2.389   1.310   5.300
 2623SOL    HW1 8768   2.301   1.276   5.269
 2623SOL    HW2 8769   2.458   1.238   5.291
 2624SOL     OW 8770   6.200   2.316   5.011
 2624SOL    HW1 8771   6.200   2.416   5.006
 2624SOL    HW2 8772   6.147   2.279   4.935
 2625SOL     OW 8773   2.464   1.845   5.685
 2625SOL    HW1 8774   2.476   1.854   5.784
 2625SOL    HW2 8775   2.423   1.757   5.664
 2626SOL     OW 8776   0.212   0.483   5.415
 2626SOL    HW1 8777   0.245   0.394   5.446
 2626SOL    HW2 8778   0.196   0.481   5.317
 2627SOL     OW 8779   1.130   1.459   5.149
 2627SOL    HW1 8780   1.150   1.483   5.244
 2627SOL    HW2 8781   1.031   1.457   5.135
 2628SOL     OW 8782   1.865   4.664   5.997
 2628SOL    HW1 8783   1.908   4.740   5.949
 2628SOL    HW2 8784   1.769   4.685   6.014
 2629SOL     OW 8785   3.172   4.030   2.001
 2629SOL    HW1 8786   3.122   4.085   1.934
 2629SOL    HW2 8787   3.120   4.027   2.087
 2630SOL     OW 8788   3.280   1.617   3.484
 2630SOL    HW1 8789   3.229   1.703   3.488
 2630SOL    HW2 8790   3.307   1.589   3.576
 2631SOL     OW 8791   5.252   0.336   4.876
 2631SOL    HW1 8792   5.275   0.366   4.969
 2631SOL    HW2 8793   5.306   0.255   4.852
 2632SOL     OW 8794   2.992   2.221   6.302
 2632SOL    HW1 8795   2.927   2.247   6.230
 2632SOL    HW2 8796   3.084   2.217   6.263
 2633SOL     OW 8797   6.455   1.282   5.037
 2633SOL    HW1 8798   6.554   1.287   5.026
 2633SOL    HW2 8799   6.414   1.367   5.004
 2634SOL     OW 8800   1.466   3.815   3.120
 2634SOL    HW1 8801   1.480   3.837   3.023
 2634SOL    HW2 8802   1.466   3.716   3.132
 2635SOL     OW 8803   6.301   6.136   5.260
 2635SOL    HW1 8804   6.340   6.214   5.211
 2635SOL    HW2 8805   6.258   6.168   5.345
 2636SOL     OW 8806   4.901   0.294   5.290
 2636SOL    HW1 8807   4.991   0.282   5.247
 2636SOL    HW2 8808   4.840   0.341   5.225
 2637SOL     OW 8809   5.505   1.414   3.502
 2637SOL    HW1 8810   5.455   1.485   3.452
 2637SOL    HW2 8811   5.446   1.374   3.572
 2638SOL     OW 8812   6.498   0.338   3.298
 2638SOL    HW1 8813   6.546   0.253   3.317
 2638SOL    HW2 8814   6.562   0.414   3.301
 2639SOL     OW 8815   0.841   0.132   1.737
 2639SOL    HW1 8816   0.871   0.108   1.829
 2639SOL    HW2 8817   0.810   0.227   1.736
 2640SOL     OW 8818   0.015   6.053   4.500
 2640SOL    HW1 8819   6.965   5.983   4.487
 2640SOL    HW2 8820   0.106   6.012   4.494
 2641SOL     OW 8821   4.890   3.099   2.180
 2641SOL    HW1 8822   4.823   3.089   2.107
 2641SOL    HW2 8823   4.845   3.126   2.265
 2642SOL     OW 8824   4.187   6.952   4.410
 2642SOL    HW1 8825   4.256   7.012   4.451
 2642SOL    HW2 8826   4.222   6.858   4.408
 2643SOL     OW 8827   0.063   3.616   2.694
 2643SOL    HW1 8828   0.141   3.658   2.740
 2643SOL    HW2 8829   7.014   3.590   2.763
 2644SOL     OW 8830   5.900   5.457   5.998
 2644SOL    HW1 8831   5.959   5.496   5.927
 2644SOL    HW2 8832   5.816   5.422   5.956
 2645SOL     OW 8833   4.693   5.713   4.896
 2645SOL    HW1 8834   4.610   5.739   4.846
 2645SOL    HW2 8835   4.668   5.655   4.974
 2646SOL     OW 8836   5.981   0.711   6.884
 2646SOL    HW1 8837   5.939   0.762   6.809
 2646SOL    HW2 8838   5.990   0.770   6.964
 2647SOL     OW 8839   6.347   0.666   1.796
 2647SOL    HW1 8840   6.310   0.757   1.812
 2647SOL    HW2 8841   6.272   0.601   1.782
 2648SOL     OW 8842   0.489   6.812   4.101
 2648SOL    HW1 8843   0.394   6.805   4.069
 2648SOL    HW2 8844   0.517   6.908   4.103
 2649SOL     OW 8845   6.002   2.982   6.635
 2649SOL    HW1 8846   6.101   2.969   6.627
 2649SOL    HW2 8847   5.957   2.950   6.552
 2650SOL     OW 8848   0.806   4.123   4.209
 2650SOL    HW1 8849   0.843   4.206   4.167
 2650SOL    HW2 8850   0.750   4.148   4.288
 2651SOL     OW 8851   0.668   1.568   0.070
 2651SOL    HW1 8852   0.719   1.607   7.014
 2651SOL    HW2 8853   0.732   1.528   0.136
 2652SOL     OW 8854   3.388   3.980   4.047
 2652SOL    HW1 8855   3.396   3.882   4.026
 2652SOL    HW2 8856   3.412   3.996   4.143
 2653SOL     OW 8857   5.127   6.765   5.806
 2653SOL    HW1 8858   5.175   6.851   5.822
 2653SOL    HW2 8859   5.053   6.779   5.741
 2654SOL     OW 8860   5.349   5.023   1.273
 2654SOL    HW1 8861   5.279   5.072   1.325
 2654SOL    HW2 8862   5.371   4.937   1.319
 2655SOL     OW 8863   4.795   5.478   4.196
 2655SOL    HW1 8864   4.727   5.468   4.123
 2655SOL    HW2 8865   4.756   5.444   4.282
 2656SOL     OW 8866   3.214   4.916   3.902
 2656SOL    HW1 8867   3.214   4.861   3.985
 2656SOL    HW2 8868   3.309   4.935   3.875
 2657SOL     OW 8869   1.397   3.935   6.113
 2657SOL    HW1 8870   1.413   3.836   6.111
 2657SOL    HW2 8871   1.345   3.959   6.195
 2658SOL     OW 8872   4.871   4.281   0.417
 2658SOL    HW1 8873   4.849   4.203   0.358
 2658SOL    HW2 8874   4.892   4.248   0.509
 2659SOL     OW 8875   6.007   2.930   4.841
 2659SOL    HW1 8876   5.930   2.919   4.903
 2659SOL    HW2 8877   6.026   2.843   4.796
 2660SOL     OW 8878   1.008   0.895   0.872
 2660SOL    HW1 8879   1.096   0.934   0.895
 2660SOL    HW2 8880   0.956   0.877   0.956
 2661SOL     OW 8881   2.297   6.858   0.637
 2661SOL    HW1 8882   2.276   6.938   0.694
 2661SOL    HW2 8883   2.231   6.786   0.655
 2662SOL     OW 8884   4.621   6.665   5.587
 2662SOL    HW1 8885   4.619   6.647   5.685
 2662SOL    HW2 8886   4.662   6.755   5.570
 2663SOL     OW 8887   2.978   4.157   0.836
 2663SOL    HW1 8888   2.955   4.162   0.739
 2663SOL    HW2 8889   2.898   4.126   0.887
 2664SOL     OW 8890   3.861   3.840   5.355
 2664SOL    HW1 8891   3.873   3.880   5.264
 2664SOL    HW2 8892   3.766   3.808   5.364
 2665SOL     OW 8893   2.541   2.799   5.251
 2665SOL    HW1 8894   2.509   2.868   5.186
 2665SOL    HW2 8895   2.507   2.709   5.223
 2666SOL     OW 8896   5.723   4.123   1.220
 2666SOL    HW1 8897   5.656   4.053   1.195
 2666SOL    HW2 8898   5.799   4.122   1.155
 2667SOL     OW 8899   1.480   6.301   4.182
 2667SOL    HW1 8900   1.515   6.317   4.089
 2667SOL    HW2 8901   1.539   6.347   4.248
 2668SOL     OW 8902   6.363   3.605   4.235
 2668SOL    HW1 8903   6.289   3.581   4.299
 2668SOL    HW2 8904   6.324   3.623   4.145
 2669SOL     OW 8905   2.662   4.674   5.244
 2669SOL    HW1 8906   2.609   4.657   5.161
 2669SOL    HW2 8907   2.759   4.653   5.227
 2670SOL     OW 8908   6.005   2.354   6.402
 2670SOL    HW1 8909   6.002   2.454   6.392
 2670SOL    HW2 8910   5.949   2.327   6.480
 2671SOL     OW 8911   3.919   5.203   6.449
 2671SOL    HW1 8912   3.930   5.184   6.546
 2671SOL    HW2 8913   3.862   5.132   6.407
 2672SOL     OW 8914   0.541   5.411   1.122
 2672SOL    HW1 8915   0.547   5.333   1.060
 2672SOL    HW2 8916   0.479   5.479   1.084
 2673SOL     OW 8917   6.182   1.512   4.036
 2673SOL    HW1 8918   6.106   1.538   3.976
 2673SOL    HW2 8919   6.178   1.414   4.054
 2674SOL     OW 8920   1.193   4.466   3.378
 2674SOL    HW1 8921   1.160   4.499   3.466
 2674SOL    HW2 8922   1.282   4.423   3.389
 2675SOL     OW 8923   6.417   5.386   3.748
 2675SOL    HW1 8924   6.420   5.464   3.685
 2675SOL    HW2 8925   6.413   5.420   3.842
 2676SOL     OW 8926   4.317   1.733   0.465
 2676SOL    HW1 8927   4.312   1.634   0.456
 2676SOL    HW2 8928   4.224   1.771   0.467
 2677SOL     OW 8929   3.084   3.226   0.567
 2677SOL    HW1 8930   3.179   3.223   0.538
 2677SOL    HW2 8931   3.064   3.146   0.624
 2678SOL     OW 8932   0.343   2.597   1.463
 2678SOL    HW1 8933   0.333   2.682   1.516
 2678SOL    HW2 8934   0.406   2.536   1.510
 2679SOL     OW 8935   3.396   4.712   0.943
 2679SOL    HW1 8936   3.315   4.769   0.952
 2679SOL    HW2 8937   3.477   4.771   0.940
 2680SOL     OW 8938   1.055   1.228   0.586
 2680SOL    HW1 8939   1.103   1.284   0.654
 2680SOL    HW2 8940   1.122   1.185   0.526
 2681SOL     OW 8941   1.240   2.417   4.890
 2681SOL    HW1 8942   1.281   2.466   4.967
 2681SOL    HW2 8943   1.300   2.342   4.863
 2682SOL     OW 8944   5.359   4.587   2.458
 2682SOL    HW1 8945   5.346   4.532   2.541
 2682SOL    HW2 8946   5.357   4.527   2.378
 2683SOL     OW 8947   2.667   4.422   1.170
 2683SOL    HW1 8948   2.698   4.515   1.192
 2683SOL    HW2 8949   2.747   4.363   1.156
 2684SOL     OW 8950   4.308   5.310   0.921
 2684SOL    HW1 8951   4.299   5.407   0.899
 2684SOL    HW2 8952   4.298   5.296   1.020
 2685SOL     OW 8953   6.254   6.237   6.488
 2685SOL    HW1 8954   6.172   6.282   6.524
 2685SOL    HW2 8955   6.273   6.272   6.396
 2686SOL     OW 8956   1.649   1.853   5.987
 2686SOL    HW1 8957   1.659   1.951   5.969
 2686SOL    HW2 8958   1.572   1.838   6.049
 2687SOL     OW 8959   4.771   4.309   2.135
 2687SOL    HW1 8960   4.821   4.327   2.051
 2687SOL    HW2 8961   4.675   4.289   2.114
 2688SOL     OW 8962   4.583   4.311   0.212
 2688SOL    HW1 8963   4.593   4.398   0.164
 2688SOL    HW2 8964   4.671   4.264   0.213
 2689SOL     OW 8965   1.600   3.331   3.662
 2689SOL    HW1 8966   1.508   3.361   3.687
 2689SOL    HW2 8967   1.640   3.279   3.737
 2690SOL     OW 8968   3.486   3.591   3.593
 2690SOL    HW1 8969   3.444   3.648   3.664
 2690SOL    HW2 8970   3.441   3.502   3.591
 2691SOL     OW 8971   1.636   5.768   1.815
 2691SOL    HW1 8972   1.712   5.774   1.750
 2691SOL    HW2 8973   1.588   5.681   1.802
 2692SOL     OW 8974   3.581   5.139   2.566
 2692SOL    HW1 8975   3.588   5.174   2.659
 2692SOL    HW2 8976   3.513   5.065   2.563
 2693SOL     OW 8977   1.714   4.867   2.423
 2693SOL    HW1 8978   1.679   4.947   2.375
 2693SOL    HW2 8979   1.721   4.888   2.521
 2694SOL     OW 8980   4.176   6.602   2.863
 2694SOL    HW1 8981   4.264   6.561   2.843
 2694SOL    HW2 8982   4.119   6.537   2.914
 2695SOL     OW 8983   5.150   0.254   2.580
 2695SOL    HW1 8984   5.143   0.329   2.514
 2695SOL    HW2 8985   5.223   0.192   2.553
 2696SOL     OW 8986   3.604   3.293   5.630
 2696SOL    HW1 8987   3.608   3.393   5.635
 2696SOL    HW2 8988   3.607   3.264   5.534
 2697SOL     OW 8989   3.679   2.137   3.072
 2697SOL    HW1 8990   3.714   2.159   2.980
 2697SOL    HW2 8991   3.740   2.177   3.141
 2698SOL     OW 8992   2.414   6.506   0.367
 2698SOL    HW1 8993   2.424   6.414   0.329
 2698SOL    HW2 8994   2.354   6.561   0.308
 2699SOL     OW 8995   2.854   6.577   0.658
 2699SOL    HW1 8996   2.780   6.522   0.695
 2699SOL    HW2 8997   2.817   6.647   0.597
 2700SOL     OW 8998   2.202   3.700   0.733
 2700SOL    HW1 8999   2.139   3.742   0.668
 2700SOL    HW2 9000   2.163   3.704   0.825
 2701SOL     OW 9001   4.771   0.919   6.576
 2701SOL    HW1 9002   4.727   0.992   6.629
 2701SOL    HW2 9003   4.832   0.867   6.636
 2702SOL     OW 9004   0.962   3.074   3.963
 2702SOL    HW1 9005   1.045   3.118   3.931
 2702SOL    HW2 9006   0.933   3.116   4.049
 2703SOL     OW 9007   1.674   0.688   1.986
 2703SOL    HW1 9008   1.577   0.712   1.981
 2703SOL    HW2 9009   1.683   0.596   2.026
 2704SOL     OW 9010   6.946   6.519   1.185
 2704SOL    HW1 9011   6.915   6.438   1.233
 2704SOL    HW2 9012   6.891   6.598   1.214
 2705SOL     OW 9013   0.215   5.548   4.641
 2705SOL    HW1 9014   0.205   5.642   4.674
 2705SOL    HW2 9015   0.210   5.485   4.718
 2706SOL     OW 9016   0.514   0.288   1.553
 2706SOL    HW1 9017   0.437   0.313   1.495
 2706SOL    HW2 9018   0.483   0.281   1.648
 2707SOL     OW 9019   3.127   0.427   4.498
 2707SOL    HW1 9020   3.040   0.378   4.499
 2707SOL    HW2 9021   3.112   0.521   4.470
 2708SOL     OW 9022   0.472   2.566   6.565
 2708SOL    HW1 9023   0.461   2.580   6.663
 2708SOL    HW2 9024   0.562   2.600   6.537
 2709SOL     OW 9025   6.492   6.291   0.031
 2709SOL    HW1 9026   6.484   6.355   6.974
 2709SOL    HW2 9027   6.577   6.308   0.080
 2710SOL     OW 9028   0.806   3.765   3.732
 2710SOL    HW1 9029   0.713   3.728   3.735
 2710SOL    HW2 9030   0.849   3.751   3.821
 2711SOL     OW 9031   2.448   1.586   4.290
 2711SOL    HW1 9032   2.425   1.489   4.293
 2711SOL    HW2 9033   2.441   1.619   4.196
 2712SOL     OW 9034   3.090   4.356   0.972
 2712SOL    HW1 9035   3.053   4.448   0.978
 2712SOL    HW2 9036   3.028   4.299   0.918
 2713SOL     OW 9037   2.371   2.355   4.778
 2713SOL    HW1 9038   2.442   2.413   4.738
 2713SOL    HW2 9039   2.376   2.359   4.877
 2714SOL     OW 9040   4.381   2.301   0.297
 2714SOL    HW1 9041   4.375   2.375   0.230
 2714SOL    HW2 9042   4.363   2.337   0.389
 2715SOL     OW 9043   4.735   1.399   0.853
 2715SOL    HW1 9044   4.695   1.408   0.761
 2715SOL    HW2 9045   4.736   1.488   0.897
 2716SOL     OW 9046   5.289   4.383   3.084
 2716SOL    HW1 9047   5.208   4.325   3.097
 2716SOL    HW2 9048   5.359   4.333   3.035
 2717SOL     OW 9049   1.259   5.526   2.236
 2717SOL    HW1 9050   1.309   5.603   2.276
 2717SOL    HW2 9051   1.237   5.460   2.308
 2718SOL     OW 9052   1.706   2.247   5.435
 2718SOL    HW1 9053   1.746   2.281   5.520
 2718SOL    HW2 9054   1.608   2.231   5.448
 2719SOL     OW 9055   6.779   5.698   1.008
 2719SOL    HW1 9056   6.851   5.642   0.968
 2719SOL    HW2 9057   6.819   5.779   1.051
 2720SOL     OW 9058   1.608   6.091   2.024
 2720SOL    HW1 9059   1.603   5.996   2.054
 2720SOL    HW2 9060   1.639   6.095   1.929
 2721SOL     OW 9061   3.131   0.652   3.799
 2721SOL    HW1 9062   3.033   0.629   3.807
 2721SOL    HW2 9063   3.179   0.619   3.881
 2722SOL     OW 9064   6.352   5.495   1.661
 2722SOL    HW1 9065   6.375   5.560   1.589
 2722SOL    HW2 9066   6.253   5.481   1.663
 2723SOL     OW 9067   1.111   0.123   5.820
 2723SOL    HW1 9068   1.159   0.202   5.780
 2723SOL    HW2 9069   1.025   0.108   5.772
 2724SOL     OW 9070   2.024   6.932   6.400
 2724SOL    HW1 9071   2.053   6.840   6.425
 2724SOL    HW2 9072   1.924   6.938   6.406
 2725SOL     OW 9073   5.304   5.186   4.494
 2725SOL    HW1 9074   5.384   5.137   4.459
 2725SOL    HW2 9075   5.277   5.257   4.429
 2726SOL     OW 9076   6.800   2.881   1.146
 2726SOL    HW1 9077   6.855   2.867   1.064
 2726SOL    HW2 9078   6.756   2.795   1.171
 2727SOL     OW 9079   0.369   5.056   3.621
 2727SOL    HW1 9080   0.434   4.985   3.595
 2727SOL    HW2 9081   0.323   5.031   3.706
 2728SOL     OW 9082   4.120   6.412   5.655
 2728SOL    HW1 9083   4.061   6.348   5.704
 2728SOL    HW2 9084   4.214   6.403   5.688
 2729SOL     OW 9085   6.555   5.919   1.168
 2729SOL    HW1 9086   6.641   5.911   1.118
 2729SOL    HW2 9087   6.479   5.923   1.103
 2730SOL     OW 9088   2.361   5.339   1.571
 2730SOL    HW1 9089   2.284   5.303   1.622
 2730SOL    HW2 9090   2.361   5.301   1.478
 2731SOL     OW 9091   4.038   3.489   2.200
 2731SOL    HW1 9092   4.103   3.438   2.143
 2731SOL    HW2 9093   3.963   3.428   2.228
 2732SOL     OW 9094   5.522   2.210   1.640
 2732SOL    HW1 9095   5.546   2.220   1.544
 2732SOL    HW2 9096   5.597   2.242   1.698
 2733SOL     OW 9097   0.290   0.123   4.158
 2733SOL    HW1 9098   0.332   0.126   4.248
 2733SOL    HW2 9099   0.307   0.209   4.110
 2734SOL     OW 9100   2.187   5.923   1.466
 2734SOL    HW1 9101   2.109   5.866   1.440
 2734SOL    HW2 9102   2.217   5.977   1.387
 2735SOL     OW 9103   0.982   3.982   2.586
 2735SOL    HW1 9104   1.056   4.020   2.531
 2735SOL    HW2 9105   0.915   4.054   2.606
 2736SOL     OW 9106   4.764   6.441   5.086
 2736SOL    HW1 9107   4.802   6.534   5.081
 2736SOL    HW2 9108   4.797   6.387   5.009
 2737SOL     OW 9109   3.290   3.204   5.556
 2737SOL    HW1 9110   3.254   3.297   5.551
 2737SOL    HW2 9111   3.298   3.177   5.652
 2738SOL     OW 9112   5.207   5.368   3.411
 2738SOL    HW1 9113   5.210   5.270   3.429
 2738SOL    HW2 9114   5.273   5.391   3.340
 2739SOL     OW 9115   0.228   4.718   1.291
 2739SOL    HW1 9116   0.292   4.767   1.232
 2739SOL    HW2 9117   0.156   4.676   1.235
 2740SOL     OW 9118   6.581   3.844   2.835
 2740SOL    HW1 9119   6.526   3.761   2.836
 2740SOL    HW2 9120   6.623   3.857   2.925
 2741SOL     OW 9121   6.096   0.670   5.447
 2741SOL    HW1 9122   6.164   0.723   5.497
 2741SOL    HW2 9123   6.142   0.606   5.385
 2742SOL     OW 9124   2.003   5.098   6.510
 2742SOL    HW1 9125   2.090   5.061   6.479
 2742SOL    HW2 9126   1.936   5.024   6.515
 2743SOL     OW 9127   6.807   5.088   2.183
 2743SOL    HW1 9128   6.731   5.148   2.157
 2743SOL    HW2 9129   6.885   5.143   2.213
 2744SOL     OW 9130   5.310   1.581   6.645
 2744SOL    HW1 9131   5.316   1.645   6.722
 2744SOL    HW2 9132   5.311   1.633   6.560
 2745SOL     OW 9133   0.568   6.829   5.923
 2745SOL    HW1 9134   0.574   6.810   6.021
 2745SOL    HW2 9135   0.625   6.908   5.901
 2746SOL     OW 9136   2.414   2.046   3.912
 2746SOL    HW1 9137   2.452   2.090   3.994
 2746SOL    HW2 9138   2.458   2.083   3.831
 2747SOL     OW 9139   6.094   3.597   5.982
 2747SOL    HW1 9140   6.024   3.544   5.934
 2747SOL    HW2 9141   6.131   3.667   5.921
 2748SOL     OW 9142   5.410   1.676   1.131
 2748SOL    HW1 9143   5.470   1.619   1.076
 2748SOL    HW2 9144   5.331   1.623   1.162
 2749SOL     OW 9145   6.428   4.804   3.496
 2749SOL    HW1 9146   6.514   4.836   3.457
 2749SOL    HW2 9147   6.440   4.712   3.533
 2750SOL     OW 9148   0.495   5.057   1.500
 2750SOL    HW1 9149   0.552   5.043   1.582
 2750SOL    HW2 9150   0.418   5.116   1.523
 2751SOL     OW 9151   0.064   6.622   1.499
 2751SOL    HW1 9152   0.038   6.688   1.429
 2751SOL    HW2 9153   0.152   6.648   1.539
 2752SOL     OW 9154   4.301   4.718   5.795
 2752SOL    HW1 9155   4.290   4.637   5.738
 2752SOL    HW2 9156   4.257   4.796   5.752
 2753SOL     OW 9157   0.238   6.651   5.320
 2753SOL    HW1 9158   0.243   6.646   5.420
 2753SOL    HW2 9159   0.331   6.654   5.283
 2754SOL     OW 9160   7.015   0.633   3.239
 2754SOL    HW1 9161   7.014   0.540   3.277
 2754SOL    HW2 9162   7.005   0.700   3.312
 2755SOL     OW 9163   2.090   6.921   3.373
 2755SOL    HW1 9164   2.038   6.853   3.424
 2755SOL    HW2 9165   2.052   7.012   3.390
 2756SOL     OW 9166   5.621   3.914   6.296
 2756SOL    HW1 9167   5.575   3.933   6.209
 2756SOL    HW2 9168   5.709   3.961   6.297
 2757SOL     OW 9169   2.554   1.456   6.223
 2757SOL    HW1 9170   2.559   1.356   6.219
 2757SOL    HW2 9171   2.472   1.487   6.173
 2758SOL     OW 9172   4.981   6.068   3.037
 2758SOL    HW1 9173   4.909   6.014   3.082
 2758SOL    HW2 9174   4.946   6.104   2.951
 2759SOL     OW 9175   4.880   5.551   5.492
 2759SOL    HW1 9176   4.909   5.634   5.539
 2759SOL    HW2 9177   4.806   5.508   5.543
 2760SOL     OW 9178   0.309   5.582   3.088
 2760SOL    HW1 9179   0.368   5.566   3.009
 2760SOL    HW2 9180   0.362   5.571   3.172
 2761SOL     OW 9181   2.083   4.360   4.939
 2761SOL    HW1 9182   2.105   4.300   5.016
 2761SOL    HW2 9183   2.069   4.453   4.972
 2762SOL     OW 9184   2.244   1.286   6.156
 2762SOL    HW1 9185   2.268   1.279   6.253
 2762SOL    HW2 9186   2.320   1.328   6.106
 2763SOL     OW 9187   4.837   2.338   5.074
 2763SOL    HW1 9188   4.933   2.348   5.051
 2763SOL    HW2 9189   4.805   2.420   5.122
 2764SOL     OW 9190   0.296   0.778   1.478
 2764SOL    HW1 9191   0.355   0.719   1.424
 2764SOL    HW2 9192   0.301   0.871   1.444
 2765SOL     OW 9193   6.169   6.727   0.791
 2765SOL    HW1 9194   6.119   6.651   0.834
 2765SOL    HW2 9195   6.151   6.811   0.841
 2766SOL     OW 9196   4.718   2.990   0.295
 2766SOL    HW1 9197   4.700   2.892   0.307
 2766SOL    HW2 9198   4.707   3.014   0.199
 2767SOL     OW 9199   6.873   5.365   0.511
 2767SOL    HW1 9200   6.777   5.375   0.539
 2767SOL    HW2 9201   6.884   5.280   0.460
 2768SOL     OW 9202   4.554   0.607   1.174
 2768SOL    HW1 9203   4.581   0.701   1.154
 2768SOL    HW2 9204   4.513   0.603   1.266
 2769SOL     OW 9205   1.919   4.591   6.463
 2769SOL    HW1 9206   1.976   4.656   6.413
 2769SOL    HW2 9207   1.823   4.618   6.454
 2770SOL     OW 9208   4.373   5.369   5.785
 2770SOL    HW1 9209   4.339   5.445   5.841
 2770SOL    HW2 9210   4.332   5.284   5.817
 2771SOL     OW 9211   5.825   1.238   4.911
 2771SOL    HW1 9212   5.798   1.143   4.928
 2771SOL    HW2 9213   5.916   1.254   4.948
 2772SOL     OW 9214   3.362   1.343   0.904
 2772SOL    HW1 9215   3.271   1.329   0.865
 2772SOL    HW2 9216   3.430   1.293   0.851
 2773SOL     OW 9217   6.584   2.301   4.482
 2773SOL    HW1 9218   6.550   2.207   4.486
 2773SOL    HW2 9219   6.609   2.331   4.574
 2774SOL     OW 9220   5.601   2.381   3.418
 2774SOL    HW1 9221   5.509   2.402   3.448
 2774SOL    HW2 9222   5.603   2.372   3.318
 2775SOL     OW 9223   6.895   3.791   5.494
 2775SOL    HW1 9224   6.977   3.847   5.506
 2775SOL    HW2 9225   6.816   3.839   5.533
 2776SOL     OW 9226   4.647   3.996   5.785
 2776SOL    HW1 9227   4.639   4.027   5.690
 2776SOL    HW2 9228   4.585   4.050   5.842
 2777SOL     OW 9229   2.942   1.878   1.383
 2777SOL    HW1 9230   2.909   1.950   1.444
 2777SOL    HW2 9231   2.924   1.904   1.288
 2778SOL     OW 9232   1.526   6.898   5.902
 2778SOL    HW1 9233   1.584   6.819   5.883
 2778SOL    HW2 9234   1.514   6.909   6.000
 2779SOL     OW 9235   5.201   6.476   2.362
 2779SOL    HW1 9236   5.153   6.501   2.446
 2779SOL    HW2 9237   5.135   6.467   2.288
 2780SOL     OW 9238   0.955   6.636   5.878
 2780SOL    HW1 9239   0.878   6.573   5.886
 2780SOL    HW2 9240   0.983   6.665   5.969
 2781SOL     OW 9241   6.050   0.402   2.008
 2781SOL    HW1 9242   6.031   0.304   2.002
 2781SOL    HW2 9243   6.030   0.434   2.101
 2782SOL     OW 9244   4.484   1.327   5.377
 2782SOL    HW1 9245   4.444   1.315   5.468
 2782SOL    HW2 9246   4.412   1.320   5.308
 2783SOL     OW 9247   5.334   4.196   2.256
 2783SOL    HW1 9248   5.368   4.113   2.210
 2783SOL    HW2 9249   5.411   4.245   2.296
 2784SOL     OW 9250   3.784   1.328   2.428
 2784SOL    HW1 9251   3.794   1.418   2.385
 2784SOL    HW2 9252   3.758   1.261   2.359
 2785SOL     OW 9253   5.472   2.147   0.870
 2785SOL    HW1 9254   5.514   2.229   0.833
 2785SOL    HW2 9255   5.525   2.113   0.947
 2786SOL     OW 9256   5.602   6.662   2.217
 2786SOL    HW1 9257   5.559   6.661   2.127
 2786SOL    HW2 9258   5.584   6.749   2.262
 2787SOL     OW 9259   5.729   6.727   5.703
 2787SOL    HW1 9260   5.783   6.771   5.775
 2787SOL    HW2 9261   5.651   6.785   5.679
 2788SOL     OW 9262   2.616   6.179   5.747
 2788SOL    HW1 9263   2.652   6.241   5.678
 2788SOL    HW2 9264   2.561   6.108   5.703
 2789SOL     OW 9265   1.971   1.897   4.191
 2789SOL    HW1 9266   2.033   1.947   4.131
 2789SOL    HW2 9267   2.022   1.827   4.240
 2790SOL     OW 9268   3.448   5.518   1.611
 2790SOL    HW1 9269   3.413   5.597   1.661
 2790SOL    HW2 9270   3.371   5.469   1.569
 2791SOL     OW 9271   0.420   2.827   2.285
 2791SOL    HW1 9272   0.446   2.855   2.377
 2791SOL    HW2 9273   0.351   2.889   2.249
 2792SOL     OW 9274   1.879   0.754   3.933
 2792SOL    HW1 9275   1.786   0.784   3.917
 2792SOL    HW2 9276   1.939   0.788   3.860
 2793SOL     OW 9277   5.142   3.681   1.212
 2793SOL    HW1 9278   5.059   3.627   1.227
 2793SOL    HW2 9279   5.203   3.670   1.291
 2794SOL     OW 9280   6.576   1.783   6.365
 2794SOL    HW1 9281   6.495   1.725   6.371
 2794SOL    HW2 9282   6.556   1.864   6.310
 2795SOL     OW 9283   0.991   3.201   0.998
 2795SOL    HW1 9284   0.898   3.174   1.024
 2795SOL    HW2 9285   1.011   3.291   1.036
 2796SOL     OW 9286   0.147   6.242   3.289
 2796SOL    HW1 9287   0.097   6.173   3.236
 2796SOL    HW2 9288   0.106   6.332   3.273
 2797SOL     OW 9289   5.170   5.563   5.248
 2797SOL    HW1 9290   5.211   5.538   5.335
 2797SOL    HW2 9291   5.206   5.652   5.219
 2798SOL     OW 9292   6.234   5.459   2.783
 2798SOL    HW1 9293   6.270   5.388   2.843
 2798SOL    HW2 9294   6.210   5.419   2.694
 2799SOL     OW 9295   5.656   5.292   5.608
 2799SOL    HW1 9296   5.650   5.286   5.708
 2799SOL    HW2 9297   5.619   5.380   5.578
 2800SOL     OW 9298   4.496   6.229   5.993
 2800SOL    HW1 9299   4.408   6.274   6.010
 2800SOL    HW2 9300   4.568   6.277   6.043
 2801SOL     OW 9301   0.434   5.214   5.761
 2801SOL    HW1 9302   0.334   5.220   5.760
 2801SOL    HW2 9303   0.470   5.235   5.671
 2802SOL     OW 9304   5.185   6.101   5.575
 2802SOL    HW1 9305   5.269   6.148   5.548
 2802SOL    HW2 9306   5.204   6.004   5.589
 2803SOL     OW 9307   4.069   4.976   6.286
 2803SOL    HW1 9308   4.132   5.050   6.309
 2803SOL    HW2 9309   4.108   4.889   6.314
 2804SOL     OW 9310   1.175   4.229   5.278
 2804SOL    HW1 9311   1.177   4.262   5.372
 2804SOL    HW2 9312   1.142   4.135   5.276
 2805SOL     OW 9313   6.153   3.649   2.722
 2805SOL    HW1 9314   6.108   3.728   2.681
 2805SOL    HW2 9315   6.101   3.618   2.801
 2806SOL     OW 9316   1.926   4.008   5.892
 2806SOL    HW1 9317   1.971   4.047   5.812
 2806SOL    HW2 9318   1.928   3.909   5.886
 2807SOL     OW 9319   4.012   6.538   3.695
 2807SOL    HW1 9320   3.937   6.519   3.759
 2807SOL    HW2 9321   4.068   6.613   3.729
 2808SOL     OW 9322   6.321   5.222   2.103
 2808SOL    HW1 9323   6.260   5.295   2.134
 2808SOL    HW2 9324   6.291   5.135   2.142
 2809SOL     OW 9325   5.427   2.710   0.923
 2809SOL    HW1 9326   5.368   2.629   0.924
 2809SOL    HW2 9327   5.404   2.767   0.844
 2810SOL     OW 9328   1.951   5.651   2.865
 2810SOL    HW1 9329   2.007   5.610   2.937
 2810SOL    HW2 9330   2.000   5.647   2.778
 2811SOL     OW 9331   1.599   1.892   3.912
 2811SOL    HW1 9332   1.503   1.918   3.907
 2811SOL    HW2 9333   1.649   1.960   3.966
 2812SOL     OW 9334   5.563   2.926   0.210
 2812SOL    HW1 9335   5.610   2.887   0.131
 2812SOL    HW2 9336   5.628   2.979   0.264
 2813SOL     OW 9337   1.076   1.174   0.001
 2813SOL    HW1 9338   1.118   1.083   7.019
 2813SOL    HW2 9339   0.998   1.174   0.064
 2814SOL     OW 9340   3.576   4.142   5.685
 2814SOL    HW1 9341   3.585   4.058   5.632
 2814SOL    HW2 9342   3.614   4.218   5.632
 2815SOL     OW 9343   6.862   4.986   6.609
 2815SOL    HW1 9344   6.932   5.040   6.562
 2815SOL    HW2 9345   6.799   4.947   6.542
 2816SOL     OW 9346   6.724   5.705   4.034
 2816SOL    HW1 9347   6.795   5.770   4.062
 2816SOL    HW2 9348   6.653   5.700   4.104
 2817SOL     OW 9349   3.170   0.290   2.240
 2817SOL    HW1 9350   3.103   0.270   2.312
 2817SOL    HW2 9351   3.232   0.363   2.272
 2818SOL     OW 9352   0.098   0.906   2.338
 2818SOL    HW1 9353   0.106   0.808   2.355
 2818SOL    HW2 9354   0.032   0.946   2.401
 2819SOL     OW 9355   2.490   0.323   1.848
 2819SOL    HW1 9356   2.398   0.345   1.879
 2819SOL    HW2 9357   2.504   0.360   1.756
 2820SOL     OW 9358   1.369   1.967   3.523
 2820SOL    HW1 9359   1.302   2.000   3.456
 2820SOL    HW2 9360   1.451   1.938   3.475
 2821SOL     OW 9361   3.949   4.701   5.639
 2821SOL    HW1 9362   3.938   4.777   5.703
 2821SOL    HW2 9363   4.016   4.725   5.569
 2822SOL     OW 9364   4.095   1.869   6.885
 2822SOL    HW1 9365   3.996   1.860   6.869
 2822SOL    HW2 9366   4.130   1.784   6.923
 2823SOL     OW 9367   5.181   0.970   0.581
 2823SOL    HW1 9368   5.164   1.068   0.573
 2823SOL    HW2 9369   5.272   0.956   0.620
 2824SOL     OW 9370   2.154   1.882   5.085
 2824SOL    HW1 9371   2.243   1.867   5.041
 2824SOL    HW2 9372   2.156   1.970   5.133
 2825SOL     OW 9373   5.130   6.864   6.217
 2825SOL    HW1 9374   5.079   6.920   6.152
 2825SOL    HW2 9375   5.204   6.918   6.257
 2826SOL     OW 9376   4.509   2.582   6.943
 2826SOL    HW1 9377   4.588   2.639   6.922
 2826SOL    HW2 9378   4.516   2.495   6.893
 2827SOL     OW 9379   0.040   1.100   6.414
 2827SOL    HW1 9380   0.050   1.021   6.474
 2827SOL    HW2 9381   0.111   1.167   6.435
 2828SOL     OW 9382   2.087   2.582   0.531
 2828SOL    HW1 9383   2.106   2.643   0.608
 2828SOL    HW2 9384   2.099   2.631   0.445
 2829SOL     OW 9385   3.363   3.348   3.547
 2829SOL    HW1 9386   3.278   3.311   3.508
 2829SOL    HW2 9387   3.427   3.273   3.563
 2830SOL     OW 9388   2.944   4.386   5.381
 2830SOL    HW1 9389   2.922   4.453   5.310
 2830SOL    HW2 9390   2.982   4.304   5.337
 2831SOL     OW 9391   0.927   3.567   3.066
 2831SOL    HW1 9392   0.913   3.545   2.969
 2831SOL    HW2 9393   0.843   3.604   3.105
 2832SOL     OW 9394   0.691   2.867   1.931
 2832SOL    HW1 9395   0.709   2.803   2.005
 2832SOL    HW2 9396   0.597   2.902   1.939
 2833SOL     OW 9397   2.824   1.505   2.659
 2833SOL    HW1 9398   2.841   1.564   2.580
 2833SOL    HW2 9399   2.732   1.523   2.694
 2834SOL     OW 9400   3.743   6.174   5.711
 2834SOL    HW1 9401   3.685   6.199   5.633
 2834SOL    HW2 9402   3.718   6.083   5.744
 2835SOL     OW 9403   0.686   0.071   1.530
 2835SOL    HW1 9404   0.623   0.149   1.528
 2835SOL    HW2 9405   0.756   0.088   1.599
 2836SOL     OW 9406   0.531   6.892   1.666
 2836SOL    HW1 9407   0.561   6.956   1.595
 2836SOL    HW2 9408   0.591   6.812   1.666
 2837SOL     OW 9409   5.116   4.646   2.679
 2837SOL    HW1 9410   5.144   4.739   2.704
 2837SOL    HW2 9411   5.191   4.582   2.696
 2838SOL     OW 9412   4.416   3.748   0.831
 2838SOL    HW1 9413   4.387   3.680   0.764
 2838SOL    HW2 9414   4.440   3.833   0.784
 2839SOL     OW 9415   6.882   2.119   2.743
 2839SOL    HW1 9416   6.969   2.089   2.780
 2839SOL    HW2 9417   6.815   2.126   2.816
 2840SOL     OW 9418   1.753   6.531   1.680
 2840SOL    HW1 9419   1.812   6.581   1.616
 2840SOL    HW2 9420   1.679   6.486   1.629
 2841SOL     OW 9421   6.196   2.040   6.483
 2841SOL    HW1 9422   6.216   1.954   6.436
 2841SOL    HW2 9423   6.207   2.116   6.419
 2842SOL     OW 9424   0.290   5.071   4.369
 2842SOL    HW1 9425   0.317   4.975   4.362
 2842SOL    HW2 9426   0.365   5.123   4.410
 2843SOL     OW 9427   2.843   2.011   3.076
 2843SOL    HW1 9428   2.853   2.085   3.143
 2843SOL    HW2 9429   2.790   1.937   3.116
 2844SOL     OW 9430   6.324   5.126   0.691
 2844SOL    HW1 9431   6.381   5.060   0.643
 2844SOL    HW2 9432   6.365   5.147   0.780
 2845SOL     OW 9433   5.206   3.156   2.437
 2845SOL    HW1 9434   5.152   3.237   2.420
 2845SOL    HW2 9435   5.297   3.167   2.396
 2846SOL     OW 9436   4.100   0.109   0.711
 2846SOL    HW1 9437   4.147   0.171   0.648
 2846SOL    HW2 9438   4.100   0.016   0.672
 2847SOL     OW 9439   5.139   4.010   3.080
 2847SOL    HW1 9440   5.143   3.933   3.016
 2847SOL    HW2 9441   5.202   3.995   3.156
 2848SOL     OW 9442   2.378   2.559   5.229
 2848SOL    HW1 9443   2.313   2.496   5.272
 2848SOL    HW2 9444   2.328   2.620   5.167
 2849SOL     OW 9445   3.395   0.563   0.973
 2849SOL    HW1 9446   3.325   0.538   1.040
 2849SOL    HW2 9447   3.485   0.540   1.009
 2850SOL     OW 9448   1.869   0.152   2.968
 2850SOL    HW1 9449   1.848   0.223   2.901
 2850SOL    HW2 9450   1.961   0.116   2.951
 2851SOL     OW 9451   5.889   2.065   6.503
 2851SOL    HW1 9452   5.987   2.075   6.522
 2851SOL    HW2 9453   5.877   2.020   6.414
 2852SOL     OW 9454   6.406   4.297   6.987
 2852SOL    HW1 9455   6.478   4.230   7.008
 2852SOL    HW2 9456   6.317   4.252   6.993
 2853SOL     OW 9457   1.864   2.408   6.277
 2853SOL    HW1 9458   1.878   2.497   6.320
 2853SOL    HW2 9459   1.953   2.365   6.260
 2854SOL     OW 9460   3.867   1.064   5.872
 2854SOL    HW1 9461   3.838   1.011   5.792
 2854SOL    HW2 9462   3.806   1.043   5.949
 2855SOL     OW 9463   1.418   1.804   5.630
 2855SOL    HW1 9464   1.433   1.894   5.672
 2855SOL    HW2 9465   1.486   1.789   5.558
 2856SOL     OW 9466   0.422   3.367   4.737
 2856SOL    HW1 9467   0.348   3.398   4.797
 2856SOL    HW2 9468   0.494   3.326   4.792
 2857SOL     OW 9469   0.673   2.344   1.292
 2857SOL    HW1 9470   0.678   2.326   1.193
 2857SOL    HW2 9471   0.667   2.258   1.341
 2858SOL     OW 9472   4.240   5.152   2.463
 2858SOL    HW1 9473   4.339   5.162   2.465
 2858SOL    HW2 9474   4.201   5.221   2.402
 2859SOL     OW 9475   6.596   6.967   6.852
 2859SOL    HW1 9476   6.515   0.004   6.862
 2859SOL    HW2 9477   6.589   6.889   6.914
 2860SOL     OW 9478   2.110   1.176   2.279
 2860SOL    HW1 9479   2.106   1.276   2.274
 2860SOL    HW2 9480   2.124   1.147   2.373
 2861SOL     OW 9481   2.838   5.632   4.992
 2861SOL    HW1 9482   2.870   5.717   4.951
 2861SOL    HW2 9483   2.761   5.596   4.939
 2862SOL     OW 9484   4.327   2.100   1.627
 2862SOL    HW1 9485   4.384   2.139   1.554
 2862SOL    HW2 9486   4.234   2.135   1.619
 2863SOL     OW 9487   4.674   1.162   6.688
 2863SOL    HW1 9488   4.713   1.178   6.779
 2863SOL    HW2 9489   4.744   1.180   6.618
 2864SOL     OW 9490   4.649   2.204   0.936
 2864SOL    HW1 9491   4.568   2.227   0.989
 2864SOL    HW2 9492   4.649   2.257   0.851
 2865SOL     OW 9493   4.573   6.136   4.198
 2865SOL    HW1 9494   4.555   6.046   4.158
 2865SOL    HW2 9495   4.665   6.166   4.171
 2866SOL     OW 9496   5.452   4.675   6.454
 2866SOL    HW1 9497   5.417   4.585   6.480
 2866SOL    HW2 9498   5.535   4.695   6.506
 2867SOL     OW 9499   5.983   6.542   2.693
 2867SOL    HW1 9500   5.963   6.599   2.613
 2867SOL    HW2 9501   6.078   6.511   2.689
 2868SOL     OW 9502   1.450   1.072   5.740
 2868SOL    HW1 9503   1.519   1.000   5.750
 2868SOL    HW2 9504   1.382   1.043   5.673
 2869SOL     OW 9505   6.748   1.046   2.838
 2869SOL    HW1 9506   6.785   1.137   2.858
 2869SOL    HW2 9507   6.648   1.048   2.848
 2870SOL     OW 9508   0.623   1.767   5.672
 2870SOL    HW1 9509   0.612   1.717   5.758
 2870SOL    HW2 9510   0.705   1.824   5.678
 2871SOL     OW 9511   5.751   0.955   0.357
 2871SOL    HW1 9512   5.697   0.889   0.303
 2871SOL    HW2 9513   5.776   1.032   0.299
 2872SOL     OW 9514   2.480   1.887   1.475
 2872SOL    HW1 9515   2.519   1.874   1.566
 2872SOL    HW2 9516   2.404   1.952   1.480
 2873SOL     OW 9517   6.374   6.402   2.253
 2873SOL    HW1 9518   6.456   6.453   2.228
 2873SOL    HW2 9519   6.324   6.377   2.169
 2874SOL     OW 9520   4.183   6.469   2.386
 2874SOL    HW1 9521   4.258   6.423   2.433
 2874SOL    HW2 9522   4.096   6.427   2.412
 2875SOL     OW 9523   5.410   6.861   0.942
 2875SOL    HW1 9524   5.320   6.841   0.980
 2875SOL    HW2 9525   5.399   6.922   0.863
 2876SOL     OW 9526   1.966   0.381   2.786
 2876SOL    HW1 9527   2.053   0.350   2.825
 2876SOL    HW2 9528   1.978   0.398   2.688
 2877SOL     OW 9529   2.799   1.283   5.811
 2877SOL    HW1 9530   2.732   1.293   5.884
 2877SOL    HW2 9531   2.887   1.321   5.841
 2878SOL     OW 9532   2.744   3.867   5.261
 2878SOL    HW1 9533   2.744   3.785   5.203
 2878SOL    HW2 9534   2.661   3.869   5.316
 2879SOL     OW 9535   5.330   5.443   6.214
 2879SOL    HW1 9536   5.312   5.522   6.273
 2879SOL    HW2 9537   5.276   5.365   6.246
 2880SOL     OW 9538   0.504   1.807   2.748
 2880SOL    HW1 9539   0.579   1.741   2.739
 2880SOL    HW2 9540   0.519   1.884   2.685
 2881SOL     OW 9541   4.115   5.903   0.065
 2881SOL    HW1 9542   4.042   5.883   0.130
 2881SOL    HW2 9543   4.175   5.824   0.055
 2882SOL     OW 9544   0.153   5.843   1.807
 2882SOL    HW1 9545   0.099   5.895   1.742
 2882SOL    HW2 9546   0.098   5.825   1.889
 2883SOL     OW 9547   6.019   0.093   4.136
 2883SOL    HW1 9548   5.984   0.048   4.054
 2883SOL    HW2 9549   5.991   0.189   4.135
 2884SOL     OW 9550   0.744   6.925   2.830
 2884SOL    HW1 9551   0.775   6.859   2.761
 2884SOL    HW2 9552   0.715   6.875   2.912
 2885SOL     OW 9553   1.416   3.281   4.014
 2885SOL    HW1 9554   1.423   3.181   4.021
 2885SOL    HW2 9555   1.477   3.323   4.082
 2886SOL     OW 9556   1.955   3.473   6.404
 2886SOL    HW1 9557   1.883   3.421   6.450
 2886SOL    HW2 9558   2.044   3.435   6.428
 2887SOL     OW 9559   0.609   6.981   5.067
 2887SOL    HW1 9560   0.592   6.989   5.165
 2887SOL    HW2 9561   0.530   6.936   5.023
 2888SOL     OW 9562   6.977   3.935   6.738
 2888SOL    HW1 9563   6.979   3.835   6.744
 2888SOL    HW2 9564   6.965   3.962   6.643
 2889SOL     OW 9565   2.601   6.288   2.519
 2889SOL    HW1 9566   2.680   6.348   2.511
 2889SOL    HW2 9567   2.554   6.282   2.431
 2890SOL     OW 9568   1.862   6.380   0.418
 2890SOL    HW1 9569   1.900   6.335   0.499
 2890SOL    HW2 9570   1.887   6.477   0.418
 2891SOL     OW 9571   0.413   4.256   3.390
 2891SOL    HW1 9572   0.315   4.256   3.368
 2891SOL    HW2 9573   0.464   4.302   3.317
 2892SOL     OW 9574   6.477   2.811   0.845
 2892SOL    HW1 9575   6.443   2.851   0.760
 2892SOL    HW2 9576   6.423   2.730   0.868
 2893SOL     OW 9577   0.523   5.243   4.435
 2893SOL    HW1 9578   0.610   5.249   4.386
 2893SOL    HW2 9579   0.471   5.327   4.421
 2894SOL     OW 9580   0.500   3.393   2.303
 2894SOL    HW1 9581   0.564   3.461   2.267
 2894SOL    HW2 9582   0.524   3.372   2.398
 2895SOL     OW 9583   4.868   1.027   5.208
 2895SOL    HW1 9584   4.861   0.928   5.221
 2895SOL    HW2 9585   4.820   1.054   5.125
 2896SOL     OW 9586   4.294   6.844   5.513
 2896SOL    HW1 9587   4.223   6.808   5.573
 2896SOL    HW2 9588   4.340   6.768   5.466
 2897SOL     OW 9589   4.209   5.362   2.682
 2897SOL    HW1 9590   4.109   5.364   2.686
 2897SOL    HW2 9591   4.238   5.285   2.625
 2898SOL     OW 9592   4.431   4.748   4.574
 2898SOL    HW1 9593   4.512   4.733   4.517
 2898SOL    HW2 9594   4.348   4.730   4.520
 2899SOL     OW 9595   0.539   1.651   0.728
 2899SOL    HW1 9596   0.481   1.610   0.798
 2899SOL    HW2 9597   0.511   1.618   0.638
 2900SOL     OW 9598   3.139   4.484   6.867
 2900SOL    HW1 9599   3.076   4.510   6.939
 2900SOL    HW2 9600   3.232   4.482   6.903
 2901SOL     OW 9601   2.619   4.855   3.038
 2901SOL    HW1 9602   2.559   4.928   3.006
 2901SOL    HW2 9603   2.606   4.843   3.137
 2902SOL     OW 9604   6.210   4.951   2.889
 2902SOL    HW1 9605   6.211   4.924   2.985
 2902SOL    HW2 9606   6.195   4.870   2.832
 2903SOL     OW 9607   4.413   6.556   0.570
 2903SOL    HW1 9608   4.315   6.551   0.585
 2903SOL    HW2 9609   4.459   6.483   0.621
 2904SOL     OW 9610   2.603   5.055   4.410
 2904SOL    HW1 9611   2.651   4.984   4.359
 2904SOL    HW2 9612   2.596   5.137   4.355
 2905SOL     OW 9613   1.463   3.970   4.521
 2905SOL    HW1 9614   1.529   3.896   4.527
 2905SOL    HW2 9615   1.378   3.936   4.481
 2906SOL     OW 9616   4.743   5.016   2.510
 2906SOL    HW1 9617   4.660   5.043   2.559
 2906SOL    HW2 9618   4.820   5.015   2.573
 2907SOL     OW 9619   0.512   1.942   3.741
 2907SOL    HW1 9620   0.471   2.014   3.684
 2907SOL    HW2 9621   0.552   1.983   3.822
 2908SOL     OW 9622   5.121   6.458   3.643
 2908SOL    HW1 9623   5.213   6.421   3.638
 2908SOL    HW2 9624   5.086   6.476   3.551
 2909SOL     OW 9625   2.023   6.290   3.865
 2909SOL    HW1 9626   2.054   6.255   3.777
 2909SOL    HW2 9627   2.089   6.357   3.899
 2910SOL     OW 9628   5.773   0.513   4.347
 2910SOL    HW1 9629   5.676   0.512   4.369
 2910SOL    HW2 9630   5.826   0.519   4.432
 2911SOL     OW 9631   1.900   5.963   3.179
 2911SOL    HW1 9632   1.890   6.057   3.145
 2911SOL    HW2 9633   1.872   5.960   3.275
 2912SOL     OW 9634   5.603   6.588   0.454
 2912SOL    HW1 9635   5.595   6.581   0.553
 2912SOL    HW2 9636   5.620   6.497   0.416
 2913SOL     OW 9637   3.775   4.822   1.748
 2913SOL    HW1 9638   3.763   4.921   1.740
 2913SOL    HW2 9639   3.701   4.784   1.803
 2914SOL     OW 9640   6.325   5.978   6.588
 2914SOL    HW1 9641   6.266   6.047   6.545
 2914SOL    HW2 9642   6.397   5.951   6.525
 2915SOL     OW 9643   3.237   2.110   3.665
 2915SOL    HW1 9644   3.270   2.123   3.758
 2915SOL    HW2 9645   3.137   2.105   3.665
 2916SOL     OW 9646   1.267   5.925   0.574
 2916SOL    HW1 9647   1.329   5.978   0.518
 2916SOL    HW2 9648   1.205   5.873   0.515
 2917SOL     OW 9649   2.531   6.865   3.504
 2917SOL    HW1 9650   2.455   6.925   3.478
 2917SOL    HW2 9651   2.569   6.822   3.422
 2918SOL     OW 9652   6.345   4.237   5.668
 2918SOL    HW1 9653   6.434   4.202   5.697
 2918SOL    HW2 9654   6.315   4.188   5.586
 2919SOL     OW 9655   5.965   0.145   2.029
 2919SOL    HW1 9656   5.957   0.199   2.113
 2919SOL    HW2 9657   6.005   0.056   2.050
 2920SOL     OW 9658   2.679   1.079   1.055
 2920SOL    HW1 9659   2.749   1.011   1.032
 2920SOL    HW2 9660   2.635   1.053   1.141
 2921SOL     OW 9661   0.820   6.566   4.312
 2921SOL    HW1 9662   0.724   6.594   4.306
 2921SOL    HW2 9663   0.862   6.608   4.393
 2922SOL     OW 9664   4.800   6.725   1.597
 2922SOL    HW1 9665   4.864   6.748   1.524
 2922SOL    HW2 9666   4.839   6.753   1.685
 2923SOL     OW 9667   6.099   5.598   3.101
 2923SOL    HW1 9668   6.069   5.678   3.049
 2923SOL    HW2 9669   6.170   5.625   3.166
 2924SOL     OW 9670   6.794   2.316   5.531
 2924SOL    HW1 9671   6.786   2.365   5.618
 2924SOL    HW2 9672   6.705   2.280   5.504
 2925SOL     OW 9673   5.841   1.923   0.538
 2925SOL    HW1 9674   5.890   1.975   0.608
 2925SOL    HW2 9675   5.839   1.826   0.563
 2926SOL     OW 9676   5.853   1.807   6.616
 2926SOL    HW1 9677   5.781   1.744   6.586
 2926SOL    HW2 9678   5.830   1.900   6.587
 2927SOL     OW 9679   1.397   4.071   1.067
 2927SOL    HW1 9680   1.406   4.114   1.156
 2927SOL    HW2 9681   1.368   3.975   1.079
 2928SOL     OW 9682   0.217   0.503   7.005
 2928SOL    HW1 9683   0.118   0.495   7.004
 2928SOL    HW2 9684   0.249   0.512   0.080
 2929SOL     OW 9685   1.403   2.546   6.296
 2929SOL    HW1 9686   1.308   2.576   6.296
 2929SOL    HW2 9687   1.408   2.451   6.329
 2930SOL     OW 9688   5.205   0.028   5.883
 2930SOL    HW1 9689   5.263   0.101   5.919
 2930SOL    HW2 9690   5.155   0.061   5.803
 2931SOL     OW 9691   4.881   4.879   6.969
 2931SOL    HW1 9692   4.955   4.946   6.974
 2931SOL    HW2 9693   4.905   4.807   6.903
 2932SOL     OW 9694   1.038   6.050   1.825
 2932SOL    HW1 9695   1.065   6.034   1.920
 2932SOL    HW2 9696   1.094   5.993   1.765
 2933SOL     OW 9697   1.883   5.854   2.175
 2933SOL    HW1 9698   1.950   5.824   2.107
 2933SOL    HW2 9699   1.919   5.934   2.223
 2934SOL     OW 9700   5.329   1.802   6.844
 2934SOL    HW1 9701   5.421   1.831   6.869
 2934SOL    HW2 9702   5.266   1.818   6.920
 2935SOL     OW 9703   6.711   2.407   6.250
 2935SOL    HW1 9704   6.755   2.321   6.274
 2935SOL    HW2 9705   6.616   2.405   6.280
 2936SOL     OW 9706   4.436   6.266   0.315
 2936SOL    HW1 9707   4.375   6.189   0.294
 2936SOL    HW2 9708   4.531   6.234   0.312
 2937SOL     OW 9709   5.788   4.987   1.655
 2937SOL    HW1 9710   5.733   5.033   1.585
 2937SOL    HW2 9711   5.823   5.054   1.720
 2938SOL     OW 9712   4.901   4.726   6.715
 2938SOL    HW1 9713   4.977   4.698   6.774
 2938SOL    HW2 9714   4.869   4.646   6.663
 2939SOL     OW 9715   2.592   0.884   1.966
 2939SOL    HW1 9716   2.546   0.806   2.008
 2939SOL    HW2 9717   2.525   0.955   1.945
 2940SOL     OW 9718   5.432   5.339   5.390
 2940SOL    HW1 9719   5.428   5.253   5.339
 2940SOL    HW2 9720   5.340   5.365   5.420
 2941SOL     OW 9721   1.735   2.028   4.125
 2941SOL    HW1 9722   1.817   1.985   4.088
 2941SOL    HW2 9723   1.746   2.041   4.223
 2942SOL     OW 9724   3.965   2.262   0.682
 2942SOL    HW1 9725   4.037   2.195   0.700
 2942SOL    HW2 9726   3.994   2.322   0.607
 2943SOL     OW 9727   5.883   3.986   3.942
 2943SOL    HW1 9728   5.962   3.936   3.977
 2943SOL    HW2 9729   5.809   3.921   3.923
 2944SOL     OW 9730   2.983   5.829   4.122
 2944SOL    HW1 9731   2.993   5.869   4.212
 2944SOL    HW2 9732   2.890   5.845   4.089
 2945SOL     OW 9733   3.522   3.368   2.274
 2945SOL    HW1 9734   3.433   3.353   2.231
 2945SOL    HW2 9735   3.558   3.282   2.308
 2946SOL     OW 9736   1.547   5.034   6.103
 2946SOL    HW1 9737   1.499   4.997   6.024
 2946SOL    HW2 9738   1.641   5.000   6.105
 2947SOL     OW 9739   0.255   5.162   1.565
 2947SOL    HW1 9740   0.213   5.071   1.561
 2947SOL    HW2 9741   0.234   5.212   1.481
 2948SOL     OW 9742   0.324   4.098   4.379
 2948SOL    HW1 9743   0.418   4.123   4.400
 2948SOL    HW2 9744   0.317   3.999   4.369
 2949SOL     OW 9745   1.389   5.488   1.142
 2949SOL    HW1 9746   1.387   5.537   1.229
 2949SOL    HW2 9747   1.402   5.553   1.067
 2950SOL     OW 9748   5.774   5.680   4.139
 2950SOL    HW1 9749   5.704   5.702   4.072
 2950SOL    HW2 9750   5.733   5.634   4.218
 2951SOL     OW 9751   5.363   1.770   2.420
 2951SOL    HW1 9752   5.401   1.850   2.466
 2951SOL    HW2 9753   5.293   1.728   2.478
 2952SOL     OW 9754   6.762   5.745   5.614
 2952SOL    HW1 9755   6.701   5.768   5.538
 2952SOL    HW2 9756   6.853   5.783   5.595
 2953SOL     OW 9757   6.002   3.916   2.659
 2953SOL    HW1 9758   6.074   3.985   2.662
 2953SOL    HW2 9759   5.984   3.889   2.564
 2954SOL     OW 9760   1.042   5.760   1.686
 2954SOL    HW1 9761   1.028   5.698   1.609
 2954SOL    HW2 9762   1.118   5.726   1.743
 2955SOL     OW 9763   0.874   4.256   1.381
 2955SOL    HW1 9764   0.851   4.265   1.477
 2955SOL    HW2 9765   0.799   4.293   1.325
 2956SOL     OW 9766   5.534   6.373   2.627
 2956SOL    HW1 9767   5.564   6.312   2.554
 2956SOL    HW2 9768   5.613   6.407   2.677
 2957SOL     OW 9769   5.583   4.287   1.652
 2957SOL    HW1 9770   5.558   4.311   1.746
 2957SOL    HW2 9771   5.680   4.263   1.649
 2958SOL     OW 9772   2.351   4.250   3.543
 2958SOL    HW1 9773   2.287   4.324   3.520
 2958SOL    HW2 9774   2.301   4.164   3.549
 2959SOL     OW 9775   4.926   3.887   1.243
 2959SOL    HW1 9776   5.004   3.826   1.236
 2959SOL    HW2 9777   4.861   3.867   1.169
 2960SOL     OW 9778   3.255   0.584   0.635
 2960SOL    HW1 9779   3.169   0.538   0.614
 2960SOL    HW2 9780   3.328   0.516   0.640
 2961SOL     OW 9781   6.257   4.650   3.234
 2961SOL    HW1 9782   6.162   4.665   3.206
 2961SOL    HW2 9783   6.260   4.627   3.331
 2962SOL     OW 9784   4.770   6.152   3.354
 2962SOL    HW1 9785   4.860   6.114   3.332
 2962SOL    HW2 9786   4.715   6.085   3.403
 2963SOL     OW 9787   1.712   1.239   6.635
 2963SOL    HW1 9788   1.803   1.271   6.664
 2963SOL    HW2 9789   1.692   1.273   6.543
 2964SOL     OW 9790   6.970   1.343   5.226
 2964SOL    HW1 9791   6.917   1.427   5.218
 2964SOL    HW2 9792   7.005   1.316   5.137
 2965SOL     OW 9793   0.411   0.767   4.450
 2965SOL    HW1 9794   0.370   0.826   4.381
 2965SOL    HW2 9795   0.346   0.753   4.525
 2966SOL     OW 9796   4.303   5.109   3.363
 2966SOL    HW1 9797   4.388   5.153   3.391
 2966SOL    HW2 9798   4.247   5.092   3.444
 2967SOL     OW 9799   5.513   0.900   5.014
 2967SOL    HW1 9800   5.511   0.863   5.108
 2967SOL    HW2 9801   5.604   0.886   4.975
 2968SOL     OW 9802   0.925   2.725   0.697
 2968SOL    HW1 9803   0.843   2.771   0.663
 2968SOL    HW2 9804   0.967   2.673   0.622
 2969SOL     OW 9805   4.779   2.429   4.220
 2969SOL    HW1 9806   4.794   2.334   4.250
 2969SOL    HW2 9807   4.706   2.470   4.275
 2970SOL     OW 9808   2.725   2.705   5.458
 2970SOL    HW1 9809   2.716   2.607   5.441
 2970SOL    HW2 9810   2.678   2.756   5.385
 2971SOL     OW 9811   5.054   4.057   0.393
 2971SOL    HW1 9812   5.089   3.975   0.348
 2971SOL    HW2 9813   5.107   4.137   0.365
 2972SOL     OW 9814   6.690   4.916   6.404
 2972SOL    HW1 9815   6.608   4.864   6.430
 2972SOL    HW2 9816   6.757   4.854   6.363
 2973SOL     OW 9817   5.329   6.043   1.575
 2973SOL    HW1 9818   5.286   6.021   1.487
 2973SOL    HW2 9819   5.428   6.047   1.563
 2974SOL     OW 9820   0.340   4.701   4.018
 2974SOL    HW1 9821   0.348   4.643   3.937
 2974SOL    HW2 9822   0.432   4.724   4.052
 2975SOL     OW 9823   5.304   3.767   4.194
 2975SOL    HW1 9824   5.305   3.691   4.129
 2975SOL    HW2 9825   5.233   3.751   4.263
 2976SOL     OW 9826   4.376   2.363   2.777
 2976SOL    HW1 9827   4.414   2.273   2.798
 2976SOL    HW2 9828   4.421   2.400   2.695
 2977SOL     OW 9829   1.826   0.516   2.381
 2977SOL    HW1 9830   1.780   0.463   2.453
 2977SOL    HW2 9831   1.925   0.513   2.396
 2978SOL     OW 9832   3.798   4.639   0.445
 2978SOL    HW1 9833   3.798   4.724   0.497
 2978SOL    HW2 9834   3.829   4.657   0.351
 2979SOL     OW 9835   3.905   1.282   3.686
 2979SOL    HW1 9836   3.838   1.208   3.701
 2979SOL    HW2 9837   3.916   1.297   3.588
 2980SOL     OW 9838   1.727   5.325   5.347
 2980SOL    HW1 9839   1.722   5.417   5.309
 2980SOL    HW2 9840   1.663   5.265   5.299
 2981SOL     OW 9841   3.085   1.082   6.370
 2981SOL    HW1 9842   3.183   1.098   6.363
 2981SOL    HW2 9843   3.042   1.101   6.282
 2982SOL     OW 9844   2.992   5.658   1.750
 2982SOL    HW1 9845   3.024   5.605   1.671
 2982SOL    HW2 9846   2.996   5.600   1.832
 2983SOL     OW 9847   6.154   2.464   2.609
 2983SOL    HW1 9848   6.061   2.450   2.645
 2983SOL    HW2 9849   6.154   2.541   2.545
 2984SOL     OW 9850   6.234   4.592   0.271
 2984SOL    HW1 9851   6.153   4.602   0.215
 2984SOL    HW2 9852   6.259   4.495   0.277
 2985SOL     OW 9853   2.065   2.516   4.425
 2985SOL    HW1 9854   2.139   2.455   4.398
 2985SOL    HW2 9855   2.022   2.482   4.508
 2986SOL     OW 9856   3.577   4.143   3.058
 2986SOL    HW1 9857   3.668   4.133   3.097
 2986SOL    HW2 9858   3.517   4.189   3.123
 2987SOL     OW 9859   1.138   1.896   3.985
 2987SOL    HW1 9860   1.176   1.903   4.076
 2987SOL    HW2 9861   1.038   1.885   3.991
 2988SOL     OW 9862   1.957   6.687   2.642
 2988SOL    HW1 9863   1.964   6.713   2.546
 2988SOL    HW2 9864   2.047   6.697   2.685
 2989SOL     OW 9865   5.146   5.251   5.402
 2989SOL    HW1 9866   5.108   5.338   5.433
 2989SOL    HW2 9867   5.186   5.202   5.480
 2990SOL     OW 9868   3.797   1.314   4.445
 2990SOL    HW1 9869   3.831   1.266   4.526
 2990SOL    HW2 9870   3.792   1.251   4.368
 2991SOL     OW 9871   6.710   3.883   5.705
 2991SOL    HW1 9872   6.748   3.882   5.797
 2991SOL    HW2 9873   6.630   3.824   5.701
 2992SOL     OW 9874   1.079   5.171   4.586
 2992SOL    HW1 9875   1.174   5.185   4.557
 2992SOL    HW2 9876   1.055   5.242   4.653
 2993SOL     OW 9877   0.030   4.984   1.352
 2993SOL    HW1 9878   0.053   4.916   1.422
 2993SOL    HW2 9879   6.954   5.010   1.362
 2994SOL     OW 9880   3.473   6.353   6.537
 2994SOL    HW1 9881   3.457   6.368   6.439
 2994SOL    HW2 9882   3.551   6.292   6.548
 2995SOL     OW 9883   3.448   1.311   6.695
 2995SOL    HW1 9884   3.444   1.402   6.652
 2995SOL    HW2 9885   3.358   1.288   6.732
 2996SOL     OW 9886   0.603   1.634   5.064
 2996SOL    HW1 9887   0.528   1.636   4.998
 2996SOL    HW2 9888   0.652   1.548   5.056
 2997SOL     OW 9889   5.039   0.199   3.087
 2997SOL    HW1 9890   4.970   0.139   3.045
 2997SOL    HW2 9891   5.112   0.143   3.126
 2998SOL     OW 9892   5.385   6.369   3.259
 2998SOL    HW1 9893   5.399   6.430   3.181
 2998SOL    HW2 9894   5.457   6.299   3.260
 2999SOL     OW 9895   2.484   5.123   5.014
 2999SOL    HW1 9896   2.497   5.101   5.111
 2999SOL    HW2 9897   2.436   5.048   4.969
 3000SOL     OW 9898   3.411   4.062   6.272
 3000SOL    HW1 9899   3.331   4.090   6.324
 3000SOL    HW2 9900   3.429   3.965   6.287
 3001SOL     OW 9901   6.740   0.979   6.400
 3001SOL    HW1 9902   6.802   1.036   6.345
 3001SOL    HW2 9903   6.677   0.931   6.340
 3002SOL     OW 9904   3.204   1.741   6.740
 3002SOL    HW1 9905   3.166   1.761   6.831
 3002SOL    HW2 9906   3.206   1.643   6.725
 3003SOL     OW 9907   0.787   6.855   0.936
 3003SOL    HW1 9908   0.838   6.828   1.017
 3003SOL    HW2 9909   0.799   6.786   0.864
 3004SOL     OW 9910   0.541   4.124   2.685
 3004SOL    HW1 9911   0.572   4.166   2.771
 3004SOL    HW2 9912   0.548   4.190   2.611
 3005SOL     OW 9913   1.441   2.908   0.166
 3005SOL    HW1 9914   1.521   2.936   0.113
 3005SOL    HW2 9915   1.358   2.931   0.115
 3006SOL     OW 9916   5.442   1.973   4.297
 3006SOL    HW1 9917   5.453   1.959   4.199
 3006SOL    HW2 9918   5.501   2.048   4.327
 3007SOL     OW 9919   5.909   3.855   0.838
 3007SOL    HW1 9920   5.898   3.784   0.908
 3007SOL    HW2 9921   5.828   3.913   0.836
 3008SOL     OW 9922   3.308   2.525   6.086
 3008SOL    HW1 9923   3.232   2.560   6.031
 3008SOL    HW2 9924   3.394   2.560   6.050
 3009SOL     OW 9925   6.589   2.413   2.660
 3009SOL    HW1 9926   6.585   2.420   2.759
 3009SOL    HW2 9927   6.510   2.361   2.626
 3010SOL     OW 9928   2.978   5.583   3.343
 3010SOL    HW1 9929   2.917   5.642   3.289
 3010SOL    HW2 9930   2.954   5.487   3.327
 3011SOL     OW 9931   5.927   1.132   2.692
 3011SOL    HW1 9932   5.841   1.169   2.659
 3011SOL    HW2 9933   5.913   1.089   2.781
 3012SOL     OW 9934   2.300   3.765   6.489
 3012SOL    HW1 9935   2.379   3.810   6.532
 3012SOL    HW2 9936   2.326   3.732   6.398
 3013SOL     OW 9937   5.107   5.657   3.933
 3013SOL    HW1 9938   5.183   5.700   3.983
 3013SOL    HW2 9939   5.084   5.712   3.853
 3014SOL     OW 9940   4.588   2.356   5.554
 3014SOL    HW1 9941   4.593   2.441   5.502
 3014SOL    HW2 9942   4.558   2.281   5.495
 3015SOL     OW 9943   2.209   1.694   0.143
 3015SOL    HW1 9944   2.262   1.612   0.119
 3015SOL    HW2 9945   2.250   1.774   0.101
 3016SOL     OW 9946   3.035   6.002   4.311
 3016SOL    HW1 9947   2.964   6.046   4.366
 3016SOL    HW2 9948   3.108   6.068   4.292
 3017SOL     OW 9949   6.099   5.688   2.093
 3017SOL    HW1 9950   6.071   5.680   1.997
 3017SOL    HW2 9951   6.187   5.643   2.107
 3018SOL     OW 9952   2.514   0.181   6.275
 3018SOL    HW1 9953   2.507   0.253   6.343
 3018SOL    HW2 9954   2.432   0.181   6.218
 3019SOL     OW 9955   0.457   0.026   6.538
 3019SOL    HW1 9956   0.461   0.104   6.477
 3019SOL    HW2 9957   0.477   0.055   6.632
 3020SOL     OW 9958   3.752   2.640   1.116
 3020SOL    HW1 9959   3.750   2.541   1.126
 3020SOL    HW2 9960   3.805   2.664   1.034
 3021SOL     OW 9961   3.243   0.114   5.543
 3021SOL    HW1 9962   3.184   0.102   5.463
 3021SOL    HW2 9963   3.194   0.085   5.625
 3022SOL     OW 9964   4.326   5.445   5.225
 3022SOL    HW1 9965   4.364   5.429   5.316
 3022SOL    HW2 9966   4.267   5.526   5.227
 3023SOL     OW 9967   4.269   6.690   3.103
 3023SOL    HW1 9968   4.229   6.663   3.016
 3023SOL    HW2 9969   4.210   6.758   3.147
 3024SOL     OW 9970   5.403   6.360   4.636
 3024SOL    HW1 9971   5.432   6.307   4.716
 3024SOL    HW2 9972   5.457   6.444   4.630
 3025SOL     OW 9973   4.285   6.232   1.075
 3025SOL    HW1 9974   4.281   6.235   1.174
 3025SOL    HW2 9975   4.345   6.158   1.045
 3026SOL     OW 9976   1.225   1.091   5.945
 3026SOL    HW1 9977   1.300   1.055   5.890
 3026SOL    HW2 9978   1.204   1.184   5.917
 3027SOL     OW 9979   4.470   1.627   2.952
 3027SOL    HW1 9980   4.383   1.599   2.992
 3027SOL    HW2 9981   4.541   1.626   3.023
 3028SOL     OW 9982   1.536   3.343   5.656
 3028SOL    HW1 9983   1.636   3.337   5.656
 3028SOL    HW2 9984   1.506   3.399   5.734
 3029SOL     OW 9985   0.703   2.943   5.227
 3029SOL    HW1 9986   0.793   2.900   5.222
 3029SOL    HW2 9987   0.713   3.042   5.212
 3030SOL     OW 9988   0.879   3.603   0.387
 3030SOL    HW1 9989   0.898   3.695   0.422
 3030SOL    HW2 9990   0.871   3.539   0.463
 3031SOL     OW 9991   6.930   4.633   1.356
 3031SOL    HW1 9992   7.015   4.599   1.397
 3031SOL    HW2 9993   6.951   4.678   1.269
 3032SOL     OW 9994   2.483   6.912   1.558
 3032SOL    HW1 9995   2.515   6.862   1.478
 3032SOL    HW2 9996   2.556   6.915   1.626
 3033SOL     OW 9997   5.302   1.280   1.892
 3033SOL    HW1 9998   5.206   1.306   1.901
 3033SOL    HW2 9999   5.360   1.355   1.924
 3034SOL     OW10000   1.079   0.438   2.753
 3034SOL    HW110001   1.070   0.533   2.785
 3034SOL    HW210002   1.049   0.433   2.657
 3035SOL     OW10003   0.284   2.772   5.838
 3035SOL    HW110004   0.334   2.858   5.842
 3035SOL    HW210005   0.303   2.726   5.751
 3036SOL     OW10006   1.707   1.535   5.644
 3036SOL    HW110007   1.690   1.617   5.590
 3036SOL    HW210008   1.783   1.552   5.707
 3037SOL     OW10009   6.347   5.498   6.552
 3037SOL    HW110010   6.284   5.445   6.607
 3037SOL    HW210011   6.363   5.451   6.465
 3038SOL     OW10012   5.107   5.639   5.755
 3038SOL    HW110013   5.085   5.716   5.815
 3038SOL    HW210014   5.040   5.566   5.770
 3039SOL     OW10015   0.920   3.445   1.331
 3039SOL    HW110016   0.982   3.503   1.384
 3039SOL    HW210017   0.958   3.353   1.325
 3040SOL     OW10018   3.189   4.039   5.697
 3040SOL    HW110019   3.245   4.034   5.614
 3040SOL    HW210020   3.096   4.066   5.673
 3041SOL     OW10021   2.281   3.357   5.158
 3041SOL    HW110022   2.227   3.417   5.217
 3041SOL    HW210023   2.323   3.284   5.212
 3042SOL     OW10024   5.979   6.128   2.693
 3042SOL    HW110025   6.071   6.089   2.697
 3042SOL    HW210026   5.953   6.163   2.783
 3043SOL     OW10027   2.787   3.987   1.200
 3043SOL    HW110028   2.780   3.917   1.270
 3043SOL    HW210029   2.696   4.012   1.167
 3044SOL     OW10030   3.548   5.230   5.879
 3044SOL    HW110031   3.568   5.326   5.896
 3044SOL    HW210032   3.460   5.222   5.832
 3045SOL     OW10033   4.893   6.641   3.619
 3045SOL    HW110034   4.860   6.559   3.574
 3045SOL    HW210035   4.917   6.710   3.550
 3046SOL     OW10036   3.238   1.111   5.721
 3046SOL    HW110037   3.334   1.087   5.734
 3046SOL    HW210038   3.217   1.111   5.623
 3047SOL     OW10039   6.113   0.499   1.753
 3047SOL    HW110040   6.037   0.550   1.713
 3047SOL    HW210041   6.089   0.469   1.845
 3048SOL     OW10042   3.833   2.226   1.524
 3048SOL    HW110043   3.797   2.161   1.592
 3048SOL    HW210044   3.765   2.239   1.452
 3049SOL     OW10045   1.538   0.096   3.053
 3049SOL    HW110046   1.494   0.185   3.047
 3049SOL    HW210047   1.603   0.096   3.129
 3050SOL     OW10048   2.856   1.856   2.507
 3050SOL    HW110049   2.789   1.914   2.462
 3050SOL    HW210050   2.849   1.763   2.472
 3051SOL     OW10051   1.881   5.977   6.301
 3051SOL    HW110052   1.937   5.997   6.382
 3051SOL    HW210053   1.855   6.063   6.258
 3052SOL     OW10054   4.990   5.244   1.668
 3052SOL    HW110055   4.911   5.294   1.702
 3052SOL    HW210056   5.045   5.211   1.745
 3053SOL     OW10057   0.262   2.763   1.175
 3053SOL    HW110058   0.289   2.711   1.094
 3053SOL    HW210059   0.327   2.746   1.249
 3054SOL     OW10060   5.998   2.185   1.471
 3054SOL    HW110061   6.034   2.228   1.554
 3054SOL    HW210062   5.911   2.141   1.491
 3055SOL     OW10063   5.101   0.256   5.133
 3055SOL    HW110064   5.103   0.177   5.071
 3055SOL    HW210065   5.193   0.292   5.143
 3056SOL     OW10066   5.874   0.970   5.774
 3056SOL    HW110067   5.829   0.946   5.688
 3056SOL    HW210068   5.855   1.066   5.796
 3057SOL     OW10069   4.157   5.796   3.651
 3057SOL    HW110070   4.210   5.736   3.710
 3057SOL    HW210071   4.083   5.743   3.608
 3058SOL     OW10072   0.402   4.511   1.022
 3058SOL    HW110073   0.473   4.531   1.090
 3058SOL    HW210074   0.399   4.413   1.004
 3059SOL     OW10075   3.092   1.946   4.292
 3059SOL    HW110076   3.166   2.012   4.298
 3059SOL    HW210077   3.032   1.956   4.371
 3060SOL     OW10078   1.582   5.512   0.249
 3060SOL    HW110079   1.608   5.468   0.335
 3060SOL    HW210080   1.518   5.586   0.268
 3061SOL     OW10081   6.430   5.560   5.663
 3061SOL    HW110082   6.360   5.630   5.649
 3061SOL    HW210083   6.403   5.475   5.617
 3062SOL     OW10084   2.298   0.417   1.221
 3062SOL    HW110085   2.289   0.436   1.123
 3062SOL    HW210086   2.269   0.324   1.239
 3063SOL     OW10087   1.899   4.820   1.783
 3063SOL    HW110088   1.867   4.728   1.805
 3063SOL    HW210089   1.914   4.871   1.868
 3064SOL     OW10090   5.397   3.541   0.807
 3064SOL    HW110091   5.337   3.509   0.881
 3064SOL    HW210092   5.345   3.601   0.746
 3065SOL     OW10093   1.675   1.976   6.271
 3065SOL    HW110094   1.660   2.067   6.309
 3065SOL    HW210095   1.586   1.935   6.246
 3066SOL     OW10096   5.344   4.366   0.343
 3066SOL    HW110097   5.405   4.445   0.353
 3066SOL    HW210098   5.369   4.316   0.260
 3067SOL     OW10099   4.129   1.113   5.932
 3067SOL    HW110100   4.032   1.109   5.906
 3067SOL    HW210101   4.144   1.194   5.989
 3068SOL     OW10102   0.233   6.781   0.929
 3068SOL    HW110103   0.318   6.736   0.904
 3068SOL    HW210104   0.234   6.805   1.026
 3069SOL     OW10105   6.825   6.668   1.992
 3069SOL    HW110106   6.884   6.746   2.016
 3069SOL    HW210107   6.770   6.643   2.071
 3070SOL     OW10108   2.989   1.406   6.937
 3070SOL    HW110109   2.937   1.491   6.926
 3070SOL    HW210110   2.940   1.331   6.892
 3071SOL     OW10111   6.750   6.419   3.818
 3071SOL    HW110112   6.774   6.325   3.840
 3071SOL    HW210113   6.734   6.470   3.902
 3072SOL     OW10114   2.604   5.889   6.217
 3072SOL    HW110115   2.589   5.958   6.146
 3072SOL    HW210116   2.520   5.835   6.228
 3073SOL     OW10117   0.048   3.654   4.315
 3073SOL    HW110118   6.996   3.598   4.273
 3073SOL    HW210119   0.015   3.688   4.403
 3074SOL     OW10120   7.002   4.339   1.237
 3074SOL    HW110121   6.905   4.322   1.254
 3074SOL    HW210122   0.023   4.383   1.317
 3075SOL     OW10123   2.498   5.665   1.966
 3075SOL    HW110124   2.588   5.664   2.010
 3075SOL    HW210125   2.493   5.742   1.903
 3076SOL     OW10126   6.361   0.618   3.518
 3076SOL    HW110127   6.375   0.561   3.599
 3076SOL    HW210128   6.450   0.647   3.482
 3077SOL     OW10129   6.051   4.359   1.886
 3077SOL    HW110130   6.024   4.455   1.884
 3077SOL    HW210131   6.114   4.340   1.810
 3078SOL     OW10132   0.113   3.673   3.051
 3078SOL    HW110133   0.128   3.700   3.146
 3078SOL    HW210134   0.169   3.593   3.029
 3079SOL     OW10135   2.688   2.157   2.884
 3079SOL    HW110136   2.718   2.130   2.976
 3079SOL    HW210137   2.641   2.080   2.841
 3080SOL     OW10138   5.708   5.144   2.356
 3080SOL    HW110139   5.752   5.201   2.425
 3080SOL    HW210140   5.659   5.202   2.291
 3081SOL     OW10141   1.214   3.195   6.193
 3081SOL    HW110142   1.274   3.191   6.113
 3081SOL    HW210143   1.154   3.274   6.186
 3082SOL     OW10144   2.007   6.187   4.288
 3082SOL    HW110145   1.958   6.274   4.286
 3082SOL    HW210146   2.075   6.185   4.215
 3083SOL     OW10147   2.923   5.942   3.664
 3083SOL    HW110148   2.966   5.958   3.752
 3083SOL    HW210149   2.916   5.843   3.648
 3084SOL     OW10150   6.945   3.780   4.546
 3084SOL    HW110151   6.849   3.764   4.567
 3084SOL    HW210152   6.971   3.872   4.575
 3085SOL     OW10153   5.989   4.013   0.643
 3085SOL    HW110154   5.981   3.988   0.547
 3085SOL    HW210155   5.968   3.934   0.700
 3086SOL     OW10156   5.012   1.320   0.847
 3086SOL    HW110157   4.921   1.350   0.819
 3086SOL    HW210158   5.060   1.281   0.769
 3087SOL     OW10159   1.841   6.313   4.080
 3087SOL    HW110160   1.747   6.318   4.046
 3087SOL    HW210161   1.904   6.306   4.002
 3088SOL     OW10162   2.122   5.005   4.417
 3088SOL    HW110163   2.100   4.949   4.337
 3088SOL    HW210164   2.164   5.090   4.388
 3089SOL     OW10165   3.361   1.890   4.838
 3089SOL    HW110166   3.370   1.838   4.753
 3089SOL    HW210167   3.330   1.983   4.818
 3090SOL     OW10168   2.094   1.439   2.148
 3090SOL    HW110169   2.017   1.426   2.085
 3090SOL    HW210170   2.078   1.521   2.203
 3091SOL     OW10171   1.318   0.920   1.246
 3091SOL    HW110172   1.380   0.994   1.268
 3091SOL    HW210173   1.355   0.834   1.281
 3092SOL     OW10174   5.703   0.714   0.680
 3092SOL    HW110175   5.728   0.807   0.653
 3092SOL    HW210176   5.613   0.692   0.643
 3093SOL     OW10177   5.574   6.346   6.840
 3093SOL    HW110178   5.619   6.275   6.786
 3093SOL    HW210179   5.501   6.305   6.895
 3094SOL     OW10180   2.250   0.231   3.825
 3094SOL    HW110181   2.313   0.236   3.747
 3094SOL    HW210182   2.193   0.314   3.827
 3095SOL     OW10183   2.456   4.174   5.864
 3095SOL    HW110184   2.451   4.237   5.787
 3095SOL    HW210185   2.392   4.098   5.849
 3096SOL     OW10186   0.772   5.303   5.637
 3096SOL    HW110187   0.688   5.289   5.585
 3096SOL    HW210188   0.823   5.218   5.643
 3097SOL     OW10189   5.489   3.309   0.040
 3097SOL    HW110190   5.430   3.361   6.999
 3097SOL    HW210191   5.582   3.344   0.035
 3098SOL     OW10192   1.867   2.938   1.073
 3098SOL    HW110193   1.768   2.939   1.087
 3098SOL    HW210194   1.913   2.957   1.159
 3099SOL     OW10195   1.125   6.236   3.964
 3099SOL    HW110196   1.138   6.302   3.890
 3099SOL    HW210197   1.213   6.203   3.995
 3100SOL     OW10198   0.300   6.924   3.796
 3100SOL    HW110199   0.348   6.925   3.708
 3100SOL    HW210200   0.244   7.006   3.804
 3101SOL     OW10201   6.204   6.058   7.007
 3101SOL    HW110202   6.183   6.080   0.082
 3101SOL    HW210203   6.246   5.968   7.002
 3102SOL     OW10204   6.715   6.526   1.572
 3102SOL    HW110205   6.796   6.471   1.553
 3102SOL    HW210206   6.738   6.600   1.634
 3103SOL     OW10207   4.308   1.104   1.983
 3103SOL    HW110208   4.227   1.124   1.929
 3103SOL    HW210209   4.388   1.100   1.923
 3104SOL     OW10210   4.439   0.401   6.175
 3104SOL    HW110211   4.498   0.376   6.098
 3104SOL    HW210212   4.350   0.356   6.165
 3105SOL     OW10213   5.954   4.122   1.400
 3105SOL    HW110214   6.042   4.125   1.353
 3105SOL    HW210215   5.881   4.102   1.334
 3106SOL     OW10216   4.694   0.153   4.190
 3106SOL    HW110217   4.790   0.156   4.218
 3106SOL    HW210218   4.689   0.166   4.091
 3107SOL     OW10219   3.905   0.928   4.937
 3107SOL    HW110220   3.909   0.852   4.871
 3107SOL    HW210221   3.819   0.923   4.987
 3108SOL     OW10222   2.219   5.917   4.315
 3108SOL    HW110223   2.236   5.951   4.407
 3108SOL    HW210224   2.197   5.994   4.254
 3109SOL     OW10225   5.763   6.341   3.574
 3109SOL    HW110226   5.725   6.387   3.654
 3109SOL    HW210227   5.839   6.394   3.538
 3110SOL     OW10228   1.154   3.387   3.106
 3110SOL    HW110229   1.108   3.300   3.117
 3110SOL    HW210230   1.090   3.462   3.123
 3111SOL     OW10231   6.912   4.407   3.003
 3111SOL    HW110232   6.830   4.457   3.031
 3111SOL    HW210233   6.928   4.331   3.066
 3112SOL     OW10234   3.492   3.005   6.994
 3112SOL    HW110235   3.485   2.922   0.030
 3112SOL    HW210236   3.450   2.989   6.905
 3113SOL     OW10237   3.173   4.942   3.433
 3113SOL    HW110238   3.172   5.041   3.446
 3113SOL    HW210239   3.136   4.897   3.515
 3114SOL     OW10240   3.795   1.863   0.270
 3114SOL    HW110241   3.818   1.802   0.345
 3114SOL    HW210242   3.827   1.955   0.290
 3115SOL     OW10243   4.506   4.515   6.210
 3115SOL    HW110244   4.591   4.540   6.164
 3115SOL    HW210245   4.493   4.573   6.291
 3116SOL     OW10246   0.084   2.751   0.032
 3116SOL    HW110247   0.061   2.745   6.955
 3116SOL    HW210248   0.153   2.682   0.055
 3117SOL     OW10249   4.654   3.714   5.387
 3117SOL    HW110250   4.671   3.647   5.315
 3117SOL    HW210251   4.737   3.726   5.441
 3118SOL     OW10252   0.813   5.212   2.018
 3118SOL    HW110253   0.851   5.304   2.019
 3118SOL    HW210254   0.770   5.192   2.106
 3119SOL     OW10255   2.074   3.145   6.948
 3119SOL    HW110256   2.045   3.205   6.873
 3119SOL    HW210257   2.028   3.173   0.013
 3120SOL     OW10258   3.131   0.138   6.451
 3120SOL    HW110259   3.063   0.151   6.379
 3120SOL    HW210260   3.177   0.225   6.469
 3121SOL     OW10261   0.062   1.325   4.273
 3121SOL    HW110262   0.060   1.401   4.208
 3121SOL    HW210263   0.053   1.239   4.223
 3122SOL     OW10264   4.027   5.670   6.375
 3122SOL    HW110265   4.081   5.681   6.458
 3122SOL    HW210266   3.971   5.587   6.383
 3123SOL     OW10267   2.123   1.943   2.914
 3123SOL    HW110268   2.142   2.039   2.899
 3123SOL    HW210269   2.154   1.889   2.836
 3124SOL     OW10270   5.078   6.558   4.682
 3124SOL    HW110271   5.041   6.491   4.617
 3124SOL    HW210272   5.097   6.644   4.634
 3125SOL     OW10273   0.755   3.234   5.226
 3125SOL    HW110274   0.853   3.254   5.226
 3125SOL    HW210275   0.717   3.256   5.315
 3126SOL     OW10276   5.728   4.311   5.402
 3126SOL    HW110277   5.679   4.267   5.327
 3126SOL    HW210278   5.826   4.295   5.392
 3127SOL     OW10279   1.821   2.594   6.795
 3127SOL    HW110280   1.881   2.614   6.873
 3127SOL    HW210281   1.780   2.504   6.806
 3128SOL     OW10282   2.939   0.599   6.316
 3128SOL    HW110283   3.027   0.563   6.348
 3128SOL    HW210284   2.868   0.529   6.327
 3129SOL     OW10285   6.192   3.634   6.735
 3129SOL    HW110286   6.261   3.706   6.738
 3129SOL    HW210287   6.167   3.607   6.829
 3130SOL     OW10288   2.078   4.429   2.122
 3130SOL    HW110289   2.091   4.412   2.024
 3130SOL    HW210290   1.984   4.459   2.138
 3131SOL     OW10291   0.529   3.356   1.501
 3131SOL    HW110292   0.486   3.283   1.447
 3131SOL    HW210293   0.536   3.327   1.596
 3132SOL     OW10294   4.647   5.601   6.330
 3132SOL    HW110295   4.678   5.509   6.305
 3132SOL    HW210296   4.665   5.664   6.255
 3133SOL     OW10297   2.966   1.060   3.157
 3133SOL    HW110298   2.922   1.141   3.118
 3133SOL    HW210299   2.931   0.978   3.112
 3134SOL     OW10300   4.453   3.799   1.400
 3134SOL    HW110301   4.431   3.877   1.341
 3134SOL    HW210302   4.439   3.825   1.496
 3135SOL     OW10303   4.105   0.359   5.955
 3135SOL    HW110304   4.177   0.427   5.936
 3135SOL    HW210305   4.044   0.395   6.025
 3136SOL     OW10306   5.299   0.055   2.416
 3136SOL    HW110307   5.236   6.998   2.426
 3136SOL    HW210308   5.357   0.061   2.498
 3137SOL     OW10309   6.239   0.444   2.878
 3137SOL    HW110310   6.244   0.518   2.812
 3137SOL    HW210311   6.329   0.402   2.888
 3138SOL     OW10312   0.074   5.159   3.061
 3138SOL    HW110313   0.044   5.203   3.145
 3138SOL    HW210314   0.153   5.100   3.080
 3139SOL     OW10315   4.124   5.517   0.358
 3139SOL    HW110316   4.037   5.468   0.351
 3139SOL    HW210317   4.162   5.505   0.450
 3140SOL     OW10318   0.038   6.177   0.350
 3140SOL    HW110319   6.962   6.153   0.362
 3140SOL    HW210320   0.094   6.094   0.353
 3141SOL     OW10321   1.021   0.445   6.635
 3141SOL    HW110322   1.088   0.373   6.618
 3141SOL    HW210323   0.929   0.407   6.631
 3142SOL     OW10324   3.193   6.948   2.584
 3142SOL    HW110325   3.231   6.859   2.612
 3142SOL    HW210326   3.153   6.940   2.493
 3143SOL     OW10327   6.878   2.261   0.475
 3143SOL    HW110328   6.832   2.173   0.487
 3143SOL    HW210329   6.914   2.293   0.562
 3144SOL     OW10330   4.213   3.646   1.088
 3144SOL    HW110331   4.227   3.744   1.103
 3144SOL    HW210332   4.116   3.627   1.075
 3145SOL     OW10333   2.255   5.965   2.182
 3145SOL    HW110334   2.332   6.023   2.206
 3145SOL    HW210335   2.182   6.022   2.144
 3146SOL     OW10336   0.648   1.459   4.477
 3146SOL    HW110337   0.709   1.537   4.460
 3146SOL    HW210338   0.556   1.481   4.446
 3147SOL     OW10339   2.871   5.410   0.859
 3147SOL    HW110340   2.911   5.499   0.881
 3147SOL    HW210341   2.944   5.347   0.831
 3148SOL     OW10342   6.242   0.035   3.460
 3148SOL    HW110343   6.155   0.019   3.414
 3148SOL    HW210344   6.305   6.979   3.440
 3149SOL     OW10345   3.424   0.459   5.716
 3149SOL    HW110346   3.468   0.542   5.751
 3149SOL    HW210347   3.366   0.420   5.788
 3150SOL     OW10348   6.786   5.545   5.307
 3150SOL    HW110349   6.730   5.484   5.250
 3150SOL    HW210350   6.727   5.613   5.350
 3151SOL     OW10351   0.303   0.716   4.709
 3151SOL    HW110352   0.261   0.779   4.775
 3151SOL    HW210353   0.376   0.664   4.754
 3152SOL     OW10354   0.661   5.326   1.343
 3152SOL    HW110355   0.617   5.345   1.255
 3152SOL    HW210356   0.651   5.229   1.365
 3153SOL     OW10357   6.256   5.395   0.713
 3153SOL    HW110358   6.322   5.343   0.767
 3153SOL    HW210359   6.269   5.376   0.616
 3154SOL     OW10360   0.596   1.867   6.265
 3154SOL    HW110361   0.642   1.808   6.331
 3154SOL    HW210362   0.516   1.821   6.228
 3155SOL     OW10363   6.674   4.358   0.397
 3155SOL    HW110364   6.672   4.275   0.341
 3155SOL    HW210365   6.696   4.437   0.340
 3156SOL     OW10366   3.768   2.932   2.652
 3156SOL    HW110367   3.850   2.977   2.618
 3156SOL    HW210368   3.782   2.903   2.747
 3157SOL     OW10369   2.306   1.498   5.144
 3157SOL    HW110370   2.227   1.540   5.190
 3157SOL    HW210371   2.354   1.437   5.207
 3158SOL     OW10372   3.567   1.715   3.686
 3158SOL    HW110373   3.491   1.650   3.682
 3158SOL    HW210374   3.572   1.765   3.599
 3159SOL     OW10375   5.917   0.860   0.099
 3159SOL    HW110376   5.968   0.924   0.157
 3159SOL    HW210377   5.933   0.766   0.131
 3160SOL     OW10378   0.621   6.175   5.556
 3160SOL    HW110379   0.596   6.092   5.606
 3160SOL    HW210380   0.707   6.159   5.507
 3161SOL     OW10381   2.187   2.595   2.989
 3161SOL    HW110382   2.187   2.642   2.901
 3161SOL    HW210383   2.103   2.617   3.039
 3162SOL     OW10384   1.444   5.795   1.574
 3162SOL    HW110385   1.419   5.890   1.559
 3162SOL    HW210386   1.447   5.747   1.486
 3163SOL     OW10387   4.579   3.215   6.571
 3163SOL    HW110388   4.534   3.168   6.647
 3163SOL    HW210389   4.510   3.255   6.511
 3164SOL     OW10390   4.025   5.717   1.303
 3164SOL    HW110391   3.932   5.745   1.281
 3164SOL    HW210392   4.054   5.645   1.241
 3165SOL     OW10393   0.935   6.757   1.161
 3165SOL    HW110394   0.961   6.828   1.226
 3165SOL    HW210395   1.018   6.712   1.126
 3166SOL     OW10396   4.217   1.492   4.166
 3166SOL    HW110397   4.246   1.567   4.225
 3166SOL    HW210398   4.197   1.411   4.222
 3167SOL     OW10399   6.651   4.522   0.653
 3167SOL    HW110400   6.553   4.533   0.635
 3167SOL    HW210401   6.691   4.461   0.584
 3168SOL     OW10402   5.127   3.029   0.610
 3168SOL    HW110403   5.030   3.038   0.588
 3168SOL    HW210404   5.183   3.059   0.533
 3169SOL     OW10405   2.043   4.213   4.177
 3169SOL    HW110406   1.981   4.238   4.252
 3169SOL    HW210407   1.994   4.222   4.090
 3170SOL     OW10408   4.518   5.789   1.593
 3170SOL    HW110409   4.545   5.844   1.514
 3170SOL    HW210410   4.424   5.810   1.618
 3171SOL     OW10411   6.921   1.090   2.462
 3171SOL    HW110412   6.943   1.185   2.482
 3171SOL    HW210413   6.827   1.083   2.429
 3172SOL     OW10414   0.201   5.924   0.428
 3172SOL    HW110415   0.119   5.919   0.372
 3172SOL    HW210416   0.251   5.837   0.421
 3173SOL     OW10417   3.039   2.160   0.410
 3173SOL    HW110418   3.132   2.179   0.441
 3173SOL    HW210419   2.995   2.097   0.473
 3174SOL     OW10420   3.001   2.431   0.345
 3174SOL    HW110421   2.923   2.492   0.362
 3174SOL    HW210422   2.992   2.349   0.401
 3175SOL     OW10423   5.925   0.642   1.637
 3175SOL    HW110424   5.916   0.727   1.689
 3175SOL    HW210425   5.959   0.662   1.545
 3176SOL     OW10426   1.664   3.985   6.060
 3176SOL    HW110427   1.686   3.890   6.079
 3176SOL    HW210428   1.568   4.003   6.081
 3177SOL     OW10429   4.788   4.034   3.831
 3177SOL    HW110430   4.853   3.958   3.840
 3177SOL    HW210431   4.715   4.024   3.899
 3178SOL     OW10432   6.474   2.504   0.409
 3178SOL    HW110433   6.541   2.565   0.368
 3178SOL    HW210434   6.421   2.459   0.336
 3179SOL     OW10435   0.794   2.974   2.483
 3179SOL    HW110436   0.800   3.064   2.441
 3179SOL    HW210437   0.861   2.967   2.558
 3180SOL     OW10438   5.644   0.803   6.701
 3180SOL    HW110439   5.564   0.859   6.681
 3180SOL    HW210440   5.631   0.711   6.664
 3181SOL     OW10441   0.033   2.134   3.052
 3181SOL    HW110442   0.094   2.091   2.984
 3181SOL    HW210443   7.001   2.207   3.008
 3182SOL     OW10444   2.506   0.413   6.627
 3182SOL    HW110445   2.510   0.512   6.633
 3182SOL    HW210446   2.433   0.386   6.564
 3183SOL     OW10447   5.114   4.162   1.999
 3183SOL    HW110448   5.204   4.191   2.030
 3183SOL    HW210449   5.053   4.241   1.995
 3184SOL     OW10450   0.858   3.449   2.821
 3184SOL    HW110451   0.934   3.405   2.773
 3184SOL    HW210452   0.831   3.394   2.900
 3185SOL     OW10453   5.034   5.811   6.833
 3185SOL    HW110454   5.095   5.884   6.865
 3185SOL    HW210455   5.015   5.825   6.736
 3186SOL     OW10456   3.522   2.042   1.344
 3186SOL    HW110457   3.458   2.054   1.419
 3186SOL    HW210458   3.497   1.962   1.291
 3187SOL     OW10459   4.650   4.331   0.746
 3187SOL    HW110460   4.642   4.252   0.685
 3187SOL    HW210461   4.584   4.401   0.717
 3188SOL     OW10462   1.770   0.197   4.054
 3188SOL    HW110463   1.844   0.172   4.117
 3188SOL    HW210464   1.809   0.211   3.962
 3189SOL     OW10465   1.627   1.680   1.562
 3189SOL    HW110466   1.604   1.657   1.468
 3189SOL    HW210467   1.579   1.618   1.625
 3190SOL     OW10468   0.803   5.582   0.039
 3190SOL    HW110469   0.791   5.501   7.002
 3190SOL    HW210470   0.883   5.634   0.008
 3191SOL     OW10471   5.030   5.623   1.012
 3191SOL    HW110472   4.987   5.538   0.982
 3191SOL    HW210473   5.045   5.620   1.111
 3192SOL     OW10474   0.642   3.222   1.786
 3192SOL    HW110475   0.602   3.135   1.814
 3192SOL    HW210476   0.614   3.293   1.850
 3193SOL     OW10477   3.915   1.093   6.936
 3193SOL    HW110478   3.827   1.131   6.908
 3193SOL    HW210479   3.988   1.155   6.910
 3194SOL     OW10480   1.493   2.065   6.651
 3194SOL    HW110481   1.457   1.990   6.595
 3194SOL    HW210482   1.593   2.063   6.648
 3195SOL     OW10483   3.152   1.181   3.366
 3195SOL    HW110484   3.246   1.197   3.334
 3195SOL    HW210485   3.096   1.147   3.290
 3196SOL     OW10486   0.232   0.418   6.134
 3196SOL    HW110487   0.246   0.438   6.231
 3196SOL    HW210488   0.279   0.487   6.078
 3197SOL     OW10489   2.942   6.839   3.778
 3197SOL    HW110490   2.875   6.907   3.746
 3197SOL    HW210491   2.899   6.780   3.847
 3198SOL     OW10492   6.078   2.825   4.488
 3198SOL    HW110493   6.137   2.882   4.545
 3198SOL    HW210494   6.030   2.758   4.545
 3199SOL     OW10495   5.077   4.167   2.514
 3199SOL    HW110496   5.124   4.173   2.426
 3199SOL    HW210497   5.143   4.152   2.587
 3200SOL     OW10498   6.395   3.272   2.478
 3200SOL    HW110499   6.390   3.179   2.442
 3200SOL    HW210500   6.320   3.287   2.543
 3201SOL     OW10501   6.097   4.960   4.386
 3201SOL    HW110502   6.123   5.007   4.471
 3201SOL    HW210503   6.085   5.027   4.313
 3202SOL     OW10504   0.610   4.544   2.250
 3202SOL    HW110505   0.643   4.505   2.336
 3202SOL    HW210506   0.515   4.572   2.260
 3203SOL     OW10507   6.355   2.304   0.234
 3203SOL    HW110508   6.304   2.327   0.151
 3203SOL    HW210509   6.344   2.206   0.253
 3204SOL     OW10510   4.486   6.225   3.331
 3204SOL    HW110511   4.429   6.306   3.318
 3204SOL    HW210512   4.578   6.242   3.294
 3205SOL     OW10513   6.368   2.617   6.270
 3205SOL    HW110514   6.407   2.567   6.193
 3205SOL    HW210515   6.431   2.613   6.348
 3206SOL     OW10516   1.743   5.053   6.869
 3206SOL    HW110517   1.783   4.968   6.835
 3206SOL    HW210518   1.761   5.127   6.804
 3207SOL     OW10519   0.976   1.198   5.745
 3207SOL    HW110520   0.901   1.251   5.784
 3207SOL    HW210521   0.939   1.122   5.692
 3208SOL     OW10522   4.867   5.911   5.839
 3208SOL    HW110523   4.863   5.812   5.840
 3208SOL    HW210524   4.775   5.948   5.847
 3209SOL     OW10525   4.266   5.772   3.315
 3209SOL    HW110526   4.218   5.747   3.232
 3209SOL    HW210527   4.210   5.836   3.368
 3210SOL     OW10528   0.903   4.871   1.648
 3210SOL    HW110529   0.805   4.871   1.629
 3210SOL    HW210530   0.922   4.921   1.732
 3211SOL     OW10531   1.920   3.612   0.989
 3211SOL    HW110532   1.865   3.659   1.058
 3211SOL    HW210533   2.000   3.667   0.966
 3212SOL     OW10534   3.067   0.054   1.365
 3212SOL    HW110535   3.019   0.062   1.277
 3212SOL    HW210536   3.002   0.033   1.437
 3213SOL     OW10537   1.217   6.652   1.113
 3213SOL    HW110538   1.222   6.629   1.016
 3213SOL    HW210539   1.251   6.574   1.168
 3214SOL     OW10540   4.416   5.415   0.626
 3214SOL    HW110541   4.320   5.397   0.604
 3214SOL    HW210542   4.424   5.503   0.672
 3215SOL     OW10543   6.950   2.900   1.393
 3215SOL    HW110544   6.898   2.955   1.458
 3215SOL    HW210545   6.895   2.886   1.310
 3216SOL     OW10546   6.552   5.108   0.360
 3216SOL    HW110547   6.601   5.192   0.338
 3216SOL    HW210548   6.614   5.044   0.405
 3217SOL     OW10549   6.672   5.306   2.420
 3217SOL    HW110550   6.626   5.219   2.438
 3217SOL    HW210551   6.707   5.343   2.507
 3218SOL     OW10552   4.273   2.082   3.563
 3218SOL    HW110553   4.200   2.144   3.532
 3218SOL    HW210554   4.251   1.989   3.534
 3219SOL     OW10555   0.287   2.387   3.372
 3219SOL    HW110556   0.268   2.289   3.362
 3219SOL    HW210557   0.368   2.410   3.318
 3220SOL     OW10558   6.903   5.321   6.751
 3220SOL    HW110559   6.813   5.290   6.721
 3220SOL    HW210560   6.893   5.375   6.834
 3221SOL     OW10561   4.059   0.909   1.552
 3221SOL    HW110562   4.088   0.931   1.645
 3221SOL    HW210563   4.128   0.850   1.509
 3222SOL     OW10564   3.443   1.818   2.549
 3222SOL    HW110565   3.442   1.823   2.649
 3222SOL    HW210566   3.424   1.724   2.520
 3223SOL     OW10567   1.980   6.668   6.312
 3223SOL    HW110568   1.882   6.654   6.329
 3223SOL    HW210569   2.029   6.582   6.328
 3224SOL     OW10570   4.268   3.955   5.816
 3224SOL    HW110571   4.204   3.891   5.774
 3224SOL    HW210572   4.284   4.032   5.755
 3225SOL     OW10573   5.407   2.751   6.381
 3225SOL    HW110574   5.322   2.730   6.430
 3225SOL    HW210575   5.482   2.702   6.425
 3226SOL     OW10576   2.204   1.524   3.178
 3226SOL    HW110577   2.170   1.475   3.098
 3226SOL    HW210578   2.181   1.621   3.170
 3227SOL     OW10579   3.437   2.472   6.842
 3227SOL    HW110580   3.343   2.442   6.827
 3227SOL    HW210581   3.486   2.403   6.896
 3228SOL     OW10582   0.052   4.168   2.662
 3228SOL    HW110583   0.029   4.158   2.566
 3228SOL    HW210584   6.988   4.183   2.715
 3229SOL     OW10585   4.140   0.307   4.747
 3229SOL    HW110586   4.213   0.329   4.812
 3229SOL    HW210587   4.181   0.275   4.661
 3230SOL     OW10588   2.125   3.800   5.481
 3230SOL    HW110589   2.135   3.771   5.387
 3230SOL    HW210590   2.139   3.722   5.543
 3231SOL     OW10591   2.953   0.953   1.539
 3231SOL    HW110592   2.855   0.939   1.550
 3231SOL    HW210593   2.970   1.033   1.482
 3232SOL     OW10594   5.000   5.712   5.028
 3232SOL    HW110595   4.958   5.794   4.987
 3232SOL    HW210596   4.953   5.690   5.113
 3233SOL     OW10597   0.873   2.617   1.612
 3233SOL    HW110598   0.794   2.675   1.629
 3233SOL    HW210599   0.889   2.611   1.513
 3234SOL     OW10600   0.309   1.691   0.273
 3234SOL    HW110601   0.338   1.625   0.342
 3234SOL    HW210602   0.389   1.742   0.242
 3235SOL     OW10603   5.674   0.668   2.460
 3235SOL    HW110604   5.700   0.764   2.447
 3235SOL    HW210605   5.576   0.662   2.477
 3236SOL     OW10606   1.669   3.338   0.241
 3236SOL    HW110607   1.592   3.274   0.247
 3236SOL    HW210608   1.644   3.424   0.283
 3237SOL     OW10609   4.955   1.157   3.977
 3237SOL    HW110610   5.055   1.166   3.985
 3237SOL    HW210611   4.931   1.143   3.881
 3238SOL     OW10612   0.013   5.646   0.881
 3238SOL    HW110613   6.977   5.687   0.809
 3238SOL    HW210614   0.097   5.609   0.841
 3239SOL     OW10615   6.639   1.637   2.062
 3239SOL    HW110616   6.543   1.631   2.087
 3239SOL    HW210617   6.683   1.548   2.079
 3240SOL     OW10618   6.945   6.769   6.469
 3240SOL    HW110619   6.908   6.744   6.559
 3240SOL    HW210620   6.990   6.858   6.475
 3241SOL     OW10621   4.734   1.589   5.023
 3241SOL    HW110622   4.708   1.494   5.041
 3241SOL    HW210623   4.680   1.651   5.080
 3242SOL     OW10624   3.820   3.941   6.799
 3242SOL    HW110625   3.797   4.038   6.798
 3242SOL    HW210626   3.807   3.905   6.892
 3243SOL     OW10627   4.281   4.173   0.660
 3243SOL    HW110628   4.245   4.241   0.724
 3243SOL    HW210629   4.209   4.145   0.597
 3244SOL     OW10630   4.738   5.216   7.013
 3244SOL    HW110631   4.712   5.128   0.035
 3244SOL    HW210632   4.791   5.199   6.930
 3245SOL     OW10633   5.177   3.305   5.215
 3245SOL    HW110634   5.207   3.265   5.129
 3245SOL    HW210635   5.094   3.358   5.200
 3246SOL     OW10636   5.754   0.080   2.341
 3246SOL    HW110637   5.809   0.112   2.418
 3246SOL    HW210638   5.733   0.158   2.281
 3247SOL     OW10639   5.814   5.007   2.754
 3247SOL    HW110640   5.770   4.966   2.834
 3247SOL    HW210641   5.857   5.094   2.781
 3248SOL     OW10642   6.172   3.632   0.915
 3248SOL    HW110643   6.125   3.595   0.994
 3248SOL    HW210644   6.246   3.571   0.888
 3249SOL     OW10645   4.073   3.289   4.554
 3249SOL    HW110646   4.024   3.253   4.633
 3249SOL    HW210647   4.158   3.238   4.542
 3250SOL     OW10648   5.304   6.773   1.844
 3250SOL    HW110649   5.237   6.843   1.869
 3250SOL    HW210650   5.270   6.720   1.766
 3251SOL     OW10651   3.403   0.778   3.418
 3251SOL    HW110652   3.348   0.812   3.342
 3251SOL    HW210653   3.447   0.692   3.392
 3252SOL     OW10654   2.444   1.316   2.951
 3252SOL    HW110655   2.487   1.405   2.966
 3252SOL    HW210656   2.345   1.324   2.961
 3253SOL     OW10657   4.965   4.394   1.912
 3253SOL    HW110658   5.017   4.401   1.827
 3253SOL    HW210659   4.972   4.479   1.963
 3254SOL     OW10660   4.889   5.834   5.562
 3254SOL    HW110661   4.891   5.921   5.514
 3254SOL    HW210662   4.886   5.849   5.661
 3255SOL     OW10663   5.467   5.943   0.289
 3255SOL    HW110664   5.419   6.027   0.314
 3255SOL    HW210665   5.524   5.960   0.209
 3256SOL     OW10666   3.336   1.368   0.571
 3256SOL    HW110667   3.256   1.315   0.598
 3256SOL    HW210668   3.368   1.336   0.481
 3257SOL     OW10669   1.645   2.033   2.136
 3257SOL    HW110670   1.703   1.953   2.119
 3257SOL    HW210671   1.692   2.095   2.198
 3258SOL     OW10672   4.360   4.651   1.884
 3258SOL    HW110673   4.314   4.680   1.968
 3258SOL    HW210674   4.295   4.603   1.825
 3259SOL     OW10675   5.049   5.522   4.145
 3259SOL    HW110676   5.057   5.572   4.059
 3259SOL    HW210677   4.954   5.497   4.161
 3260SOL     OW10678   1.750   2.227   1.114
 3260SOL    HW110679   1.771   2.198   1.207
 3260SOL    HW210680   1.755   2.147   1.053
 3261SOL     OW10681   5.717   0.318   0.913
 3261SOL    HW110682   5.666   0.393   0.955
 3261SOL    HW210683   5.679   0.300   0.822
 3262SOL     OW10684   3.125   1.736   2.874
 3262SOL    HW110685   3.188   1.659   2.865
 3262SOL    HW210686   3.164   1.803   2.937
 3263SOL     OW10687   2.490   0.780   3.388
 3263SOL    HW110688   2.392   0.792   3.408
 3263SOL    HW210689   2.535   0.737   3.466
 3264SOL     OW10690   1.335   3.930   0.775
 3264SOL    HW110691   1.355   3.847   0.723
 3264SOL    HW210692   1.275   3.907   0.852
 3265SOL     OW10693   5.980   0.690   6.239
 3265SOL    HW110694   5.949   0.768   6.294
 3265SOL    HW210695   5.920   0.680   6.160
 3266SOL     OW10696   2.019   3.825   0.575
 3266SOL    HW110697   1.990   3.898   0.637
 3266SOL    HW210698   1.989   3.846   0.482
 3267SOL     OW10699   3.572   6.865   0.715
 3267SOL    HW110700   3.618   6.796   0.659
 3267SOL    HW210701   3.474   6.864   0.695
 3268SOL     OW10702   1.349   3.220   1.023
 3268SOL    HW110703   1.307   3.141   0.978
 3268SOL    HW210704   1.286   3.297   1.022
 3269SOL     OW10705   4.941   5.653   2.157
 3269SOL    HW110706   4.860   5.599   2.178
 3269SOL    HW210707   4.942   5.735   2.215
 3270SOL     OW10708   1.273   4.413   6.374
 3270SOL    HW110709   1.287   4.462   6.288
 3270SOL    HW210710   1.256   4.479   6.447
 3271SOL     OW10711   5.743   3.929   2.704
 3271SOL    HW110712   5.724   3.902   2.798
 3271SOL    HW210713   5.841   3.936   2.690
 3272SOL     OW10714   3.733   4.674   6.218
 3272SOL    HW110715   3.644   4.643   6.182
 3272SOL    HW210716   3.803   4.661   6.148
 3273SOL     OW10717   0.524   6.395   0.833
 3273SOL    HW110718   0.491   6.374   0.925
 3273SOL    HW210719   0.462   6.355   0.766
 3274SOL     OW10720   5.114   0.633   0.841
 3274SOL    HW110721   5.030   0.597   0.882
 3274SOL    HW210722   5.114   0.733   0.850
 3275SOL     OW10723   6.640   1.951   6.625
 3275SOL    HW110724   6.608   1.903   6.707
 3275SOL    HW210725   6.641   1.888   6.547
 3276SOL     OW10726   2.479   5.656   0.241
 3276SOL    HW110727   2.421   5.642   0.321
 3276SOL    HW210728   2.541   5.577   0.230
 3277SOL     OW10729   3.788   6.759   6.756
 3277SOL    HW110730   3.722   6.684   6.752
 3277SOL    HW210731   3.878   6.723   6.782
 3278SOL     OW10732   0.797   1.369   5.473
 3278SOL    HW110733   0.713   1.324   5.504
 3278SOL    HW210734   0.847   1.405   5.551
 3279SOL     OW10735   5.577   0.182   6.884
 3279SOL    HW110736   5.515   0.257   6.904
 3279SOL    HW210737   5.657   0.187   6.944
 3280SOL     OW10738   3.986   4.890   4.552
 3280SOL    HW110739   3.915   4.961   4.552
 3280SOL    HW210740   4.008   4.865   4.646
 3281SOL     OW10741   2.061   5.629   1.876
 3281SOL    HW110742   1.987   5.663   1.818
 3281SOL    HW210743   2.145   5.624   1.822
 3282SOL     OW10744   0.184   4.824   5.770
 3282SOL    HW110745   0.194   4.898   5.836
 3282SOL    HW210746   0.100   4.837   5.718
 3283SOL     OW10747   3.627   0.832   0.667
 3283SOL    HW110748   3.544   0.831   0.611
 3283SOL    HW210749   3.696   0.771   0.626
 3284SOL     OW10750   0.076   5.403   0.178
 3284SOL    HW110751   0.100   5.383   0.273
 3284SOL    HW210752   0.135   5.476   0.143
 3285SOL     OW10753   4.686   2.785   3.382
 3285SOL    HW110754   4.712   2.871   3.338
 3285SOL    HW210755   4.603   2.749   3.340
 3286SOL     OW10756   3.696   3.232   2.707
 3286SOL    HW110757   3.722   3.141   2.676
 3286SOL    HW210758   3.757   3.300   2.666
 3287SOL     OW10759   0.369   0.681   6.870
 3287SOL    HW110760   0.308   0.615   6.914
 3287SOL    HW210761   0.461   0.643   6.865
 3288SOL     OW10762   0.720   5.662   5.905
 3288SOL    HW110763   0.697   5.751   5.944
 3288SOL    HW210764   0.690   5.658   5.810
 3289SOL     OW10765   2.698   6.740   5.911
 3289SOL    HW110766   2.756   6.779   5.982
 3289SOL    HW210767   2.731   6.768   5.821
 3290SOL     OW10768   0.205   0.181   2.037
 3290SOL    HW110769   0.288   0.187   1.982
 3290SOL    HW210770   0.174   0.274   2.060
 3291SOL     OW10771   1.525   6.837   0.852
 3291SOL    HW110772   1.436   6.883   0.848
 3291SOL    HW210773   1.550   6.822   0.948
 3292SOL     OW10774   0.868   1.046   0.678
 3292SOL    HW110775   0.929   1.104   0.624
 3292SOL    HW210776   0.919   1.004   0.753
 3293SOL     OW10777   0.105   3.468   2.305
 3293SOL    HW110778   0.019   3.419   2.319
 3293SOL    HW210779   0.158   3.423   2.232
 3294SOL     OW10780   6.215   1.639   6.966
 3294SOL    HW110781   6.223   1.683   6.877
 3294SOL    HW210782   6.302   1.597   6.991
 3295SOL     OW10783   1.471   2.879   2.165
 3295SOL    HW110784   1.441   2.969   2.197
 3295SOL    HW210785   1.391   2.820   2.156
 3296SOL     OW10786   1.776   0.118   2.425
 3296SOL    HW110787   1.788   0.042   2.490
 3296SOL    HW210788   1.865   0.141   2.385
 3297SOL     OW10789   2.608   0.400   4.268
 3297SOL    HW110790   2.530   0.429   4.212
 3297SOL    HW210791   2.676   0.473   4.271
 3298SOL     OW10792   5.869   1.524   4.892
 3298SOL    HW110793   5.906   1.530   4.984
 3298SOL    HW210794   5.824   1.436   4.879
 3299SOL     OW10795   2.734   5.617   3.031
 3299SOL    HW110796   2.791   5.695   3.007
 3299SOL    HW210797   2.682   5.637   3.114
 3300SOL     OW10798   6.528   0.495   5.605
 3300SOL    HW110799   6.502   0.571   5.545
 3300SOL    HW210800   6.536   0.411   5.550
 3301SOL     OW10801   1.974   2.890   3.728
 3301SOL    HW110802   1.961   2.838   3.812
 3301SOL    HW210803   1.886   2.901   3.681
 3302SOL     OW10804   6.964   4.840   5.625
 3302SOL    HW110805   6.909   4.799   5.697
 3302SOL    HW210806   6.914   4.917   5.584
 3303SOL     OW10807   3.511   3.419   1.408
 3303SOL    HW110808   3.420   3.454   1.431
 3303SOL    HW210809   3.536   3.346   1.472
 3304SOL     OW10810   0.589   6.159   4.104
 3304SOL    HW110811   0.683   6.161   4.137
 3304SOL    HW210812   0.526   6.166   4.182
 3305SOL     OW10813   2.235   1.399   2.521
 3305SOL    HW110814   2.246   1.301   2.539
 3305SOL    HW210815   2.138   1.422   2.517
 3306SOL     OW10816   2.030   5.656   5.109
 3306SOL    HW110817   1.983   5.604   5.037
 3306SOL    HW210818   2.000   5.751   5.106
 3307SOL     OW10819   0.117   5.569   6.977
 3307SOL    HW110820   0.028   5.526   6.993
 3307SOL    HW210821   0.164   5.523   6.901
 3308SOL     OW10822   3.008   6.200   0.767
 3308SOL    HW110823   3.071   6.124   0.753
 3308SOL    HW210824   2.915   6.164   0.778
 3309SOL     OW10825   0.121   5.753   2.805
 3309SOL    HW110826   0.206   5.804   2.796
 3309SOL    HW210827   0.102   5.736   2.902
 3310SOL     OW10828   0.033   3.055   6.078
 3310SOL    HW110829   0.059   3.020   5.988
 3310SOL    HW210830   0.037   2.981   6.145
 3311SOL     OW10831   2.222   4.153   1.679
 3311SOL    HW110832   2.190   4.245   1.656
 3311SOL    HW210833   2.303   4.160   1.737
 3312SOL     OW10834   4.444   4.329   5.605
 3312SOL    HW110835   4.377   4.400   5.586
 3312SOL    HW210836   4.468   4.331   5.702
 3313SOL     OW10837   0.795   5.322   3.637
 3313SOL    HW110838   0.858   5.259   3.590
 3313SOL    HW210839   0.824   5.416   3.619
 3314SOL     OW10840   2.847   1.378   3.295
 3314SOL    HW110841   2.902   1.461   3.302
 3314SOL    HW210842   2.838   1.352   3.198
 3315SOL     OW10843   6.678   3.625   4.808
 3315SOL    HW110844   6.579   3.615   4.818
 3315SOL    HW210845   6.698   3.686   4.731
 3316SOL     OW10846   5.090   1.450   6.096
 3316SOL    HW110847   5.020   1.386   6.065
 3316SOL    HW210848   5.064   1.487   6.185
 3317SOL     OW10849   4.280   3.097   1.737
 3317SOL    HW110850   4.202   3.097   1.800
 3317SOL    HW210851   4.363   3.074   1.788
 3318SOL     OW10852   2.232   1.174   0.939
 3318SOL    HW110853   2.221   1.138   0.846
 3318SOL    HW210854   2.325   1.207   0.951
 3319SOL     OW10855   0.007   1.297   3.960
 3319SOL    HW110856   6.998   1.392   3.943
 3319SOL    HW210857   0.101   1.285   3.928
 3320SOL     OW10858   5.839   6.864   4.674
 3320SOL    HW110859   5.824   6.802   4.751
 3320SOL    HW210860   5.923   6.916   4.689
 3321SOL     OW10861   4.536   1.718   0.271
 3321SOL    HW110862   4.509   1.781   0.198
 3321SOL    HW210863   4.467   1.720   0.344
 3322SOL     OW10864   5.923   3.192   0.881
 3322SOL    HW110865   5.993   3.138   0.927
 3322SOL    HW210866   5.952   3.214   0.788
 3323SOL     OW10867   2.766   2.830   0.574
 3323SOL    HW110868   2.813   2.742   0.587
 3323SOL    HW210869   2.711   2.850   0.655
 3324SOL     OW10870   3.298   5.737   6.783
 3324SOL    HW110871   3.265   5.660   6.838
 3324SOL    HW210872   3.366   5.788   6.836
 3325SOL     OW10873   1.314   2.975   6.934
 3325SOL    HW110874   1.215   2.986   6.942
 3325SOL    HW210875   1.349   3.032   6.860
 3326SOL     OW10876   4.825   2.362   1.872
 3326SOL    HW110877   4.887   2.309   1.813
 3326SOL    HW210878   4.879   2.412   1.940
 3327SOL     OW10879   2.808   6.401   1.917
 3327SOL    HW110880   2.826   6.467   1.844
 3327SOL    HW210881   2.741   6.333   1.886
 3328SOL     OW10882   4.077   1.858   0.482
 3328SOL    HW110883   4.068   1.885   0.578
 3328SOL    HW210884   3.996   1.807   0.455
 3329SOL     OW10885   4.724   0.078   4.520
 3329SOL    HW110886   4.643   0.038   4.478
 3329SOL    HW210887   4.783   0.116   4.448
 3330SOL     OW10888   6.432   4.855   1.595
 3330SOL    HW110889   6.410   4.942   1.639
 3330SOL    HW210890   6.529   4.854   1.570
 3331SOL     OW10891   1.743   3.177   1.248
 3331SOL    HW110892   1.779   3.213   1.162
 3331SOL    HW210893   1.814   3.127   1.296
 3332SOL     OW10894   6.311   4.831   0.053
 3332SOL    HW110895   6.365   4.808   0.134
 3332SOL    HW210896   6.372   4.847   6.995
 3333SOL     OW10897   3.561   3.998   6.987
 3333SOL    HW110898   3.557   4.098   6.985
 3333SOL    HW210899   3.645   3.968   0.012
 3334SOL     OW10900   2.922   3.628   1.202
 3334SOL    HW110901   2.873   3.651   1.287
 3334SOL    HW210902   2.858   3.633   1.125
 3335SOL     OW10903   4.951   6.471   5.575
 3335SOL    HW110904   4.863   6.461   5.621
 3335SOL    HW210905   5.025   6.464   5.642
 3336SOL     OW10906   1.651   6.596   4.612
 3336SOL    HW110907   1.740   6.585   4.658
 3336SOL    HW210908   1.580   6.608   4.681
 3337SOL     OW10909   3.068   4.022   2.238
 3337SOL    HW110910   3.000   4.091   2.262
 3337SOL    HW210911   3.087   3.964   2.318
 3338SOL     OW10912   5.654   3.214   2.546
 3338SOL    HW110913   5.725   3.143   2.551
 3338SOL    HW210914   5.598   3.210   2.628
 3339SOL     OW10915   0.256   0.280   6.568
 3339SOL    HW110916   0.319   0.255   6.642
 3339SOL    HW210917   0.162   0.268   6.599
 3340SOL     OW10918   4.139   1.985   2.845
 3340SOL    HW110919   4.048   1.947   2.825
 3340SOL    HW210920   4.208   1.914   2.829
 3341SOL     OW10921   1.103   5.379   3.371
 3341SOL    HW110922   1.078   5.410   3.280
 3341SOL    HW210923   1.127   5.458   3.428
 3342SOL     OW10924   2.035   6.846   3.924
 3342SOL    HW110925   2.019   6.795   4.008
 3342SOL    HW210926   2.093   6.792   3.863
 3343SOL     OW10927   5.738   3.407   0.074
 3343SOL    HW110928   5.777   3.317   0.089
 3343SOL    HW210929   5.781   3.473   0.136
 3344SOL     OW10930   5.959   3.380   3.912
 3344SOL    HW110931   6.015   3.311   3.867
 3344SOL    HW210932   5.929   3.346   4.001
 3345SOL     OW10933   1.781   3.121   5.859
 3345SOL    HW110934   1.749   3.202   5.908
 3345SOL    HW210935   1.814   3.148   5.768
 3346SOL     OW10936   1.890   0.859   0.346
 3346SOL    HW110937   1.945   0.822   0.271
 3346SOL    HW210938   1.897   0.959   0.346
 3347SOL     OW10939   0.644   3.784   5.770
 3347SOL    HW110940   0.552   3.756   5.742
 3347SOL    HW210941   0.696   3.810   5.689
 3348SOL     OW10942   3.482   3.831   4.475
 3348SOL    HW110943   3.575   3.797   4.492
 3348SOL    HW210944   3.437   3.772   4.408
 3349SOL     OW10945   1.215   5.466   2.856
 3349SOL    HW110946   1.221   5.555   2.810
 3349SOL    HW210947   1.307   5.429   2.868
 3350SOL     OW10948   0.615   2.675   5.922
 3350SOL    HW110949   0.594   2.667   5.825
 3350SOL    HW210950   0.631   2.770   5.946
 3351SOL     OW10951   4.578   1.276   2.587
 3351SOL    HW110952   4.548   1.209   2.655
 3351SOL    HW210953   4.609   1.359   2.634
 3352SOL     OW10954   0.061   2.452   0.687
 3352SOL    HW110955   0.112   2.407   0.614
 3352SOL    HW210956   0.014   2.533   0.651
 3353SOL     OW10957   2.487   5.792   1.711
 3353SOL    HW110958   2.549   5.741   1.652
 3353SOL    HW210959   2.453   5.872   1.661
 3354SOL     OW10960   5.017   2.814   5.412
 3354SOL    HW110961   5.049   2.733   5.363
 3354SOL    HW210962   4.997   2.790   5.507
 3355SOL     OW10963   2.115   2.264   6.209
 3355SOL    HW110964   2.177   2.221   6.275
 3355SOL    HW210965   2.163   2.337   6.160
 3356SOL     OW10966   0.476   4.900   5.173
 3356SOL    HW110967   0.451   4.990   5.137
 3356SOL    HW210968   0.489   4.907   5.272
 3357SOL     OW10969   2.193   3.969   2.143
 3357SOL    HW110970   2.134   3.953   2.222
 3357SOL    HW210971   2.184   3.893   2.079
 3358SOL     OW10972   4.595   1.401   0.603
 3358SOL    HW110973   4.673   1.407   0.542
 3358SOL    HW210974   4.567   1.306   0.612
 3359SOL     OW10975   0.379   6.646   2.748
 3359SOL    HW110976   0.427   6.659   2.662
 3359SOL    HW210977   0.437   6.594   2.812
 3360SOL     OW10978   1.511   1.542   0.097
 3360SOL    HW110979   1.427   1.596   0.094
 3360SOL    HW210980   1.514   1.480   0.019
 3361SOL     OW10981   0.721   5.225   4.241
 3361SOL    HW110982   0.704   5.179   4.154
 3361SOL    HW210983   0.737   5.322   4.225
 3362SOL     OW10984   3.889   1.325   2.947
 3362SOL    HW110985   3.900   1.317   2.848
 3362SOL    HW210986   3.797   1.294   2.973
 3363SOL     OW10987   6.408   0.075   1.744
 3363SOL    HW110988   6.343   0.002   1.723
 3363SOL    HW210989   6.359   0.162   1.748
 3364SOL     OW10990   1.173   4.995   3.668
 3364SOL    HW110991   1.178   5.087   3.630
 3364SOL    HW210992   1.262   4.951   3.661
 3365SOL     OW10993   6.621   2.423   5.276
 3365SOL    HW110994   6.701   2.366   5.292
 3365SOL    HW210995   6.539   2.367   5.281
 3366SOL     OW10996   6.255   6.267   4.925
 3366SOL    HW110997   6.281   6.363   4.936
 3366SOL    HW210998   6.156   6.259   4.920
 3367SOL     OW10999   3.762   2.886   2.154
 3367SOL    HW111000   3.802   2.952   2.217
 3367SOL    HW211001   3.766   2.794   2.195
 3368SOL     OW11002   0.978   5.642   6.039
 3368SOL    HW111003   1.022   5.591   5.966
 3368SOL    HW211004   0.883   5.661   6.014
 3369SOL     OW11005   3.987   2.430   0.460
 3369SOL    HW111006   3.909   2.388   0.414
 3369SOL    HW211007   3.980   2.529   0.453
 3370SOL     OW11008   0.493   6.134   0.181
 3370SOL    HW111009   0.465   6.104   0.272
 3370SOL    HW211010   0.445   6.080   0.112
 3371SOL     OW11011   2.335   2.733   1.982
 3371SOL    HW111012   2.332   2.693   2.074
 3371SOL    HW211013   2.321   2.661   1.914
 3372SOL     OW11014   0.798   1.896   1.647
 3372SOL    HW111015   0.714   1.904   1.593
 3372SOL    HW211016   0.775   1.868   1.741
 3373SOL     OW11017   6.832   1.419   3.568
 3373SOL    HW111018   6.790   1.370   3.644
 3373SOL    HW211019   6.920   1.458   3.598
 3374SOL     OW11020   1.396   6.103   4.809
 3374SOL    HW111021   1.488   6.070   4.830
 3374SOL    HW211022   1.379   6.093   4.711
 3375SOL     OW11023   6.820   4.238   6.806
 3375SOL    HW111024   6.876   4.221   6.725
 3375SOL    HW211025   6.838   4.331   6.839
 3376SOL     OW11026   4.093   3.731   3.870
 3376SOL    HW111027   4.079   3.642   3.826
 3376SOL    HW211028   4.107   3.717   3.968
 3377SOL     OW11029   6.710   5.744   6.345
 3377SOL    HW111030   6.781   5.815   6.340
 3377SOL    HW211031   6.736   5.677   6.415
 3378SOL     OW11032   0.875   1.186   0.180
 3378SOL    HW111033   0.901   1.113   0.242
 3378SOL    HW211034   0.785   1.166   0.140
 3379SOL     OW11035   6.681   6.861   6.348
 3379SOL    HW111036   6.661   6.929   6.419
 3379SOL    HW211037   6.772   6.822   6.363
 3380SOL     OW11038   5.570   6.451   4.904
 3380SOL    HW111039   5.556   6.366   4.956
 3380SOL    HW211040   5.508   6.522   4.939
 3381SOL     OW11041   0.626   2.879   1.420
 3381SOL    HW111042   0.677   2.818   1.360
 3381SOL    HW211043   0.640   2.852   1.515
 3382SOL     OW11044   0.813   2.153   1.021
 3382SOL    HW111045   0.762   2.073   0.991
 3382SOL    HW211046   0.897   2.124   1.067
 3383SOL     OW11047   4.583   5.660   1.233
 3383SOL    HW111048   4.674   5.675   1.273
 3383SOL    HW211049   4.533   5.746   1.231
 3384SOL     OW11050   2.752   3.255   6.572
 3384SOL    HW111051   2.852   3.250   6.574
 3384SOL    HW211052   2.725   3.348   6.546
 3385SOL     OW11053   6.320   3.205   4.481
 3385SOL    HW111054   6.238   3.240   4.435
 3385SOL    HW211055   6.296   3.126   4.537
 3386SOL     OW11056   6.020   4.606   0.068
 3386SOL    HW111057   6.078   4.609   7.006
 3386SOL    HW211058   5.933   4.563   0.045
 3387SOL     OW11059   3.194   0.620   3.212
 3387SOL    HW111060   3.175   0.718   3.202
 3387SOL    HW211061   3.115   0.575   3.253
 3388SOL     OW11062   5.504   3.258   1.612
 3388SOL    HW111063   5.499   3.346   1.565
 3388SOL    HW211064   5.468   3.268   1.705
 3389SOL     OW11065   5.730   5.486   6.251
 3389SOL    HW111066   5.680   5.405   6.283
 3389SOL    HW211067   5.827   5.464   6.242
 3390SOL     OW11068   5.514   6.416   6.499
 3390SOL    HW111069   5.607   6.385   6.519
 3390SOL    HW211070   5.510   6.451   6.406
 3391SOL     OW11071   5.072   3.243   4.884
 3391SOL    HW111072   5.008   3.298   4.937
 3391SOL    HW211073   5.022   3.186   4.819
 3392SOL     OW11074   2.696   0.402   3.530
 3392SOL    HW111075   2.711   0.314   3.576
 3392SOL    HW211076   2.680   0.386   3.433
 3393SOL     OW11077   0.304   6.259   6.904
 3393SOL    HW111078   0.227   6.197   6.890
 3393SOL    HW211079   0.269   6.353   6.913
 3394SOL     OW11080   5.257   3.613   1.807
 3394SOL    HW111081   5.215   3.691   1.760
 3394SOL    HW211082   5.231   3.615   1.904
 3395SOL     OW11083   5.030   3.408   3.296
 3395SOL    HW111084   5.077   3.366   3.373
 3395SOL    HW211085   4.938   3.437   3.324
 3396SOL     OW11086   5.048   2.010   2.876
 3396SOL    HW111087   4.964   1.993   2.928
 3396SOL    HW211088   5.042   2.099   2.831
 3397SOL     OW11089   2.834   6.805   5.678
 3397SOL    HW111090   2.760   6.857   5.637
 3397SOL    HW211091   2.919   6.857   5.671
 3398SOL     OW11092   1.120   0.036   5.005
 3398SOL    HW111093   1.163   7.008   4.928
 3398SOL    HW211094   1.024   0.053   4.983
 3399SOL     OW11095   5.560   4.059   3.498
 3399SOL    HW111096   5.531   4.131   3.561
 3399SOL    HW211097   5.659   4.048   3.504
 3400SOL     OW11098   4.249   3.235   5.657
 3400SOL    HW111099   4.190   3.156   5.677
 3400SOL    HW211100   4.197   3.319   5.674
 3401SOL     OW11101   0.805   2.749   1.211
 3401SOL    HW111102   0.770   2.710   1.125
 3401SOL    HW211103   0.843   2.676   1.267
 3402SOL     OW11104   4.112   6.076   6.887
 3402SOL    HW111105   4.112   6.020   6.969
 3402SOL    HW211106   4.096   6.019   6.807
 3403SOL     OW11107   3.203   5.800   4.987
 3403SOL    HW111108   3.295   5.814   5.023
 3403SOL    HW211109   3.187   5.702   4.972
 3404SOL     OW11110   5.200   1.174   0.156
 3404SOL    HW111111   5.112   1.173   0.109
 3404SOL    HW211112   5.263   1.234   0.106
 3405SOL     OW11113   6.665   4.165   5.397
 3405SOL    HW111114   6.669   4.259   5.432
 3405SOL    HW211115   6.620   4.106   5.465
 3406SOL     OW11116   1.039   4.293   1.991
 3406SOL    HW111117   1.011   4.330   1.902
 3406SOL    HW211118   0.964   4.238   2.029
 3407SOL     OW11119   1.487   4.956   6.388
 3407SOL    HW111120   1.508   4.975   6.292
 3407SOL    HW211121   1.516   4.863   6.410
 3408SOL     OW11122   4.955   3.907   4.723
 3408SOL    HW111123   4.887   3.951   4.664
 3408SOL    HW211124   4.950   3.808   4.712
 3409SOL     OW11125   3.482   6.808   6.561
 3409SOL    HW111126   3.547   6.753   6.613
 3409SOL    HW211127   3.413   6.748   6.520
 3410SOL     OW11128   6.539   6.786   0.924
 3410SOL    HW111129   6.480   6.785   1.005
 3410SOL    HW211130   6.507   6.717   0.859
 3411SOL     OW11131   0.753   3.718   1.960
 3411SOL    HW111132   0.804   3.717   1.874
 3411SOL    HW211133   0.817   3.722   2.036
 3412SOL     OW11134   4.733   3.133   0.741
 3412SOL    HW111135   4.781   3.045   0.739
 3412SOL    HW211136   4.772   3.190   0.814
 3413SOL     OW11137   6.003   1.271   0.586
 3413SOL    HW111138   5.994   1.371   0.585
 3413SOL    HW211139   6.092   1.246   0.623
 3414SOL     OW11140   3.704   1.350   5.975
 3414SOL    HW111141   3.740   1.443   5.974
 3414SOL    HW211142   3.769   1.289   5.930
 3415SOL     OW11143   2.098   3.400   4.546
 3415SOL    HW111144   2.012   3.403   4.596
 3415SOL    HW211145   2.141   3.490   4.548
 3416SOL     OW11146   6.523   5.669   0.854
 3416SOL    HW111147   6.505   5.765   0.871
 3416SOL    HW211148   6.618   5.648   0.880
 3417SOL     OW11149   0.547   6.514   2.927
 3417SOL    HW111150   0.612   6.586   2.952
 3417SOL    HW211151   0.535   6.452   3.004
 3418SOL     OW11152   3.162   6.667   3.767
 3418SOL    HW111153   3.086   6.731   3.758
 3418SOL    HW211154   3.211   6.661   3.680
 3419SOL     OW11155   2.597   5.941   5.539
 3419SOL    HW111156   2.518   5.956   5.480
 3419SOL    HW211157   2.639   5.853   5.517
 3420SOL     OW11158   5.915   3.209   4.287
 3420SOL    HW111159   5.843   3.167   4.232
 3420SOL    HW211160   5.894   3.199   4.384
 3421SOL     OW11161   4.450   1.079   5.243
 3421SOL    HW111162   4.422   0.993   5.286
 3421SOL    HW211163   4.499   1.134   5.311
 3422SOL     OW11164   2.289   0.426   0.936
 3422SOL    HW111165   2.347   0.364   0.884
 3422SOL    HW211166   2.312   0.521   0.912
 3423SOL     OW11167   0.454   4.435   6.559
 3423SOL    HW111168   0.429   4.529   6.539
 3423SOL    HW211169   0.373   4.385   6.590
 3424SOL     OW11170   2.890   6.815   0.978
 3424SOL    HW111171   2.846   6.779   1.060
 3424SOL    HW211172   2.885   6.747   0.905
 3425SOL     OW11173   5.460   5.388   2.465
 3425SOL    HW111174   5.514   5.465   2.432
 3425SOL    HW211175   5.499   5.353   2.549
 3426SOL     OW11176   3.544   2.681   0.464
 3426SOL    HW111177   3.592   2.762   0.430
 3426SOL    HW211178   3.515   2.697   0.558
 3427SOL     OW11179   6.970   0.819   0.193
 3427SOL    HW111180   6.882   0.860   0.171
 3427SOL    HW211181   6.969   0.722   0.168
 3428SOL     OW11182   2.459   5.711   6.880
 3428SOL    HW111183   2.557   5.723   6.889
 3428SOL    HW211184   2.413   5.750   6.960
 3429SOL     OW11185   1.277   1.781   0.752
 3429SOL    HW111186   1.311   1.730   0.832
 3429SOL    HW211187   1.267   1.718   0.675
 3430SOL     OW11188   1.649   6.706   5.080
 3430SOL    HW111189   1.625   6.758   5.162
 3430SOL    HW211190   1.619   6.756   4.998
 3431SOL     OW11191   1.525   0.102   1.237
 3431SOL    HW111192   1.446   0.103   1.176
 3431SOL    HW211193   1.602   0.059   1.190
 3432SOL     OW11194   2.034   2.879   6.856
 3432SOL    HW111195   1.987   2.873   6.768
 3432SOL    HW211196   2.040   2.974   6.884
 3433SOL     OW11197   1.295   0.256   5.457
 3433SOL    HW111198   1.281   0.355   5.446
 3433SOL    HW211199   1.210   0.208   5.437
 3434SOL     OW11200   4.318   1.732   1.660
 3434SOL    HW111201   4.271   1.784   1.588
 3434SOL    HW211202   4.263   1.652   1.684
 3435SOL     OW11203   0.918   1.747   1.063
 3435SOL    HW111204   0.967   1.812   1.006
 3435SOL    HW211205   0.820   1.769   1.062
 3436SOL     OW11206   4.454   6.407   6.918
 3436SOL    HW111207   4.487   6.459   6.997
 3436SOL    HW211208   4.530   6.359   6.875
 3437SOL     OW11209   2.070   0.296   5.450
 3437SOL    HW111210   2.012   0.215   5.461
 3437SOL    HW211211   2.166   0.269   5.454
 3438SOL     OW11212   1.079   2.645   0.228
 3438SOL    HW111213   1.097   2.698   0.311
 3438SOL    HW211214   1.166   2.612   0.190
 3439SOL     OW11215   2.265   5.994   4.609
 3439SOL    HW111216   2.228   5.923   4.669
 3439SOL    HW211217   2.199   6.070   4.602
 3440SOL     OW11218   3.165   3.519   1.187
 3440SOL    HW111219   3.074   3.557   1.201
 3440SOL    HW211220   3.203   3.492   1.276
 3441SOL     OW11221   5.671   6.130   5.365
 3441SOL    HW111222   5.742   6.089   5.307
 3441SOL    HW211223   5.702   6.218   5.398
 3442SOL     OW11224   2.321   4.690   1.953
 3442SOL    HW111225   2.345   4.599   1.918
 3442SOL    HW211226   2.299   4.683   2.051
 3443SOL     OW11227   4.287   6.201   1.348
 3443SOL    HW111228   4.309   6.245   1.435
 3443SOL    HW211229   4.238   6.116   1.366
 3444SOL     OW11230   5.089   5.058   6.867
 3444SOL    HW111231   5.088   5.125   6.941
 3444SOL    HW211232   5.160   4.990   6.885
 3445SOL     OW11233   6.417   5.450   3.129
 3445SOL    HW111234   6.323   5.450   3.094
 3445SOL    HW211235   6.449   5.356   3.140
 3446SOL     OW11236   6.723   1.336   2.477
 3446SOL    HW111237   6.774   1.341   2.563
 3446SOL    HW211238   6.658   1.412   2.472
 3447SOL     OW11239   5.998   5.359   0.576
 3447SOL    HW111240   5.965   5.268   0.599
 3447SOL    HW211241   6.089   5.372   0.614
 3448SOL     OW11242   3.335   0.418   0.295
 3448SOL    HW111243   3.372   0.405   0.203
 3448SOL    HW211244   3.398   0.474   0.348
 3449SOL     OW11245   5.854   6.095   4.280
 3449SOL    HW111246   5.860   5.996   4.289
 3449SOL    HW211247   5.873   6.138   4.368
 3450SOL     OW11248   6.847   2.661   6.293
 3450SOL    HW111249   6.820   2.568   6.269
 3450SOL    HW211250   6.777   2.725   6.261
 3451SOL     OW11251   2.423   6.005   1.029
 3451SOL    HW111252   2.522   6.008   1.015
 3451SOL    HW211253   2.394   5.910   1.038
 3452SOL     OW11254   6.311   0.889   5.890
 3452SOL    HW111255   6.214   0.865   5.896
 3452SOL    HW211256   6.338   0.937   5.974
 3453SOL     OW11257   6.958   5.617   6.626
 3453SOL    HW111258   6.885   5.632   6.693
 3453SOL    HW211259   6.987   5.521   6.630
 3454SOL     OW11260   1.229   2.562   5.276
 3454SOL    HW111261   1.252   2.647   5.323
 3454SOL    HW211262   1.150   2.577   5.216
 3455SOL     OW11263   2.756   2.215   4.641
 3455SOL    HW111264   2.838   2.160   4.622
 3455SOL    HW211265   2.705   2.174   4.716
 3456SOL     OW11266   5.538   5.686   2.126
 3456SOL    HW111267   5.492   5.609   2.083
 3456SOL    HW211268   5.632   5.692   2.092
 3457SOL     OW11269   3.023   5.127   2.965
 3457SOL    HW111270   3.084   5.054   2.933
 3457SOL    HW211271   2.949   5.088   3.020
 3458SOL     OW11272   5.026   0.709   2.347
 3458SOL    HW111273   5.016   0.790   2.404
 3458SOL    HW211274   5.067   0.734   2.259
 3459SOL     OW11275   5.690   3.234   3.348
 3459SOL    HW111276   5.707   3.137   3.329
 3459SOL    HW211277   5.774   3.286   3.336
 3460SOL     OW11278   2.368   3.417   0.202
 3460SOL    HW111279   2.456   3.438   0.159
 3460SOL    HW211280   2.357   3.318   0.210
 3461SOL     OW11281   5.039   4.909   4.933
 3461SOL    HW111282   5.099   4.926   5.011
 3461SOL    HW211283   4.956   4.965   4.942
 3462SOL     OW11284   0.154   4.513   3.305
 3462SOL    HW111285   0.166   4.556   3.216
 3462SOL    HW211286   0.063   4.536   3.341
 3463SOL     OW11287   1.232   4.112   2.239
 3463SOL    HW111288   1.174   4.049   2.187
 3463SOL    HW211289   1.327   4.102   2.209
 3464SOL     OW11290   6.324   4.277   6.320
 3464SOL    HW111291   6.367   4.359   6.282
 3464SOL    HW211292   6.337   4.200   6.257
 3465SOL     OW11293   1.821   2.245   2.168
 3465SOL    HW111294   1.818   2.331   2.219
 3465SOL    HW211295   1.786   2.261   2.075
 3466SOL     OW11296   0.165   4.829   0.238
 3466SOL    HW111297   0.221   4.859   0.161
 3466SOL    HW211298   0.166   4.729   0.244
 3467SOL     OW11299   1.856   2.745   0.349
 3467SOL    HW111300   1.946   2.786   0.358
 3467SOL    HW211301   1.823   2.715   0.439
 3468SOL     OW11302   5.114   6.535   2.624
 3468SOL    HW111303   5.042   6.489   2.677
 3468SOL    HW211304   5.118   6.632   2.650
 3469SOL     OW11305   5.363   0.317   2.268
 3469SOL    HW111306   5.321   0.394   2.316
 3469SOL    HW211307   5.396   0.250   2.334
 3470SOL     OW11308   5.951   3.804   1.227
 3470SOL    HW111309   6.012   3.828   1.152
 3470SOL    HW211310   5.885   3.736   1.196
 3471SOL     OW11311   4.032   5.243   4.310
 3471SOL    HW111312   3.942   5.288   4.315
 3471SOL    HW211313   4.100   5.308   4.277
 3472SOL     OW11314   2.383   0.860   2.398
 3472SOL    HW111315   2.464   0.918   2.406
 3472SOL    HW211316   2.333   0.884   2.315
 3473SOL     OW11317   0.412   2.286   1.418
 3473SOL    HW111318   0.467   2.360   1.458
 3473SOL    HW211319   0.455   2.254   1.334
 3474SOL     OW11320   1.522   4.682   1.991
 3474SOL    HW111321   1.476   4.598   2.020
 3474SOL    HW211322   1.618   4.679   2.018
 3475SOL     OW11323   0.696   5.064   4.019
 3475SOL    HW111324   0.784   5.019   4.033
 3475SOL    HW211325   0.685   5.088   3.923
 3476SOL     OW11326   3.374   1.404   3.355
 3476SOL    HW111327   3.449   1.410   3.421
 3476SOL    HW211328   3.293   1.450   3.392
 3477SOL     OW11329   2.751   5.282   1.113
 3477SOL    HW111330   2.841   5.321   1.094
 3477SOL    HW211331   2.752   5.240   1.204
 3478SOL     OW11332   2.390   6.158   4.795
 3478SOL    HW111333   2.380   6.120   4.703
 3478SOL    HW211334   2.464   6.225   4.796
 3479SOL     OW11335   1.833   0.781   2.950
 3479SOL    HW111336   1.809   0.693   2.909
 3479SOL    HW211337   1.806   0.781   3.046
 3480SOL     OW11338   0.181   6.792   5.052
 3480SOL    HW111339   0.172   6.754   5.144
 3480SOL    HW211340   0.092   6.824   5.021
 3481SOL     OW11341   4.527   0.551   0.726
 3481SOL    HW111342   4.595   0.492   0.683
 3481SOL    HW211343   4.500   0.514   0.814
 3482SOL     OW11344   5.717   1.305   1.818
 3482SOL    HW111345   5.726   1.404   1.816
 3482SOL    HW211346   5.772   1.268   1.892
 3483SOL     OW11347   4.479   1.932   1.276
 3483SOL    HW111348   4.390   1.970   1.300
 3483SOL    HW211349   4.542   1.941   1.353
 3484SOL     OW11350   1.347   3.702   0.596
 3484SOL    HW111351   1.253   3.675   0.615
 3484SOL    HW211352   1.410   3.652   0.655
 3485SOL     OW11353   1.805   1.046   4.494
 3485SOL    HW111354   1.835   0.996   4.575
 3485SOL    HW211355   1.706   1.041   4.486
 3486SOL     OW11356   3.101   0.934   2.831
 3486SOL    HW111357   3.125   0.844   2.795
 3486SOL    HW211358   3.020   0.927   2.890
 3487SOL     OW11359   5.453   2.846   5.888
 3487SOL    HW111360   5.469   2.750   5.867
 3487SOL    HW211361   5.368   2.855   5.941
 3488SOL     OW11362   5.852   1.732   4.501
 3488SOL    HW111363   5.890   1.763   4.588
 3488SOL    HW211364   5.774   1.671   4.518
 3489SOL     OW11365   3.287   6.916   1.326
 3489SOL    HW111366   3.205   6.971   1.345
 3489SOL    HW211367   3.274   6.865   1.240
 3490SOL     OW11368   4.310   4.295   0.287
 3490SOL    HW111369   4.259   4.219   0.246
 3490SOL    HW211370   4.407   4.285   0.268
 3491SOL     OW11371   5.304   2.802   4.956
 3491SOL    HW111372   5.218   2.764   4.922
 3491SOL    HW211373   5.288   2.894   4.992
 3492SOL     OW11374   0.113   5.327   1.343
 3492SOL    HW111375   0.121   5.259   1.270
 3492SOL    HW211376   0.163   5.410   1.317
 3493SOL     OW11377   5.525   4.192   6.467
 3493SOL    HW111378   5.619   4.157   6.460
 3493SOL    HW211379   5.462   4.116   6.479
 3494SOL     OW11380   3.812   0.933   1.164
 3494SOL    HW111381   3.877   0.857   1.169
 3494SOL    HW211382   3.720   0.898   1.176
 3495SOL     OW11383   5.335   5.503   2.831
 3495SOL    HW111384   5.269   5.456   2.772
 3495SOL    HW211385   5.348   5.596   2.799
 3496SOL     OW11386   6.761   4.210   0.648
 3496SOL    HW111387   6.744   4.257   0.562
 3496SOL    HW211388   6.674   4.173   0.684
 3497SOL     OW11389   3.646   0.834   3.574
 3497SOL    HW111390   3.709   0.770   3.530
 3497SOL    HW211391   3.554   0.822   3.537
 3498SOL     OW11392   2.365   1.921   1.055
 3498SOL    HW111393   2.426   1.953   1.127
 3498SOL    HW211394   2.406   1.939   0.966
 3499SOL     OW11395   4.783   2.770   4.398
 3499SOL    HW111396   4.788   2.833   4.476
 3499SOL    HW211397   4.688   2.761   4.368
 3500SOL     OW11398   1.673   3.480   4.428
 3500SOL    HW111399   1.667   3.458   4.526
 3500SOL    HW211400   1.768   3.473   4.398
 3501SOL     OW11401   1.764   5.275   4.548
 3501SOL    HW111402   1.742   5.201   4.485
 3501SOL    HW211403   1.751   5.363   4.503
 3502SOL     OW11404   5.993   2.593   2.427
 3502SOL    HW111405   6.003   2.686   2.391
 3502SOL    HW211406   5.987   2.528   2.351
 3503SOL     OW11407   6.610   6.550   4.563
 3503SOL    HW111408   6.544   6.482   4.530
 3503SOL    HW211409   6.622   6.539   4.662
 3504SOL     OW11410   1.981   2.014   1.240
 3504SOL    HW111411   2.044   1.949   1.196
 3504SOL    HW211412   1.890   1.972   1.247
 3505SOL     OW11413   5.545   4.678   5.116
 3505SOL    HW111414   5.451   4.668   5.084
 3505SOL    HW211415   5.550   4.656   5.213
 3506SOL     OW11416   5.020   5.398   6.026
 3506SOL    HW111417   4.930   5.355   6.017
 3506SOL    HW211418   5.009   5.496   6.039
 3507SOL     OW11419   1.800   1.210   0.093
 3507SOL    HW111420   1.789   1.229   0.191
 3507SOL    HW211421   1.725   1.151   0.062
 3508SOL     OW11422   3.108   2.634   5.939
 3508SOL    HW111423   3.164   2.613   5.860
 3508SOL    HW211424   3.023   2.679   5.910
 3509SOL     OW11425   5.762   0.175   5.683
 3509SOL    HW111426   5.794   0.155   5.591
 3509SOL    HW211427   5.833   0.225   5.732
 3510SOL     OW11428   1.828   2.732   1.804
 3510SOL    HW111429   1.764   2.665   1.768
 3510SOL    HW211430   1.793   2.769   1.890
 3511SOL     OW11431   2.425   5.255   0.368
 3511SOL    HW111432   2.416   5.173   0.426
 3511SOL    HW211433   2.334   5.293   0.350
 3512SOL     OW11434   0.532   5.190   0.969
 3512SOL    HW111435   0.490   5.103   0.942
 3512SOL    HW211436   0.584   5.227   0.892
 3513SOL     OW11437   6.367   3.496   0.788
 3513SOL    HW111438   6.362   3.396   0.793
 3513SOL    HW211439   6.458   3.526   0.816
 3514SOL     OW11440   0.855   1.588   2.031
 3514SOL    HW111441   0.791   1.621   1.962
 3514SOL    HW211442   0.897   1.503   1.999
 3515SOL     OW11443   4.512   6.387   3.012
 3515SOL    HW111444   4.542   6.479   2.988
 3515SOL    HW211445   4.560   6.356   3.094
 3516SOL     OW11446   4.901   6.779   0.771
 3516SOL    HW111447   4.997   6.796   0.749
 3516SOL    HW211448   4.877   6.685   0.748
 3517SOL     OW11449   1.068   1.909   0.914
 3517SOL    HW111450   1.022   1.973   0.853
 3517SOL    HW211451   1.121   1.844   0.860
 3518SOL     OW11452   5.847   3.695   4.790
 3518SOL    HW111453   5.749   3.700   4.772
 3518SOL    HW211454   5.887   3.617   4.741
 3519SOL     OW11455   1.176   1.067   6.210
 3519SOL    HW111456   1.169   1.074   6.110
 3519SOL    HW211457   1.265   1.103   6.239
 3520SOL     OW11458   2.856   5.209   6.504
 3520SOL    HW111459   2.828   5.298   6.540
 3520SOL    HW211460   2.921   5.222   6.429
 3521SOL     OW11461   5.601   3.050   6.838
 3521SOL    HW111462   5.656   3.078   6.916
 3521SOL    HW211463   5.557   3.131   6.797
 3522SOL     OW11464   6.443   4.255   2.084
 3522SOL    HW111465   6.497   4.177   2.052
 3522SOL    HW211466   6.495   4.339   2.071
 3523SOL     OW11467   3.104   5.006   5.651
 3523SOL    HW111468   3.056   5.058   5.722
 3523SOL    HW211469   3.153   5.069   5.591
 3524SOL     OW11470   3.383   1.015   1.339
 3524SOL    HW111471   3.430   1.056   1.260
 3524SOL    HW211472   3.384   0.916   1.331
 3525SOL     OW11473   1.152   4.167   2.478
 3525SOL    HW111474   1.191   4.248   2.522
 3525SOL    HW211475   1.185   4.161   2.384
 3526SOL     OW11476   2.716   5.876   4.048
 3526SOL    HW111477   2.622   5.864   4.081
 3526SOL    HW211478   2.717   5.947   3.977
 3527SOL     OW11479   6.499   3.212   6.261
 3527SOL    HW111480   6.588   3.243   6.228
 3527SOL    HW211481   6.462   3.144   6.198
 3528SOL     OW11482   0.866   4.853   4.052
 3528SOL    HW111483   0.886   4.873   4.148
 3528SOL    HW211484   0.936   4.895   3.994
 3529SOL     OW11485   4.601   0.483   6.379
 3529SOL    HW111486   4.657   0.407   6.412
 3529SOL    HW211487   4.531   0.449   6.317
 3530SOL     OW11488   1.680   4.815   3.650
 3530SOL    HW111489   1.713   4.909   3.641
 3530SOL    HW211490   1.751   4.758   3.692
 3531SOL     OW11491   4.754   3.857   1.029
 3531SOL    HW111492   4.719   3.930   0.971
 3531SOL    HW211493   4.678   3.802   1.063
 3532SOL     OW11494   2.699   1.226   1.470
 3532SOL    HW111495   2.781   1.276   1.496
 3532SOL    HW211496   2.674   1.163   1.543
 3533SOL     OW11497   1.655   1.899   2.560
 3533SOL    HW111498   1.665   1.800   2.554
 3533SOL    HW211499   1.745   1.940   2.577
 3534SOL     OW11500   5.525   0.783   5.262
 3534SOL    HW111501   5.498   0.843   5.338
 3534SOL    HW211502   5.496   0.689   5.283
 3535SOL     OW11503   0.868   5.734   0.353
 3535SOL    HW111504   0.794   5.785   0.309
 3535SOL    HW211505   0.846   5.637   0.353
 3536SOL     OW11506   2.320   2.032   4.220
 3536SOL    HW111507   2.340   2.037   4.318
 3536SOL    HW211508   2.251   1.961   4.203
 3537SOL     OW11509   2.693   5.192   0.689
 3537SOL    HW111510   2.757   5.143   0.748
 3537SOL    HW211511   2.652   5.268   0.740
 3538SOL     OW11512   0.761   0.680   5.593
 3538SOL    HW111513   0.854   0.717   5.586
 3538SOL    HW211514   0.736   0.670   5.690
 3539SOL     OW11515   5.959   3.475   6.216
 3539SOL    HW111516   5.984   3.513   6.127
 3539SOL    HW211517   6.009   3.390   6.231
 3540SOL     OW11518   1.860   2.307   5.647
 3540SOL    HW111519   1.807   2.359   5.714
 3540SOL    HW211520   1.957   2.309   5.672
 3541SOL     OW11521   1.930   2.655   6.454
 3541SOL    HW111522   1.893   2.658   6.547
 3541SOL    HW211523   1.898   2.734   6.402
 3542SOL     OW11524   0.762   4.186   1.624
 3542SOL    HW111525   0.721   4.106   1.580
 3542SOL    HW211526   0.690   4.248   1.656
 3543SOL     OW11527   0.626   4.069   5.670
 3543SOL    HW111528   0.719   4.039   5.689
 3543SOL    HW211529   0.628   4.156   5.620
 3544SOL     OW11530   2.272   4.998   6.352
 3544SOL    HW111531   2.322   5.006   6.438
 3544SOL    HW211532   2.336   4.981   6.277
 3545SOL     OW11533   4.136   5.223   0.315
 3545SOL    HW111534   4.041   5.239   0.289
 3545SOL    HW211535   4.144   5.135   0.361
 3546SOL     OW11536   0.213   4.804   2.898
 3546SOL    HW111537   0.222   4.886   2.954
 3546SOL    HW211538   0.173   4.731   2.953
 3547SOL     OW11539   5.835   4.960   5.081
 3547SOL    HW111540   5.872   4.908   5.004
 3547SOL    HW211541   5.736   4.946   5.087
 3548SOL     OW11542   4.575   0.337   5.681
 3548SOL    HW111543   4.557   0.387   5.765
 3548SOL    HW211544   4.523   0.377   5.606
 3549SOL     OW11545   0.251   5.013   5.943
 3549SOL    HW111546   0.320   5.023   6.015
 3549SOL    HW211547   0.202   5.099   5.930
 3550SOL     OW11548   5.989   2.880   3.809
 3550SOL    HW111549   6.006   2.824   3.728
 3550SOL    HW211550   5.940   2.825   3.877
 3551SOL     OW11551   3.505   2.146   3.467
 3551SOL    HW111552   3.416   2.161   3.509
 3551SOL    HW211553   3.577   2.156   3.535
 3552SOL     OW11554   6.148   6.956   1.774
 3552SOL    HW111555   6.093   6.984   1.852
 3552SOL    HW211556   6.152   6.857   1.768
 3553SOL     OW11557   4.159   5.355   0.608
 3553SOL    HW111558   4.100   5.381   0.684
 3553SOL    HW211559   4.107   5.303   0.541
 3554SOL     OW11560   4.672   1.670   0.916
 3554SOL    HW111561   4.642   1.727   0.993
 3554SOL    HW211562   4.664   1.722   0.831
 3555SOL     OW11563   0.433   3.751   4.844
 3555SOL    HW111564   0.421   3.752   4.745
 3555SOL    HW211565   0.439   3.845   4.878
 3556SOL     OW11566   4.203   0.923   4.297
 3556SOL    HW111567   4.293   0.896   4.263
 3556SOL    HW211568   4.206   0.929   4.397
 3557SOL     OW11569   0.975   0.655   4.031
 3557SOL    HW111570   1.024   0.621   4.111
 3557SOL    HW211571   0.881   0.622   4.032
 3558SOL     OW11572   1.464   6.016   2.373
 3558SOL    HW111573   1.435   6.026   2.468
 3558SOL    HW211574   1.555   6.056   2.361
 3559SOL     OW11575   0.860   6.340   5.194
 3559SOL    HW111576   0.851   6.431   5.153
 3559SOL    HW211577   0.872   6.349   5.293
 3560SOL     OW11578   2.156   5.548   2.349
 3560SOL    HW111579   2.214   5.470   2.372
 3560SOL    HW211580   2.194   5.595   2.269
 3561SOL     OW11581   4.541   3.953   5.307
 3561SOL    HW111582   4.602   3.995   5.239
 3561SOL    HW211583   4.571   3.860   5.326
 3562SOL     OW11584   3.627   1.249   3.046
 3562SOL    HW111585   3.550   1.207   2.997
 3562SOL    HW211586   3.600   1.339   3.079
 3563SOL     OW11587   6.374   2.096   0.726
 3563SOL    HW111588   6.474   2.103   0.721
 3563SOL    HW211589   6.340   2.158   0.797
 3564SOL     OW11590   1.094   4.205   3.112
 3564SOL    HW111591   1.122   4.183   3.019
 3564SOL    HW211592   1.164   4.173   3.176
 3565SOL     OW11593   3.130   5.956   4.773
 3565SOL    HW111594   3.111   6.049   4.803
 3565SOL    HW211595   3.146   5.897   4.852
 3566SOL     OW11596   6.728   3.325   6.144
 3566SOL    HW111597   6.693   3.401   6.198
 3566SOL    HW211598   6.758   3.358   6.055
 3567SOL     OW11599   0.447   1.917   5.954
 3567SOL    HW111600   0.504   1.998   5.936
 3567SOL    HW211601   0.498   1.853   6.013
 3568SOL     OW11602   4.848   3.820   4.064
 3568SOL    HW111603   4.902   3.889   4.112
 3568SOL    HW211604   4.750   3.839   4.076
 3569SOL     OW11605   2.503   1.929   5.936
 3569SOL    HW111606   2.409   1.958   5.914
 3569SOL    HW211607   2.567   1.994   5.896
 3570SOL     OW11608   5.147   0.425   6.011
 3570SOL    HW111609   5.122   0.423   5.915
 3570SOL    HW211610   5.065   0.426   6.068
 3571SOL     OW11611   0.955   5.634   5.328
 3571SOL    HW111612   0.910   5.631   5.417
 3571SOL    HW211613   0.974   5.541   5.297
 3572SOL     OW11614   5.898   3.651   2.854
 3572SOL    HW111615   5.858   3.590   2.785
 3572SOL    HW211616   5.825   3.685   2.915
 3573SOL     OW11617   0.216   5.352   3.767
 3573SOL    HW111618   0.297   5.311   3.807
 3573SOL    HW211619   0.216   5.337   3.668
 3574SOL     OW11620   0.236   3.796   0.845
 3574SOL    HW111621   0.271   3.747   0.925
 3574SOL    HW211622   0.219   3.891   0.868
 3575SOL     OW11623   4.967   5.008   2.692
 3575SOL    HW111624   5.054   4.963   2.671
 3575SOL    HW211625   4.952   5.006   2.791
 3576SOL     OW11626   0.283   2.052   5.755
 3576SOL    HW111627   0.303   2.012   5.666
 3576SOL    HW211628   0.352   2.022   5.821
 3577SOL     OW11629   1.718   2.120   5.919
 3577SOL    HW111630   1.788   2.112   5.990
 3577SOL    HW211631   1.731   2.206   5.869
 3578SOL     OW11632   3.565   2.232   0.495
 3578SOL    HW111633   3.598   2.325   0.479
 3578SOL    HW211634   3.470   2.235   0.526
 3579SOL     OW11635   6.453   2.654   4.055
 3579SOL    HW111636   6.474   2.661   4.153
 3579SOL    HW211637   6.536   2.665   4.002
 3580SOL     OW11638   5.361   3.204   1.848
 3580SOL    HW111639   5.356   3.214   1.947
 3580SOL    HW211640   5.269   3.202   1.809
 3581SOL     OW11641   1.099   5.868   3.539
 3581SOL    HW111642   1.170   5.938   3.530
 3581SOL    HW211643   1.093   5.838   3.634
 3582SOL     OW11644   0.644   2.941   5.951
 3582SOL    HW111645   0.709   2.989   5.892
 3582SOL    HW211646   0.552   2.980   5.937
 3583SOL     OW11647   0.652   4.061   6.460
 3583SOL    HW111648   0.628   4.062   6.557
 3583SOL    HW211649   0.701   3.977   6.439
 3584SOL     OW11650   5.373   5.503   0.056
 3584SOL    HW111651   5.366   5.529   0.152
 3584SOL    HW211652   5.413   5.579   0.004
 3585SOL     OW11653   3.494   0.594   4.731
 3585SOL    HW111654   3.592   0.576   4.725
 3585SOL    HW211655   3.444   0.507   4.740
 3586SOL     OW11656   6.342   1.979   4.672
 3586SOL    HW111657   6.354   2.050   4.741
 3586SOL    HW211658   6.290   1.903   4.710
 3587SOL     OW11659   2.814   4.904   6.301
 3587SOL    HW111660   2.845   4.927   6.393
 3587SOL    HW211661   2.795   4.806   6.296
 3588SOL     OW11662   1.289   2.528   5.951
 3588SOL    HW111663   1.327   2.517   5.859
 3588SOL    HW211664   1.357   2.501   6.018
 3589SOL     OW11665   4.446   1.250   4.541
 3589SOL    HW111666   4.458   1.338   4.587
 3589SOL    HW211667   4.516   1.186   4.572
 3590SOL     OW11668   1.115   2.641   6.954
 3590SOL    HW111669   1.093   2.683   0.023
 3590SOL    HW211670   1.202   2.591   6.962
 3591SOL     OW11671   5.337   3.988   6.505
 3591SOL    HW111672   5.399   3.910   6.500
 3591SOL    HW211673   5.330   4.019   6.599
 3592SOL     OW11674   0.075   4.763   2.194
 3592SOL    HW111675   0.151   4.710   2.157
 3592SOL    HW211676   0.014   4.792   2.120
 3593SOL     OW11677   0.752   5.782   4.872
 3593SOL    HW111678   0.836   5.758   4.824
 3593SOL    HW211679   0.773   5.799   4.969
 3594SOL     OW11680   4.308   0.132   3.173
 3594SOL    HW111681   4.328   0.147   3.270
 3594SOL    HW211682   4.366   0.193   3.118
 3595SOL     OW11683   3.431   5.867   0.063
 3595SOL    HW111684   3.443   5.964   0.042
 3595SOL    HW211685   3.491   5.813   0.003
 3596SOL     OW11686   6.454   3.107   3.459
 3596SOL    HW111687   6.461   3.186   3.399
 3596SOL    HW211688   6.408   3.033   3.412
 3597SOL     OW11689   1.517   2.057   5.214
 3597SOL    HW111690   1.423   2.067   5.247
 3597SOL    HW211691   1.532   1.961   5.187
 3598SOL     OW11692   1.285   5.279   6.149
 3598SOL    HW111693   1.348   5.202   6.157
 3598SOL    HW211694   1.205   5.263   6.206
 3599SOL     OW11695   0.260   2.509   6.768
 3599SOL    HW111696   0.231   2.498   6.673
 3599SOL    HW211697   0.252   2.605   6.795
 3600SOL     OW11698   0.913   3.384   1.730
 3600SOL    HW111699   0.944   3.376   1.824
 3600SOL    HW211700   0.846   3.312   1.710
 3601SOL     OW11701   5.498   3.595   6.280
 3601SOL    HW111702   5.567   3.663   6.256
 3601SOL    HW211703   5.412   3.615   6.234
 3602SOL     OW11704   1.698   3.010   0.359
 3602SOL    HW111705   1.761   3.056   0.297
 3602SOL    HW211706   1.732   3.017   0.453
 3603SOL     OW11707   3.806   0.657   3.454
 3603SOL    HW111708   3.853   0.666   3.366
 3603SOL    HW211709   3.834   0.572   3.499
 3604SOL     OW11710   6.462   5.183   3.576
 3604SOL    HW111711   6.460   5.254   3.646
 3604SOL    HW211712   6.510   5.216   3.495
 3605SOL     OW11713   6.473   3.330   5.036
 3605SOL    HW111714   6.375   3.317   5.020
 3605SOL    HW211715   6.515   3.375   4.957
 3606SOL     OW11716   6.963   0.695   4.572
 3606SOL    HW111717   0.008   0.638   4.622
 3606SOL    HW211718   6.885   0.639   4.543
 3607SOL     OW11719   5.812   5.415   1.858
 3607SOL    HW111720   5.881   5.488   1.852
 3607SOL    HW211721   5.853   5.329   1.828
 3608SOL     OW11722   5.829   2.680   3.923
 3608SOL    HW111723   5.761   2.638   3.863
 3608SOL    HW211724   5.903   2.615   3.939
 3609SOL     OW11725   1.338   6.577   3.907
 3609SOL    HW111726   1.338   6.610   4.002
 3609SOL    HW211727   1.422   6.604   3.862
 3610SOL     OW11728   1.807   0.128   5.752
 3610SOL    HW111729   1.844   0.162   5.839
 3610SOL    HW211730   1.707   0.126   5.756
 3611SOL     OW11731   4.058   5.516   5.395
 3611SOL    HW111732   4.006   5.533   5.479
 3611SOL    HW211733   4.111   5.597   5.371
 3612SOL     OW11734   6.557   6.765   0.095
 3612SOL    HW111735   6.600   6.845   0.136
 3612SOL    HW211736   6.624   6.715   0.040
 3613SOL     OW11737   4.733   4.690   2.139
 3613SOL    HW111738   4.669   4.614   2.128
 3613SOL    HW211739   4.733   4.721   2.234
 3614SOL     OW11740   3.803   3.083   1.479
 3614SOL    HW111741   3.724   3.108   1.534
 3614SOL    HW211742   3.882   3.137   1.507
 3615SOL     OW11743   5.229   5.447   6.533
 3615SOL    HW111744   5.136   5.482   6.532
 3615SOL    HW211745   5.290   5.514   6.491
 3616SOL     OW11746   0.538   2.233   0.382
 3616SOL    HW111747   0.477   2.180   0.323
 3616SOL    HW211748   0.483   2.285   0.448
 3617SOL     OW11749   3.705   1.263   6.830
 3617SOL    HW111750   3.740   1.353   6.857
 3617SOL    HW211751   3.606   1.270   6.817
 3618SOL     OW11752   2.038   2.390   5.015
 3618SOL    HW111753   1.977   2.463   4.985
 3618SOL    HW211754   2.007   2.303   4.976
 3619SOL     OW11755   5.565   2.481   4.437
 3619SOL    HW111756   5.486   2.464   4.378
 3619SOL    HW211757   5.635   2.529   4.384
 3620SOL     OW11758   6.233   6.596   6.436
 3620SOL    HW111759   6.206   6.688   6.409
 3620SOL    HW211760   6.329   6.595   6.463
 3621SOL     OW11761   3.508   2.872   5.311
 3621SOL    HW111762   3.443   2.797   5.301
 3621SOL    HW211763   3.468   2.943   5.369
 3622SOL     OW11764   1.457   1.684   5.159
 3622SOL    HW111765   1.499   1.742   5.090
 3622SOL    HW211766   1.501   1.594   5.157
 3623SOL     OW11767   6.445   5.751   4.517
 3623SOL    HW111768   6.454   5.653   4.503
 3623SOL    HW211769   6.486   5.800   4.439
 3624SOL     OW11770   1.630   6.965   2.074
 3624SOL    HW111771   1.701   0.016   2.070
 3624SOL    HW211772   1.564   6.989   2.145
 3625SOL     OW11773   6.637   2.695   6.710
 3625SOL    HW111774   6.551   2.659   6.674
 3625SOL    HW211775   6.691   2.735   6.636
 3626SOL     OW11776   1.485   2.024   5.766
 3626SOL    HW111777   1.480   2.065   5.674
 3626SOL    HW211778   1.552   2.074   5.821
 3627SOL     OW11779   3.056   3.414   2.628
 3627SOL    HW111780   3.151   3.424   2.597
 3627SOL    HW211781   3.030   3.318   2.625
 3628SOL     OW11782   1.707   1.413   2.165
 3628SOL    HW111783   1.630   1.477   2.159
 3628SOL    HW211784   1.695   1.354   2.245
 3629SOL     OW11785   6.681   1.012   5.298
 3629SOL    HW111786   6.605   1.044   5.356
 3629SOL    HW211787   6.768   1.044   5.336
 3630SOL     OW11788   4.945   2.865   3.970
 3630SOL    HW111789   4.874   2.817   4.020
 3630SOL    HW211790   5.011   2.799   3.934
 3631SOL     OW11791   2.575   1.170   3.295
 3631SOL    HW111792   2.611   1.115   3.371
 3631SOL    HW211793   2.605   1.131   3.208
 3632SOL     OW11794   5.222   5.130   1.502
 3632SOL    HW111795   5.240   5.054   1.565
 3632SOL    HW211796   5.158   5.193   1.545
 3633SOL     OW11797   3.741   1.801   5.738
 3633SOL    HW111798   3.653   1.845   5.717
 3633SOL    HW211799   3.758   1.804   5.836
 3634SOL     OW11800   1.694   4.679   4.849
 3634SOL    HW111801   1.745   4.669   4.935
 3634SOL    HW211802   1.611   4.733   4.865
 3635SOL     OW11803   3.385   0.133   0.575
 3635SOL    HW111804   3.389   0.076   0.658
 3635SOL    HW211805   3.364   0.227   0.601
 3636SOL     OW11806   0.140   5.834   1.199
 3636SOL    HW111807   0.164   5.912   1.141
 3636SOL    HW211808   0.051   5.798   1.171
 3637SOL     OW11809   6.986   2.292   2.146
 3637SOL    HW111810   6.916   2.363   2.153
 3637SOL    HW211811   6.971   2.224   2.218
 3638SOL     OW11812   0.564   4.445   3.251
 3638SOL    HW111813   0.643   4.437   3.312
 3638SOL    HW211814   0.507   4.521   3.281
 3639SOL     OW11815   3.830   4.907   0.744
 3639SOL    HW111816   3.917   4.950   0.716
 3639SOL    HW211817   3.761   4.925   0.674
 3640SOL     OW11818   4.306   0.432   0.049
 3640SOL    HW111819   4.332   0.483   6.987
 3640SOL    HW211820   4.363   0.351   0.058
 3641SOL     OW11821   4.899   3.839   2.321
 3641SOL    HW111822   4.929   3.845   2.225
 3641SOL    HW211823   4.849   3.921   2.346
 3642SOL     OW11824   5.660   1.361   0.342
 3642SOL    HW111825   5.576   1.310   0.323
 3642SOL    HW211826   5.657   1.397   0.435
 3643SOL     OW11827   3.468   5.769   4.219
 3643SOL    HW111828   3.519   5.757   4.304
 3643SOL    HW211829   3.399   5.697   4.211
 3644SOL     OW11830   0.339   0.990   1.808
 3644SOL    HW111831   0.253   1.020   1.849
 3644SOL    HW211832   0.354   0.893   1.830
 3645SOL     OW11833   0.687   2.976   3.826
 3645SOL    HW111834   0.704   2.885   3.863
 3645SOL    HW211835   0.755   3.040   3.861
 3646SOL     OW11836   1.613   4.033   6.847
 3646SOL    HW111837   1.711   4.014   6.849
 3646SOL    HW211838   1.562   3.947   6.853
 3647SOL     OW11839   2.356   5.806   6.072
 3647SOL    HW111840   2.383   5.749   5.994
 3647SOL    HW211841   2.260   5.789   6.094
 3648SOL     OW11842   4.107   4.982   1.894
 3648SOL    HW111843   4.141   5.015   1.982
 3648SOL    HW211844   4.172   4.916   1.857
 3649SOL     OW11845   5.413   2.883   1.358
 3649SOL    HW111846   5.351   2.890   1.436
 3649SOL    HW211847   5.491   2.826   1.382
 3650SOL     OW11848   6.654   5.894   1.452
 3650SOL    HW111849   6.641   5.894   1.353
 3650SOL    HW211850   6.752   5.896   1.473
 3651SOL     OW11851   0.952   6.955   4.653
 3651SOL    HW111852   1.051   6.957   4.668
 3651SOL    HW211853   0.905   6.962   4.741
 3652SOL     OW11854   6.166   6.523   3.602
 3652SOL    HW111855   6.246   6.485   3.557
 3652SOL    HW211856   6.108   6.449   3.635
 3653SOL     OW11857   1.084   2.016   3.675
 3653SOL    HW111858   1.110   2.019   3.772
 3653SOL    HW211859   1.027   1.935   3.659
 3654SOL     OW11860   3.200   4.372   0.440
 3654SOL    HW111861   3.175   4.387   0.536
 3654SOL    HW211862   3.263   4.295   0.434
 3655SOL     OW11863   2.876   6.432   3.920
 3655SOL    HW111864   2.839   6.524   3.903
 3655SOL    HW211865   2.976   6.435   3.911
 3656SOL     OW11866   0.541   4.626   1.262
 3656SOL    HW111867   0.503   4.661   1.347
 3656SOL    HW211868   0.630   4.583   1.280
 3657SOL     OW11869   5.553   5.685   5.812
 3657SOL    HW111870   5.638   5.735   5.793
 3657SOL    HW211871   5.567   5.625   5.891
 3658SOL     OW11872   2.017   4.753   6.256
 3658SOL    HW111873   2.111   4.752   6.222
 3658SOL    HW211874   1.958   4.702   6.194
 3659SOL     OW11875   2.438   3.806   5.974
 3659SOL    HW111876   2.536   3.826   5.982
 3659SOL    HW211877   2.385   3.887   5.998
 3660SOL     OW11878   5.582   5.849   3.523
 3660SOL    HW111879   5.665   5.890   3.561
 3660SOL    HW211880   5.506   5.865   3.586
 3661SOL     OW11881   5.830   0.703   5.462
 3661SOL    HW111882   5.791   0.621   5.422
 3661SOL    HW211883   5.930   0.695   5.465
 3662SOL     OW11884   3.762   1.061   3.701
 3662SOL    HW111885   3.738   0.982   3.643
 3662SOL    HW211886   3.678   1.109   3.727
 3663SOL     OW11887   1.864   1.826   0.392
 3663SOL    HW111888   1.928   1.815   0.468
 3663SOL    HW211889   1.909   1.799   0.307
 3664SOL     OW11890   4.635   2.393   1.288
 3664SOL    HW111891   4.586   2.463   1.235
 3664SOL    HW211892   4.684   2.437   1.364
 3665SOL     OW11893   1.159   6.536   5.184
 3665SOL    HW111894   1.104   6.471   5.132
 3665SOL    HW211895   1.254   6.531   5.153
 3666SOL     OW11896   0.417   3.326   3.227
 3666SOL    HW111897   0.508   3.357   3.254
 3666SOL    HW211898   0.396   3.358   3.135
 3667SOL     OW11899   0.916   1.770   3.476
 3667SOL    HW111900   0.821   1.741   3.486
 3667SOL    HW211901   0.976   1.689   3.480
 3668SOL     OW11902   1.236   1.027   0.949
 3668SOL    HW111903   1.265   1.106   0.894
 3668SOL    HW211904   1.297   1.017   1.027
 3669SOL     OW11905   5.076   1.445   3.541
 3669SOL    HW111906   5.005   1.515   3.547
 3669SOL    HW211907   5.081   1.410   3.448
 3670SOL     OW11908   1.790   5.630   0.074
 3670SOL    HW111909   1.702   5.593   0.104
 3670SOL    HW211910   1.850   5.640   0.152
 3671SOL     OW11911   0.005   1.867   4.007
 3671SOL    HW111912   6.930   1.835   4.013
 3671SOL    HW211913   0.057   1.830   4.084
 3672SOL     OW11914   5.057   1.668   1.378
 3672SOL    HW111915   5.025   1.762   1.392
 3672SOL    HW211916   4.990   1.605   1.419
 3673SOL     OW11917   3.655   6.190   0.223
 3673SOL    HW111918   3.650   6.288   0.205
 3673SOL    HW211919   3.619   6.170   0.314
 3674SOL     OW11920   1.263   5.617   5.306
 3674SOL    HW111921   1.303   5.709   5.304
 3674SOL    HW211922   1.170   5.622   5.342
 3675SOL     OW11923   2.384   2.799   3.879
 3675SOL    HW111924   2.474   2.840   3.895
 3675SOL    HW211925   2.360   2.809   3.782
 3676SOL     OW11926   6.189   4.468   2.827
 3676SOL    HW111927   6.219   4.418   2.908
 3676SOL    HW211928   6.093   4.446   2.808
 3677SOL     OW11929   2.395   6.328   4.236
 3677SOL    HW111930   2.425   6.266   4.309
 3677SOL    HW211931   2.319   6.384   4.270
 3678SOL     OW11932   0.551   1.468   3.954
 3678SOL    HW111933   0.508   1.379   3.962
 3678SOL    HW211934   0.485   1.534   3.916
 3679SOL     OW11935   0.498   0.772   3.488
 3679SOL    HW111936   0.488   0.742   3.583
 3679SOL    HW211937   0.444   0.712   3.429
 3680SOL     OW11938   5.080   3.160   4.078
 3680SOL    HW111939   5.158   3.151   4.016
 3680SOL    HW211940   5.034   3.071   4.087
 3681SOL     OW11941   6.963   0.855   5.967
 3681SOL    HW111942   7.004   0.766   5.986
 3681SOL    HW211943   7.016   0.926   6.013
 3682SOL     OW11944   4.950   2.587   6.841
 3682SOL    HW111945   4.988   2.674   6.811
 3682SOL    HW211946   4.983   2.566   6.933
 3683SOL     OW11947   6.658   1.938   3.791
 3683SOL    HW111948   6.560   1.926   3.807
 3683SOL    HW211949   6.698   1.852   3.759
 3684SOL     OW11950   1.264   4.863   6.869
 3684SOL    HW111951   1.283   4.901   6.778
 3684SOL    HW211952   1.200   4.787   6.861
 3685SOL     OW11953   1.786   6.416   6.502
 3685SOL    HW111954   1.775   6.376   6.593
 3685SOL    HW211955   1.706   6.397   6.446
 3686SOL     OW11956   5.594   5.556   4.347
 3686SOL    HW111957   5.639   5.557   4.436
 3686SOL    HW211958   5.497   5.537   4.359
 3687SOL     OW11959   3.880   5.907   4.446
 3687SOL    HW111960   3.832   5.835   4.395
 3687SOL    HW211961   3.940   5.957   4.384
 3688SOL     OW11962   0.640   3.453   6.617
 3688SOL    HW111963   0.595   3.517   6.679
 3688SOL    HW211964   0.603   3.361   6.630
 3689SOL     OW11965   2.406   0.132   5.769
 3689SOL    HW111966   2.327   0.074   5.789
 3689SOL    HW211967   2.376   0.219   5.730
 3690SOL     OW11968   4.285   6.043   0.276
 3690SOL    HW111969   4.351   6.002   0.212
 3690SOL    HW211970   4.192   6.031   0.240
 3691SOL     OW11971   2.408   1.611   6.440
 3691SOL    HW111972   2.459   1.530   6.412
 3691SOL    HW211973   2.355   1.645   6.362
 3692SOL     OW11974   6.491   5.266   5.358
 3692SOL    HW111975   6.546   5.250   5.440
 3692SOL    HW211976   6.551   5.286   5.281
 3693SOL     OW11977   2.114   3.579   2.949
 3693SOL    HW111978   2.151   3.670   2.964
 3693SOL    HW211979   2.014   3.583   2.948
 3694SOL     OW11980   0.702   6.584   2.304
 3694SOL    HW111981   0.679   6.590   2.207
 3694SOL    HW211982   0.800   6.601   2.316
 3695SOL     OW11983   5.286   3.236   2.105
 3695SOL    HW111984   5.370   3.278   2.139
 3695SOL    HW211985   5.208   3.296   2.125
 3696SOL     OW11986   4.064   6.854   3.997
 3696SOL    HW111987   4.073   6.766   4.042
 3696SOL    HW211988   4.136   6.916   4.030
 3697SOL     OW11989   0.219   6.220   2.742
 3697SOL    HW111990   0.132   6.235   2.789
 3697SOL    HW211991   0.209   6.243   2.646
 3698SOL     OW11992   2.652   0.821   4.267
 3698SOL    HW111993   2.701   0.848   4.350
 3698SOL    HW211994   2.561   0.862   4.267
 3699SOL     OW11995   1.650   2.479   4.259
 3699SOL    HW111996   1.603   2.397   4.295
 3699SOL    HW211997   1.731   2.451   4.207
 3700SOL     OW11998   0.760   5.484   4.744
 3700SOL    HW111999   0.769   5.485   4.844
 3700SOL    HW212000   0.771   5.390   4.711
 3701SOL     OW12001   1.389   1.413   4.123
 3701SOL    HW112002   1.434   1.379   4.041
 3701SOL    HW212003   1.439   1.382   4.204
 3702SOL     OW12004   5.796   6.852   3.232
 3702SOL    HW112005   5.816   6.847   3.330
 3702SOL    HW212006   5.789   6.759   3.195
 3703SOL     OW12007   6.035   0.270   5.947
 3703SOL    HW112008   6.009   0.340   5.880
 3703SOL    HW212009   6.134   0.257   5.944
 3704SOL     OW12010   3.667   1.540   1.142
 3704SOL    HW112011   3.569   1.529   1.156
 3704SOL    HW212012   3.689   1.526   1.046
 3705SOL     OW12013   4.914   4.224   4.518
 3705SOL    HW112014   4.963   4.262   4.440
 3705SOL    HW212015   4.966   4.242   4.602
 3706SOL     OW12016   1.645   3.950   0.434
 3706SOL    HW112017   1.642   4.048   0.455
 3706SOL    HW212018   1.715   3.906   0.488
 3707SOL     OW12019   4.996   4.753   3.996
 3707SOL    HW112020   5.047   4.754   3.910
 3707SOL    HW212021   5.013   4.838   4.046
 3708SOL     OW12022   6.682   1.020   6.850
 3708SOL    HW112023   6.664   0.995   6.946
 3708SOL    HW212024   6.639   0.953   6.790
 3709SOL     OW12025   3.487   1.131   1.115
 3709SOL    HW112026   3.416   1.180   1.065
 3709SOL    HW212027   3.569   1.124   1.058
 3710SOL     OW12028   6.243   5.752   5.682
 3710SOL    HW112029   6.169   5.712   5.628
 3710SOL    HW212030   6.291   5.820   5.628
 3711SOL     OW12031   0.775   6.315   4.431
 3711SOL    HW112032   0.809   6.263   4.353
 3711SOL    HW212033   0.780   6.413   4.412
 3712SOL     OW12034   1.062   5.263   5.927
 3712SOL    HW112035   1.053   5.182   5.984
 3712SOL    HW212036   0.976   5.314   5.927
 3713SOL     OW12037   0.660   6.607   5.443
 3713SOL    HW112038   0.633   6.629   5.537
 3713SOL    HW212039   0.742   6.549   5.445
 3714SOL     OW12040   5.451   5.932   6.245
 3714SOL    HW112041   5.549   5.912   6.235
 3714SOL    HW212042   5.437   5.992   6.323
 3715SOL     OW12043   0.560   3.870   2.594
 3715SOL    HW112044   0.617   3.811   2.651
 3715SOL    HW212045   0.566   3.965   2.626
 3716SOL     OW12046   5.967   6.482   4.077
 3716SOL    HW112047   5.944   6.386   4.062
 3716SOL    HW212048   6.019   6.491   4.162
 3717SOL     OW12049   6.896   6.332   6.756
 3717SOL    HW112050   6.989   6.356   6.782
 3717SOL    HW212051   6.853   6.278   6.828
 3718SOL     OW12052   0.296   0.703   6.596
 3718SOL    HW112053   0.329   0.690   6.690
 3718SOL    HW212054   0.238   0.784   6.592
 3719SOL     OW12055   5.487   4.030   1.767
 3719SOL    HW112056   5.484   4.002   1.863
 3719SOL    HW212057   5.556   4.101   1.755
 3720SOL     OW12058   5.681   2.814   6.710
 3720SOL    HW112059   5.747   2.756   6.760
 3720SOL    HW212060   5.665   2.898   6.762
 3721SOL     OW12061   6.230   4.687   1.585
 3721SOL    HW112062   6.302   4.757   1.589
 3721SOL    HW212063   6.144   4.730   1.556
 3722SOL     OW12064   5.649   5.870   0.678
 3722SOL    HW112065   5.632   5.814   0.597
 3722SOL    HW212066   5.568   5.868   0.737
 3723SOL     OW12067   6.035   4.791   1.372
 3723SOL    HW112068   5.949   4.823   1.332
 3723SOL    HW212069   6.016   4.748   1.461
 3724SOL     OW12070   1.967   4.712   4.715
 3724SOL    HW112071   2.026   4.790   4.733
 3724SOL    HW212072   1.898   4.705   4.787
 3725SOL     OW12073   6.868   5.187   0.285
 3725SOL    HW112074   6.967   5.186   0.270
 3725SOL    HW212075   6.831   5.276   0.256
 3726SOL     OW12076   6.316   2.988   0.132
 3726SOL    HW112077   6.416   2.994   0.139
 3726SOL    HW212078   6.282   2.913   0.189
 3727SOL     OW12079   6.259   1.545   5.375
 3727SOL    HW112080   6.160   1.545   5.363
 3727SOL    HW212081   6.292   1.640   5.377
 3728SOL     OW12082   1.467   3.664   6.018
 3728SOL    HW112083   1.460   3.564   6.008
 3728SOL    HW212084   1.562   3.689   6.036
 3729SOL     OW12085   1.559   1.846   4.548
 3729SOL    HW112086   1.523   1.774   4.488
 3729SOL    HW212087   1.583   1.926   4.493
 3730SOL     OW12088   3.086   5.335   5.303
 3730SOL    HW112089   3.057   5.426   5.272
 3730SOL    HW212090   3.007   5.285   5.340
 3731SOL     OW12091   0.520   1.292   0.503
 3731SOL    HW112092   0.558   1.236   0.429
 3731SOL    HW212093   0.452   1.238   0.554
 3732SOL     OW12094   2.701   1.530   0.133
 3732SOL    HW112095   2.692   1.431   0.135
 3732SOL    HW212096   2.780   1.555   0.076
 3733SOL     OW12097   1.674   3.155   3.247
 3733SOL    HW112098   1.608   3.107   3.190
 3733SOL    HW212099   1.689   3.247   3.210
 3734SOL     OW12100   5.286   0.154   1.076
 3734SOL    HW112101   5.190   0.137   1.053
 3734SOL    HW212102   5.333   0.067   1.088
 3735SOL     OW12103   2.623   1.000   3.052
 3735SOL    HW112104   2.663   1.080   3.007
 3735SOL    HW212105   2.533   0.980   3.012
 3736SOL     OW12106   6.967   2.202   1.217
 3736SOL    HW112107   6.984   2.107   1.240
 3736SOL    HW212108   6.922   2.247   1.295
 3737SOL     OW12109   5.390   0.975   3.946
 3737SOL    HW112110   5.368   0.886   3.986
 3737SOL    HW212111   5.487   0.994   3.958
 3738SOL     OW12112   0.056   0.390   2.098
 3738SOL    HW112113   0.059   0.455   2.022
 3738SOL    HW212114   6.998   0.329   2.087
 3739SOL     OW12115   2.342   5.645   0.469
 3739SOL    HW112116   2.283   5.722   0.490
 3739SOL    HW212117   2.294   5.559   0.486
 3740SOL     OW12118   6.694   0.535   0.730
 3740SOL    HW112119   6.705   0.436   0.728
 3740SOL    HW212120   6.776   0.578   0.767
 3741SOL     OW12121   5.597   3.121   6.168
 3741SOL    HW112122   5.694   3.120   6.192
 3741SOL    HW212123   5.580   3.191   6.099
 3742SOL     OW12124   2.562   1.888   6.852
 3742SOL    HW112125   2.555   1.852   6.759
 3742SOL    HW212126   2.564   1.812   6.917
 3743SOL     OW12127   6.165   3.156   0.290
 3743SOL    HW112128   6.168   3.256   0.297
 3743SOL    HW212129   6.218   3.127   0.210
 3744SOL     OW12130   1.714   6.072   1.534
 3744SOL    HW112131   1.646   6.023   1.590
 3744SOL    HW212132   1.791   6.099   1.591
 3745SOL     OW12133   4.547   4.884   2.057
 3745SOL    HW112134   4.561   4.983   2.057
 3745SOL    HW212135   4.618   4.840   2.114
 3746SOL     OW12136   6.103   1.006   3.717
 3746SOL    HW112137   6.036   1.009   3.642
 3746SOL    HW212138   6.119   0.911   3.744
 3747SOL     OW12139   2.727   6.084   5.196
 3747SOL    HW112140   2.818   6.045   5.189
 3747SOL    HW212141   2.658   6.012   5.187
 3748SOL     OW12142   5.391   0.789   1.921
 3748SOL    HW112143   5.412   0.781   2.018
 3748SOL    HW212144   5.420   0.705   1.874
 3749SOL     OW12145   1.776   5.373   3.594
 3749SOL    HW112146   1.678   5.365   3.576
 3749SOL    HW212147   1.827   5.365   3.508
 3750SOL     OW12148   6.711   4.995   1.248
 3750SOL    HW112149   6.728   4.990   1.346
 3750SOL    HW212150   6.616   5.022   1.232
 3751SOL     OW12151   6.482   3.398   1.504
 3751SOL    HW112152   6.554   3.456   1.541
 3751SOL    HW212153   6.402   3.402   1.564
 3752SOL     OW12154   6.410   6.355   0.552
 3752SOL    HW112155   6.464   6.417   0.495
 3752SOL    HW212156   6.445   6.358   0.646
 3753SOL     OW12157   6.714   0.378   4.252
 3753SOL    HW112158   6.616   0.379   4.231
 3753SOL    HW212159   6.757   0.298   4.211
 3754SOL     OW12160   4.266   7.012   1.339
 3754SOL    HW112161   4.229   6.936   1.392
 3754SOL    HW212162   4.264   0.075   1.395
 3755SOL     OW12163   5.284   5.771   4.151
 3755SOL    HW112164   5.198   5.810   4.181
 3755SOL    HW212165   5.360   5.817   4.197
 3756SOL     OW12166   2.251   5.782   6.700
 3756SOL    HW112167   2.189   5.713   6.663
 3756SOL    HW212168   2.310   5.739   6.769
 3757SOL     OW12169   4.682   6.513   6.314
 3757SOL    HW112170   4.775   6.536   6.286
 3757SOL    HW212171   4.632   6.597   6.336
 3758SOL     OW12172   2.563   1.726   5.456
 3758SOL    HW112173   2.562   1.627   5.469
 3758SOL    HW212174   2.557   1.772   5.545
 3759SOL     OW12175   4.460   5.749   6.727
 3759SOL    HW112176   4.411   5.836   6.735
 3759SOL    HW212177   4.454   5.716   6.633
 3760SOL     OW12178   1.521   1.277   5.006
 3760SOL    HW112179   1.436   1.253   5.052
 3760SOL    HW212180   1.540   1.211   4.934
 3761SOL     OW12181   1.155   1.303   4.617
 3761SOL    HW112182   1.106   1.323   4.532
 3761SOL    HW212183   1.106   1.344   4.694
 3762SOL     OW12184   1.099   3.621   0.645
 3762SOL    HW112185   1.053   3.557   0.707
 3762SOL    HW212186   1.031   3.667   0.588
 3763SOL     OW12187   6.691   3.555   1.602
 3763SOL    HW112188   6.668   3.627   1.668
 3763SOL    HW212189   6.759   3.590   1.537
 3764SOL     OW12190   1.858   6.703   3.091
 3764SOL    HW112191   1.785   6.705   3.160
 3764SOL    HW212192   1.853   6.786   3.036
 3765SOL     OW12193   4.942   0.753   0.527
 3765SOL    HW112194   5.007   0.827   0.545
 3765SOL    HW212195   4.868   0.757   0.594
 3766SOL     OW12196   1.384   0.659   3.515
 3766SOL    HW112197   1.345   0.570   3.537
 3766SOL    HW212198   1.344   0.729   3.575
 3767SOL     OW12199   1.628   4.735   0.343
 3767SOL    HW112200   1.666   4.667   0.282
 3767SOL    HW212201   1.633   4.826   0.300
 3768SOL     OW12202   1.114   6.457   4.694
 3768SOL    HW112203   1.179   6.449   4.619
 3768SOL    HW212204   1.049   6.381   4.691
 3769SOL     OW12205   6.586   6.172   5.665
 3769SOL    HW112206   6.529   6.118   5.726
 3769SOL    HW212207   6.557   6.268   5.669
 3770SOL     OW12208   2.132   1.658   6.316
 3770SOL    HW112209   2.122   1.756   6.299
 3770SOL    HW212210   2.077   1.606   6.250
 3771SOL     OW12211   5.965   3.011   6.902
 3771SOL    HW112212   5.970   3.000   6.803
 3771SOL    HW212213   6.048   2.972   6.944
 3772SOL     OW12214   0.051   0.884   6.596
 3772SOL    HW112215   0.028   0.932   6.681
 3772SOL    HW212216   7.018   0.799   6.591
 3773SOL     OW12217   6.130   2.558   6.127
 3773SOL    HW112218   6.207   2.600   6.174
 3773SOL    HW212219   6.051   2.619   6.129
 3774SOL     OW12220   0.126   5.976   0.702
 3774SOL    HW112221   0.164   5.980   0.610
 3774SOL    HW212222   0.048   5.913   0.703
 3775SOL     OW12223   4.672   5.135   1.755
 3775SOL    HW112224   4.720   5.222   1.746
 3775SOL    HW212225   4.574   5.151   1.747
 3776SOL     OW12226   4.568   1.298   0.326
 3776SOL    HW112227   4.572   1.200   0.345
 3776SOL    HW212228   4.613   1.317   0.239
 3777SOL     OW12229   3.479   5.741   3.833
 3777SOL    HW112230   3.544   5.811   3.864
 3777SOL    HW212231   3.399   5.742   3.893
 3778SOL     OW12232   3.721   4.890   2.693
 3778SOL    HW112233   3.719   4.792   2.670
 3778SOL    HW212234   3.658   4.940   2.633
 3779SOL     OW12235   1.204   4.294   0.505
 3779SOL    HW112236   1.247   4.262   0.421
 3779SOL    HW212237   1.260   4.366   0.546
 3780SOL     OW12238   6.371   5.540   5.350
 3780SOL    HW112239   6.368   5.556   5.252
 3780SOL    HW212240   6.406   5.448   5.368
 3781SOL     OW12241   0.206   5.857   4.557
 3781SOL    HW112242   0.256   5.915   4.622
 3781SOL    HW212243   0.269   5.821   4.489
 3782SOL     OW12244   2.619   0.656   3.635
 3782SOL    HW112245   2.644   0.563   3.608
 3782SOL    HW212246   2.697   0.700   3.680
 3783SOL     OW12247   5.767   5.500   3.336
 3783SOL    HW112248   5.706   5.479   3.413
 3783SOL    HW212249   5.842   5.557   3.369
 3784SOL     OW12250   4.781   2.897   2.616
 3784SOL    HW112251   4.775   2.980   2.671
 3784SOL    HW212252   4.821   2.918   2.527
 3785SOL     OW12253   2.251   2.497   6.149
 3785SOL    HW112254   2.188   2.566   6.114
 3785SOL    HW212255   2.247   2.497   6.249
 3786SOL     OW12256   1.791   5.484   3.005
 3786SOL    HW112257   1.853   5.540   2.950
 3786SOL    HW212258   1.812   5.497   3.102
 3787SOL     OW12259   5.972   1.410   2.371
 3787SOL    HW112260   5.918   1.471   2.429
 3787SOL    HW212261   6.068   1.437   2.375
 3788SOL     OW12262   0.666   4.286   4.596
 3788SOL    HW112263   0.745   4.281   4.657
 3788SOL    HW212264   0.677   4.363   4.534
 3789SOL     OW12265   0.549   2.845   4.909
 3789SOL    HW112266   0.458   2.804   4.913
 3789SOL    HW212267   0.582   2.860   5.002
 3790SOL     OW12268   1.460   4.468   5.716
 3790SOL    HW112269   1.423   4.558   5.692
 3790SOL    HW212270   1.559   4.474   5.729
 3791SOL     OW12271   5.268   0.669   6.890
 3791SOL    HW112272   5.274   0.766   6.866
 3791SOL    HW212273   5.196   0.626   6.835
 3792SOL     OW12274   0.878   2.322   5.059
 3792SOL    HW112275   0.800   2.281   5.011
 3792SOL    HW212276   0.917   2.395   5.002
 3793SOL     OW12277   4.821   6.738   2.192
 3793SOL    HW112278   4.864   6.749   2.281
 3793SOL    HW212279   4.769   6.653   2.190
 3794SOL     OW12280   2.438   3.754   0.838
 3794SOL    HW112281   2.499   3.794   0.769
 3794SOL    HW212282   2.359   3.713   0.793
 3795SOL     OW12283   3.916   6.479   6.862
 3795SOL    HW112284   3.947   6.520   6.948
 3795SOL    HW212285   3.993   6.433   6.817
 3796SOL     OW12286   2.897   2.260   2.675
 3796SOL    HW112287   2.865   2.215   2.758
 3796SOL    HW212288   2.996   2.250   2.667
 3797SOL     OW12289   6.995   3.936   1.350
 3797SOL    HW112290   0.061   3.942   1.299
 3797SOL    HW212291   7.002   3.865   1.419
 3798SOL     OW12292   2.464   5.563   2.988
 3798SOL    HW112293   2.429   5.512   3.067
 3798SOL    HW212294   2.564   5.555   2.985
 3799SOL     OW12295   0.481   2.261   3.964
 3799SOL    HW112296   0.552   2.271   3.893
 3799SOL    HW212297   0.393   2.247   3.920
 3800SOL     OW12298   5.638   3.405   3.823
 3800SOL    HW112299   5.633   3.305   3.832
 3800SOL    HW212300   5.691   3.442   3.899
 3801SOL     OW12301   6.136   0.090   2.600
 3801SOL    HW112302   6.183   0.059   2.518
 3801SOL    HW212303   6.184   0.057   2.682
 3802SOL     OW12304   1.210   2.339   2.790
 3802SOL    HW112305   1.257   2.408   2.736
 3802SOL    HW212306   1.274   2.267   2.816
 3803SOL     OW12307   3.264   2.458   1.534
 3803SOL    HW112308   3.225   2.534   1.586
 3803SOL    HW212309   3.358   2.480   1.509
 3804SOL     OW12310   4.809   1.417   4.112
 3804SOL    HW112311   4.713   1.399   4.132
 3804SOL    HW212312   4.858   1.330   4.101
 3805SOL     OW12313   2.688   2.657   1.570
 3805SOL    HW112314   2.747   2.735   1.591
 3805SOL    HW212315   2.675   2.602   1.652
 3806SOL     OW12316   3.400   3.822   6.486
 3806SOL    HW112317   3.476   3.826   6.422
 3806SOL    HW212318   3.431   3.847   6.577
 3807SOL     OW12319   1.501   6.043   2.657
 3807SOL    HW112320   1.411   5.999   2.656
 3807SOL    HW212321   1.514   6.091   2.743
 3808SOL     OW12322   3.869   0.962   0.754
 3808SOL    HW112323   3.901   0.877   0.794
 3808SOL    HW212324   3.776   0.950   0.719
 3809SOL     OW12325   5.324   3.202   1.110
 3809SOL    HW112326   5.231   3.176   1.138
 3809SOL    HW212327   5.382   3.210   1.191
 3810SOL     OW12328   4.426   2.517   3.984
 3810SOL    HW112329   4.365   2.493   3.908
 3810SOL    HW212330   4.496   2.580   3.952
 3811SOL     OW12331   1.156   4.408   4.363
 3811SOL    HW112332   1.249   4.380   4.341
 3811SOL    HW212333   1.113   4.339   4.422
 3812SOL     OW12334   5.154   6.141   4.385
 3812SOL    HW112335   5.147   6.049   4.422
 3812SOL    HW212336   5.249   6.173   4.393
 3813SOL     OW12337   4.710   4.502   0.474
 3813SOL    HW112338   4.618   4.469   0.495
 3813SOL    HW212339   4.774   4.424   0.475
 3814SOL     OW12340   0.025   0.177   6.892
 3814SOL    HW112341   7.020   0.145   6.983
 3814SOL    HW212342   0.114   0.224   6.896
 3815SOL     OW12343   4.407   2.348   0.781
 3815SOL    HW112344   4.380   2.412   0.854
 3815SOL    HW212345   4.340   2.352   0.707
 3816SOL     OW12346   0.884   6.084   0.182
 3816SOL    HW112347   0.978   6.075   0.216
 3816SOL    HW212348   0.882   6.152   0.109
 3817SOL     OW12349   5.300   4.083   2.737
 3817SOL    HW112350   5.315   4.132   2.823
 3817SOL    HW212351   5.387   4.072   2.690
 3818SOL     OW12352   6.207   0.792   0.343
 3818SOL    HW112353   6.196   0.814   0.440
 3818SOL    HW212354   6.204   0.692   0.331
 3819SOL     OW12355   5.259   5.639   2.119
 3819SOL    HW112356   5.317   5.714   2.088
 3819SOL    HW212357   5.207   5.668   2.199
 3820SOL     OW12358   5.495   6.620   3.567
 3820SOL    HW112359   5.558   6.665   3.630
 3820SOL    HW212360   5.540   6.607   3.478
 3821SOL     OW12361   2.425   1.596   1.055
 3821SOL    HW112362   2.346   1.657   1.052
 3821SOL    HW212363   2.453   1.582   1.150
 3822SOL     OW12364   1.977   6.973   1.491
 3822SOL    HW112365   2.030   6.993   1.573
 3822SOL    HW212366   1.922   0.033   1.465
 3823SOL     OW12367   3.271   2.891   5.734
 3823SOL    HW112368   3.320   2.831   5.672
 3823SOL    HW212369   3.187   2.846   5.766
 3824SOL     OW12370   6.150   2.157   0.954
 3824SOL    HW112371   6.242   2.166   0.991
 3824SOL    HW212372   6.123   2.061   0.955
 3825SOL     OW12373   0.418   6.301   1.094
 3825SOL    HW112374   0.436   6.213   1.138
 3825SOL    HW212375   0.325   6.330   1.116
 3826SOL     OW12376   0.995   3.084   6.890
 3826SOL    HW112377   1.071   3.107   6.830
 3826SOL    HW212378   0.909   3.104   6.845
 3827SOL     OW12379   2.380   2.744   1.512
 3827SOL    HW112380   2.402   2.785   1.600
 3827SOL    HW212381   2.310   2.674   1.525
 3828SOL     OW12382   3.677   2.704   1.768
 3828SOL    HW112383   3.683   2.610   1.735
 3828SOL    HW212384   3.596   2.713   1.826
 3829SOL     OW12385   1.298   4.546   4.076
 3829SOL    HW112386   1.202   4.529   4.100
 3829SOL    HW212387   1.357   4.485   4.128
 3830SOL     OW12388   0.688   1.540   4.194
 3830SOL    HW112389   0.633   1.502   4.119
 3830SOL    HW212390   0.754   1.470   4.225
 3831SOL     OW12391   4.693   2.492   2.175
 3831SOL    HW112392   4.720   2.583   2.141
 3831SOL    HW212393   4.611   2.462   2.127
 3832SOL     OW12394   6.099   0.768   2.712
 3832SOL    HW112395   6.087   0.672   2.684
 3832SOL    HW212396   6.040   0.826   2.656
 3833SOL     OW12397   0.583   6.374   5.760
 3833SOL    HW112398   0.592   6.301   5.692
 3833SOL    HW212399   0.486   6.390   5.779
 3834SOL     OW12400   4.828   3.713   1.731
 3834SOL    HW112401   4.758   3.664   1.678
 3834SOL    HW212402   4.786   3.790   1.779
 3835SOL     OW12403   2.898   5.616   4.441
 3835SOL    HW112404   2.835   5.570   4.379
 3835SOL    HW212405   2.948   5.548   4.494
 3836SOL     OW12406   1.706   4.099   5.619
 3836SOL    HW112407   1.675   4.139   5.533
 3836SOL    HW212408   1.783   4.037   5.601
 3837SOL     OW12409   5.019   4.362   6.541
 3837SOL    HW112410   5.009   4.269   6.507
 3837SOL    HW212411   4.930   4.408   6.539
 3838SOL     OW12412   6.888   3.464   4.796
 3838SOL    HW112413   6.859   3.384   4.743
 3838SOL    HW212414   6.814   3.531   4.800
 3839SOL     OW12415   4.268   0.687   3.642
 3839SOL    HW112416   4.311   0.775   3.619
 3839SOL    HW212417   4.337   0.626   3.681
 3840SOL     OW12418   2.220   1.094   5.585
 3840SOL    HW112419   2.311   1.094   5.544
 3840SOL    HW212420   2.188   1.189   5.594
 3841SOL     OW12421   0.371   3.535   5.354
 3841SOL    HW112422   0.326   3.625   5.351
 3841SOL    HW212423   0.303   3.463   5.343
 3842SOL     OW12424   1.614   3.531   6.837
 3842SOL    HW112425   1.650   3.574   6.919
 3842SOL    HW212426   1.603   3.433   6.852
 3843SOL     OW12427   6.410   4.258   2.828
 3843SOL    HW112428   6.472   4.192   2.787
 3843SOL    HW212429   6.350   4.296   2.757
 3844SOL     OW12430   0.716   2.642   6.360
 3844SOL    HW112431   0.778   2.681   6.292
 3844SOL    HW212432   0.675   2.558   6.323
 3845SOL     OW12433   3.856   3.118   3.941
 3845SOL    HW112434   3.804   3.201   3.962
 3845SOL    HW212435   3.892   3.125   3.848
 3846SOL     OW12436   0.927   5.405   3.911
 3846SOL    HW112437   0.887   5.417   3.820
 3846SOL    HW212438   0.877   5.461   3.977
 3847SOL     OW12439   6.315   0.869   4.564
 3847SOL    HW112440   6.258   0.927   4.621
 3847SOL    HW212441   6.324   0.779   4.606
 3848SOL     OW12442   3.093   5.670   2.775
 3848SOL    HW112443   3.092   5.581   2.820
 3848SOL    HW212444   3.074   5.659   2.677
 3849SOL     OW12445   0.922   1.626   5.253
 3849SOL    HW112446   0.859   1.551   5.272
 3849SOL    HW212447   0.893   1.674   5.171
 3850SOL     OW12448   2.573   3.203   0.963
 3850SOL    HW112449   2.550   3.136   1.034
 3850SOL    HW212450   2.576   3.295   1.003
 3851SOL     OW12451   1.847   4.304   2.478
 3851SOL    HW112452   1.793   4.347   2.551
 3851SOL    HW212453   1.863   4.371   2.405
 3852SOL     OW12454   4.732   6.806   4.099
 3852SOL    HW112455   4.749   6.838   4.005
 3852SOL    HW212456   4.640   6.766   4.104
 3853SOL     OW12457   1.029   3.286   3.408
 3853SOL    HW112458   0.994   3.253   3.320
 3853SOL    HW212459   1.032   3.210   3.473
 3854SOL     OW12460   1.266   3.734   2.071
 3854SOL    HW112461   1.195   3.803   2.058
 3854SOL    HW212462   1.254   3.661   2.005
 3855SOL     OW12463   5.177   6.412   6.847
 3855SOL    HW112464   5.221   6.498   6.874
 3855SOL    HW212465   5.090   6.402   6.896
 3856SOL     OW12466   6.986   6.607   5.740
 3856SOL    HW112467   0.006   6.647   5.823
 3856SOL    HW212468   0.007   6.517   5.724
 3857SOL     OW12469   0.344   6.330   6.088
 3857SOL    HW112470   0.380   6.413   6.131
 3857SOL    HW212471   0.340   6.343   5.989
 3858SOL     OW12472   1.417   6.789   5.557
 3858SOL    HW112473   1.323   6.816   5.576
 3858SOL    HW212474   1.429   6.691   5.576
 3859SOL     OW12475   6.410   2.286   2.991
 3859SOL    HW112476   6.505   2.309   2.967
 3859SOL    HW212477   6.409   2.230   3.074
 3860SOL     OW12478   2.341   0.365   5.648
 3860SOL    HW112479   2.298   0.432   5.708
 3860SOL    HW212480   2.364   0.409   5.561
 3861SOL     OW12481   4.781   4.720   2.822
 3861SOL    HW112482   4.691   4.698   2.859
 3861SOL    HW212483   4.775   4.805   2.768
 3862SOL     OW12484   0.755   0.421   4.963
 3862SOL    HW112485   0.810   0.418   4.879
 3862SOL    HW212486   0.792   0.491   5.024
 3863SOL     OW12487   4.771   2.848   6.070
 3863SOL    HW112488   4.867   2.877   6.063
 3863SOL    HW212489   4.763   2.752   6.043
 3864SOL     OW12490   2.709   0.618   5.417
 3864SOL    HW112491   2.740   0.541   5.361
 3864SOL    HW212492   2.767   0.697   5.400
 3865SOL     OW12493   3.148   6.619   0.421
 3865SOL    HW112494   3.236   6.614   0.374
 3865SOL    HW212495   3.149   6.558   0.500
 3866SOL     OW12496   4.148   1.275   1.226
 3866SOL    HW112497   4.084   1.239   1.295
 3866SOL    HW212498   4.117   1.366   1.196
 3867SOL     OW12499   1.486   3.693   3.684
 3867SOL    HW112500   1.571   3.663   3.728
 3867SOL    HW212501   1.411   3.689   3.750
 3868SOL     OW12502   2.985   0.007   1.101
 3868SOL    HW112503   2.999   0.083   1.037
 3868SOL    HW212504   2.929   6.956   1.056
 3869SOL     OW12505   6.883   3.120   5.347
 3869SOL    HW112506   6.922   3.070   5.270
 3869SOL    HW212507   6.812   3.064   5.389
 3870SOL     OW12508   4.475   4.835   0.324
 3870SOL    HW112509   4.459   4.886   0.408
 3870SOL    HW212510   4.554   4.774   0.337
 3871SOL     OW12511   4.655   0.403   2.206
 3871SOL    HW112512   4.707   0.487   2.194
 3871SOL    HW212513   4.715   0.324   2.190
 3872SOL     OW12514   3.906   3.222   2.064
 3872SOL    HW112515   3.996   3.200   2.025
 3872SOL    HW212516   3.882   3.154   2.133
 3873SOL     OW12517   6.608   4.085   1.524
 3873SOL    HW112518   6.590   4.002   1.471
 3873SOL    HW212519   6.706   4.094   1.540
 3874SOL     OW12520   3.644   6.098   6.526
 3874SOL    HW112521   3.572   6.089   6.594
 3874SOL    HW212522   3.720   6.151   6.565
 3875SOL     OW12523   1.157   2.974   2.072
 3875SOL    HW112524   1.068   3.007   2.041
 3875SOL    HW212525   1.158   2.969   2.172
 3876SOL     OW12526   5.849   5.007   0.024
 3876SOL    HW112527   5.847   4.925   0.081
 3876SOL    HW212528   5.778   5.071   0.055
 3877SOL     OW12529   0.017   2.756   6.755
 3877SOL    HW112530   7.000   2.817   6.685
 3877SOL    HW212531   6.975   2.679   6.769
 3878SOL     OW12532   2.283   6.666   5.744
 3878SOL    HW112533   2.216   6.674   5.819
 3878SOL    HW212534   2.285   6.572   5.711
 3879SOL     OW12535   5.121   6.666   1.173
 3879SOL    HW112536   5.146   6.574   1.143
 3879SOL    HW212537   5.198   6.728   1.159
 3880SOL     OW12538   6.203   4.567   3.646
 3880SOL    HW112539   6.302   4.561   3.634
 3880SOL    HW212540   6.179   4.656   3.683
 3881SOL     OW12541   0.981   4.655   1.060
 3881SOL    HW112542   1.074   4.691   1.056
 3881SOL    HW212543   0.942   4.671   1.151
 3882SOL     OW12544   6.169   1.461   4.794
 3882SOL    HW112545   6.083   1.480   4.746
 3882SOL    HW212546   6.239   1.434   4.727
 3883SOL     OW12547   4.671   0.655   3.284
 3883SOL    HW112548   4.587   0.601   3.296
 3883SOL    HW212549   4.678   0.723   3.357
 3884SOL     OW12550   1.459   5.851   4.029
 3884SOL    HW112551   1.383   5.822   4.088
 3884SOL    HW212552   1.536   5.880   4.086
 3885SOL     OW12553   6.587   0.942   3.934
 3885SOL    HW112554   6.516   0.902   3.876
 3885SOL    HW212555   6.580   1.042   3.933
 3886SOL     OW12556   6.644   6.135   5.141
 3886SOL    HW112557   6.735   6.167   5.114
 3886SOL    HW212558   6.603   6.200   5.205
 3887SOL     OW12559   5.589   1.574   5.323
 3887SOL    HW112560   5.636   1.635   5.258
 3887SOL    HW212561   5.493   1.565   5.297
 3888SOL     OW12562   0.545   0.533   6.632
 3888SOL    HW112563   0.478   0.601   6.602
 3888SOL    HW212564   0.573   0.477   6.554
 3889SOL     OW12565   0.011   2.624   5.896
 3889SOL    HW112566   0.094   2.677   5.910
 3889SOL    HW212567   7.020   2.560   5.972
 3890SOL     OW12568   6.132   5.736   2.707
 3890SOL    HW112569   6.122   5.653   2.762
 3890SOL    HW212570   6.146   5.710   2.611
 3891SOL     OW12571   5.211   5.158   4.765
 3891SOL    HW112572   5.212   5.153   4.665
 3891SOL    HW212573   5.220   5.066   4.802
 3892SOL     OW12574   0.449   1.702   2.480
 3892SOL    HW112575   0.385   1.761   2.529
 3892SOL    HW212576   0.454   1.613   2.525
 3893SOL     OW12577   2.999   5.217   2.248
 3893SOL    HW112578   2.973   5.313   2.260
 3893SOL    HW212579   3.086   5.199   2.295
 3894SOL     OW12580   2.661   2.118   0.746
 3894SOL    HW112581   2.690   2.023   0.747
 3894SOL    HW212582   2.720   2.172   0.807
 3895SOL     OW12583   1.008   0.787   5.272
 3895SOL    HW112584   1.106   0.766   5.277
 3895SOL    HW212585   0.978   0.827   5.358
 3896SOL     OW12586   0.273   2.110   6.121
 3896SOL    HW112587   0.191   2.069   6.082
 3896SOL    HW212588   0.351   2.049   6.105
 3897SOL     OW12589   3.490   6.693   2.029
 3897SOL    HW112590   3.399   6.734   2.025
 3897SOL    HW212591   3.484   6.601   2.066
 3898SOL     OW12592   3.252   3.660   3.762
 3898SOL    HW112593   3.226   3.704   3.676
 3898SOL    HW212594   3.170   3.630   3.810
 3899SOL     OW12595   5.056   0.837   4.401
 3899SOL    HW112596   5.143   0.882   4.419
 3899SOL    HW212597   5.014   0.878   4.320
 3900SOL     OW12598   5.257   3.324   3.174
 3900SOL    HW112599   5.330   3.342   3.241
 3900SOL    HW212600   5.173   3.303   3.223
 3901SOL     OW12601   2.964   6.408   5.764
 3901SOL    HW112602   2.898   6.483   5.763
 3901SOL    HW212603   3.019   6.414   5.848
 3902SOL     OW12604   4.996   3.901   2.066
 3902SOL    HW112605   5.039   3.989   2.048
 3902SOL    HW212606   5.065   3.828   2.060
 3903SOL     OW12607   5.034   3.662   6.908
 3903SOL    HW112608   5.025   3.759   6.888
 3903SOL    HW212609   4.988   3.609   6.837
 3904SOL     OW12610   2.258   0.836   6.018
 3904SOL    HW112611   2.334   0.822   6.081
 3904SOL    HW212612   2.288   0.894   5.943
 3905SOL     OW12613   5.760   6.111   6.147
 3905SOL    HW112614   5.857   6.133   6.161
 3905SOL    HW212615   5.741   6.020   6.186
 3906SOL     OW12616   1.623   4.848   5.782
 3906SOL    HW112617   1.714   4.810   5.768
 3906SOL    HW212618   1.619   4.940   5.742
 3907SOL     OW12619   6.968   1.089   4.131
 3907SOL    HW112620   6.967   0.998   4.089
 3907SOL    HW212621   6.986   1.158   4.061
 3908SOL     OW12622   1.665   1.658   6.476
 3908SOL    HW112623   1.728   1.646   6.553
 3908SOL    HW212624   1.589   1.593   6.485
 3909SOL     OW12625   6.878   4.218   6.534
 3909SOL    HW112626   6.820   4.141   6.508
 3909SOL    HW212627   6.835   4.304   6.504
 3910SOL     OW12628   3.674   3.742   1.683
 3910SOL    HW112629   3.756   3.769   1.733
 3910SOL    HW212630   3.640   3.655   1.719
 3911SOL     OW12631   4.865   0.525   0.439
 3911SOL    HW112632   4.914   0.613   0.441
 3911SOL    HW212633   4.769   0.541   0.418
 3912SOL     OW12634   3.894   0.970   6.337
 3912SOL    HW112635   3.847   0.895   6.383
 3912SOL    HW212636   3.947   0.933   6.260
 3913SOL     OW12637   3.227   6.513   6.634
 3913SOL    HW112638   3.326   6.515   6.639
 3913SOL    HW212639   3.197   6.436   6.577
 3914SOL     OW12640   5.086   0.999   1.169
 3914SOL    HW112641   5.111   1.079   1.223
 3914SOL    HW212642   5.164   0.936   1.165
 3915SOL     OW12643   4.567   6.922   0.100
 3915SOL    HW112644   4.488   6.960   0.148
 3915SOL    HW212645   4.605   6.847   0.153
 3916SOL     OW12646   2.658   0.061   3.022
 3916SOL    HW112647   2.719   0.039   3.099
 3916SOL    HW212648   2.694   0.140   2.974
 3917SOL     OW12649   1.338   4.529   1.196
 3917SOL    HW112650   1.281   4.575   1.128
 3917SOL    HW212651   1.429   4.512   1.157
 3918SOL     OW12652   3.532   6.653   1.280
 3918SOL    HW112653   3.590   6.722   1.324
 3918SOL    HW212654   3.552   6.649   1.182
 3919SOL     OW12655   3.682   0.318   6.548
 3919SOL    HW112656   3.756   0.357   6.602
 3919SOL    HW212657   3.620   0.267   6.608
 3920SOL     OW12658   2.744   0.646   6.565
 3920SOL    HW112659   2.654   0.674   6.599
 3920SOL    HW212660   2.785   0.720   6.513
 3921SOL     OW12661   0.166   1.980   6.981
 3921SOL    HW112662   0.135   1.960   0.054
 3921SOL    HW212663   0.207   1.897   6.942
 3922SOL     OW12664   4.986   4.887   1.359
 3922SOL    HW112665   5.026   4.798   1.335
 3922SOL    HW212666   5.042   4.932   1.428
 3923SOL     OW12667   5.654   2.120   1.081
 3923SOL    HW112668   5.681   2.079   1.168
 3923SOL    HW212669   5.735   2.134   1.024
 3924SOL     OW12670   0.479   4.827   3.156
 3924SOL    HW112671   0.578   4.842   3.164
 3924SOL    HW212672   0.454   4.744   3.206
 3925SOL     OW12673   4.622   5.002   0.957
 3925SOL    HW112674   4.695   5.060   0.993
 3925SOL    HW212675   4.565   4.970   1.033
 3926SOL     OW12676   0.361   0.387   5.050
 3926SOL    HW112677   0.397   0.297   5.026
 3926SOL    HW212678   0.435   0.444   5.087
 3927SOL     OW12679   0.340   2.659   4.265
 3927SOL    HW112680   0.287   2.721   4.207
 3927SOL    HW212681   0.382   2.588   4.209
 3928SOL     OW12682   3.326   5.730   2.925
 3928SOL    HW112683   3.242   5.719   2.872
 3928SOL    HW212684   3.302   5.748   3.021
 3929SOL     OW12685   0.253   1.205   0.011
 3929SOL    HW112686   0.321   1.233   0.079
 3929SOL    HW212687   0.168   1.182   0.057
 3930SOL     OW12688   0.892   2.161   3.586
 3930SOL    HW112689   0.972   2.123   3.632
 3930SOL    HW212690   0.919   2.244   3.536
 3931SOL     OW12691   1.820   1.822   2.043
 3931SOL    HW112692   1.907   1.862   2.012
 3931SOL    HW212693   1.806   1.734   1.999
 3932SOL     OW12694   2.182   5.022   3.858
 3932SOL    HW112695   2.201   4.963   3.937
 3932SOL    HW212696   2.238   4.993   3.780
 3933SOL     OW12697   1.615   6.728   0.163
 3933SOL    HW112698   1.631   6.787   0.084
 3933SOL    HW212699   1.577   6.782   0.238
 3934SOL     OW12700   6.944   1.456   3.219
 3934SOL    HW112701   6.960   1.532   3.282
 3934SOL    HW212702   6.861   1.473   3.167
 3935SOL     OW12703   0.795   1.308   6.010
 3935SOL    HW112704   0.866   1.322   6.079
 3935SOL    HW212705   0.705   1.321   6.052
 3936SOL     OW12706   6.880   6.176   5.692
 3936SOL    HW112707   6.783   6.172   5.668
 3936SOL    HW212708   6.899   6.111   5.765
 3937SOL     OW12709   6.889   6.607   2.917
 3937SOL    HW112710   6.799   6.565   2.928
 3937SOL    HW212711   6.881   6.706   2.921
 3938SOL     OW12712   6.341   3.934   4.359
 3938SOL    HW112713   6.426   3.883   4.364
 3938SOL    HW212714   6.321   3.957   4.263
 3939SOL     OW12715   2.889   1.627   3.878
 3939SOL    HW112716   2.921   1.701   3.819
 3939SOL    HW212717   2.818   1.575   3.831
 3940SOL     OW12718   2.725   4.746   1.770
 3940SOL    HW112719   2.741   4.678   1.842
 3940SOL    HW212720   2.631   4.739   1.739
 3941SOL     OW12721   5.569   0.240   4.258
 3941SOL    HW112722   5.649   0.269   4.205
 3941SOL    HW212723   5.542   0.148   4.229
 3942SOL     OW12724   0.486   6.374   5.423
 3942SOL    HW112725   0.539   6.298   5.462
 3942SOL    HW212726   0.501   6.456   5.478
 3943SOL     OW12727   0.865   3.652   2.505
 3943SOL    HW112728   0.778   3.659   2.457
 3943SOL    HW212729   0.848   3.640   2.603
 3944SOL     OW12730   5.907   3.645   5.707
 3944SOL    HW112731   5.821   3.692   5.722
 3944SOL    HW212732   5.907   3.558   5.757
 3945SOL     OW12733   1.027   2.383   3.512
 3945SOL    HW112734   1.065   2.363   3.421
 3945SOL    HW212735   1.101   2.402   3.576
 3946SOL     OW12736   0.487   3.654   6.752
 3946SOL    HW112737   0.563   3.647   6.816
 3946SOL    HW212738   0.447   3.746   6.757
 3947SOL     OW12739   5.576   4.952   0.465
 3947SOL    HW112740   5.526   4.914   0.544
 3947SOL    HW212741   5.664   4.988   0.496
 3948SOL     OW12742   1.650   3.739   6.604
 3948SOL    HW112743   1.644   3.663   6.668
 3948SOL    HW212744   1.683   3.821   6.651
 3949SOL     OW12745   6.322   6.863   3.794
 3949SOL    HW112746   6.337   6.931   3.866
 3949SOL    HW212747   6.403   6.860   3.735
 3950SOL     OW12748   4.226   4.148   1.727
 3950SOL    HW112749   4.311   4.156   1.778
 3950SOL    HW212750   4.198   4.239   1.695
 3951SOL     OW12751   0.229   1.369   6.461
 3951SOL    HW112752   0.284   1.440   6.417
 3951SOL    HW212753   0.284   1.320   6.528
 3952SOL     OW12754   6.145   3.348   4.290
 3952SOL    HW112755   6.050   3.315   4.293
 3952SOL    HW212756   6.195   3.301   4.217
 3953SOL     OW12757   3.581   4.164   5.976
 3953SOL    HW112758   3.558   4.156   5.879
 3953SOL    HW212759   3.561   4.257   6.008
 3954SOL     OW12760   5.898   4.980   5.735
 3954SOL    HW112761   5.917   4.988   5.637
 3954SOL    HW212762   5.918   5.067   5.780
 3955SOL     OW12763   4.906   6.341   6.919
 3955SOL    HW112764   4.827   6.369   6.865
 3955SOL    HW212765   4.939   6.252   6.888
 3956SOL     OW12766   0.589   2.625   5.245
 3956SOL    HW112767   0.603   2.633   5.146
 3956SOL    HW212768   0.591   2.716   5.286
 3957SOL     OW12769   3.318   6.077   3.121
 3957SOL    HW112770   3.318   6.001   3.186
 3957SOL    HW212771   3.389   6.062   3.052
 3958SOL     OW12772   6.257   6.266   6.846
 3958SOL    HW112773   6.196   6.210   6.901
 3958SOL    HW212774   6.336   6.211   6.817
 3959SOL     OW12775   3.329   6.469   1.379
 3959SOL    HW112776   3.404   6.528   1.351
 3959SOL    HW212777   3.330   6.385   1.324
 3960SOL     OW12778   5.503   2.577   5.937
 3960SOL    HW112779   5.532   2.568   6.033
 3960SOL    HW212780   5.422   2.520   5.922
 3961SOL     OW12781   4.946   1.902   1.441
 3961SOL    HW112782   4.858   1.873   1.403
 3961SOL    HW212783   4.942   2.000   1.462
 3962SOL     OW12784   0.365   5.940   0.010
 3962SOL    HW112785   0.273   5.905   0.029
 3962SOL    HW212786   0.427   5.863   7.015
 3963SOL     OW12787   5.847   5.062   3.660
 3963SOL    HW112788   5.916   5.105   3.719
 3963SOL    HW212789   5.890   4.991   3.604
 3964SOL     OW12790   4.513   5.813   5.231
 3964SOL    HW112791   4.609   5.784   5.228
 3964SOL    HW212792   4.506   5.909   5.203
 3965SOL     OW12793   3.677   4.991   5.801
 3965SOL    HW112794   3.627   4.904   5.808
 3965SOL    HW212795   3.616   5.066   5.824
 3966SOL     OW12796   6.917   4.860   0.227
 3966SOL    HW112797   6.910   4.925   0.152
 3966SOL    HW212798   7.013   4.833   0.239
 3967SOL     OW12799   1.003   4.796   2.995
 3967SOL    HW112800   0.990   4.786   2.896
 3967SOL    HW212801   1.026   4.707   3.034
 3968SOL     OW12802   5.824   0.455   1.482
 3968SOL    HW112803   5.858   0.361   1.471
 3968SOL    HW212804   5.866   0.496   1.563
 3969SOL     OW12805   0.960   4.385   2.814
 3969SOL    HW112806   0.902   4.438   2.876
 3969SOL    HW212807   0.994   4.445   2.741
 3970SOL     OW12808   5.132   5.433   3.662
 3970SOL    HW112809   5.203   5.430   3.733
 3970SOL    HW212810   5.175   5.441   3.572
 3971SOL     OW12811   3.290   5.407   2.541
 3971SOL    HW112812   3.262   5.358   2.459
 3971SOL    HW212813   3.224   5.479   2.562
 3972SOL     OW12814   0.742   5.995   0.845
 3972SOL    HW112815   0.788   5.929   0.785
 3972SOL    HW212816   0.692   6.061   0.790
 3973SOL     OW12817   3.167   3.458   5.058
 3973SOL    HW112818   3.178   3.401   4.976
 3973SOL    HW212819   3.131   3.402   5.133
 3974SOL     OW12820   0.620   0.779   6.064
 3974SOL    HW112821   0.550   0.827   6.011
 3974SOL    HW212822   0.669   0.844   6.121
 3975SOL     OW12823   6.179   0.018   5.923
 3975SOL    HW112824   6.229   0.091   5.970
 3975SOL    HW212825   6.083   0.044   5.913
 3976SOL     OW12826   1.025   5.137   1.022
 3976SOL    HW112827   1.032   5.220   0.967
 3976SOL    HW212828   0.943   5.141   1.078
 3977SOL     OW12829   3.030   5.206   6.279
 3977SOL    HW112830   3.006   5.234   6.186
 3977SOL    HW212831   3.014   5.108   6.289
 3978SOL     OW12832   5.081   0.079   4.529
 3978SOL    HW112833   5.145   0.124   4.467
 3978SOL    HW212834   5.066   0.135   4.610
 3979SOL     OW12835   2.366   6.134   1.855
 3979SOL    HW112836   2.268   6.149   1.864
 3979SOL    HW212837   2.389   6.117   1.759
 3980SOL     OW12838   0.161   3.928   6.286
 3980SOL    HW112839   0.112   4.002   6.242
 3980SOL    HW212840   0.230   3.966   6.348
 3981SOL     OW12841   1.115   1.847   6.118
 3981SOL    HW112842   1.153   1.917   6.057
 3981SOL    HW212843   1.028   1.814   6.081
 3982SOL     OW12844   2.851   0.741   3.773
 3982SOL    HW112845   2.884   0.812   3.712
 3982SOL    HW212846   2.786   0.780   3.838
 3983SOL     OW12847   3.339   6.001   4.071
 3983SOL    HW112848   3.362   5.953   4.156
 3983SOL    HW212849   3.373   6.095   4.076
 3984SOL     OW12850   2.692   0.650   1.689
 3984SOL    HW112851   2.707   0.748   1.674
 3984SOL    HW212852   2.595   0.629   1.678
 3985SOL     OW12853   2.330   4.489   6.624
 3985SOL    HW112854   2.331   4.395   6.659
 3985SOL    HW212855   2.268   4.494   6.546
 3986SOL     OW12856   0.167   1.886   3.523
 3986SOL    HW112857   0.150   1.956   3.454
 3986SOL    HW212858   0.246   1.832   3.496
 3987SOL     OW12859   1.329   5.084   5.037
 3987SOL    HW112860   1.240   5.109   5.077
 3987SOL    HW212861   1.319   5.001   4.981
 3988SOL     OW12862   3.403   2.289   5.624
 3988SOL    HW112863   3.387   2.268   5.527
 3988SOL    HW212864   3.357   2.221   5.681
 3989SOL     OW12865   5.816   0.641   6.029
 3989SOL    HW112866   5.731   0.694   6.027
 3989SOL    HW212867   5.821   0.583   5.948
 3990SOL     OW12868   5.739   1.821   4.031
 3990SOL    HW112869   5.737   1.766   4.114
 3990SOL    HW212870   5.797   1.901   4.046
 3991SOL     OW12871   6.508   2.624   3.561
 3991SOL    HW112872   6.465   2.574   3.635
 3991SOL    HW212873   6.519   2.720   3.586
 3992SOL     OW12874   4.674   2.874   6.608
 3992SOL    HW112875   4.593   2.919   6.646
 3992SOL    HW212876   4.652   2.779   6.587
 3993SOL     OW12877   2.174   1.825   3.676
 3993SOL    HW112878   2.214   1.855   3.589
 3993SOL    HW212879   2.220   1.740   3.705
 3994SOL     OW12880   1.891   2.471   4.643
 3994SOL    HW112881   1.841   2.531   4.580
 3994SOL    HW212882   1.862   2.490   4.737
 3995SOL     OW12883   2.264   4.564   3.848
 3995SOL    HW112884   2.208   4.536   3.925
 3995SOL    HW212885   2.328   4.491   3.824
 3996SOL     OW12886   1.666   1.078   4.790
 3996SOL    HW112887   1.711   0.989   4.799
 3996SOL    HW212888   1.572   1.065   4.759
 3997SOL     OW12889   5.010   3.629   3.586
 3997SOL    HW112890   4.974   3.633   3.679
 3997SOL    HW212891   4.938   3.654   3.521
 3998SOL     OW12892   5.454   2.437   1.975
 3998SOL    HW112893   5.457   2.337   1.969
 3998SOL    HW212894   5.443   2.465   2.070
 3999SOL     OW12895   5.934   3.388   3.364
 3999SOL    HW112896   5.951   3.478   3.324
 3999SOL    HW212897   5.925   3.396   3.463
 4000SOL     OW12898   3.485   5.406   2.749
 4000SOL    HW112899   3.408   5.400   2.686
 4000SOL    HW212900   3.471   5.343   2.825
 4001SOL     OW12901   2.220   2.740   5.075
 4001SOL    HW112902   2.156   2.746   5.152
 4001SOL    HW212903   2.253   2.832   5.052
 4002SOL     OW12904   3.839   4.067   5.517
 4002SOL    HW112905   3.829   4.143   5.453
 4002SOL    HW212906   3.835   3.980   5.467
 4003SOL     OW12907   1.839   1.138   5.872
 4003SOL    HW112908   1.788   1.080   5.935
 4003SOL    HW212909   1.911   1.186   5.922
 4004SOL     OW12910   5.807   3.002   4.570
 4004SOL    HW112911   5.876   3.065   4.605
 4004SOL    HW212912   5.851   2.920   4.534
 4005SOL     OW12913   5.075   4.452   1.070
 4005SOL    HW112914   5.097   4.365   1.024
 4005SOL    HW212915   5.136   4.465   1.148
 4006SOL     OW12916   4.767   4.748   2.386
 4006SOL    HW112917   4.729   4.818   2.448
 4006SOL    HW212918   4.833   4.692   2.436
 4007SOL     OW12919   0.669   2.750   2.309
 4007SOL    HW112920   0.578   2.780   2.282
 4007SOL    HW212921   0.719   2.827   2.349
 4008SOL     OW12922   3.241   1.449   5.986
 4008SOL    HW112923   3.317   1.496   5.942
 4008SOL    HW212924   3.272   1.361   6.022
 4009SOL     OW12925   3.963   2.468   0.873
 4009SOL    HW112926   3.905   2.544   0.845
 4009SOL    HW212927   3.934   2.385   0.825
 4010SOL     OW12928   2.571   3.110   1.661
 4010SOL    HW112929   2.603   3.199   1.694
 4010SOL    HW212930   2.480   3.092   1.699
 4011SOL     OW12931   0.312   6.749   2.079
 4011SOL    HW112932   0.220   6.756   2.039
 4011SOL    HW212933   0.366   6.828   2.050
 4012SOL     OW12934   4.303   6.042   2.250
 4012SOL    HW112935   4.251   5.960   2.224
 4012SOL    HW212936   4.355   6.024   2.334
 4013SOL     OW12937   2.896   0.504   1.280
 4013SOL    HW112938   2.909   0.531   1.185
 4013SOL    HW212939   2.837   0.570   1.325
 4014SOL     OW12940   3.764   5.658   4.170
 4014SOL    HW112941   3.673   5.683   4.137
 4014SOL    HW212942   3.815   5.614   4.095
 4015SOL     OW12943   4.233   4.276   6.697
 4015SOL    HW112944   4.149   4.322   6.670
 4015SOL    HW212945   4.219   4.228   6.784
 4016SOL     OW12946   2.295   5.768   0.082
 4016SOL    HW112947   2.355   5.714   0.142
 4016SOL    HW212948   2.214   5.796   0.134
 4017SOL     OW12949   0.638   6.816   6.222
 4017SOL    HW112950   0.712   6.753   6.245
 4017SOL    HW212951   0.557   6.793   6.276
 4018SOL     OW12952   4.942   6.520   0.643
 4018SOL    HW112953   4.854   6.515   0.596
 4018SOL    HW212954   5.007   6.571   0.587
 4019SOL     OW12955   6.022   3.851   3.008
 4019SOL    HW112956   5.964   3.857   3.090
 4019SOL    HW212957   5.968   3.815   2.932
 4020SOL     OW12958   0.384   3.047   5.950
 4020SOL    HW112959   0.390   3.070   6.048
 4020SOL    HW212960   0.292   3.070   5.917
 4021SOL     OW12961   3.065   4.186   5.239
 4021SOL    HW112962   3.072   4.201   5.140
 4021SOL    HW212963   3.156   4.167   5.277
 4022SOL     OW12964   4.475   6.900   6.861
 4022SOL    HW112965   4.534   6.890   6.941
 4022SOL    HW212966   4.508   6.840   6.788
 4023SOL     OW12967   0.022   0.861   3.997
 4023SOL    HW112968   0.058   0.801   4.068
 4023SOL    HW212969   0.013   0.810   3.911
 4024SOL     OW12970   2.070   5.709   4.166
 4024SOL    HW112971   2.123   5.751   4.240
 4024SOL    HW212972   2.122   5.632   4.128
 4025SOL     OW12973   1.150   6.440   3.764
 4025SOL    HW112974   1.224   6.495   3.802
 4025SOL    HW212975   1.074   6.499   3.739
 4026SOL     OW12976   6.281   6.970   3.068
 4026SOL    HW112977   6.270   6.908   2.990
 4026SOL    HW212978   6.196   6.970   3.122
 4027SOL     OW12979   2.715   2.495   0.452
 4027SOL    HW112980   2.732   2.542   0.539
 4027SOL    HW212981   2.682   2.403   0.470
 4028SOL     OW12982   3.386   1.730   3.241
 4028SOL    HW112983   3.472   1.698   3.202
 4028SOL    HW212984   3.364   1.676   3.322
 4029SOL     OW12985   3.319   4.859   5.641
 4029SOL    HW112986   3.232   4.907   5.653
 4029SOL    HW212987   3.347   4.819   5.728
 4030SOL     OW12988   0.403   1.718   1.910
 4030SOL    HW112989   0.366   1.694   1.820
 4030SOL    HW212990   0.342   1.685   1.981
 4031SOL     OW12991   5.136   5.978   3.365
 4031SOL    HW112992   5.073   5.902   3.352
 4031SOL    HW212993   5.173   6.006   3.276
 4032SOL     OW12994   6.030   0.269   2.258
 4032SOL    HW112995   5.964   0.253   2.331
 4032SOL    HW212996   6.119   0.291   2.297
 4033SOL     OW12997   2.393   3.438   1.398
 4033SOL    HW112998   2.357   3.350   1.368
 4033SOL    HW212999   2.323   3.509   1.386
 4034SOL     OW13000   6.652   1.432   4.357
 4034SOL    HW113001   6.614   1.376   4.431
 4034SOL    HW213002   6.710   1.503   4.397
 4035SOL     OW13003   6.477   2.432   0.693
 4035SOL    HW113004   6.491   2.433   0.594
 4035SOL    HW213005   6.492   2.523   0.730
 4036SOL     OW13006   4.439   5.701   2.339
 4036SOL    HW113007   4.494   5.666   2.415
 4036SOL    HW213008   4.486   5.682   2.253
 4037SOL     OW13009   2.535   1.607   0.614
 4037SOL    HW113010   2.555   1.561   0.527
 4037SOL    HW213011   2.515   1.540   0.684
 4038SOL     OW13012   4.665   3.264   1.675
 4038SOL    HW113013   4.624   3.191   1.730
 4038SOL    HW213014   4.643   3.250   1.579
 4039SOL     OW13015   5.626   4.673   1.473
 4039SOL    HW113016   5.701   4.724   1.431
 4039SOL    HW213017   5.613   4.587   1.425
 4040SOL     OW13018   3.533   6.900   5.926
 4040SOL    HW113019   3.549   6.998   5.923
 4040SOL    HW213020   3.460   6.880   5.992
 4041SOL     OW13021   1.101   4.990   1.490
 4041SOL    HW113022   1.031   4.930   1.529
 4041SOL    HW213023   1.192   4.959   1.517
 4042SOL     OW13024   5.908   5.950   3.362
 4042SOL    HW113025   5.915   5.866   3.416
 4042SOL    HW213026   5.975   5.948   3.288
 4043SOL     OW13027   5.824   1.440   4.331
 4043SOL    HW113028   5.808   1.412   4.425
 4043SOL    HW213029   5.918   1.417   4.304
 4044SOL     OW13030   4.771   7.014   3.586
 4044SOL    HW113031   4.762   0.092   3.571
 4044SOL    HW213032   4.681   6.971   3.576
 4045SOL     OW13033   2.982   5.580   5.240
 4045SOL    HW113034   2.935   5.589   5.152
 4045SOL    HW213035   2.967   5.662   5.295
 4046SOL     OW13036   1.511   1.894   4.185
 4046SOL    HW113037   1.529   1.798   4.164
 4046SOL    HW213038   1.594   1.948   4.166
 4047SOL     OW13039   2.314   2.337   0.637
 4047SOL    HW113040   2.272   2.409   0.581
 4047SOL    HW213041   2.334   2.373   0.728
 4048SOL     OW13042   5.457   1.938   1.743
 4048SOL    HW113043   5.493   2.012   1.687
 4048SOL    HW213044   5.360   1.924   1.723
 4049SOL     OW13045   6.036   5.132   6.400
 4049SOL    HW113046   5.998   5.167   6.315
 4049SOL    HW213047   5.962   5.118   6.466
 4050SOL     OW13048   1.322   0.090   1.457
 4050SOL    HW113049   1.403   0.090   1.399
 4050SOL    HW213050   1.333   0.020   1.528
 4051SOL     OW13051   3.825   2.016   6.799
 4051SOL    HW113052   3.807   2.109   6.831
 4051SOL    HW213053   3.877   2.019   6.714
 4052SOL     OW13054   6.738   1.500   3.017
 4052SOL    HW113055   6.779   1.590   3.009
 4052SOL    HW213056   6.648   1.507   3.060
 4053SOL     OW13057   2.981   5.603   3.977
 4053SOL    HW113058   2.999   5.695   4.011
 4053SOL    HW213059   2.883   5.582   3.987
 4054SOL     OW13060   6.136   3.721   1.691
 4054SOL    HW113061   6.091   3.636   1.662
 4054SOL    HW213062   6.084   3.799   1.657
 4055SOL     OW13063   3.420   3.015   6.699
 4055SOL    HW113064   3.384   2.933   6.655
 4055SOL    HW213065   3.345   3.078   6.720
 4056SOL     OW13066   3.588   3.630   0.735
 4056SOL    HW113067   3.607   3.547   0.788
 4056SOL    HW213068   3.490   3.638   0.720
 4057SOL     OW13069   5.954   2.897   1.534
 4057SOL    HW113070   5.903   2.952   1.469
 4057SOL    HW213071   5.896   2.874   1.612
 4058SOL     OW13072   1.632   0.345   4.240
 4058SOL    HW113073   1.664   0.306   4.326
 4058SOL    HW213074   1.672   0.294   4.163
 4059SOL     OW13075   1.693   2.155   3.395
 4059SOL    HW113076   1.667   2.067   3.357
 4059SOL    HW213077   1.653   2.165   3.486
 4060SOL     OW13078   5.660   5.973   4.497
 4060SOL    HW113079   5.725   6.047   4.519
 4060SOL    HW213080   5.673   5.897   4.561
 4061SOL     OW13081   2.932   4.774   2.085
 4061SOL    HW113082   3.003   4.790   2.016
 4061SOL    HW213083   2.871   4.701   2.053
 4062SOL     OW13084   2.071   2.274   1.959
 4062SOL    HW113085   1.984   2.238   1.926
 4062SOL    HW213086   2.145   2.210   1.936
 4063SOL     OW13087   6.260   5.795   5.953
 4063SOL    HW113088   6.265   5.697   5.975
 4063SOL    HW213089   6.274   5.807   5.854
 4064SOL     OW13090   2.326   6.977   3.836
 4064SOL    HW113091   2.309   0.054   3.816
 4064SOL    HW213092   2.282   6.920   3.767
 4065SOL     OW13093   0.309   0.206   1.389
 4065SOL    HW113094   0.373   0.157   1.331
 4065SOL    HW213095   0.234   0.241   1.334
 4066SOL     OW13096   5.716   5.319   3.688
 4066SOL    HW113097   5.715   5.222   3.713
 4066SOL    HW213098   5.669   5.332   3.601
 4067SOL     OW13099   6.660   3.495   3.349
 4067SOL    HW113100   6.573   3.463   3.311
 4067SOL    HW213101   6.691   3.431   3.420
 4068SOL     OW13102   2.836   0.949   4.668
 4068SOL    HW113103   2.874   0.940   4.576
 4068SOL    HW213104   2.766   0.879   4.682
 4069SOL     OW13105   2.662   5.144   6.044
 4069SOL    HW113106   2.611   5.227   6.022
 4069SOL    HW213107   2.654   5.079   5.968
 4070SOL     OW13108   0.200   3.289   2.096
 4070SOL    HW113109   0.139   3.243   2.032
 4070SOL    HW213110   0.218   3.229   2.174
 4071SOL     OW13111   1.166   0.501   5.541
 4071SOL    HW113112   1.190   0.591   5.505
 4071SOL    HW213113   1.176   0.500   5.640
 4072SOL     OW13114   0.025   6.137   4.164
 4072SOL    HW113115   0.008   6.044   4.129
 4072SOL    HW213116   0.119   6.142   4.198
 4073SOL     OW13117   2.650   6.098   6.677
 4073SOL    HW113118   2.663   6.171   6.610
 4073SOL    HW213119   2.603   6.021   6.635
 4074SOL     OW13120   6.826   3.008   1.603
 4074SOL    HW113121   6.759   3.053   1.662
 4074SOL    HW213122   6.916   3.011   1.646
 4075SOL     OW13123   3.632   1.714   1.996
 4075SOL    HW113124   3.584   1.630   1.972
 4075SOL    HW213125   3.569   1.792   1.988
 4076SOL     OW13126   2.746   3.081   5.604
 4076SOL    HW113127   2.674   3.060   5.538
 4076SOL    HW213128   2.835   3.075   5.560
 4077SOL     OW13129   3.315   0.996   0.721
 4077SOL    HW113130   3.329   1.042   0.634
 4077SOL    HW213131   3.403   0.976   0.763
 4078SOL     OW13132   0.006   5.857   2.328
 4078SOL    HW113133   0.098   5.896   2.334
 4078SOL    HW213134   6.964   5.924   2.289
 4079SOL     OW13135   1.663   2.192   3.920
 4079SOL    HW113136   1.649   2.291   3.914
 4079SOL    HW213137   1.670   2.165   4.016
 4080SOL     OW13138   3.212   4.228   6.788
 4080SOL    HW113139   3.193   4.321   6.818
 4080SOL    HW213140   3.234   4.228   6.690
 4081SOL     OW13141   2.328   2.165   4.487
 4081SOL    HW113142   2.250   2.196   4.541
 4081SOL    HW213143   2.380   2.097   4.538
 4082SOL     OW13144   1.325   2.948   0.623
 4082SOL    HW113145   1.412   2.911   0.654
 4082SOL    HW213146   1.335   2.986   0.531
 4083SOL     OW13147   6.611   4.578   1.825
 4083SOL    HW113148   6.693   4.620   1.787
 4083SOL    HW213149   6.627   4.481   1.842
 4084SOL     OW13150   4.341   2.380   3.759
 4084SOL    HW113151   4.342   2.397   3.660
 4084SOL    HW213152   4.391   2.296   3.778
 4085SOL     OW13153   2.276   6.357   0.876
 4085SOL    HW113154   2.293   6.397   0.786
 4085SOL    HW213155   2.360   6.359   0.929
 4086SOL     OW13156   0.710   5.085   1.708
 4086SOL    HW113157   0.643   5.106   1.780
 4086SOL    HW213158   0.787   5.035   1.748
 4087SOL     OW13159   1.426   1.490   3.402
 4087SOL    HW113160   1.455   1.555   3.472
 4087SOL    HW213161   1.377   1.538   3.330
 4088SOL     OW13162   5.920   0.883   6.696
 4088SOL    HW113163   5.921   0.981   6.714
 4088SOL    HW213164   5.826   0.852   6.681
 4089SOL     OW13165   5.635   4.988   3.994
 4089SOL    HW113166   5.661   5.081   4.019
 4089SOL    HW213167   5.555   4.960   4.047
 4090SOL     OW13168   1.361   5.382   5.374
 4090SOL    HW113169   1.441   5.349   5.325
 4090SOL    HW213170   1.334   5.471   5.337
 4091SOL     OW13171   0.102   6.534   6.809
 4091SOL    HW113172   0.197   6.541   6.838
 4091SOL    HW213173   0.097   6.538   6.710
 4092SOL     OW13174   5.785   2.615   4.352
 4092SOL    HW113175   5.832   2.556   4.287
 4092SOL    HW213176   5.781   2.708   4.315
 4093SOL     OW13177   4.492   5.742   2.063
 4093SOL    HW113178   4.394   5.732   2.044
 4093SOL    HW213179   4.525   5.825   2.018
 4094SOL     OW13180   1.985   5.339   5.454
 4094SOL    HW113181   1.989   5.379   5.545
 4094SOL    HW213182   1.890   5.322   5.429
 4095SOL     OW13183   0.582   4.006   0.608
 4095SOL    HW113184   0.650   3.971   0.672
 4095SOL    HW213185   0.614   3.993   0.515
 4096SOL     OW13186   4.751   0.653   6.225
 4096SOL    HW113187   4.695   0.586   6.273
 4096SOL    HW213188   4.735   0.744   6.264
 4097SOL     OW13189   3.889   4.943   5.014
 4097SOL    HW113190   3.951   5.019   4.994
 4097SOL    HW213191   3.810   4.946   4.953
 4098SOL     OW13192   6.644   2.574   1.498
 4098SOL    HW113193   6.588   2.516   1.557
 4098SOL    HW213194   6.701   2.634   1.555
 4099SOL     OW13195   3.515   4.800   1.358
 4099SOL    HW113196   3.488   4.882   1.409
 4099SOL    HW213197   3.434   4.757   1.318
 4100SOL     OW13198   7.006   6.889   4.675
 4100SOL    HW113199   6.962   6.962   4.623
 4100SOL    HW213200   0.060   6.849   4.621
 4101SOL     OW13201   6.341   1.412   6.594
 4101SOL    HW113202   6.375   1.335   6.539
 4101SOL    HW213203   6.241   1.411   6.592
 4102SOL     OW13204   0.616   1.077   0.367
 4102SOL    HW113205   0.534   1.031   0.402
 4102SOL    HW213206   0.680   1.010   0.332
 4103SOL     OW13207   6.976   6.823   0.202
 4103SOL    HW113208   6.908   6.897   0.208
 4103SOL    HW213209   6.971   6.780   0.112
 4104SOL     OW13210   6.542   4.950   3.026
 4104SOL    HW113211   6.566   5.003   2.945
 4104SOL    HW213212   6.529   4.854   3.000
 4105SOL     OW13213   5.278   0.265   1.794
 4105SOL    HW113214   5.309   0.171   1.787
 4105SOL    HW213215   5.327   0.322   1.729
 4106SOL     OW13216   6.604   3.258   2.963
 4106SOL    HW113217   6.516   3.304   2.976
 4106SOL    HW213218   6.661   3.313   2.902
 4107SOL     OW13219   1.187   5.419   0.975
 4107SOL    HW113220   1.264   5.431   1.038
 4107SOL    HW213221   1.111   5.476   1.004
 4108SOL     OW13222   6.083   5.153   5.325
 4108SOL    HW113223   6.020   5.104   5.385
 4108SOL    HW213224   6.031   5.200   5.253
 4109SOL     OW13225   6.250   6.821   4.361
 4109SOL    HW113226   6.234   6.744   4.422
 4109SOL    HW213227   6.257   6.789   4.267
 4110SOL     OW13228   4.375   3.651   5.889
 4110SOL    HW113229   4.416   3.640   5.979
 4110SOL    HW213230   4.422   3.725   5.840
 4111SOL     OW13231   5.501   3.600   7.005
 4111SOL    HW113232   5.594   3.571   0.008
 4111SOL    HW213233   5.505   3.673   6.938
 4112SOL     OW13234   5.418   6.129   4.486
 4112SOL    HW113235   5.452   6.206   4.541
 4112SOL    HW213236   5.438   6.044   4.534
 4113SOL     OW13237   5.189   6.382   4.876
 4113SOL    HW113238   5.199   6.448   4.802
 4113SOL    HW213239   5.108   6.326   4.859
 4114SOL     OW13240   3.769   2.079   4.269
 4114SOL    HW113241   3.807   2.143   4.336
 4114SOL    HW213242   3.673   2.060   4.290
 4115SOL     OW13243   3.398   5.202   2.029
 4115SOL    HW113244   3.461   5.156   1.967
 4115SOL    HW213245   3.305   5.192   1.995
 4116SOL     OW13246   3.776   1.829   2.513
 4116SOL    HW113247   3.680   1.846   2.492
 4116SOL    HW213248   3.827   1.818   2.427
 4117SOL     OW13249   1.468   3.457   2.361
 4117SOL    HW113250   1.536   3.485   2.294
 4117SOL    HW213251   1.398   3.529   2.370
 4118SOL     OW13252   4.587   5.395   0.428
 4118SOL    HW113253   4.535   5.405   0.513
 4118SOL    HW213254   4.532   5.346   0.360
 4119SOL     OW13255   3.632   1.728   4.224
 4119SOL    HW113256   3.721   1.752   4.264
 4119SOL    HW213257   3.564   1.797   4.251
 4120SOL     OW13258   3.756   0.521   6.338
 4120SOL    HW113259   3.845   0.493   6.375
 4120SOL    HW213260   3.683   0.478   6.390
 4121SOL     OW13261   6.051   0.407   4.467
 4121SOL    HW113262   5.997   0.332   4.429
 4121SOL    HW213263   6.147   0.395   4.443
 4122SOL     OW13264   0.846   6.203   4.170
 4122SOL    HW113265   0.896   6.118   4.151
 4122SOL    HW213266   0.883   6.276   4.113
 4123SOL     OW13267   4.197   4.748   5.226
 4123SOL    HW113268   4.123   4.761   5.159
 4123SOL    HW213269   4.257   4.674   5.194
 4124SOL     OW13270   0.178   6.348   0.534
 4124SOL    HW113271   0.122   6.274   0.498
 4124SOL    HW213272   0.136   6.436   0.512
 4125SOL     OW13273   4.867   1.711   1.900
 4125SOL    HW113274   4.884   1.680   1.806
 4125SOL    HW213275   4.954   1.713   1.950
 4126SOL     OW13276   1.834   3.469   3.646
 4126SOL    HW113277   1.850   3.511   3.557
 4126SOL    HW213278   1.762   3.399   3.638
 4127SOL     OW13279   5.285   4.591   5.249
 4127SOL    HW113280   5.315   4.522   5.314
 4127SOL    HW213281   5.228   4.659   5.295
 4128SOL     OW13282   0.920   3.055   1.945
 4128SOL    HW113283   0.851   2.983   1.944
 4128SOL    HW213284   0.963   3.061   1.855
 4129SOL     OW13285   3.740   0.808   6.714
 4129SOL    HW113286   3.749   0.808   6.614
 4129SOL    HW213287   3.811   0.866   6.754
 4130SOL     OW13288   6.570   3.234   0.247
 4130SOL    HW113289   6.558   3.137   0.230
 4130SOL    HW213290   6.584   3.249   0.345
 4131SOL     OW13291   0.339   1.689   3.904
 4131SOL    HW113292   0.240   1.687   3.912
 4131SOL    HW213293   0.366   1.736   3.820
 4132SOL     OW13294   4.807   4.373   3.515
 4132SOL    HW113295   4.877   4.441   3.494
 4132SOL    HW213296   4.792   4.314   3.435
 4133SOL     OW13297   3.035   5.606   0.862
 4133SOL    HW113298   3.102   5.568   0.926
 4133SOL    HW213299   3.027   5.704   0.878
 4134SOL     OW13300   2.690   4.043   0.889
 4134SOL    HW113301   2.663   3.989   0.968
 4134SOL    HW213302   2.681   3.988   0.806
 4135SOL     OW13303   0.922   1.805   2.761
 4135SOL    HW113304   0.923   1.754   2.675
 4135SOL    HW213305   0.934   1.742   2.837
 4136SOL     OW13306   1.314   2.887   3.477
 4136SOL    HW113307   1.374   2.966   3.461
 4136SOL    HW213308   1.327   2.853   3.570
 4137SOL     OW13309   1.218   3.865   1.257
 4137SOL    HW113310   1.297   3.812   1.287
 4137SOL    HW213311   1.191   3.929   1.329
 4138SOL     OW13312   4.441   5.937   2.465
 4138SOL    HW113313   4.481   5.920   2.555
 4138SOL    HW213314   4.428   5.850   2.418
 4139SOL     OW13315   2.308   1.643   5.650
 4139SOL    HW113316   2.350   1.578   5.586
 4139SOL    HW213317   2.225   1.602   5.688
 4140SOL     OW13318   3.079   0.112   5.319
 4140SOL    HW113319   3.000   0.080   5.373
 4140SOL    HW213320   3.072   0.210   5.305
 4141SOL     OW13321   5.209   6.473   0.710
 4141SOL    HW113322   5.256   6.498   0.794
 4141SOL    HW213323   5.256   6.514   0.632
 4142SOL     OW13324   6.701   4.610   0.949
 4142SOL    HW113325   6.789   4.657   0.962
 4142SOL    HW213326   6.717   4.511   0.947
 4143SOL     OW13327   5.432   1.887   0.754
 4143SOL    HW113328   5.360   1.848   0.812
 4143SOL    HW213329   5.440   1.985   0.772
 4144SOL     OW13330   5.192   2.356   0.174
 4144SOL    HW113331   5.224   2.326   0.264
 4144SOL    HW213332   5.100   2.394   0.183
 4145SOL     OW13333   0.092   6.724   1.901
 4145SOL    HW113334   0.097   6.624   1.902
 4145SOL    HW213335   0.061   6.754   1.811
 4146SOL     OW13336   6.494   0.387   2.866
 4146SOL    HW113337   6.560   0.447   2.912
 4146SOL    HW213338   6.542   0.318   2.812
 4147SOL     OW13339   4.802   4.456   5.980
 4147SOL    HW113340   4.824   4.516   5.903
 4147SOL    HW213341   4.833   4.499   6.065
 4148SOL     OW13342   1.135   0.756   4.674
 4148SOL    HW113343   1.143   0.713   4.764
 4148SOL    HW213344   1.167   0.851   4.679
 4149SOL     OW13345   0.147   3.443   0.992
 4149SOL    HW113346   0.191   3.392   0.918
 4149SOL    HW213347   0.048   3.441   0.980
 4150SOL     OW13348   0.910   0.145   5.650
 4150SOL    HW113349   0.956   0.177   5.567
 4150SOL    HW213350   0.813   0.132   5.631
 4151SOL     OW13351   3.117   6.339   5.544
 4151SOL    HW113352   3.200   6.300   5.583
 4151SOL    HW213353   3.049   6.351   5.616
 4152SOL     OW13354   4.572   5.798   0.487
 4152SOL    HW113355   4.638   5.869   0.464
 4152SOL    HW213356   4.552   5.743   0.406
 4153SOL     OW13357   5.424   5.263   6.993
 4153SOL    HW113358   5.392   5.355   7.019
 4153SOL    HW213359   5.406   5.248   6.896
 4154SOL     OW13360   0.058   5.266   3.340
 4154SOL    HW113361   0.151   5.255   3.375
 4154SOL    HW213362   0.017   5.348   3.380
 4155SOL     OW13363   1.154   1.347   2.554
 4155SOL    HW113364   1.128   1.431   2.507
 4155SOL    HW213365   1.248   1.323   2.530
 4156SOL     OW13366   5.727   5.930   4.922
 4156SOL    HW113367   5.640   5.882   4.934
 4156SOL    HW213368   5.785   5.915   5.002
 4157SOL     OW13369   4.755   5.329   3.831
 4157SOL    HW113370   4.806   5.395   3.776
 4157SOL    HW213371   4.816   5.254   3.857
 4158SOL     OW13372   6.961   3.734   1.519
 4158SOL    HW113373   6.925   3.795   1.590
 4158SOL    HW213374   0.034   3.705   1.543
 4159SOL     OW13375   2.083   3.788   3.552
 4159SOL    HW113376   2.052   3.743   3.468
 4159SOL    HW213377   2.060   3.731   3.631
 4160SOL     OW13378   6.066   0.792   0.674
 4160SOL    HW113379   6.098   0.833   0.760
 4160SOL    HW213380   5.976   0.831   0.651
 4161SOL     OW13381   1.209   1.510   1.072
 4161SOL    HW113382   1.164   1.471   1.152
 4161SOL    HW213383   1.160   1.482   0.989
 4162SOL     OW13384   0.068   5.850   6.695
 4162SOL    HW113385   7.016   5.907   6.655
 4162SOL    HW213386   0.045   5.754   6.683
 4163SOL     OW13387   4.623   6.647   3.307
 4163SOL    HW113388   4.621   6.662   3.405
 4163SOL    HW213389   4.717   6.627   3.278
 4164SOL     OW13390   1.643   6.614   5.993
 4164SOL    HW113391   1.738   6.583   5.995
 4164SOL    HW213392   1.589   6.553   5.935
 4165SOL     OW13393   4.129   0.089   5.901
 4165SOL    HW113394   4.150   0.187   5.903
 4165SOL    HW213395   4.137   0.052   5.994
 4166SOL     OW13396   5.895   2.627   0.659
 4166SOL    HW113397   5.834   2.636   0.581
 4166SOL    HW213398   5.975   2.687   0.646
 4167SOL     OW13399   1.720   4.083   0.957
 4167SOL    HW113400   1.736   4.120   1.048
 4167SOL    HW213401   1.691   3.987   0.964
 4168SOL     OW13402   6.552   4.352   1.440
 4168SOL    HW113403   6.499   4.407   1.505
 4168SOL    HW213404   6.584   4.269   1.486
 4169SOL     OW13405   5.871   4.394   4.786
 4169SOL    HW113406   5.811   4.469   4.815
 4169SOL    HW213407   5.819   4.308   4.786
 4170SOL     OW13408   4.455   4.160   5.976
 4170SOL    HW113409   4.408   4.181   6.062
 4170SOL    HW213410   4.393   4.111   5.914
 4171SOL     OW13411   6.642   5.971   0.739
 4171SOL    HW113412   6.565   6.031   0.763
 4171SOL    HW213413   6.649   5.963   0.640
 4172SOL     OW13414   1.042   2.260   5.657
 4172SOL    HW113415   1.055   2.214   5.569
 4172SOL    HW213416   0.944   2.266   5.677
 4173SOL     OW13417   5.360   3.886   5.386
 4173SOL    HW113418   5.303   3.905   5.466
 4173SOL    HW213419   5.455   3.873   5.416
 4174SOL     OW13420   5.738   0.235   3.284
 4174SOL    HW113421   5.668   0.297   3.318
 4174SOL    HW213422   5.711   0.201   3.194
 4175SOL     OW13423   1.922   5.907   3.996
 4175SOL    HW113424   1.836   5.937   4.038
 4175SOL    HW213425   1.969   5.845   4.059
 4176SOL     OW13426   3.110   5.900   2.147
 4176SOL    HW113427   3.011   5.894   2.139
 4176SOL    HW213428   3.136   5.990   2.181
 4177SOL     OW13429   6.510   4.402   5.272
 4177SOL    HW113430   6.565   4.370   5.195
 4177SOL    HW213431   6.571   4.434   5.345
 4178SOL     OW13432   4.867   0.507   3.695
 4178SOL    HW113433   4.907   0.597   3.713
 4178SOL    HW213434   4.869   0.452   3.779
 4179SOL     OW13435   4.727   2.731   3.704
 4179SOL    HW113436   4.706   2.743   3.607
 4179SOL    HW213437   4.719   2.634   3.728
 4180SOL     OW13438   5.800   4.597   0.902
 4180SOL    HW113439   5.723   4.534   0.905
 4180SOL    HW213440   5.841   4.605   0.993
 4181SOL     OW13441   2.597   1.471   0.851
 4181SOL    HW113442   2.544   1.548   0.888
 4181SOL    HW213443   2.551   1.385   0.874
 4182SOL     OW13444   0.873   6.784   3.357
 4182SOL    HW113445   0.968   6.776   3.327
 4182SOL    HW213446   0.829   6.695   3.354
 4183SOL     OW13447   3.444   1.222   0.359
 4183SOL    HW113448   3.514   1.155   0.381
 4183SOL    HW213449   3.463   1.263   0.269
 4184SOL     OW13450   4.642   5.325   1.477
 4184SOL    HW113451   4.634   5.260   1.401
 4184SOL    HW213452   4.565   5.388   1.475
 4185SOL     OW13453   0.301   5.341   2.472
 4185SOL    HW113454   0.217   5.325   2.421
 4185SOL    HW213455   0.293   5.300   2.563
 4186SOL     OW13456   2.154   5.191   0.037
 4186SOL    HW113457   2.188   5.274   0.081
 4186SOL    HW213458   2.186   5.190   6.962
 4187SOL     OW13459   3.434   3.434   5.356
 4187SOL    HW113460   3.354   3.493   5.352
 4187SOL    HW213461   3.423   3.358   5.291
 4188SOL     OW13462   4.655   6.682   4.649
 4188SOL    HW113463   4.595   6.603   4.635
 4188SOL    HW213464   4.698   6.708   4.563
 4189SOL     OW13465   3.224   5.712   5.369
 4189SOL    HW113466   3.149   5.772   5.395
 4189SOL    HW213467   3.188   5.631   5.324
 4190SOL     OW13468   0.871   0.876   0.171
 4190SOL    HW113469   0.928   0.939   0.224
 4190SOL    HW213470   0.875   0.785   0.212
 4191SOL     OW13471   4.943   3.715   3.302
 4191SOL    HW113472   4.944   3.655   3.222
 4191SOL    HW213473   4.933   3.810   3.273
 4192SOL     OW13474   0.829   1.223   4.489
 4192SOL    HW113475   0.817   1.262   4.397
 4192SOL    HW213476   0.763   1.266   4.551
 4193SOL     OW13477   1.418   0.694   2.029
 4193SOL    HW113478   1.357   0.761   2.072
 4193SOL    HW213479   1.383   0.672   1.938
 4194SOL     OW13480   5.552   0.514   4.982
 4194SOL    HW113481   5.572   0.542   4.888
 4194SOL    HW213482   5.606   0.571   5.045
 4195SOL     OW13483   3.854   6.218   1.584
 4195SOL    HW113484   3.841   6.301   1.531
 4195SOL    HW213485   3.766   6.185   1.617
 4196SOL     OW13486   5.739   1.890   3.195
 4196SOL    HW113487   5.755   1.826   3.270
 4196SOL    HW213488   5.646   1.926   3.200
 4197SOL     OW13489   5.036   5.692   6.192
 4197SOL    HW113490   4.964   5.742   6.239
 4197SOL    HW213491   5.061   5.739   6.107
 4198SOL     OW13492   5.642   2.505   0.146
 4198SOL    HW113493   5.624   2.517   0.243
 4198SOL    HW213494   5.704   2.577   0.114
 4199SOL     OW13495   2.216   3.108   5.742
 4199SOL    HW113496   2.235   3.043   5.668
 4199SOL    HW213497   2.272   3.084   5.822
 4200SOL     OW13498   3.767   6.455   5.837
 4200SOL    HW113499   3.706   6.495   5.904
 4200SOL    HW213500   3.734   6.364   5.811
 4201SOL     OW13501   5.997   6.360   3.750
 4201SOL    HW113502   5.997   6.267   3.712
 4201SOL    HW213503   5.917   6.372   3.808
 4202SOL     OW13504   4.091   4.999   5.981
 4202SOL    HW113505   4.094   4.982   6.079
 4202SOL    HW213506   4.028   4.935   5.938
 4203SOL     OW13507   4.990   4.915   0.379
 4203SOL    HW113508   4.954   4.990   0.325
 4203SOL    HW213509   5.073   4.880   0.337
 4204SOL     OW13510   4.059   3.606   2.648
 4204SOL    HW113511   4.022   3.671   2.581
 4204SOL    HW213512   4.089   3.523   2.601
 4205SOL     OW13513   3.581   5.846   3.552
 4205SOL    HW113514   3.529   5.902   3.616
 4205SOL    HW213515   3.596   5.755   3.590
 4206SOL     OW13516   6.709   0.006   6.585
 4206SOL    HW113517   6.787   7.016   6.647
 4206SOL    HW213518   6.630   6.981   6.625
 4207SOL     OW13519   1.462   1.543   1.328
 4207SOL    HW113520   1.519   1.575   1.253
 4207SOL    HW213521   1.384   1.605   1.340
 4208SOL     OW13522   0.784   3.885   6.007
 4208SOL    HW113523   0.738   3.851   5.925
 4208SOL    HW213524   0.726   3.952   6.053
 4209SOL     OW13525   0.115   0.896   5.391
 4209SOL    HW113526   0.210   0.871   5.408
 4209SOL    HW213527   0.110   0.990   5.358
 4210SOL     OW13528   3.088   3.164   2.820
 4210SOL    HW113529   3.099   3.139   2.723
 4210SOL    HW213530   3.039   3.251   2.826
 4211SOL     OW13531   3.995   5.362   5.819
 4211SOL    HW113532   4.087   5.391   5.846
 4211SOL    HW213533   3.938   5.350   5.900
 4212SOL     OW13534   5.943   2.031   2.835
 4212SOL    HW113535   6.008   1.955   2.824
 4212SOL    HW213536   5.891   2.042   2.750
 4213SOL     OW13537   2.311   1.072   1.250
 4213SOL    HW113538   2.331   1.156   1.201
 4213SOL    HW213539   2.219   1.041   1.227
 4214SOL     OW13540   1.871   4.706   5.392
 4214SOL    HW113541   1.806   4.632   5.381
 4214SOL    HW213542   1.963   4.668   5.402
 4215SOL     OW13543   6.864   6.206   4.934
 4215SOL    HW113544   6.885   6.244   4.843
 4215SOL    HW213545   6.939   6.227   4.997
 4216SOL     OW13546   1.064   1.962   3.042
 4216SOL    HW113547   1.149   1.992   2.999
 4216SOL    HW213548   1.043   1.868   3.012
 4217SOL     OW13549   0.746   0.743   2.756
 4217SOL    HW113550   0.691   0.805   2.812
 4217SOL    HW213551   0.757   0.656   2.804
 4218SOL     OW13552   4.541   1.061   1.816
 4218SOL    HW113553   4.498   1.109   1.739
 4218SOL    HW213554   4.543   0.963   1.796
 4219SOL     OW13555   2.569   5.276   3.324
 4219SOL    HW113556   2.525   5.214   3.390
 4219SOL    HW213557   2.668   5.272   3.337
 4220SOL     OW13558   5.532   2.724   3.556
 4220SOL    HW113559   5.482   2.639   3.541
 4220SOL    HW213560   5.508   2.790   3.485
 4221SOL     OW13561   6.199   5.336   6.719
 4221SOL    HW113562   6.221   5.252   6.769
 4221SOL    HW213563   6.101   5.338   6.699
 4222SOL     OW13564   5.935   1.361   3.199
 4222SOL    HW113565   5.888   1.342   3.285
 4222SOL    HW213566   5.891   1.439   3.154
 4223SOL     OW13567   3.493   3.912   6.020
 4223SOL    HW113568   3.511   4.009   6.031
 4223SOL    HW213569   3.396   3.898   5.996
 4224SOL     OW13570   4.900   3.333   3.554
 4224SOL    HW113571   4.834   3.304   3.623
 4224SOL    HW213572   4.961   3.401   3.593
 4225SOL     OW13573   3.744   1.018   6.096
 4225SOL    HW113574   3.817   1.026   6.164
 4225SOL    HW213575   3.692   1.104   6.093
 4226SOL     OW13576   0.992   0.499   2.355
 4226SOL    HW113577   0.930   0.558   2.406
 4226SOL    HW213578   1.087   0.522   2.377
 4227SOL     OW13579   4.042   4.530   6.880
 4227SOL    HW113580   3.943   4.520   6.872
 4227SOL    HW213581   4.072   4.497   6.969
 4228SOL     OW13582   0.589   3.592   4.538
 4228SOL    HW113583   0.512   3.538   4.572
 4228SOL    HW213584   0.652   3.533   4.488
 4229SOL     OW13585   4.724   5.141   5.381
 4229SOL    HW113586   4.636   5.117   5.422
 4229SOL    HW213587   4.708   5.205   5.306
 4230SOL     OW13588   1.466   0.517   4.103
 4230SOL    HW113589   1.384   0.463   4.084
 4230SOL    HW213590   1.523   0.469   4.170
 4231SOL     OW13591   5.874   6.254   5.159
 4231SOL    HW113592   5.944   6.235   5.091
 4231SOL    HW213593   5.790   6.283   5.113
 4232SOL     OW13594   6.839   4.653   2.776
 4232SOL    HW113595   6.923   4.655   2.722
 4232SOL    HW213596   6.852   4.706   2.860
 4233SOL     OW13597   6.626   0.246   0.161
 4233SOL    HW113598   6.663   0.312   0.227
 4233SOL    HW213599   6.555   0.290   0.106
 4234SOL     OW13600   2.134   0.034   5.846
 4234SOL    HW113601   2.062   0.028   5.915
 4234SOL    HW213602   2.094   0.024   5.755
 4235SOL     OW13603   5.342   3.669   5.859
 4235SOL    HW113604   5.285   3.678   5.941
 4235SOL    HW213605   5.287   3.632   5.784
 4236SOL     OW13606   0.456   3.939   3.218
 4236SOL    HW113607   0.426   3.992   3.139
 4236SOL    HW213608   0.551   3.961   3.239
 4237SOL     OW13609   6.305   5.240   2.941
 4237SOL    HW113610   6.234   5.199   2.998
 4237SOL    HW213611   6.371   5.170   2.915
 4238SOL     OW13612   3.087   4.946   2.636
 4238SOL    HW113613   3.087   5.045   2.646
 4238SOL    HW213614   2.997   4.916   2.605
 4239SOL     OW13615   5.377   1.621   3.366
 4239SOL    HW113616   5.325   1.646   3.285
 4239SOL    HW213617   5.389   1.701   3.425
 4240SOL     OW13618   2.288   0.498   0.428
 4240SOL    HW113619   2.377   0.465   0.459
 4240SOL    HW213620   2.258   0.443   0.350
 4241SOL     OW13621   5.960   0.248   1.035
 4241SOL    HW113622   5.996   0.263   0.943
 4241SOL    HW213623   5.863   0.271   1.037
 4242SOL     OW13624   1.993   0.605   3.258
 4242SOL    HW113625   1.906   0.616   3.211
 4242SOL    HW213626   1.977   0.608   3.357
 4243SOL     OW13627   5.818   4.023   3.504
 4243SOL    HW113628   5.865   3.936   3.520
 4243SOL    HW213629   5.848   4.090   3.573
 4244SOL     OW13630   5.167   4.537   1.723
 4244SOL    HW113631   5.175   4.441   1.751
 4244SOL    HW213632   5.202   4.596   1.796
 4245SOL     OW13633   6.272   1.048   6.139
 4245SOL    HW113634   6.173   1.048   6.134
 4245SOL    HW213635   6.302   0.982   6.209
 4246SOL     OW13636   5.979   3.192   2.821
 4246SOL    HW113637   5.938   3.202   2.912
 4246SOL    HW213638   5.963   3.100   2.786
 4247SOL     OW13639   2.288   4.750   3.017
 4247SOL    HW113640   2.356   4.690   3.060
 4247SOL    HW213641   2.333   4.828   2.975
 4248SOL     OW13642   1.920   1.430   3.663
 4248SOL    HW113643   1.993   1.422   3.732
 4248SOL    HW213644   1.835   1.459   3.707
 4249SOL     OW13645   5.114   1.596   3.777
 4249SOL    HW113646   5.064   1.538   3.713
 4249SOL    HW213647   5.059   1.610   3.859
 4250SOL     OW13648   6.604   6.075   4.089
 4250SOL    HW113649   6.675   6.123   4.038
 4250SOL    HW213650   6.518   6.080   4.040
 4251SOL     OW13651   5.759   3.373   1.305
 4251SOL    HW113652   5.754   3.461   1.353
 4251SOL    HW213653   5.718   3.383   1.214
 4252SOL     OW13654   6.713   6.470   6.422
 4252SOL    HW113655   6.784   6.414   6.380
 4252SOL    HW213656   6.652   6.413   6.476
 4253SOL     OW13657   3.301   6.745   0.918
 4253SOL    HW113658   3.239   6.689   0.974
 4253SOL    HW213659   3.262   6.837   0.907
 4254SOL     OW13660   1.553   3.189   2.016
 4254SOL    HW113661   1.650   3.196   2.040
 4254SOL    HW213662   1.497   3.206   2.097
 4255SOL     OW13663   6.992   4.538   4.048
 4255SOL    HW113664   6.988   4.479   4.129
 4255SOL    HW213665   7.005   4.633   4.077
 4256SOL     OW13666   1.453   6.356   0.884
 4256SOL    HW113667   1.529   6.379   0.944
 4256SOL    HW213668   1.444   6.426   0.813
 4257SOL     OW13669   3.854   1.133   4.250
 4257SOL    HW113670   3.794   1.196   4.201
 4257SOL    HW213671   3.883   1.060   4.188
 4258SOL     OW13672   3.520   5.655   1.314
 4258SOL    HW113673   3.555   5.711   1.389
 4258SOL    HW213674   3.433   5.693   1.282
 4259SOL     OW13675   1.493   0.377   1.139
 4259SOL    HW113676   1.533   0.286   1.156
 4259SOL    HW213677   1.562   0.435   1.096
 4260SOL     OW13678   5.457   0.207   2.618
 4260SOL    HW113679   5.523   0.282   2.630
 4260SOL    HW213680   5.410   0.191   2.705
 4261SOL     OW13681   2.075   1.118   2.577
 4261SOL    HW113682   2.159   1.067   2.593
 4261SOL    HW213683   2.000   1.055   2.556
 4262SOL     OW13684   0.629   4.096   6.734
 4262SOL    HW113685   0.569   4.083   6.813
 4262SOL    HW213686   0.648   4.193   6.722
 4263SOL     OW13687   2.715   0.816   3.220
 4263SOL    HW113688   2.637   0.783   3.273
 4263SOL    HW213689   2.687   0.894   3.164
 4264SOL     OW13690   6.132   2.022   4.378
 4264SOL    HW113691   6.206   2.053   4.437
 4264SOL    HW213692   6.160   1.938   4.331
 4265SOL     OW13693   3.712   1.222   0.308
 4265SOL    HW113694   3.792   1.182   0.264
 4265SOL    HW213695   3.711   1.321   0.292
 4266SOL     OW13696   1.636   6.624   6.269
 4266SOL    HW113697   1.625   6.645   6.172
 4266SOL    HW213698   1.631   6.525   6.283
 4267SOL     OW13699   2.208   3.891   4.140
 4267SOL    HW113700   2.200   3.886   4.041
 4267SOL    HW213701   2.233   3.985   4.167
 4268SOL     OW13702   1.244   5.593   6.470
 4268SOL    HW113703   1.166   5.580   6.408
 4268SOL    HW213704   1.240   5.684   6.511
 4269SOL     OW13705   3.073   0.358   2.745
 4269SOL    HW113706   3.087   0.291   2.673
 4269SOL    HW213707   2.993   0.331   2.800
 4270SOL     OW13708   4.143   3.530   2.902
 4270SOL    HW113709   4.140   3.582   2.816
 4270SOL    HW213710   4.102   3.441   2.888
 4271SOL     OW13711   6.543   0.824   0.165
 4271SOL    HW113712   6.524   0.746   0.107
 4271SOL    HW213713   6.472   0.893   0.154
 4272SOL     OW13714   6.567   2.016   4.509
 4272SOL    HW113715   6.575   1.945   4.439
 4272SOL    HW213716   6.478   2.009   4.554
 4273SOL     OW13717   4.328   6.800   4.929
 4273SOL    HW113718   4.243   6.752   4.910
 4273SOL    HW213719   4.388   6.741   4.983
 4274SOL     OW13720   1.826   0.284   1.027
 4274SOL    HW113721   1.843   0.336   1.111
 4274SOL    HW213722   1.841   0.187   1.044
 4275SOL     OW13723   6.523   2.185   4.071
 4275SOL    HW113724   6.434   2.228   4.083
 4275SOL    HW213725   6.595   2.253   4.086
 4276SOL     OW13726   2.382   4.972   3.677
 4276SOL    HW113727   2.467   4.980   3.729
 4276SOL    HW213728   2.365   4.876   3.655
 4277SOL     OW13729   6.650   4.859   3.330
 4277SOL    HW113730   6.639   4.882   3.234
 4277SOL    HW213731   6.724   4.792   3.340
 4278SOL     OW13732   0.444   6.839   4.578
 4278SOL    HW113733   0.460   6.931   4.613
 4278SOL    HW213734   0.433   6.775   4.654
 4279SOL     OW13735   3.277   1.003   3.578
 4279SOL    HW113736   3.235   1.055   3.503
 4279SOL    HW213737   3.339   0.934   3.540
 4280SOL     OW13738   5.521   6.887   5.642
 4280SOL    HW113739   5.449   6.897   5.573
 4280SOL    HW213740   5.522   6.968   5.701
 4281SOL     OW13741   6.672   4.560   3.026
 4281SOL    HW113742   6.587   4.609   3.006
 4281SOL    HW213743   6.746   4.625   3.040
 4282SOL     OW13744   3.466   4.348   0.229
 4282SOL    HW113745   3.513   4.407   0.295
 4282SOL    HW213746   3.420   4.274   0.277
 4283SOL     OW13747   2.195   0.753   3.384
 4283SOL    HW113748   2.179   0.851   3.387
 4283SOL    HW213749   2.121   0.708   3.333
 4284SOL     OW13750   3.957   3.963   1.220
 4284SOL    HW113751   3.890   3.899   1.181
 4284SOL    HW213752   3.913   4.019   1.290
 4285SOL     OW13753   2.211   0.761   5.541
 4285SOL    HW113754   2.201   0.860   5.534
 4285SOL    HW213755   2.241   0.725   5.452
 4286SOL     OW13756   5.785   6.609   6.171
 4286SOL    HW113757   5.853   6.669   6.214
 4286SOL    HW213758   5.791   6.518   6.211
 4287SOL     OW13759   4.933   0.747   6.010
 4287SOL    HW113760   4.860   0.715   6.070
 4287SOL    HW213761   4.912   0.719   5.916
 4288SOL     OW13762   0.853   5.333   3.186
 4288SOL    HW113763   0.926   5.388   3.145
 4288SOL    HW213764   0.862   5.238   3.154
 4289SOL     OW13765   6.774   2.956   5.968
 4289SOL    HW113766   6.859   2.932   5.923
 4289SOL    HW213767   6.760   3.055   5.963
 4290SOL     OW13768   1.449   6.708   4.153
 4290SOL    HW113769   1.515   6.635   4.137
 4290SOL    HW213770   1.478   6.790   4.104
 4291SOL     OW13771   4.654   3.675   6.978
 4291SOL    HW113772   4.663   3.752   6.915
 4291SOL    HW213773   4.649   3.590   6.926
 4292SOL     OW13774   6.259   2.735   0.183
 4292SOL    HW113775   6.222   2.658   0.235
 4292SOL    HW213776   6.250   2.717   0.085
 4293SOL     OW13777   2.761   3.067   6.916
 4293SOL    HW113778   2.806   3.155   6.927
 4293SOL    HW213779   2.825   2.993   6.938
 4294SOL     OW13780   2.223   2.145   6.495
 4294SOL    HW113781   2.305   2.090   6.513
 4294SOL    HW213782   2.179   2.169   6.581
 4295SOL     OW13783   4.027   5.981   4.957
 4295SOL    HW113784   4.067   5.892   4.935
 4295SOL    HW213785   3.961   5.971   5.032
 4296SOL     OW13786   3.508   0.010   0.353
 4296SOL    HW113787   3.458   0.052   0.428
 4296SOL    HW213788   3.514   6.931   0.368
 4297SOL     OW13789   6.308   0.076   1.316
 4297SOL    HW113790   6.230   0.045   1.371
 4297SOL    HW213791   6.286   0.164   1.274
 4298SOL     OW13792   4.311   5.628   0.888
 4298SOL    HW113793   4.400   5.651   0.849
 4298SOL    HW213794   4.254   5.711   0.890
 4299SOL     OW13795   1.811   3.335   6.600
 4299SOL    HW113796   1.806   3.331   6.699
 4299SOL    HW213797   1.746   3.271   6.560
 4300SOL     OW13798   2.562   0.039   0.382
 4300SOL    HW113799   2.547   0.120   0.326
 4300SOL    HW213800   2.495   6.989   0.358
 4301SOL     OW13801   4.689   0.051   1.444
 4301SOL    HW113802   4.620   0.084   1.380
 4301SOL    HW213803   4.706   0.120   1.515
 4302SOL     OW13804   6.780   6.845   5.994
 4302SOL    HW113805   6.724   6.855   5.912
 4302SOL    HW213806   6.751   6.912   6.062
 4303SOL     OW13807   6.812   4.869   4.622
 4303SOL    HW113808   6.850   4.876   4.530
 4303SOL    HW213809   6.792   4.961   4.657
 4304SOL     OW13810   3.325   2.961   2.579
 4304SOL    HW113811   3.392   2.910   2.526
 4304SOL    HW213812   3.356   2.971   2.673
 4305SOL     OW13813   1.047   6.884   5.446
 4305SOL    HW113814   1.115   6.826   5.400
 4305SOL    HW213815   1.063   6.883   5.544
 4306SOL     OW13816   4.169   5.192   4.532
 4306SOL    HW113817   4.095   5.193   4.464
 4306SOL    HW213818   4.151   5.263   4.600
 4307SOL     OW13819   6.614   4.130   5.699
 4307SOL    HW113820   6.603   4.035   5.728
 4307SOL    HW213821   6.710   4.147   5.676
 4308SOL     OW13822   6.380   5.216   1.385
 4308SOL    HW113823   6.418   5.260   1.466
 4308SOL    HW213824   6.315   5.145   1.413
 4309SOL     OW13825   1.069   1.403   1.305
 4309SOL    HW113826   1.148   1.350   1.337
 4309SOL    HW213827   0.994   1.341   1.284
 4310SOL     OW13828   1.614   2.528   1.706
 4310SOL    HW113829   1.604   2.461   1.780
 4310SOL    HW213830   1.549   2.506   1.633
 4311SOL     OW13831   1.209   6.317   2.537
 4311SOL    HW113832   1.268   6.333   2.617
 4311SOL    HW213833   1.238   6.377   2.462
 4312SOL     OW13834   1.287   6.270   1.718
 4312SOL    HW113835   1.232   6.282   1.800
 4312SOL    HW213836   1.308   6.359   1.678
 4313SOL     OW13837   4.967   1.894   0.534
 4313SOL    HW113838   4.955   1.950   0.616
 4313SOL    HW213839   4.887   1.905   0.474
 4314SOL     OW13840   5.511   1.389   4.939
 4314SOL    HW113841   5.567   1.321   4.892
 4314SOL    HW213842   5.509   1.369   5.037
 4315SOL     OW13843   2.424   0.232   3.622
 4315SOL    HW113844   2.509   0.255   3.668
 4315SOL    HW213845   2.408   0.295   3.546
 4316SOL     OW13846   5.170   1.045   1.833
 4316SOL    HW113847   5.228   1.124   1.854
 4316SOL    HW213848   5.086   1.077   1.789
 4317SOL     OW13849   5.346   2.262   5.377
 4317SOL    HW113850   5.392   2.344   5.342
 4317SOL    HW213851   5.300   2.215   5.302
 4318SOL     OW13852   0.647   2.217   4.961
 4318SOL    HW113853   0.583   2.273   4.908
 4318SOL    HW213854   0.602   2.134   4.991
 4319SOL     OW13855   1.768   1.464   1.048
 4319SOL    HW113856   1.859   1.456   1.089
 4319SOL    HW213857   1.738   1.374   1.015
 4320SOL     OW13858   4.168   5.073   0.851
 4320SOL    HW113859   4.228   5.152   0.858
 4320SOL    HW213860   4.081   5.094   0.895
 4321SOL     OW13861   0.343   5.350   5.212
 4321SOL    HW113862   0.264   5.411   5.201
 4321SOL    HW213863   0.317   5.272   5.268
 4322SOL     OW13864   6.356   2.655   6.949
 4322SOL    HW113865   6.312   2.582   6.897
 4322SOL    HW213866   6.455   2.642   6.948
 4323SOL     OW13867   4.571   3.910   0.367
 4323SOL    HW113868   4.479   3.925   0.403
 4323SOL    HW213869   4.565   3.893   0.268
 4324SOL     OW13870   5.885   4.257   6.087
 4324SOL    HW113871   5.838   4.252   5.999
 4324SOL    HW213872   5.977   4.294   6.074
 4325SOL     OW13873   3.206   1.486   2.064
 4325SOL    HW113874   3.221   1.552   1.990
 4325SOL    HW213875   3.227   1.394   2.031
 4326SOL     OW13876   4.906   4.585   2.525
 4326SOL    HW113877   4.874   4.498   2.562
 4326SOL    HW213878   4.968   4.628   2.590
 4327SOL     OW13879   5.574   5.925   1.899
 4327SOL    HW113880   5.532   5.961   1.815
 4327SOL    HW213881   5.595   5.828   1.886
 4328SOL     OW13882   4.828   4.566   5.723
 4328SOL    HW113883   4.825   4.486   5.664
 4328SOL    HW213884   4.739   4.613   5.722
 4329SOL     OW13885   4.781   2.579   5.664
 4329SOL    HW113886   4.746   2.588   5.757
 4329SOL    HW213887   4.872   2.620   5.659
 4330SOL     OW13888   1.506   6.371   4.874
 4330SOL    HW113889   1.605   6.364   4.865
 4330SOL    HW213890   1.464   6.284   4.848
 4331SOL     OW13891   5.932   1.485   2.079
 4331SOL    HW113892   5.987   1.437   2.147
 4331SOL    HW213893   5.965   1.461   1.987
 4332SOL     OW13894   5.009   2.808   2.889
 4332SOL    HW113895   5.017   2.713   2.917
 4332SOL    HW213896   4.916   2.840   2.905
 4333SOL     OW13897   4.597   1.331   5.776
 4333SOL    HW113898   4.675   1.301   5.721
 4333SOL    HW213899   4.615   1.423   5.811
 4334SOL     OW13900   2.298   2.588   2.608
 4334SOL    HW113901   2.325   2.660   2.545
 4334SOL    HW213902   2.223   2.619   2.666
 4335SOL     OW13903   3.592   3.880   2.023
 4335SOL    HW113904   3.535   3.829   2.088
 4335SOL    HW213905   3.552   3.970   2.007
 4336SOL     OW13906   2.947   6.811   6.094
 4336SOL    HW113907   2.999   6.891   6.063
 4336SOL    HW213908   2.915   6.826   6.188
 4337SOL     OW13909   1.164   4.063   0.602
 4337SOL    HW113910   1.179   4.161   0.589
 4337SOL    HW213911   1.233   4.027   0.665
 4338SOL     OW13912   6.153   6.888   6.438
 4338SOL    HW113913   6.225   6.939   6.485
 4338SOL    HW213914   6.076   6.873   6.500
 4339SOL     OW13915   4.223   3.551   5.719
 4339SOL    HW113916   4.253   3.584   5.629
 4339SOL    HW213917   4.287   3.582   5.789
 4340SOL     OW13918   6.703   3.329   1.382
 4340SOL    HW113919   6.630   3.379   1.427
 4340SOL    HW213920   6.791   3.374   1.402
 4341SOL     OW13921   1.292   5.634   1.786
 4341SOL    HW113922   1.304   5.683   1.872
 4341SOL    HW213923   1.326   5.690   1.710
 4342SOL     OW13924   5.022   4.265   3.112
 4342SOL    HW113925   5.034   4.167   3.095
 4342SOL    HW213926   5.016   4.281   3.211
 4343SOL     OW13927   2.885   6.148   4.506
 4343SOL    HW113928   2.809   6.109   4.559
 4343SOL    HW213929   2.967   6.150   4.563
 4344SOL     OW13930   0.835   4.122   2.059
 4344SOL    HW113931   0.750   4.113   2.008
 4344SOL    HW213932   0.815   4.156   2.151
 4345SOL     OW13933   3.809   4.121   5.181
 4345SOL    HW113934   3.811   4.220   5.192
 4345SOL    HW213935   3.857   4.096   5.096
 4346SOL     OW13936   1.874   3.784   3.019
 4346SOL    HW113937   1.847   3.739   3.104
 4346SOL    HW213938   1.823   3.742   2.943
 4347SOL     OW13939   5.883   6.883   2.910
 4347SOL    HW113940   5.801   6.826   2.910
 4347SOL    HW213941   5.856   6.979   2.910
 4348SOL     OW13942   0.114   5.495   3.988
 4348SOL    HW113943   0.125   5.452   3.898
 4348SOL    HW213944   0.020   5.483   4.019
 4349SOL     OW13945   6.200   2.230   3.148
 4349SOL    HW113946   6.196   2.238   3.048
 4349SOL    HW213947   6.158   2.144   3.176
 4350SOL     OW13948   3.667   1.522   3.933
 4350SOL    HW113949   3.592   1.537   3.869
 4350SOL    HW213950   3.754   1.540   3.888
 4351SOL     OW13951   1.334   5.957   1.221
 4351SOL    HW113952   1.351   6.001   1.309
 4351SOL    HW213953   1.337   6.025   1.148
 4352SOL     OW13954   6.472   3.917   2.284
 4352SOL    HW113955   6.545   3.953   2.342
 4352SOL    HW213956   6.485   3.947   2.190
 4353SOL     OW13957   3.761   2.614   6.546
 4353SOL    HW113958   3.780   2.707   6.576
 4353SOL    HW213959   3.672   2.611   6.501
 4354SOL     OW13960   1.988   1.099   6.332
 4354SOL    HW113961   2.021   1.013   6.292
 4354SOL    HW213962   2.066   1.155   6.359
 4355SOL     OW13963   2.527   0.009   2.415
 4355SOL    HW113964   2.461   7.001   2.485
 4355SOL    HW213965   2.587   0.079   2.452
 4356SOL     OW13966   5.288   3.475   6.796
 4356SOL    HW113967   5.192   3.502   6.807
 4356SOL    HW213968   5.323   3.509   6.709
 4357SOL     OW13969   6.444   1.003   1.480
 4357SOL    HW113970   6.467   1.025   1.575
 4357SOL    HW213971   6.445   0.904   1.468
 4358SOL     OW13972   6.713   0.868   0.848
 4358SOL    HW113973   6.620   0.854   0.815
 4358SOL    HW213974   6.768   0.785   0.832
 4359SOL     OW13975   0.873   1.214   6.585
 4359SOL    HW113976   0.882   1.119   6.615
 4359SOL    HW213977   0.915   1.224   6.494
 4360SOL     OW13978   1.075   3.698   4.011
 4360SOL    HW113979   1.036   3.775   3.959
 4360SOL    HW213980   1.007   3.625   4.018
 4361SOL     OW13981   2.182   3.776   1.945
 4361SOL    HW113982   2.190   3.681   1.973
 4361SOL    HW213983   2.263   3.803   1.893
 4362SOL     OW13984   6.904   5.015   3.536
 4362SOL    HW113985   6.988   4.995   3.586
 4362SOL    HW213986   6.833   4.950   3.563
 4363SOL     OW13987   5.184   2.143   0.879
 4363SOL    HW113988   5.272   2.119   0.921
 4363SOL    HW213989   5.129   2.060   0.869
 4364SOL     OW13990   3.165   4.083   3.569
 4364SOL    HW113991   3.140   4.177   3.547
 4364SOL    HW213992   3.160   4.069   3.667
 4365SOL     OW13993   3.159   0.699   2.022
 4365SOL    HW113994   3.105   0.722   1.940
 4365SOL    HW213995   3.155   0.600   2.037
 4366SOL     OW13996   6.457   6.909   6.597
 4366SOL    HW113997   6.423   7.002   6.582
 4366SOL    HW213998   6.431   6.879   6.689
 4367SOL     OW13999   2.546   4.529   3.707
 4367SOL    HW114000   2.593   4.570   3.786
 4367SOL    HW214001   2.511   4.439   3.731
 4368SOL     OW14002   3.665   5.750   1.530
 4368SOL    HW114003   3.668   5.651   1.547
 4368SOL    HW214004   3.757   5.784   1.514
 4369SOL     OW14005   4.467   5.172   2.886
 4369SOL    HW114006   4.409   5.094   2.863
 4369SOL    HW214007   4.435   5.214   2.971
 4370SOL     OW14008   3.655   4.466   1.659
 4370SOL    HW114009   3.701   4.528   1.596
 4370SOL    HW214010   3.599   4.519   1.723
 4371SOL     OW14011   2.035   2.029   2.201
 4371SOL    HW114012   1.955   2.086   2.217
 4371SOL    HW214013   2.035   1.997   2.106
 4372SOL     OW14014   2.742   1.951   4.421
 4372SOL    HW114015   2.716   1.855   4.418
 4372SOL    HW214016   2.690   1.998   4.493
 4373SOL     OW14017   5.191   1.351   6.847
 4373SOL    HW114018   5.271   1.338   6.906
 4373SOL    HW214019   5.213   1.321   6.754
 4374SOL     OW14020   1.215   1.735   1.567
 4374SOL    HW114021   1.229   1.659   1.630
 4374SOL    HW214022   1.248   1.710   1.476
 4375SOL     OW14023   4.150   6.342   3.247
 4375SOL    HW114024   4.079   6.365   3.314
 4375SOL    HW214025   4.231   6.399   3.264
 4376SOL     OW14026   6.676   0.238   2.769
 4376SOL    HW114027   6.665   0.170   2.842
 4376SOL    HW214028   6.737   0.201   2.698
 4377SOL     OW14029   5.802   5.486   0.006
 4377SOL    HW114030   5.788   5.388   0.023
 4377SOL    HW214031   5.893   5.499   6.986
 4378SOL     OW14032   1.681   3.038   2.784
 4378SOL    HW114033   1.687   3.104   2.709
 4378SOL    HW214034   1.691   2.946   2.748
 4379SOL     OW14035   2.616   2.076   2.503
 4379SOL    HW114036   2.667   2.154   2.466
 4379SOL    HW214037   2.618   2.079   2.602
 4380SOL     OW14038   1.129   6.747   3.301
 4380SOL    HW114039   1.198   6.817   3.286
 4380SOL    HW214040   1.141   6.708   3.392
 4381SOL     OW14041   2.247   4.076   5.361
 4381SOL    HW114042   2.284   4.030   5.281
 4381SOL    HW214043   2.206   4.010   5.423
 4382SOL     OW14044   6.046   3.265   6.474
 4382SOL    HW114045   5.960   3.243   6.521
 4382SOL    HW214046   6.076   3.186   6.421
 4383SOL     OW14047   0.832   2.503   5.920
 4383SOL    HW114048   0.901   2.571   5.943
 4383SOL    HW214049   0.748   2.548   5.890
 4384SOL     OW14050   5.560   1.479   6.315
 4384SOL    HW114051   5.491   1.425   6.265
 4384SOL    HW214052   5.623   1.520   6.250
 4385SOL     OW14053   6.329   2.770   5.472
 4385SOL    HW114054   6.327   2.848   5.409
 4385SOL    HW214055   6.411   2.776   5.529
 4386SOL     OW14056   2.492   3.502   6.791
 4386SOL    HW114057   2.412   3.557   6.813
 4386SOL    HW214058   2.473   3.406   6.816
 4387SOL     OW14059   0.079   1.075   1.880
 4387SOL    HW114060   0.032   1.104   1.963
 4387SOL    HW214061   0.059   0.979   1.862
 4388SOL     OW14062   5.323   1.607   6.367
 4388SOL    HW114063   5.350   1.703   6.356
 4388SOL    HW214064   5.396   1.548   6.333
 4389SOL     OW14065   6.590   3.532   0.929
 4389SOL    HW114066   6.613   3.467   1.002
 4389SOL    HW214067   6.600   3.626   0.964
 4390SOL     OW14068   3.768   1.184   2.209
 4390SOL    HW114069   3.861   1.220   2.206
 4390SOL    HW214070   3.708   1.243   2.154
 4391SOL     OW14071   1.502   5.440   6.453
 4391SOL    HW114072   1.407   5.467   6.437
 4391SOL    HW214073   1.529   5.470   6.544
 4392SOL     OW14074   7.003   3.307   5.811
 4392SOL    HW114075   7.008   3.397   5.767
 4392SOL    HW214076   6.981   3.320   5.908
 4393SOL     OW14077   5.959   6.914   2.328
 4393SOL    HW114078   5.927   6.847   2.395
 4393SOL    HW214079   5.890   6.986   2.316
 4394SOL     OW14080   5.835   5.913   2.589
 4394SOL    HW114081   5.901   5.985   2.609
 4394SOL    HW214082   5.767   5.947   2.524
 4395SOL     OW14083   4.047   0.636   1.870
 4395SOL    HW114084   3.981   0.641   1.795
 4395SOL    HW214085   3.999   0.630   1.957
 4396SOL     OW14086   2.503   2.223   4.143
 4396SOL    HW114087   2.438   2.159   4.183
 4396SOL    HW214088   2.484   2.315   4.177
 4397SOL     OW14089   0.178   1.110   4.568
 4397SOL    HW114090   0.082   1.100   4.593
 4397SOL    HW214091   0.234   1.109   4.650
 4398SOL     OW14092   0.803   4.897   4.930
 4398SOL    HW114093   0.791   4.836   4.851
 4398SOL    HW214094   0.743   4.867   5.004
 4399SOL     OW14095   1.797   1.148   1.363
 4399SOL    HW114096   1.866   1.100   1.417
 4399SOL    HW214097   1.772   1.232   1.409
 4400SOL     OW14098   3.216   6.667   5.595
 4400SOL    HW114099   3.123   6.637   5.572
 4400SOL    HW214100   3.216   6.708   5.687
 4401SOL     OW14101   5.053   0.028   6.696
 4401SOL    HW114102   5.088   6.969   6.645
 4401SOL    HW214103   5.016   0.095   6.633
 4402SOL     OW14104   2.637   0.215   1.030
 4402SOL    HW114105   2.576   0.136   1.024
 4402SOL    HW214106   2.665   0.229   1.125
 4403SOL     OW14107   0.551   0.254   3.726
 4403SOL    HW114108   0.542   0.198   3.809
 4403SOL    HW214109   0.547   0.194   3.646
 4404SOL     OW14110   0.225   4.187   5.762
 4404SOL    HW114111   0.236   4.282   5.733
 4404SOL    HW214112   0.284   4.129   5.706
 4405SOL     OW14113   1.658   4.621   1.270
 4405SOL    HW114114   1.655   4.687   1.346
 4405SOL    HW214115   1.732   4.555   1.287
 4406SOL     OW14116   6.989   3.977   0.460
 4406SOL    HW114117   7.004   3.900   0.523
 4406SOL    HW214118   6.928   4.044   0.503
 4407SOL     OW14119   0.188   4.760   0.672
 4407SOL    HW114120   0.186   4.686   0.738
 4407SOL    HW214121   0.174   4.847   0.719
 4408SOL     OW14122   3.240   1.200   1.538
 4408SOL    HW114123   3.195   1.153   1.614
 4408SOL    HW214124   3.310   1.139   1.498
 4409SOL     OW14125   4.799   6.938   1.802
 4409SOL    HW114126   4.712   6.924   1.754
 4409SOL    HW214127   4.837   0.007   1.776
 4410SOL     OW14128   1.330   5.843   6.601
 4410SOL    HW114129   1.362   5.925   6.648
 4410SOL    HW214130   1.322   5.768   6.666
 4411SOL     OW14131   3.168   4.057   3.857
 4411SOL    HW114132   3.256   4.056   3.906
 4411SOL    HW214133   3.096   4.028   3.920
 4412SOL     OW14134   4.097   6.688   4.903
 4412SOL    HW114135   4.082   6.596   4.869
 4412SOL    HW214136   4.025   6.712   4.968
 4413SOL     OW14137   5.362   5.962   4.745
 4413SOL    HW114138   5.290   5.916   4.692
 4413SOL    HW214139   5.402   5.898   4.810
 4414SOL     OW14140   3.980   4.498   1.281
 4414SOL    HW114141   3.941   4.529   1.368
 4414SOL    HW214142   4.043   4.422   1.299
 4415SOL     OW14143   3.421   3.274   7.012
 4415SOL    HW114144   3.450   3.179   6.996
 4415SOL    HW214145   3.370   3.280   0.077
 4416SOL     OW14146   2.240   0.733   3.903
 4416SOL    HW114147   2.305   0.727   3.827
 4416SOL    HW214148   2.148   0.750   3.867
 4417SOL     OW14149   5.941   4.490   3.531
 4417SOL    HW114150   5.873   4.472   3.602
 4417SOL    HW214151   6.025   4.525   3.573
 4418SOL     OW14152   5.619   1.419   2.384
 4418SOL    HW114153   5.617   1.456   2.291
 4418SOL    HW214154   5.645   1.492   2.448
 4419SOL     OW14155   5.599   5.756   0.424
 4419SOL    HW114156   5.627   5.668   0.385
 4419SOL    HW214157   5.533   5.800   0.363
 4420SOL     OW14158   5.058   1.372   1.884
 4420SOL    HW114159   5.004   1.297   1.845
 4420SOL    HW214160   5.028   1.459   1.846
 4421SOL     OW14161   1.765   0.801   4.792
 4421SOL    HW114162   1.684   0.766   4.745
 4421SOL    HW214163   1.845   0.748   4.764
 4422SOL     OW14164   3.209   4.424   6.049
 4422SOL    HW114165   3.158   4.350   6.093
 4422SOL    HW214166   3.225   4.400   5.953
 4423SOL     OW14167   1.548   2.965   5.672
 4423SOL    HW114168   1.616   2.920   5.613
 4423SOL    HW214169   1.549   3.064   5.654
 4424SOL     OW14170   5.510   0.640   4.413
 4424SOL    HW114171   5.542   0.733   4.398
 4424SOL    HW214172   5.422   0.641   4.461
 4425SOL     OW14173   3.794   5.123   0.350
 4425SOL    HW114174   3.791   5.192   0.422
 4425SOL    HW214175   3.798   5.169   0.261
 4426SOL     OW14176   0.200   1.070   5.009
 4426SOL    HW114177   0.104   1.091   5.028
 4426SOL    HW214178   0.254   1.080   5.092
 4427SOL     OW14179   0.555   6.103   2.439
 4427SOL    HW114180   0.553   6.117   2.538
 4427SOL    HW214181   0.613   6.025   2.417
 4428SOL     OW14182   2.841   6.585   1.723
 4428SOL    HW114183   2.803   6.659   1.778
 4428SOL    HW214184   2.937   6.603   1.703
 4429SOL     OW14185   3.337   0.211   2.813
 4429SOL    HW114186   3.264   0.145   2.831
 4429SOL    HW214187   3.298   0.303   2.807
 4430SOL     OW14188   4.925   3.629   4.742
 4430SOL    HW114189   5.011   3.578   4.745
 4430SOL    HW214190   4.882   3.628   4.832
 4431SOL     OW14191   2.262   0.917   2.174
 4431SOL    HW114192   2.207   1.001   2.167
 4431SOL    HW214193   2.209   0.840   2.139
 4432SOL     OW14194   3.867   3.843   4.990
 4432SOL    HW114195   3.946   3.865   5.047
 4432SOL    HW214196   3.816   3.926   4.971
 4433SOL     OW14197   5.310   0.757   4.607
 4433SOL    HW114198   5.284   0.777   4.702
 4433SOL    HW214199   5.351   0.837   4.566
 4434SOL     OW14200   4.626   1.711   4.160
 4434SOL    HW114201   4.642   1.612   4.162
 4434SOL    HW214202   4.594   1.741   4.250
 4435SOL     OW14203   4.304   3.134   1.472
 4435SOL    HW114204   4.359   3.062   1.429
 4435SOL    HW214205   4.303   3.121   1.571
 4436SOL     OW14206   3.991   1.492   1.115
 4436SOL    HW114207   4.031   1.529   1.032
 4436SOL    HW214208   3.927   1.559   1.155
 4437SOL     OW14209   5.924   1.093   3.487
 4437SOL    HW114210   5.989   1.060   3.418
 4437SOL    HW214211   5.919   1.192   3.484
 4438SOL     OW14212   5.238   0.444   0.317
 4438SOL    HW114213   5.228   0.471   0.413
 4438SOL    HW214214   5.153   0.402   0.286
 4439SOL     OW14215   0.256   5.631   1.670
 4439SOL    HW114216   0.218   5.708   1.721
 4439SOL    HW214217   0.289   5.663   1.582
 4440SOL     OW14218   2.105   5.549   0.813
 4440SOL    HW114219   2.118   5.502   0.726
 4440SOL    HW214220   2.107   5.648   0.798
 4441SOL     OW14221   6.683   2.056   2.930
 4441SOL    HW114222   6.638   2.092   3.011
 4441SOL    HW214223   6.617   2.003   2.876
 4442SOL     OW14224   2.495   5.851   4.479
 4442SOL    HW114225   2.410   5.861   4.532
 4442SOL    HW214226   2.518   5.938   4.435
 4443SOL     OW14227   0.173   2.845   0.760
 4443SOL    HW114228   0.086   2.845   0.711
 4443SOL    HW214229   0.236   2.910   0.718
 4444SOL     OW14230   3.579   5.112   6.173
 4444SOL    HW114231   3.555   5.122   6.077
 4444SOL    HW214232   3.678   5.123   6.184
 4445SOL     OW14233   0.258   0.735   0.943
 4445SOL    HW114234   0.209   0.788   0.874
 4445SOL    HW214235   0.330   0.792   0.983
 4446SOL     OW14236   5.857   1.158   2.006
 4446SOL    HW114237   5.904   1.168   2.094
 4446SOL    HW214238   5.812   1.069   2.003
 4447SOL     OW14239   5.533   3.793   6.522
 4447SOL    HW114240   5.580   3.705   6.536
 4447SOL    HW214241   5.551   3.826   6.429
 4448SOL     OW14242   3.084   3.831   1.143
 4448SOL    HW114243   3.086   3.886   1.227
 4448SOL    HW214244   3.044   3.741   1.163
 4449SOL     OW14245   4.876   0.599   5.785
 4449SOL    HW114246   4.816   0.613   5.706
 4449SOL    HW214247   4.937   0.523   5.767
 4450SOL     OW14248   3.650   2.893   3.962
 4450SOL    HW114249   3.736   2.944   3.959
 4450SOL    HW214250   3.599   2.908   3.877
 4451SOL     OW14251   5.666   4.102   4.442
 4451SOL    HW114252   5.742   4.168   4.447
 4451SOL    HW214253   5.615   4.117   4.357
 4452SOL     OW14254   5.335   6.294   4.118
 4452SOL    HW114255   5.330   6.333   4.209
 4452SOL    HW214256   5.428   6.262   4.100
 4453SOL     OW14257   0.395   2.650   1.781
 4453SOL    HW114258   0.419   2.664   1.877
 4453SOL    HW214259   0.327   2.577   1.774
 4454SOL     OW14260   0.621   2.039   6.687
 4454SOL    HW114261   0.715   2.017   6.659
 4454SOL    HW214262   0.618   2.048   6.787
 4455SOL     OW14263   4.017   6.151   6.350
 4455SOL    HW114264   4.099   6.097   6.372
 4455SOL    HW214265   3.978   6.118   6.264
 4456SOL     OW14266   3.426   5.045   1.546
 4456SOL    HW114267   3.344   5.096   1.571
 4456SOL    HW214268   3.426   4.956   1.592
 4457SOL     OW14269   4.629   1.891   1.063
 4457SOL    HW114270   4.714   1.942   1.047
 4457SOL    HW214271   4.573   1.940   1.130
 4458SOL     OW14272   1.513   3.255   6.523
 4458SOL    HW114273   1.552   3.306   6.446
 4458SOL    HW214274   1.420   3.228   6.501
 4459SOL     OW14275   4.468   0.664   4.737
 4459SOL    HW114276   4.472   0.620   4.827
 4459SOL    HW214277   4.422   0.603   4.672
 4460SOL     OW14278   3.072   2.792   5.312
 4460SOL    HW114279   3.052   2.696   5.331
 4460SOL    HW214280   3.074   2.844   5.397
 4461SOL     OW14281   1.580   1.383   1.742
 4461SOL    HW114282   1.524   1.302   1.725
 4461SOL    HW214283   1.555   1.423   1.831
 4462SOL     OW14284   5.969   4.749   2.079
 4462SOL    HW114285   6.016   4.836   2.064
 4462SOL    HW214286   5.926   4.749   2.170
 4463SOL     OW14287   5.044   1.944   6.181
 4463SOL    HW114288   5.017   1.877   6.250
 4463SOL    HW214289   4.993   2.029   6.195
 4464SOL     OW14290   0.021   4.979   0.976
 4464SOL    HW114291   0.078   4.970   0.894
 4464SOL    HW214292   0.078   5.007   1.053
 4465SOL     OW14293   2.686   5.361   1.745
 4465SOL    HW114294   2.723   5.345   1.836
 4465SOL    HW214295   2.643   5.451   1.741
 4466SOL     OW14296   2.175   1.905   3.235
 4466SOL    HW114297   2.126   1.864   3.158
 4466SOL    HW214298   2.115   1.969   3.283
 4467SOL     OW14299   2.212   6.865   2.455
 4467SOL    HW114300   2.122   6.835   2.426
 4467SOL    HW214301   2.242   6.810   2.534
 4468SOL     OW14302   2.244   2.924   1.329
 4468SOL    HW114303   2.216   2.831   1.305
 4468SOL    HW214304   2.340   2.924   1.356
 4469SOL     OW14305   4.260   0.767   1.420
 4469SOL    HW114306   4.250   0.849   1.363
 4469SOL    HW214307   4.261   0.686   1.362
 4470SOL     OW14308   5.585   2.153   2.427
 4470SOL    HW114309   5.490   2.152   2.457
 4470SOL    HW214310   5.641   2.100   2.492
 4471SOL     OW14311   0.293   1.746   6.921
 4471SOL    HW114312   0.375   1.792   6.955
 4471SOL    HW214313   0.320   1.681   6.849
 4472SOL     OW14314   1.397   2.846   3.747
 4472SOL    HW114315   1.477   2.794   3.777
 4472SOL    HW214316   1.314   2.798   3.775
 4473SOL     OW14317   6.653   2.501   4.312
 4473SOL    HW114318   6.624   2.424   4.368
 4473SOL    HW214319   6.659   2.472   4.216
 4474SOL     OW14320   3.121   1.059   1.733
 4474SOL    HW114321   3.054   1.003   1.683
 4474SOL    HW214322   3.190   0.999   1.773
 4475SOL     OW14323   1.759   3.987   2.724
 4475SOL    HW114324   1.835   4.033   2.770
 4475SOL    HW214325   1.675   4.038   2.740
 4476SOL     OW14326   4.135   6.745   3.763
 4476SOL    HW114327   4.088   6.796   3.835
 4476SOL    HW214328   4.232   6.769   3.764
 4477SOL     OW14329   1.963   0.037   5.544
 4477SOL    HW114330   1.922   0.089   5.618
 4477SOL    HW214331   1.893   0.011   5.478
 4478SOL     OW14332   3.897   6.702   2.500
 4478SOL    HW114333   3.928   6.684   2.407
 4478SOL    HW214334   3.906   6.799   2.520
 4479SOL     OW14335   1.523   0.827   1.514
 4479SOL    HW114336   1.616   0.862   1.511
 4479SOL    HW214337   1.511   0.758   1.443
 4480SOL     OW14338   2.504   3.485   5.996
 4480SOL    HW114339   2.487   3.583   6.002
 4480SOL    HW214340   2.520   3.460   5.900
 4481SOL     OW14341   2.323   6.166   5.561
 4481SOL    HW114342   2.259   6.096   5.532
 4481SOL    HW214343   2.399   6.171   5.495
 4482SOL     OW14344   1.005   4.611   4.485
 4482SOL    HW114345   0.985   4.590   4.581
 4482SOL    HW214346   1.074   4.548   4.450
 4483SOL     OW14347   4.873   3.587   1.980
 4483SOL    HW114348   4.825   3.642   1.912
 4483SOL    HW214349   4.846   3.617   2.072
 4484SOL     OW14350   3.177   2.932   6.039
 4484SOL    HW114351   3.111   2.864   6.007
 4484SOL    HW214352   3.268   2.907   6.006
 4485SOL     OW14353   5.000   1.933   5.149
 4485SOL    HW114354   4.978   1.842   5.185
 4485SOL    HW214355   4.943   2.001   5.195
 4486SOL     OW14356   5.099   4.845   4.643
 4486SOL    HW114357   5.084   4.854   4.741
 4486SOL    HW214358   5.023   4.796   4.601
 4487SOL     OW14359   2.484   2.724   6.226
 4487SOL    HW114360   2.575   2.767   6.229
 4487SOL    HW214361   2.474   2.662   6.303
 4488SOL     OW14362   6.674   2.921   6.538
 4488SOL    HW114363   6.675   2.900   6.440
 4488SOL    HW214364   6.760   2.963   6.564
 4489SOL     OW14365   6.042   5.343   4.071
 4489SOL    HW114366   5.955   5.385   4.044
 4489SOL    HW214367   6.110   5.415   4.085
 4490SOL     OW14368   6.351   2.904   3.022
 4490SOL    HW114369   6.319   2.830   2.963
 4490SOL    HW214370   6.329   2.992   2.980
 4491SOL     OW14371   6.841   2.105   4.454
 4491SOL    HW114372   6.753   2.102   4.502
 4491SOL    HW214373   6.852   2.194   4.411
 4492SOL     OW14374   5.732   4.206   2.044
 4492SOL    HW114375   5.761   4.301   2.033
 4492SOL    HW214376   5.808   4.145   2.020
 4493SOL     OW14377   4.708   6.022   5.412
 4493SOL    HW114378   4.767   6.089   5.458
 4493SOL    HW214379   4.645   6.069   5.350
 4494SOL     OW14380   6.494   1.079   5.487
 4494SOL    HW114381   6.525   1.075   5.582
 4494SOL    HW214382   6.405   1.035   5.478
 4495SOL     OW14383   4.067   6.678   4.195
 4495SOL    HW114384   4.082   6.719   4.285
 4495SOL    HW214385   3.975   6.638   4.192
 4496SOL     OW14386   5.728   5.356   1.184
 4496SOL    HW114387   5.689   5.390   1.270
 4496SOL    HW214388   5.793   5.423   1.148
 4497SOL     OW14389   4.974   0.754   6.717
 4497SOL    HW114390   4.966   0.660   6.749
 4497SOL    HW214391   4.990   0.815   6.795
 4498SOL     OW14392   6.771   3.290   6.654
 4498SOL    HW114393   6.690   3.328   6.608
 4498SOL    HW214394   6.756   3.291   6.753
 4499SOL     OW14395   6.549   3.382   4.528
 4499SOL    HW114396   6.469   3.322   4.524
 4499SOL    HW214397   6.567   3.420   4.438
 4500SOL     OW14398   2.898   3.430   3.807
 4500SOL    HW114399   2.807   3.424   3.849
 4500SOL    HW214400   2.967   3.405   3.875
 4501SOL     OW14401   0.488   3.394   4.290
 4501SOL    HW114402   0.536   3.480   4.308
 4501SOL    HW214403   0.553   3.325   4.257
 4502SOL     OW14404   0.822   2.686   6.591
 4502SOL    HW114405   0.918   2.704   6.570
 4502SOL    HW214406   0.772   2.670   6.507
 4503SOL     OW14407   3.327   6.930   1.844
 4503SOL    HW114408   3.404   6.978   1.885
 4503SOL    HW214409   3.331   6.941   1.744
 4504SOL     OW14410   6.093   1.284   4.990
 4504SOL    HW114411   6.147   1.290   5.074
 4504SOL    HW214412   6.133   1.343   4.921
 4505SOL     OW14413   5.718   5.382   2.151
 4505SOL    HW114414   5.747   5.377   2.055
 4505SOL    HW214415   5.785   5.435   2.203
 4506SOL     OW14416   4.137   2.153   4.107
 4506SOL    HW114417   4.175   2.236   4.147
 4506SOL    HW214418   4.201   2.077   4.118
 4507SOL     OW14419   5.480   5.421   2.042
 4507SOL    HW114420   5.560   5.388   2.091
 4507SOL    HW214421   5.398   5.407   2.097
 4508SOL     OW14422   1.036   4.705   6.551
 4508SOL    HW114423   1.112   4.663   6.600
 4508SOL    HW214424   0.980   4.634   6.509
 4509SOL     OW14425   5.036   2.115   2.066
 4509SOL    HW114426   5.017   2.159   1.978
 4509SOL    HW214427   4.975   2.152   2.136
 4510SOL     OW14428   4.661   1.060   4.564
 4510SOL    HW114429   4.693   1.007   4.486
 4510SOL    HW214430   4.630   0.999   4.637
 4511SOL     OW14431   0.287   3.071   6.817
 4511SOL    HW114432   0.359   3.112   6.874
 4511SOL    HW214433   0.327   2.999   6.760
 4512SOL     OW14434   2.833   0.112   5.059
 4512SOL    HW114435   2.833   0.021   5.099
 4512SOL    HW214436   2.760   0.118   4.991
 4513SOL     OW14437   6.303   4.846   0.568
 4513SOL    HW114438   6.227   4.876   0.510
 4513SOL    HW214439   6.279   4.859   0.664
 4514SOL     OW14440   4.497   1.311   6.527
 4514SOL    HW114441   4.408   1.273   6.553
 4514SOL    HW214442   4.565   1.287   6.597
 4515SOL     OW14443   0.094   2.260   5.694
 4515SOL    HW114444   0.076   2.240   5.598
 4515SOL    HW214445   0.162   2.196   5.729
 4516SOL     OW14446   1.488   0.511   6.785
 4516SOL    HW114447   1.464   0.424   6.828
 4516SOL    HW214448   1.446   0.587   6.835
 4517SOL     OW14449   3.561   0.817   6.925
 4517SOL    HW114450   3.614   0.850   6.847
 4517SOL    HW214451   3.549   0.890   6.991
 4518SOL     OW14452   0.196   0.450   2.941
 4518SOL    HW114453   0.132   0.490   2.876
 4518SOL    HW214454   0.206   0.352   2.921
 4519SOL     OW14455   5.938   0.747   1.365
 4519SOL    HW114456   5.938   0.847   1.358
 4519SOL    HW214457   5.862   0.710   1.311
 4520SOL     OW14458   4.609   6.215   4.722
 4520SOL    HW114459   4.536   6.281   4.740
 4520SOL    HW214460   4.583   6.157   4.644
 4521SOL     OW14461   6.068   1.850   4.160
 4521SOL    HW114462   6.155   1.880   4.122
 4521SOL    HW214463   5.994   1.904   4.121
 4522SOL     OW14464   6.356   6.696   3.370
 4522SOL    HW114465   6.378   6.637   3.292
 4522SOL    HW214466   6.268   6.742   3.353
 4523SOL     OW14467   1.246   3.882   0.233
 4523SOL    HW114468   1.301   3.942   0.291
 4523SOL    HW214469   1.152   3.880   0.267
 4524SOL     OW14470   5.726   2.269   3.653
 4524SOL    HW114471   5.822   2.300   3.655
 4524SOL    HW214472   5.692   2.272   3.559
 4525SOL     OW14473   4.935   1.002   4.215
 4525SOL    HW114474   4.936   1.017   4.116
 4525SOL    HW214475   4.982   1.077   4.261
 4526SOL     OW14476   6.562   0.103   1.264
 4526SOL    HW114477   6.573   0.077   1.168
 4526SOL    HW214478   6.468   0.086   1.293
 4527SOL     OW14479   5.051   1.326   3.304
 4527SOL    HW114480   5.007   1.236   3.298
 4527SOL    HW214481   5.117   1.337   3.230
 4528SOL     OW14482   4.678   0.278   0.316
 4528SOL    HW114483   4.752   0.219   0.283
 4528SOL    HW214484   4.655   0.255   0.410
 4529SOL     OW14485   3.420   1.097   5.287
 4529SOL    HW114486   3.392   1.184   5.245
 4529SOL    HW214487   3.481   1.116   5.364
 4530SOL     OW14488   1.716   3.711   6.088
 4530SOL    HW114489   1.719   3.684   6.184
 4530SOL    HW214490   1.803   3.689   6.045
 4531SOL     OW14491   0.288   3.533   4.955
 4531SOL    HW114492   0.343   3.467   5.005
 4531SOL    HW214493   0.346   3.608   4.922
 4532SOL     OW14494   6.081   2.005   3.261
 4532SOL    HW114495   5.999   2.016   3.205
 4532SOL    HW214496   6.065   2.045   3.351
 4533SOL     OW14497   1.491   1.504   1.992
 4533SOL    HW114498   1.432   1.535   2.067
 4533SOL    HW214499   1.529   1.583   1.945
 4534SOL     OW14500   4.756   4.016   4.598
 4534SOL    HW114501   4.656   4.021   4.606
 4534SOL    HW214502   4.791   4.105   4.569
 4535SOL     OW14503   4.844   1.101   2.515
 4535SOL    HW114504   4.818   1.137   2.605
 4535SOL    HW214505   4.862   1.177   2.453
 4536SOL     OW14506   4.182   1.333   3.634
 4536SOL    HW114507   4.213   1.366   3.724
 4536SOL    HW214508   4.083   1.322   3.636
 4537SOL     OW14509   3.770   3.227   6.230
 4537SOL    HW114510   3.844   3.274   6.181
 4537SOL    HW214511   3.682   3.261   6.197
 4538SOL     OW14512   2.125   0.075   4.025
 4538SOL    HW114513   2.109   7.007   3.979
 4538SOL    HW214514   2.179   0.134   3.966
 4539SOL     OW14515   2.251   0.423   5.125
 4539SOL    HW114516   2.166   0.448   5.079
 4539SOL    HW214517   2.242   0.331   5.163
 4540SOL     OW14518   3.058   2.583   5.634
 4540SOL    HW114519   3.060   2.570   5.535
 4540SOL    HW214520   3.083   2.498   5.679
 4541SOL     OW14521   6.105   1.588   0.934
 4541SOL    HW114522   6.189   1.561   0.982
 4541SOL    HW214523   6.027   1.542   0.976
 4542SOL     OW14524   6.849   1.292   2.887
 4542SOL    HW114525   6.827   1.357   2.959
 4542SOL    HW214526   6.934   1.319   2.842
 4543SOL     OW14527   4.625   1.999   1.503
 4543SOL    HW114528   4.650   1.947   1.584
 4543SOL    HW214529   4.612   2.095   1.527
 4544SOL     OW14530   2.852   6.226   6.070
 4544SOL    HW114531   2.943   6.251   6.035
 4544SOL    HW214532   2.782   6.270   6.014
 4545SOL     OW14533   5.143   3.504   4.736
 4545SOL    HW114534   5.112   3.418   4.776
 4545SOL    HW214535   5.238   3.495   4.707
 4546SOL     OW14536   1.997   1.239   6.079
 4546SOL    HW114537   2.094   1.259   6.085
 4546SOL    HW214538   1.966   1.196   6.164
 4547SOL     OW14539   5.922   2.370   3.170
 4547SOL    HW114540   6.013   2.409   3.156
 4547SOL    HW214541   5.921   2.277   3.133
 4548SOL     OW14542   1.119   4.193   4.542
 4548SOL    HW114543   1.099   4.110   4.491
 4548SOL    HW214544   1.210   4.187   4.582
 4549SOL     OW14545   6.313   4.227   1.822
 4549SOL    HW114546   6.350   4.303   1.768
 4549SOL    HW214547   6.327   4.246   1.919
 4550SOL     OW14548   1.159   5.675   3.351
 4550SOL    HW114549   1.156   5.750   3.416
 4550SOL    HW214550   1.214   5.701   3.272
 4551SOL     OW14551   0.001   1.977   5.576
 4551SOL    HW114552   0.086   1.925   5.585
 4551SOL    HW214553   6.968   1.970   5.661
 4552SOL     OW14554   6.122   2.788   0.575
 4552SOL    HW114555   6.209   2.828   0.602
 4552SOL    HW214556   6.127   2.688   0.580
 4553SOL     OW14557   3.931   4.843   6.789
 4553SOL    HW114558   4.009   4.808   6.840
 4553SOL    HW214559   3.953   4.933   6.751
 4554SOL     OW14560   5.422   0.752   1.366
 4554SOL    HW114561   5.496   0.695   1.400
 4554SOL    HW214562   5.335   0.720   1.402
 4555SOL     OW14563   3.050   1.543   5.655
 4555SOL    HW114564   3.112   1.607   5.699
 4555SOL    HW214565   2.966   1.591   5.628
 4556SOL     OW14566   4.851   2.336   3.940
 4556SOL    HW114567   4.825   2.365   4.032
 4556SOL    HW214568   4.938   2.379   3.916
 4557SOL     OW14569   4.781   6.335   5.360
 4557SOL    HW114570   4.775   6.346   5.260
 4557SOL    HW214571   4.800   6.424   5.402
 4558SOL     OW14572   0.746   4.031   4.797
 4558SOL    HW114573   0.799   4.114   4.776
 4558SOL    HW214574   0.658   4.058   4.837
 4559SOL     OW14575   0.048   3.901   1.896
 4559SOL    HW114576   0.026   3.926   1.990
 4559SOL    HW214577   0.074   3.805   1.892
 4560SOL     OW14578   5.303   5.288   2.262
 4560SOL    HW114579   5.298   5.188   2.265
 4560SOL    HW214580   5.369   5.321   2.329
 4561SOL     OW14581   2.757   1.225   1.767
 4561SOL    HW114582   2.675   1.271   1.800
 4561SOL    HW214583   2.785   1.155   1.833
 4562SOL     OW14584   3.081   6.191   4.898
 4562SOL    HW114585   3.048   6.278   4.861
 4562SOL    HW214586   3.106   6.202   4.994
 4563SOL     OW14587   0.267   3.469   1.266
 4563SOL    HW114588   0.221   3.475   1.178
 4563SOL    HW214589   0.347   3.528   1.266
 4564SOL     OW14590   6.417   6.646   0.729
 4564SOL    HW114591   6.321   6.673   0.738
 4564SOL    HW214592   6.428   6.551   0.759
 4565SOL     OW14593   0.186   1.570   5.317
 4565SOL    HW114594   0.197   1.669   5.305
 4565SOL    HW214595   0.221   1.523   5.236
 4566SOL     OW14596   6.842   2.220   0.974
 4566SOL    HW114597   6.882   2.224   1.065
 4566SOL    HW214598   6.796   2.306   0.953
 4567SOL     OW14599   6.538   0.569   0.048
 4567SOL    HW114600   6.484   0.510   7.009
 4567SOL    HW214601   6.632   0.575   0.014
 4568SOL     OW14602   2.093   4.109   5.712
 4568SOL    HW114603   2.036   4.145   5.639
 4568SOL    HW214604   2.130   4.185   5.766
 4569SOL     OW14605   1.680   1.475   3.447
 4569SOL    HW114606   1.705   1.427   3.530
 4569SOL    HW214607   1.588   1.449   3.419
 4570SOL     OW14608   0.502   6.502   3.293
 4570SOL    HW114609   0.451   6.427   3.336
 4570SOL    HW214610   0.450   6.586   3.300
 4571SOL     OW14611   4.035   3.823   5.716
 4571SOL    HW114612   4.046   3.815   5.815
 4571SOL    HW214613   3.991   3.910   5.694
 4572SOL     OW14614   1.284   6.708   6.703
 4572SOL    HW114615   1.195   6.689   6.660
 4572SOL    HW214616   1.357   6.672   6.645
 4573SOL     OW14617   6.092   6.691   0.520
 4573SOL    HW114618   6.139   6.774   0.489
 4573SOL    HW214619   6.099   6.684   0.620
 4574SOL     OW14620   6.610   3.784   1.119
 4574SOL    HW114621   6.578   3.876   1.095
 4574SOL    HW214622   6.537   3.735   1.165
 4575SOL     OW14623   6.144   1.765   6.528
 4575SOL    HW114624   6.147   1.716   6.441
 4575SOL    HW214625   6.048   1.780   6.554
 4576SOL     OW14626   2.422   6.289   5.902
 4576SOL    HW114627   2.421   6.388   5.917
 4576SOL    HW214628   2.505   6.265   5.851
 4577SOL     OW14629   1.019   1.829   4.516
 4577SOL    HW114630   0.994   1.902   4.580
 4577SOL    HW214631   1.087   1.770   4.559
 4578SOL     OW14632   0.934   3.534   4.913
 4578SOL    HW114633   0.842   3.564   4.936
 4578SOL    HW214634   0.946   3.535   4.814
 4579SOL     OW14635   4.729   2.285   3.319
 4579SOL    HW114636   4.805   2.242   3.368
 4579SOL    HW214637   4.643   2.256   3.360
 4580SOL     OW14638   4.951   4.481   0.220
 4580SOL    HW114639   4.912   4.400   0.264
 4580SOL    HW214640   4.986   4.543   0.290
 4581SOL     OW14641   2.529   4.767   2.665
 4581SOL    HW114642   2.521   4.719   2.753
 4581SOL    HW214643   2.472   4.850   2.668
 4582SOL     OW14644   6.021   6.618   4.724
 4582SOL    HW114645   6.082   6.549   4.765
 4582SOL    HW214646   6.067   6.661   4.647
 4583SOL     OW14647   2.398   2.113   5.650
 4583SOL    HW114648   2.409   2.013   5.641
 4583SOL    HW214649   2.344   2.147   5.573
 4584SOL     OW14650   0.196   5.397   6.192
 4584SOL    HW114651   0.295   5.393   6.202
 4584SOL    HW214652   0.172   5.457   6.116
 4585SOL     OW14653   2.546   6.856   2.925
 4585SOL    HW114654   2.577   6.935   2.979
 4585SOL    HW214655   2.603   6.848   2.843
 4586SOL     OW14656   3.376   5.034   0.575
 4586SOL    HW114657   3.280   5.012   0.595
 4586SOL    HW214658   3.418   4.957   0.527
 4587SOL     OW14659   3.770   3.769   2.242
 4587SOL    HW114660   3.687   3.813   2.209
 4587SOL    HW214661   3.838   3.839   2.266
 4588SOL     OW14662   3.597   3.824   5.337
 4588SOL    HW114663   3.534   3.841   5.414
 4588SOL    HW214664   3.552   3.851   5.252
 4589SOL     OW14665   6.057   0.696   2.384
 4589SOL    HW114666   6.097   0.745   2.307
 4589SOL    HW214667   6.027   0.760   2.454
 4590SOL     OW14668   4.921   5.533   0.553
 4590SOL    HW114669   4.871   5.597   0.495
 4590SOL    HW214670   4.876   5.443   0.550
 4591SOL     OW14671   0.285   6.213   4.311
 4591SOL    HW114672   0.348   6.194   4.386
 4591SOL    HW214673   0.215   6.278   4.341
 4592SOL     OW14674   3.274   1.555   1.748
 4592SOL    HW114675   3.282   1.655   1.741
 4592SOL    HW214676   3.318   1.513   1.669
 4593SOL     OW14677   4.591   5.500   4.005
 4593SOL    HW114678   4.576   5.588   3.958
 4593SOL    HW214679   4.644   5.440   3.946
 4594SOL     OW14680   3.124   1.358   2.458
 4594SOL    HW114681   3.174   1.280   2.494
 4594SOL    HW214682   3.035   1.365   2.504
 4595SOL     OW14683   4.116   2.385   6.389
 4595SOL    HW114684   4.165   2.370   6.475
 4595SOL    HW214685   4.041   2.319   6.381
 4596SOL     OW14686   6.212   6.705   2.008
 4596SOL    HW114687   6.303   6.718   2.049
 4596SOL    HW214688   6.199   6.609   1.986
 4597SOL     OW14689   4.175   4.721   6.397
 4597SOL    HW114690   4.273   4.701   6.402
 4597SOL    HW214691   4.132   4.660   6.330
 4598SOL     OW14692   2.309   6.167   6.998
 4598SOL    HW114693   2.222   6.121   7.018
 4598SOL    HW214694   2.292   6.265   6.988
 4599SOL     OW14695   0.686   5.507   0.599
 4599SOL    HW114696   0.635   5.589   0.626
 4599SOL    HW214697   0.689   5.501   0.499
 4600SOL     OW14698   1.510   4.725   5.287
 4600SOL    HW114699   1.534   4.811   5.333
 4600SOL    HW214700   1.545   4.648   5.341
 4601SOL     OW14701   1.742   0.265   5.147
 4601SOL    HW114702   1.769   0.277   5.243
 4601SOL    HW214703   1.812   0.213   5.099
 4602SOL     OW14704   1.448   5.759   1.073
 4602SOL    HW114705   1.401   5.807   1.147
 4602SOL    HW214706   1.410   5.789   0.985
 4603SOL     OW14707   3.200   6.020   0.757
 4603SOL    HW114708   3.188   6.000   0.660
 4603SOL    HW214709   3.294   5.998   0.784
 4604SOL     OW14710   4.533   0.265   1.161
 4604SOL    HW114711   4.507   0.169   1.166
 4604SOL    HW214712   4.616   0.275   1.106
 4605SOL     OW14713   3.558   0.560   3.379
 4605SOL    HW114714   3.554   0.463   3.402
 4605SOL    HW214715   3.649   0.597   3.400
 4606SOL     OW14716   1.233   0.143   2.175
 4606SOL    HW114717   1.312   0.175   2.227
 4606SOL    HW214718   1.188   0.221   2.133
 4607SOL     OW14719   2.291   2.288   1.382
 4607SOL    HW114720   2.385   2.285   1.350
 4607SOL    HW214721   2.230   2.307   1.305
 4608SOL     OW14722   0.679   5.927   3.706
 4608SOL    HW114723   0.628   5.907   3.623
 4608SOL    HW214724   0.757   5.986   3.684
 4609SOL     OW14725   4.432   4.946   6.618
 4609SOL    HW114726   4.375   4.866   6.637
 4609SOL    HW214727   4.513   4.944   6.676
 4610SOL     OW14728   5.367   2.893   0.693
 4610SOL    HW114729   5.272   2.906   0.664
 4610SOL    HW214730   5.396   2.972   0.747
 4611SOL     OW14731   7.011   6.022   5.892
 4611SOL    HW114732   6.918   5.998   5.916
 4611SOL    HW214733   0.049   5.941   5.893
 4612SOL     OW14734   1.172   6.111   0.324
 4612SOL    HW114735   1.258   6.150   0.358
 4612SOL    HW214736   1.157   6.022   0.367
 4613SOL     OW14737   2.684   6.173   2.210
 4613SOL    HW114738   2.722   6.109   2.143
 4613SOL    HW214739   2.619   6.234   2.166
 4614SOL     OW14740   6.812   3.246   5.006
 4614SOL    HW114741   6.791   3.343   5.015
 4614SOL    HW214742   6.884   3.221   5.071
 4615SOL     OW14743   1.778   0.250   0.216
 4615SOL    HW114744   1.777   0.333   0.271
 4615SOL    HW214745   1.871   0.233   0.183
 4616SOL     OW14746   6.496   0.732   5.444
 4616SOL    HW114747   6.558   0.805   5.417
 4616SOL    HW214748   6.430   0.768   5.511
 4617SOL     OW14749   0.700   2.627   2.069
 4617SOL    HW114750   0.684   2.615   2.167
 4617SOL    HW214751   0.653   2.554   2.019
 4618SOL     OW14752   2.128   3.054   4.973
 4618SOL    HW114753   2.225   3.030   4.978
 4618SOL    HW214754   2.117   3.140   4.924
 4619SOL     OW14755   3.685   6.491   3.420
 4619SOL    HW114756   3.682   6.404   3.371
 4619SOL    HW214757   3.655   6.476   3.514
 4620SOL     OW14758   2.339   5.022   0.512
 4620SOL    HW114759   2.303   4.970   0.434
 4620SOL    HW214760   2.434   4.995   0.529
 4621SOL     OW14761   5.588   1.186   2.166
 4621SOL    HW114762   5.555   1.165   2.074
 4621SOL    HW214763   5.623   1.279   2.169
 4622SOL     OW14764   2.320   4.578   0.823
 4622SOL    HW114765   2.307   4.674   0.849
 4622SOL    HW214766   2.365   4.573   0.734
 4623SOL     OW14767   5.825   6.991   0.713
 4623SOL    HW114768   5.834   6.918   0.646
 4623SOL    HW214769   5.811   6.953   0.804
 4624SOL     OW14770   5.487   6.849   3.248
 4624SOL    HW114771   5.403   6.834   3.195
 4624SOL    HW214772   5.560   6.879   3.187
 4625SOL     OW14773   1.634   3.841   0.890
 4625SOL    HW114774   1.555   3.779   0.888
 4625SOL    HW214775   1.709   3.802   0.838
 4626SOL     OW14776   5.119   5.558   2.404
 4626SOL    HW114777   5.172   5.516   2.330
 4626SOL    HW214778   5.107   5.656   2.385
 4627SOL     OW14779   2.472   4.822   4.226
 4627SOL    HW114780   2.569   4.801   4.240
 4627SOL    HW214781   2.416   4.744   4.255
 4628SOL     OW14782   6.117   4.712   4.195
 4628SOL    HW114783   6.111   4.773   4.274
 4628SOL    HW214784   6.204   4.662   4.199
 4629SOL     OW14785   2.087   5.077   5.503
 4629SOL    HW114786   2.164   5.085   5.566
 4629SOL    HW214787   2.058   5.168   5.474
 4630SOL     OW14788   3.635   5.512   2.478
 4630SOL    HW114789   3.571   5.494   2.404
 4630SOL    HW214790   3.585   5.536   2.561
 4631SOL     OW14791   2.108   6.211   2.533
 4631SOL    HW114792   2.205   6.199   2.551
 4631SOL    HW214793   2.063   6.252   2.612
 4632SOL     OW14794   3.931   5.352   2.639
 4632SOL    HW114795   3.883   5.365   2.726
 4632SOL    HW214796   3.872   5.381   2.564
 4633SOL     OW14797   5.581   0.891   4.405
 4633SOL    HW114798   5.629   0.854   4.325
 4633SOL    HW214799   5.511   0.956   4.374
 4634SOL     OW14800   2.915   4.994   6.059
 4634SOL    HW114801   2.942   5.089   6.043
 4634SOL    HW214802   2.878   4.985   6.151
 4635SOL     OW14803   5.247   3.955   1.166
 4635SOL    HW114804   5.241   3.983   1.262
 4635SOL    HW214805   5.188   3.875   1.150
 4636SOL     OW14806   1.377   4.791   0.430
 4636SOL    HW114807   1.368   4.887   0.403
 4636SOL    HW214808   1.466   4.757   0.401
 4637SOL     OW14809   0.770   6.772   0.669
 4637SOL    HW114810   0.677   6.799   0.644
 4637SOL    HW214811   0.825   6.765   0.586
 4638SOL     OW14812   5.251   3.624   0.070
 4638SOL    HW114813   5.342   3.608   0.029
 4638SOL    HW214814   5.186   3.648   7.018
 4639SOL     OW14815   2.882   4.284   5.897
 4639SOL    HW114816   2.811   4.217   5.874
 4639SOL    HW214817   2.936   4.250   5.974
 4640SOL     OW14818   4.795   4.114   3.437
 4640SOL    HW114819   4.845   4.034   3.404
 4640SOL    HW214820   4.725   4.140   3.370
 4641SOL     OW14821   2.140   6.554   5.337
 4641SOL    HW114822   2.193   6.618   5.282
 4641SOL    HW214823   2.053   6.596   5.363
 4642SOL     OW14824   0.152   5.721   4.127
 4642SOL    HW114825   0.238   5.771   4.117
 4642SOL    HW214826   0.154   5.639   4.069
 4643SOL     OW14827   5.757   3.124   1.462
 4643SOL    HW114828   5.752   3.218   1.428
 4643SOL    HW214829   5.706   3.118   1.548
 4644SOL     OW14830   0.095   4.891   5.042
 4644SOL    HW114831   0.088   4.809   4.987
 4644SOL    HW214832   0.064   4.872   5.135
 4645SOL     OW14833   0.730   0.833   4.297
 4645SOL    HW114834   0.633   0.831   4.272
 4645SOL    HW214835   0.762   0.740   4.316
 4646SOL     OW14836   1.958   5.852   3.549
 4646SOL    HW114837   1.908   5.936   3.529
 4646SOL    HW214838   1.911   5.802   3.622
 4647SOL     OW14839   1.396   1.002   3.355
 4647SOL    HW114840   1.419   0.956   3.441
 4647SOL    HW214841   1.473   0.996   3.292
 4648SOL     OW14842   4.028   1.098   2.390
 4648SOL    HW114843   4.119   1.138   2.399
 4648SOL    HW214844   3.959   1.167   2.408
 4649SOL     OW14845   5.317   0.241   6.645
 4649SOL    HW114846   5.338   0.244   6.742
 4649SOL    HW214847   5.332   0.148   6.610
 4650SOL     OW14848   5.100   5.474   2.984
 4650SOL    HW114849   5.178   5.502   2.928
 4650SOL    HW214850   5.105   5.375   2.999
 4651SOL     OW14851   0.015   2.732   0.465
 4651SOL    HW114852   7.003   2.812   0.516
 4651SOL    HW214853   6.988   2.727   0.377
 4652SOL     OW14854   6.924   0.148   4.536
 4652SOL    HW114855   6.852   0.217   4.544
 4652SOL    HW214856   6.938   0.125   4.440
 4653SOL     OW14857   5.888   4.836   0.229
 4653SOL    HW114858   5.952   4.813   0.303
 4653SOL    HW214859   5.819   4.764   0.221
 4654SOL     OW14860   1.279   6.515   0.150
 4654SOL    HW114861   1.334   6.516   0.066
 4654SOL    HW214862   1.330   6.558   0.224
 4655SOL     OW14863   5.431   4.380   1.914
 4655SOL    HW114864   5.478   4.467   1.899
 4655SOL    HW214865   5.481   4.326   1.981
 4656SOL     OW14866   1.120   0.634   3.277
 4656SOL    HW114867   1.110   0.733   3.272
 4656SOL    HW214868   1.118   0.605   3.373
 4657SOL     OW14869   5.123   5.671   1.665
 4657SOL    HW114870   5.024   5.675   1.656
 4657SOL    HW214871   5.154   5.743   1.728
 4658SOL     OW14872   4.291   1.006   3.002
 4658SOL    HW114873   4.201   1.014   2.959
 4658SOL    HW214874   4.315   1.093   3.045
 4659SOL     OW14875   3.078   4.699   5.282
 4659SOL    HW114876   3.047   4.691   5.377
 4659SOL    HW214877   3.018   4.646   5.222
 4660SOL     OW14878   1.238   4.258   6.130
 4660SOL    HW114879   1.337   4.266   6.116
 4660SOL    HW214880   1.219   4.253   6.228
 4661SOL     OW14881   3.017   4.207   6.108
 4661SOL    HW114882   2.934   4.212   6.164
 4661SOL    HW214883   3.094   4.179   6.166
 4662SOL     OW14884   3.730   0.036   5.299
 4662SOL    HW114885   3.638   7.017   5.289
 4662SOL    HW214886   3.786   6.997   5.357
 4663SOL     OW14887   0.334   2.006   2.485
 4663SOL    HW114888   0.267   1.948   2.531
 4663SOL    HW214889   0.407   2.030   2.549
 4664SOL     OW14890   1.337   1.230   0.737
 4664SOL    HW114891   1.429   1.270   0.735
 4664SOL    HW214892   1.271   1.300   0.764
 4665SOL     OW14893   3.422   6.595   6.946
 4665SOL    HW114894   3.339   6.552   6.980
 4665SOL    HW214895   3.424   6.691   6.975
 4666SOL     OW14896   1.554   2.052   0.855
 4666SOL    HW114897   1.608   1.997   0.919
 4666SOL    HW214898   1.606   2.066   0.771
 4667SOL     OW14899   5.969   3.558   2.479
 4667SOL    HW114900   6.065   3.554   2.451
 4667SOL    HW214901   5.962   3.545   2.578
 4668SOL     OW14902   4.959   1.727   2.615
 4668SOL    HW114903   4.867   1.721   2.656
 4668SOL    HW214904   4.991   1.822   2.619
 4669SOL     OW14905   4.937   6.171   6.702
 4669SOL    HW114906   4.910   6.076   6.684
 4669SOL    HW214907   5.013   6.196   6.641
 4670SOL     OW14908   2.999   2.202   5.343
 4670SOL    HW114909   3.062   2.247   5.280
 4670SOL    HW214910   2.998   2.104   5.326
 4671SOL     OW14911   6.919   2.881   2.021
 4671SOL    HW114912   6.901   2.783   2.013
 4671SOL    HW214913   6.911   2.908   2.117
 4672SOL     OW14914   3.102   4.676   6.379
 4672SOL    HW114915   3.194   4.716   6.379
 4672SOL    HW214916   3.077   4.651   6.285
 4673SOL     OW14917   5.265   6.894   1.196
 4673SOL    HW114918   5.333   6.863   1.263
 4673SOL    HW214919   5.230   6.984   1.224
 4674SOL     OW14920   5.150   0.258   6.299
 4674SOL    HW114921   5.143   0.243   6.201
 4674SOL    HW214922   5.208   0.187   6.340
 4675SOL     OW14923   0.976   1.558   6.144
 4675SOL    HW114924   0.929   1.559   6.232
 4675SOL    HW214925   1.074   1.542   6.159
 4676SOL     OW14926   0.383   6.284   3.395
 4676SOL    HW114927   0.428   6.202   3.361
 4676SOL    HW214928   0.285   6.279   3.377
 4677SOL     OW14929   2.822   1.331   6.664
 4677SOL    HW114930   2.905   1.323   6.609
 4677SOL    HW214931   2.757   1.261   6.636
 4678SOL     OW14932   1.756   4.640   3.321
 4678SOL    HW114933   1.837   4.666   3.374
 4678SOL    HW214934   1.728   4.548   3.348
 4679SOL     OW14935   3.670   0.052   0.163
 4679SOL    HW114936   3.715   0.141   0.156
 4679SOL    HW214937   3.606   0.053   0.239
 4680SOL     OW14938   2.863   1.651   6.959
 4680SOL    HW114939   2.888   1.747   6.971
 4680SOL    HW214940   2.797   1.642   6.884
 4681SOL     OW14941   5.115   5.500   6.931
 4681SOL    HW114942   5.095   5.584   6.881
 4681SOL    HW214943   5.199   5.511   6.983
 4682SOL     OW14944   4.845   4.163   5.359
 4682SOL    HW114945   4.800   4.140   5.273
 4682SOL    HW214946   4.942   4.181   5.343
 4683SOL     OW14947   4.983   4.977   2.290
 4683SOL    HW114948   4.943   4.907   2.350
 4683SOL    HW214949   4.914   5.047   2.271
 4684SOL     OW14950   5.481   0.534   5.331
 4684SOL    HW114951   5.575   0.505   5.347
 4684SOL    HW214952   5.428   0.523   5.415
 4685SOL     OW14953   0.977   5.556   5.639
 4685SOL    HW114954   1.059   5.531   5.689
 4685SOL    HW214955   0.917   5.477   5.629
 4686SOL     OW14956   4.304   4.732   0.145
 4686SOL    HW114957   4.372   4.773   0.207
 4686SOL    HW214958   4.267   4.649   0.186
 4687SOL     OW14959   5.717   3.530   4.077
 4687SOL    HW114960   5.802   3.507   4.123
 4687SOL    HW214961   5.639   3.498   4.131
 4688SOL     OW14962   5.906   3.973   4.816
 4688SOL    HW114963   5.895   3.873   4.817
 4688SOL    HW214964   5.979   3.998   4.753
 4689SOL     OW14965   4.383   0.763   0.145
 4689SOL    HW114966   4.292   0.726   0.165
 4689SOL    HW214967   4.375   0.844   0.088
 4690SOL     OW14968   1.128   0.458   6.887
 4690SOL    HW114969   1.115   0.458   6.788
 4690SOL    HW214970   1.068   0.390   6.929
 4691SOL     OW14971   2.657   4.684   1.194
 4691SOL    HW114972   2.669   4.731   1.106
 4691SOL    HW214973   2.583   4.728   1.245
 4692SOL     OW14974   5.539   5.749   1.642
 4692SOL    HW114975   5.493   5.697   1.570
 4692SOL    HW214976   5.565   5.687   1.716
 4693SOL     OW14977   1.274   2.230   3.860
 4693SOL    HW114978   1.303   2.136   3.848
 4693SOL    HW214979   1.352   2.286   3.889
 4694SOL     OW14980   2.041   0.800   0.109
 4694SOL    HW114981   2.127   0.763   0.143
 4694SOL    HW214982   2.057   0.887   0.063
 4695SOL     OW14983   0.856   3.856   2.304
 4695SOL    HW114984   0.772   3.808   2.329
 4695SOL    HW214985   0.921   3.851   2.380
 4696SOL     OW14986   0.189   4.072   6.859
 4696SOL    HW114987   0.127   4.000   6.826
 4696SOL    HW214988   0.140   4.131   6.923
 4697SOL     OW14989   1.799   3.347   1.049
 4697SOL    HW114990   1.701   3.334   1.038
 4697SOL    HW214991   1.824   3.439   1.019
 4698SOL     OW14992   4.506   5.133   2.422
 4698SOL    HW114993   4.581   5.067   2.416
 4698SOL    HW214994   4.528   5.202   2.492
 4699SOL     OW14995   1.435   6.689   2.039
 4699SOL    HW114996   1.408   6.773   2.086
 4699SOL    HW214997   1.399   6.609   2.088
 4700SOL     OW14998   0.078   1.057   3.181
 4700SOL    HW114999   0.110   1.142   3.224
 4700SOL    HW215000   0.150   0.988   3.184
 4701SOL     OW15001   2.567   2.274   0.526
 4701SOL    HW115002   2.611   2.229   0.604
 4701SOL    HW215003   2.469   2.281   0.542
 4702SOL     OW15004   4.662   4.916   0.099
 4702SOL    HW115005   4.668   4.910   0.199
 4702SOL    HW215006   4.752   4.901   0.059
 4703SOL     OW15007   0.090   1.920   2.225
 4703SOL    HW115008   0.189   1.921   2.232
 4703SOL    HW215009   0.063   1.895   2.132
 4704SOL     OW15010   0.590   6.157   6.886
 4704SOL    HW115011   0.502   6.184   6.847
 4704SOL    HW215012   0.587   6.171   6.985
 4705SOL     OW15013   3.681   2.437   1.687
 4705SOL    HW115014   3.687   2.393   1.777
 4705SOL    HW215015   3.759   2.409   1.631
 4706SOL     OW15016   2.846   0.140   0.569
 4706SOL    HW115017   2.803   0.068   0.623
 4706SOL    HW215018   2.790   0.161   0.489
 4707SOL     OW15019   1.464   6.584   0.700
 4707SOL    HW115020   1.490   6.582   0.604
 4707SOL    HW215021   1.516   6.657   0.747
 4708SOL     OW15022   0.920   2.292   6.491
 4708SOL    HW115023   0.960   2.211   6.451
 4708SOL    HW215024   0.990   2.362   6.503
 4709SOL     OW15025   4.808   5.802   5.277
 4709SOL    HW115026   4.794   5.885   5.330
 4709SOL    HW215027   4.838   5.728   5.338
 4710SOL     OW15028   4.789   6.999   5.819
 4710SOL    HW115029   4.690   7.006   5.822
 4710SOL    HW215030   4.818   6.969   5.729
 4711SOL     OW15031   5.893   1.378   1.601
 4711SOL    HW115032   5.941   1.297   1.567
 4711SOL    HW215033   5.796   1.356   1.613
 4712SOL     OW15034   3.337   4.509   7.016
 4712SOL    HW115035   3.400   4.475   0.065
 4712SOL    HW215036   3.330   4.608   0.003
 4713SOL     OW15037   3.827   3.934   0.767
 4713SOL    HW115038   3.743   3.908   0.813
 4713SOL    HW215039   3.906   3.908   0.824
 4714SOL     OW15040   0.836   2.001   6.203
 4714SOL    HW115041   0.811   2.053   6.122
 4714SOL    HW215042   0.766   1.932   6.222
 4715SOL     OW15043   6.190   2.888   2.350
 4715SOL    HW115044   6.143   2.974   2.332
 4715SOL    HW215045   6.215   2.845   2.263
 4716SOL     OW15046   4.227   6.461   6.556
 4716SOL    HW115047   4.281   6.497   6.632
 4716SOL    HW215048   4.152   6.406   6.592
 4717SOL     OW15049   0.049   6.599   3.867
 4717SOL    HW115050   0.092   6.637   3.949
 4717SOL    HW215051   0.101   6.627   3.786
 4718SOL     OW15052   5.742   2.454   1.446
 4718SOL    HW115053   5.699   2.369   1.417
 4718SOL    HW215054   5.834   2.460   1.406
 4719SOL     OW15055   4.898   3.318   1.838
 4719SOL    HW115056   4.812   3.298   1.790
 4719SOL    HW215057   4.884   3.395   1.900
 4720SOL     OW15058   1.909   5.558   5.947
 4720SOL    HW115059   1.994   5.560   6.000
 4720SOL    HW215060   1.878   5.464   5.938
 4721SOL     OW15061   6.245   2.176   2.048
 4721SOL    HW115062   6.177   2.105   2.031
 4721SOL    HW215063   6.329   2.155   1.997
 4722SOL     OW15064   1.135   6.292   6.560
 4722SOL    HW115065   1.057   6.351   6.581
 4722SOL    HW215066   1.105   6.197   6.555
 4723SOL     OW15067   2.441   3.125   6.205
 4723SOL    HW115068   2.392   3.077   6.277
 4723SOL    HW215069   2.537   3.139   6.232
 4724SOL     OW15070   6.091   6.691   3.206
 4724SOL    HW115071   6.066   6.605   3.251
 4724SOL    HW215072   6.098   6.677   3.107
 4725SOL     OW15073   6.936   5.222   1.097
 4725SOL    HW115074   6.927   5.272   1.184
 4725SOL    HW215075   7.011   5.157   1.104
 4726SOL     OW15076   1.062   3.417   6.047
 4726SOL    HW115077   1.104   3.505   6.067
 4726SOL    HW215078   1.093   3.384   5.958
 4727SOL     OW15079   1.079   6.295   1.229
 4727SOL    HW115080   1.050   6.249   1.313
 4727SOL    HW215081   0.999   6.309   1.170
 4728SOL     OW15082   5.916   0.938   1.729
 4728SOL    HW115083   5.871   0.930   1.817
 4728SOL    HW215084   5.848   0.933   1.656
 4729SOL     OW15085   3.978   1.593   0.371
 4729SOL    HW115086   3.882   1.564   0.370
 4729SOL    HW215087   4.025   1.556   0.291
 4730SOL     OW15088   3.586   5.922   5.492
 4730SOL    HW115089   3.549   5.829   5.484
 4730SOL    HW215090   3.527   5.986   5.444
 4731SOL     OW15091   3.537   0.585   0.387
 4731SOL    HW115092   3.595   0.515   0.430
 4731SOL    HW215093   3.582   0.620   0.305
 4732SOL     OW15094   1.628   4.170   5.366
 4732SOL    HW115095   1.680   4.194   5.284
 4732SOL    HW215096   1.579   4.084   5.351
 4733SOL     OW15097   1.385   4.150   4.255
 4733SOL    HW115098   1.334   4.066   4.275
 4733SOL    HW215099   1.421   4.146   4.162
 4734SOL     OW15100   4.037   3.378   6.768
 4734SOL    HW115101   3.955   3.329   6.739
 4734SOL    HW215102   4.043   3.465   6.719
 4735SOL     OW15103   6.664   5.036   4.205
 4735SOL    HW115104   6.683   5.079   4.293
 4735SOL    HW215105   6.615   5.101   4.146
 4736SOL     OW15106   5.779   1.806   5.441
 4736SOL    HW115107   5.800   1.748   5.520
 4736SOL    HW215108   5.738   1.750   5.369
 4737SOL     OW15109   2.513   4.485   1.824
 4737SOL    HW115110   2.489   4.558   1.760
 4737SOL    HW215111   2.600   4.506   1.868
 4738SOL     OW15112   0.959   6.361   3.056
 4738SOL    HW115113   1.059   6.356   3.054
 4738SOL    HW215114   0.928   6.444   3.010
 4739SOL     OW15115   4.249   1.263   2.610
 4739SOL    HW115116   4.328   1.238   2.665
 4739SOL    HW215117   4.169   1.276   2.670
 4740SOL     OW15118   0.496   1.616   1.586
 4740SOL    HW115119   0.488   1.542   1.519
 4740SOL    HW215120   0.565   1.593   1.654
 4741SOL     OW15121   5.505   3.642   0.451
 4741SOL    HW115122   5.490   3.722   0.393
 4741SOL    HW215123   5.470   3.560   0.406
 4742SOL     OW15124   2.873   6.903   6.351
 4742SOL    HW115125   2.967   6.878   6.376
 4742SOL    HW215126   2.813   6.890   6.430
 4743SOL     OW15127   1.929   3.509   4.346
 4743SOL    HW115128   1.942   3.572   4.269
 4743SOL    HW215129   2.003   3.441   4.345
 4744SOL     OW15130   2.388   4.264   0.089
 4744SOL    HW115131   2.468   4.288   0.035
 4744SOL    HW215132   2.322   4.216   0.032
 4745SOL     OW15133   3.415   5.379   6.608
 4745SOL    HW115134   3.397   5.288   6.648
 4745SOL    HW215135   3.483   5.371   6.536
 4746SOL     OW15136   4.859   5.946   1.901
 4746SOL    HW115137   4.829   5.979   1.990
 4746SOL    HW215138   4.802   5.869   1.872
 4747SOL     OW15139   2.303   4.221   6.709
 4747SOL    HW115140   2.354   4.150   6.758
 4747SOL    HW215141   2.206   4.216   6.734
 4748SOL     OW15142   1.051   4.907   0.897
 4748SOL    HW115143   1.143   4.903   0.858
 4748SOL    HW215144   1.031   5.001   0.926
 4749SOL     OW15145   2.846   6.082   5.497
 4749SOL    HW115146   2.765   6.026   5.516
 4749SOL    HW215147   2.896   6.098   5.582
 4750SOL     OW15148   0.417   4.048   4.098
 4750SOL    HW115149   0.360   3.970   4.071
 4750SOL    HW215150   0.389   4.080   4.189
 4751SOL     OW15151   3.848   1.702   1.718
 4751SOL    HW115152   3.760   1.732   1.681
 4751SOL    HW215153   3.851   1.724   1.816
 4752SOL     OW15154   3.316   0.842   6.452
 4752SOL    HW115155   3.394   0.882   6.404
 4752SOL    HW215156   3.325   0.742   6.451
 4753SOL     OW15157   5.463   0.013   4.184
 4753SOL    HW115158   5.407   0.038   4.106
 4753SOL    HW215159   5.454   6.934   4.201
 4754SOL     OW15160   5.716   7.010   5.201
 4754SOL    HW115161   5.809   0.023   5.221
 4754SOL    HW215162   5.721   6.912   5.178
 4755SOL     OW15163   2.100   0.521   1.378
 4755SOL    HW115164   2.016   0.469   1.361
 4755SOL    HW215165   2.175   0.480   1.325
 4756SOL     OW15166   5.477   2.522   0.439
 4756SOL    HW115167   5.508   2.591   0.505
 4756SOL    HW215168   5.505   2.431   0.470
 4757SOL     OW15169   2.116   1.827   1.084
 4757SOL    HW115170   2.206   1.865   1.062
 4757SOL    HW215171   2.074   1.789   1.002
 4758SOL     OW15172   2.331   6.649   4.147
 4758SOL    HW115173   2.257   6.647   4.215
 4758SOL    HW215174   2.419   6.650   4.194
 4759SOL     OW15175   5.935   4.605   5.151
 4759SOL    HW115176   5.868   4.617   5.224
 4759SOL    HW215177   5.889   4.616   5.062
 4760SOL     OW15178   1.947   1.898   0.861
 4760SOL    HW115179   2.007   1.940   0.794
 4760SOL    HW215180   1.886   1.833   0.815
 4761SOL     OW15181   0.701   6.588   6.915
 4761SOL    HW115182   0.671   6.543   6.999
 4761SOL    HW215183   0.799   6.574   6.902
 4762SOL     OW15184   0.721   5.928   2.249
 4762SOL    HW115185   0.800   5.984   2.276
 4762SOL    HW215186   0.750   5.859   2.183
 4763SOL     OW15187   6.409   6.475   3.167
 4763SOL    HW115188   6.315   6.464   3.135
 4763SOL    HW215189   6.459   6.533   3.102
 4764SOL     OW15190   4.926   3.655   4.472
 4764SOL    HW115191   4.883   3.627   4.558
 4764SOL    HW215192   5.013   3.701   4.492
 4765SOL     OW15193   4.665   0.656   3.968
 4765SOL    HW115194   4.706   0.567   3.986
 4765SOL    HW215195   4.721   0.706   3.902
 4766SOL     OW15196   5.169   5.983   3.843
 4766SOL    HW115197   5.084   5.980   3.790
 4766SOL    HW215198   5.151   6.020   3.934
 4767SOL     OW15199   3.223   5.176   5.477
 4767SOL    HW115200   3.182   5.231   5.405
 4767SOL    HW215201   3.295   5.118   5.438
 4768SOL     OW15202   4.190   1.662   5.914
 4768SOL    HW115203   4.116   1.724   5.937
 4768SOL    HW215204   4.158   1.568   5.918
 4769SOL     OW15205   5.166   4.343   6.753
 4769SOL    HW115206   5.118   4.364   6.839
 4769SOL    HW215207   5.100   4.338   6.679
 4770SOL     OW15208   1.021   0.744   4.419
 4770SOL    HW115209   1.109   0.742   4.373
 4770SOL    HW215210   1.032   0.789   4.508
 4771SOL     OW15211   2.952   5.947   5.109
 4771SOL    HW115212   3.050   5.925   5.113
 4771SOL    HW215213   2.915   5.920   5.020
 4772SOL     OW15214   3.843   4.626   1.509
 4772SOL    HW115215   3.810   4.679   1.431
 4772SOL    HW215216   3.890   4.687   1.573
 4773SOL     OW15217   0.286   5.277   3.493
 4773SOL    HW115218   0.343   5.200   3.522
 4773SOL    HW215219   0.320   5.361   3.536
 4774SOL     OW15220   1.245   3.340   1.817
 4774SOL    HW115221   1.154   3.349   1.857
 4774SOL    HW215222   1.286   3.253   1.845
 4775SOL     OW15223   4.896   6.442   2.417
 4775SOL    HW115224   4.932   6.454   2.509
 4775SOL    HW215225   4.925   6.353   2.381
 4776SOL     OW15226   1.556   6.450   5.357
 4776SOL    HW115227   1.460   6.446   5.328
 4776SOL    HW215228   1.561   6.469   5.454
 4777SOL     OW15229   2.371   5.168   0.960
 4777SOL    HW115230   2.410   5.253   0.925
 4777SOL    HW215231   2.424   5.138   1.039
 4778SOL     OW15232   6.270   2.636   3.399
 4778SOL    HW115233   6.350   2.654   3.457
 4778SOL    HW215234   6.235   2.544   3.419
 4779SOL     OW15235   6.449   6.244   2.604
 4779SOL    HW115236   6.357   6.263   2.572
 4779SOL    HW215237   6.511   6.316   2.574
 4780SOL     OW15238   5.899   1.206   0.252
 4780SOL    HW115239   5.918   1.247   0.163
 4780SOL    HW215240   5.855   1.274   0.311
 4781SOL     OW15241   2.693   5.595   2.372
 4781SOL    HW115242   2.716   5.498   2.377
 4781SOL    HW215243   2.595   5.605   2.353
 4782SOL     OW15244   4.825   5.685   0.317
 4782SOL    HW115245   4.841   5.705   0.221
 4782SOL    HW215246   4.751   5.619   0.327
 4783SOL     OW15247   4.171   3.632   6.888
 4783SOL    HW115248   4.249   3.574   6.913
 4783SOL    HW215249   4.156   3.625   6.790
 4784SOL     OW15250   6.543   3.869   6.638
 4784SOL    HW115251   6.556   3.890   6.735
 4784SOL    HW215252   6.447   3.881   6.614
 4785SOL     OW15253   0.975   6.607   2.350
 4785SOL    HW115254   1.012   6.693   2.313
 4785SOL    HW215255   1.050   6.544   2.368
 4786SOL     OW15256   2.721   1.253   0.285
 4786SOL    HW115257   2.799   1.222   0.230
 4786SOL    HW215258   2.752   1.323   0.350
 4787SOL     OW15259   4.658   1.549   2.426
 4787SOL    HW115260   4.756   1.552   2.407
 4787SOL    HW215261   4.607   1.556   2.339
 4788SOL     OW15262   0.212   5.542   5.923
 4788SOL    HW115263   0.134   5.596   5.892
 4788SOL    HW215264   0.279   5.602   5.966
 4789SOL     OW15265   5.042   1.672   0.793
 4789SOL    HW115266   4.997   1.715   0.872
 4789SOL    HW215267   5.065   1.743   0.726
 4790SOL     OW15268   6.015   1.961   5.000
 4790SOL    HW115269   5.941   1.964   4.933
 4790SOL    HW215270   5.987   2.011   5.083
 4791SOL     OW15271   7.001   2.494   1.713
 4791SOL    HW115272   0.006   2.568   1.650
 4791SOL    HW215273   6.972   2.414   1.660
 4792SOL     OW15274   1.680   3.970   3.655
 4792SOL    HW115275   1.601   3.940   3.601
 4792SOL    HW215276   1.762   3.968   3.599
 4793SOL     OW15277   1.980   3.025   5.200
 4793SOL    HW115278   2.040   3.093   5.242
 4793SOL    HW215279   2.008   3.011   5.105
 4794SOL     OW15280   5.070   0.407   4.010
 4794SOL    HW115281   5.150   0.352   3.984
 4794SOL    HW215282   5.088   0.450   4.099
 4795SOL     OW15283   5.918   2.061   4.090
 4795SOL    HW115284   5.990   2.124   4.117
 4795SOL    HW215285   5.865   2.100   4.015
 4796SOL     OW15286   4.685   1.876   5.323
 4796SOL    HW115287   4.610   1.816   5.348
 4796SOL    HW215288   4.725   1.916   5.406
 4797SOL     OW15289   0.906   6.487   5.460
 4797SOL    HW115290   0.992   6.537   5.450
 4797SOL    HW215291   0.918   6.412   5.524
 4798SOL     OW15292   0.668   3.814   5.168
 4798SOL    HW115293   0.755   3.864   5.165
 4798SOL    HW215294   0.662   3.753   5.089
 4799SOL     OW15295   4.658   1.818   6.963
 4799SOL    HW115296   4.585   1.868   7.010
 4799SOL    HW215297   4.725   1.883   6.927
 4800SOL     OW15298   3.484   3.055   6.080
 4800SOL    HW115299   3.444   3.075   6.170
 4800SOL    HW215300   3.490   2.956   6.068
 4801SOL     OW15301   3.001   2.498   6.371
 4801SOL    HW115302   2.983   2.403   6.348
 4801SOL    HW215303   2.934   2.529   6.438
 4802SOL     OW15304   1.281   6.888   2.211
 4802SOL    HW115305   1.285   6.986   2.229
 4802SOL    HW215306   1.204   6.848   2.261
 4803SOL     OW15307   0.631   5.780   1.233
 4803SOL    HW115308   0.667   5.873   1.236
 4803SOL    HW215309   0.600   5.759   1.140
 4804SOL     OW15310   5.468   5.613   0.818
 4804SOL    HW115311   5.450   5.535   0.758
 4804SOL    HW215312   5.382   5.661   0.836
 4805SOL     OW15313   5.881   2.035   2.566
 4805SOL    HW115314   5.950   2.096   2.527
 4805SOL    HW215315   5.849   1.972   2.495
 4806SOL     OW15316   1.583   4.364   3.033
 4806SOL    HW115317   1.515   4.418   3.082
 4806SOL    HW215318   1.545   4.274   3.011
 4807SOL     OW15319   0.608   5.275   0.711
 4807SOL    HW115320   0.620   5.209   0.637
 4807SOL    HW215321   0.626   5.367   0.677
 4808SOL     OW15322   5.380   4.473   0.027
 4808SOL    HW115323   5.375   4.375   0.046
 4808SOL    HW215324   5.432   4.488   6.962
 4809SOL     OW15325   4.069   4.177   0.181
 4809SOL    HW115326   4.117   4.127   0.109
 4809SOL    HW215327   3.981   4.210   0.146
 4810SOL     OW15328   1.663   5.101   2.289
 4810SOL    HW115329   1.582   5.139   2.244
 4810SOL    HW215330   1.737   5.168   2.287
 4811SOL     OW15331   2.712   4.025   1.664
 4811SOL    HW115332   2.764   3.980   1.737
 4811SOL    HW215333   2.776   4.070   1.601
 4812SOL     OW15334   6.715   5.303   2.770
 4812SOL    HW115335   6.726   5.377   2.836
 4812SOL    HW215336   6.765   5.326   2.686
 4813SOL     OW15337   5.567   2.260   0.502
 4813SOL    HW115338   5.575   2.266   0.602
 4813SOL    HW215339   5.631   2.192   0.467
 4814SOL     OW15340   6.905   3.256   1.169
 4814SOL    HW115341   6.813   3.259   1.210
 4814SOL    HW215342   6.909   3.321   1.093
 4815SOL     OW15343   5.542   4.095   2.589
 4815SOL    HW115344   5.562   4.159   2.514
 4815SOL    HW215345   5.626   4.048   2.616
 4816SOL     OW15346   1.974   4.712   0.913
 4816SOL    HW115347   1.938   4.621   0.931
 4816SOL    HW215348   1.928   4.751   0.833
 4817SOL     OW15349   1.089   1.828   6.776
 4817SOL    HW115350   1.159   1.893   6.805
 4817SOL    HW215351   1.116   1.735   6.802
 4818SOL     OW15352   0.876   6.255   3.855
 4818SOL    HW115353   0.972   6.256   3.885
 4818SOL    HW215354   0.824   6.321   3.909
 4819SOL     OW15355   1.523   1.493   0.515
 4819SOL    HW115356   1.434   1.465   0.478
 4819SOL    HW215357   1.558   1.570   0.462
 4820SOL     OW15358   5.933   2.412   2.139
 4820SOL    HW115359   6.024   2.387   2.174
 4820SOL    HW215360   5.931   2.510   2.119
 4821SOL     OW15361   1.271   6.489   2.343
 4821SOL    HW115362   1.279   6.448   2.252
 4821SOL    HW215363   1.345   6.555   2.356
 4822SOL     OW15364   1.942   2.846   4.424
 4822SOL    HW115365   1.880   2.917   4.457
 4822SOL    HW215366   2.037   2.876   4.436
 4823SOL     OW15367   1.857   0.430   4.489
 4823SOL    HW115368   1.941   0.455   4.440
 4823SOL    HW215369   1.809   0.513   4.517
 4824SOL     OW15370   5.227   1.662   4.630
 4824SOL    HW115371   5.235   1.597   4.553
 4824SOL    HW215372   5.238   1.755   4.596
 4825SOL     OW15373   1.802   3.132   4.240
 4825SOL    HW115374   1.781   3.216   4.189
 4825SOL    HW215375   1.899   3.110   4.229
 4826SOL     OW15376   5.875   1.368   6.984
 4826SOL    HW115377   5.804   1.338   6.919
 4826SOL    HW215378   5.840   1.443   0.020
 4827SOL     OW15379   6.758   1.758   0.810
 4827SOL    HW115380   6.672   1.761   0.861
 4827SOL    HW215381   6.833   1.789   0.868
 4828SOL     OW15382   5.488   2.385   0.744
 4828SOL    HW115383   5.401   2.348   0.713
 4828SOL    HW215384   5.495   2.482   0.719
 4829SOL     OW15385   3.994   6.482   6.014
 4829SOL    HW115386   3.982   6.569   6.061
 4829SOL    HW215387   3.926   6.474   5.940
 4830SOL     OW15388   4.247   6.474   4.091
 4830SOL    HW115389   4.183   6.540   4.131
 4830SOL    HW215390   4.213   6.442   4.003
 4831SOL     OW15391   0.846   4.311   6.186
 4831SOL    HW115392   0.761   4.314   6.240
 4831SOL    HW215393   0.823   4.307   6.089
 4832SOL     OW15394   3.549   3.423   3.931
 4832SOL    HW115395   3.578   3.335   3.968
 4832SOL    HW215396   3.585   3.497   3.988
 4833SOL     OW15397   4.805   2.243   2.845
 4833SOL    HW115398   4.782   2.191   2.927
 4833SOL    HW215399   4.803   2.341   2.866
 4834SOL     OW15400   3.365   6.276   0.620
 4834SOL    HW115401   3.374   6.372   0.649
 4834SOL    HW215402   3.333   6.221   0.697
 4835SOL     OW15403   6.037   1.574   0.190
 4835SOL    HW115404   6.063   1.611   0.101
 4835SOL    HW215405   5.941   1.547   0.188
 4836SOL     OW15406   5.424   2.773   4.717
 4836SOL    HW115407   5.374   2.790   4.633
 4836SOL    HW215408   5.366   2.795   4.796
 4837SOL     OW15409   6.686   4.091   3.185
 4837SOL    HW115410   6.652   4.169   3.133
 4837SOL    HW215411   6.673   4.109   3.283
 4838SOL     OW15412   1.237   5.534   0.235
 4838SOL    HW115413   1.163   5.509   0.297
 4838SOL    HW215414   1.265   5.454   0.182
 4839SOL     OW15415   1.957   3.443   6.867
 4839SOL    HW115416   1.883   3.379   6.887
 4839SOL    HW215417   1.935   3.496   6.786
 4840SOL     OW15418   6.253   3.950   6.627
 4840SOL    HW115419   6.155   3.935   6.612
 4840SOL    HW215420   6.271   4.048   6.635
 4841SOL     OW15421   2.549   5.309   2.187
 4841SOL    HW115422   2.492   5.319   2.105
 4841SOL    HW215423   2.566   5.211   2.203
 4842SOL     OW15424   3.484   5.800   2.342
 4842SOL    HW115425   3.522   5.766   2.428
 4842SOL    HW215426   3.487   5.900   2.341
 4843SOL     OW15427   7.008   3.378   1.654
 4843SOL    HW115428   6.989   3.376   1.556
 4843SOL    HW215429   0.003   3.285   1.687
 4844SOL     OW15430   1.083   3.700   6.411
 4844SOL    HW115431   1.008   3.642   6.379
 4844SOL    HW215432   1.060   3.796   6.397
 4845SOL     OW15433   5.074   5.228   0.046
 4845SOL    HW115434   5.084   5.319   0.007
 4845SOL    HW215435   5.147   5.212   0.112
 4846SOL     OW15436   6.859   2.821   3.513
 4846SOL    HW115437   6.809   2.851   3.595
 4846SOL    HW215438   6.796   2.808   3.438
 4847SOL     OW15439   2.233   0.728   6.385
 4847SOL    HW115440   2.202   0.667   6.458
 4847SOL    HW215441   2.292   0.677   6.322
 4848SOL     OW15442   1.500   1.109   4.521
 4848SOL    HW115443   1.540   1.200   4.506
 4848SOL    HW215444   1.413   1.102   4.472
 4849SOL     OW15445   0.756   6.285   6.651
 4849SOL    HW115446   0.720   6.286   6.557
 4849SOL    HW215447   0.681   6.299   6.716
 4850SOL     OW15448   4.031   1.222   1.896
 4850SOL    HW115449   4.014   1.244   1.992
 4850SOL    HW215450   3.947   1.189   1.854
 4851SOL     OW15451   3.882   6.863   5.740
 4851SOL    HW115452   3.874   6.894   5.835
 4851SOL    HW215453   3.792   6.834   5.706
 4852SOL     OW15454   1.483   5.764   4.874
 4852SOL    HW115455   1.511   5.678   4.915
 4852SOL    HW215456   1.537   5.782   4.793
 4853SOL     OW15457   3.418   1.089   3.255
 4853SOL    HW115458   3.467   1.004   3.236
 4853SOL    HW215459   3.477   1.167   3.232
 4854SOL     OW15460   4.293   6.357   1.579
 4854SOL    HW115461   4.367   6.404   1.530
 4854SOL    HW215462   4.210   6.412   1.573
 4855SOL     OW15463   6.069   2.459   4.459
 4855SOL    HW115464   5.984   2.408   4.466
 4855SOL    HW215465   6.078   2.497   4.367
 4856SOL     OW15466   1.600   2.852   3.244
 4856SOL    HW115467   1.621   2.759   3.271
 4856SOL    HW215468   1.583   2.908   3.326
 4857SOL     OW15469   3.619   2.104   3.950
 4857SOL    HW115470   3.573   2.114   4.038
 4857SOL    HW215471   3.713   2.074   3.965
 4858SOL     OW15472   0.523   0.393   4.638
 4858SOL    HW115473   0.506   0.429   4.546
 4858SOL    HW215474   0.606   0.336   4.636
 4859SOL     OW15475   0.873   6.094   3.636
 4859SOL    HW115476   0.901   6.155   3.711
 4859SOL    HW215477   0.832   6.148   3.563
 4860SOL     OW15478   4.652   4.390   1.324
 4860SOL    HW115479   4.673   4.380   1.227
 4860SOL    HW215480   4.725   4.351   1.379
 4861SOL     OW15481   6.200   5.201   0.372
 4861SOL    HW115482   6.201   5.146   0.289
 4861SOL    HW215483   6.108   5.200   0.412
 4862SOL     OW15484   2.430   4.577   5.058
 4862SOL    HW115485   2.461   4.551   4.967
 4862SOL    HW215486   2.408   4.494   5.110
 4863SOL     OW15487   4.754   4.097   1.267
 4863SOL    HW115488   4.761   4.141   1.357
 4863SOL    HW215489   4.827   4.029   1.258
 4864SOL     OW15490   4.069   1.565   2.473
 4864SOL    HW115491   3.970   1.576   2.480
 4864SOL    HW215492   4.111   1.654   2.455
 4865SOL     OW15493   2.564   6.627   4.315
 4865SOL    HW115494   2.631   6.701   4.311
 4865SOL    HW215495   2.611   6.539   4.303
 4866SOL     OW15496   6.732   4.238   1.257
 4866SOL    HW115497   6.662   4.295   1.301
 4866SOL    HW215498   6.774   4.179   1.326
 4867SOL     OW15499   4.850   5.454   2.408
 4867SOL    HW115500   4.939   5.472   2.365
 4867SOL    HW215501   4.861   5.387   2.481
 4868SOL     OW15502   6.761   4.926   2.435
 4868SOL    HW115503   6.805   4.989   2.370
 4868SOL    HW215504   6.790   4.949   2.528
 4869SOL     OW15505   0.267   1.336   1.577
 4869SOL    HW115506   0.343   1.329   1.512
 4869SOL    HW215507   0.296   1.389   1.657
 4870SOL     OW15508   0.070   6.212   1.782
 4870SOL    HW115509   7.019   6.231   1.851
 4870SOL    HW215510   0.136   6.286   1.781
 4871SOL     OW15511   0.836   1.719   4.999
 4871SOL    HW115512   0.834   1.702   4.901
 4871SOL    HW215513   0.747   1.697   5.039
 4872SOL     OW15514   6.618   5.476   4.262
 4872SOL    HW115515   6.550   5.406   4.283
 4872SOL    HW215516   6.673   5.495   4.343
 4873SOL     OW15517   6.694   4.740   3.654
 4873SOL    HW115518   6.728   4.661   3.704
 4873SOL    HW215519   6.720   4.824   3.702
 4874SOL     OW15520   6.169   3.284   3.279
 4874SOL    HW115521   6.093   3.333   3.323
 4874SOL    HW215522   6.135   3.197   3.242
 4875SOL     OW15523   5.848   3.298   1.781
 4875SOL    HW115524   5.841   3.298   1.880
 4875SOL    HW215525   5.850   3.204   1.747
 4876SOL     OW15526   5.385   1.408   4.149
 4876SOL    HW115527   5.361   1.469   4.074
 4876SOL    HW215528   5.348   1.444   4.235
 4877SOL     OW15529   0.586   1.998   0.548
 4877SOL    HW115530   0.590   1.939   0.468
 4877SOL    HW215531   0.575   2.093   0.518
 4878SOL     OW15532   6.230   0.596   3.122
 4878SOL    HW115533   6.201   0.560   3.034
 4878SOL    HW215534   6.190   0.540   3.195
 4879SOL     OW15535   4.224   5.349   3.546
 4879SOL    HW115536   4.128   5.365   3.521
 4879SOL    HW215537   4.233   5.260   3.590
 4880SOL     OW15538   6.216   2.880   6.931
 4880SOL    HW115539   6.263   2.792   6.918
 4880SOL    HW215540   6.240   2.917   0.001
 4881SOL     OW15541   2.145   0.519   6.531
 4881SOL    HW115542   2.047   0.509   6.513
 4881SOL    HW215543   2.197   0.478   6.457
 4882SOL     OW15544   5.232   1.542   4.355
 4882SOL    HW115545   5.172   1.600   4.300
 4882SOL    HW215546   5.322   1.586   4.363
 4883SOL     OW15547   5.354   4.859   2.060
 4883SOL    HW115548   5.339   4.933   2.126
 4883SOL    HW215549   5.397   4.896   1.978
 4884SOL     OW15550   3.818   0.601   1.672
 4884SOL    HW115551   3.776   0.675   1.620
 4884SOL    HW215552   3.882   0.552   1.613
 4885SOL     OW15553   1.818   5.596   2.382
 4885SOL    HW115554   1.766   5.645   2.452
 4885SOL    HW215555   1.900   5.648   2.359
 4886SOL     OW15556   0.199   6.403   1.195
 4886SOL    HW115557   0.110   6.446   1.187
 4886SOL    HW215558   0.195   6.329   1.261
 4887SOL     OW15559   0.766   0.350   3.140
 4887SOL    HW115560   0.743   0.254   3.126
 4887SOL    HW215561   0.732   0.380   3.230
 4888SOL     OW15562   2.200   6.375   4.701
 4888SOL    HW115563   2.257   6.426   4.637
 4888SOL    HW215564   2.139   6.313   4.651
 4889SOL     OW15565   6.188   1.087   6.602
 4889SOL    HW115566   6.096   1.126   6.607
 4889SOL    HW215567   6.241   1.118   6.681
 4890SOL     OW15568   0.932   1.717   5.928
 4890SOL    HW115569   0.947   1.655   6.005
 4890SOL    HW215570   1.019   1.734   5.881
 4891SOL     OW15571   1.740   5.235   0.369
 4891SOL    HW115572   1.811   5.271   0.308
 4891SOL    HW215573   1.742   5.135   0.367
 4892SOL     OW15574   3.256   5.828   1.499
 4892SOL    HW115575   3.169   5.799   1.460
 4892SOL    HW215576   3.292   5.755   1.558
 4893SOL     OW15577   0.383   4.178   1.574
 4893SOL    HW115578   0.467   4.231   1.583
 4893SOL    HW215579   0.346   4.157   1.665
 4894SOL     OW15580   2.351   2.002   2.581
 4894SOL    HW115581   2.274   1.983   2.520
 4894SOL    HW215582   2.431   2.027   2.526
 4895SOL     OW15583   0.934   5.580   2.809
 4895SOL    HW115584   0.899   5.565   2.717
 4895SOL    HW215585   0.992   5.503   2.836
 4896SOL     OW15586   2.293   5.588   1.717
 4896SOL    HW115587   2.354   5.511   1.700
 4896SOL    HW215588   2.346   5.673   1.714
 4897SOL     OW15589   2.226   4.700   6.102
 4897SOL    HW115590   2.233   4.602   6.084
 4897SOL    HW215591   2.223   4.750   6.016
 4898SOL     OW15592   3.956   1.665   4.109
 4898SOL    HW115593   3.895   1.685   4.187
 4898SOL    HW215594   4.013   1.586   4.132
 4899SOL     OW15595   6.209   5.749   3.461
 4899SOL    HW115596   6.256   5.661   3.467
 4899SOL    HW215597   6.217   5.785   3.368
 4900SOL     OW15598   1.971   5.720   4.721
 4900SOL    HW115599   2.045   5.766   4.769
 4900SOL    HW215600   2.004   5.635   4.681
 4901SOL     OW15601   3.153   6.755   5.881
 4901SOL    HW115602   3.092   6.752   5.960
 4901SOL    HW215603   3.248   6.749   5.912
 4902SOL     OW15604   2.536   1.721   4.631
 4902SOL    HW115605   2.600   1.695   4.704
 4902SOL    HW215606   2.565   1.680   4.545
 4903SOL     OW15607   3.193   5.828   0.220
 4903SOL    HW115608   3.115   5.859   0.166
 4903SOL    HW215609   3.275   5.828   0.163
 4904SOL     OW15610   1.122   0.498   4.251
 4904SOL    HW115611   1.156   0.490   4.344
 4904SOL    HW215612   1.182   0.447   4.189
 4905SOL     OW15613   4.411   1.298   2.162
 4905SOL    HW115614   4.349   1.316   2.238
 4905SOL    HW215615   4.372   1.229   2.102
 4906SOL     OW15616   4.469   2.212   6.333
 4906SOL    HW115617   4.426   2.221   6.243
 4906SOL    HW215618   4.542   2.143   6.328
 4907SOL     OW15619   4.540   5.452   1.063
 4907SOL    HW115620   4.459   5.473   1.009
 4907SOL    HW215621   4.565   5.531   1.120
 4908SOL     OW15622   5.083   4.960   6.019
 4908SOL    HW115623   5.180   4.985   6.016
 4908SOL    HW215624   5.054   4.955   6.114
 4909SOL     OW15625   6.304   6.928   4.736
 4909SOL    HW115626   6.348   6.961   4.652
 4909SOL    HW215627   6.359   6.854   4.775
 4910SOL     OW15628   5.327   6.414   4.383
 4910SOL    HW115629   5.329   6.398   4.481
 4910SOL    HW215630   5.239   6.455   4.357
 4911SOL     OW15631   0.667   3.586   4.945
 4911SOL    HW115632   0.587   3.614   4.891
 4911SOL    HW215633   0.640   3.515   5.010
 4912SOL     OW15634   5.326   2.209   0.397
 4912SOL    HW115635   5.413   2.233   0.440
 4912SOL    HW215636   5.320   2.110   0.385
 4913SOL     OW15637   3.798   3.613   4.341
 4913SOL    HW115638   3.777   3.631   4.245
 4913SOL    HW215639   3.896   3.628   4.357
 4914SOL     OW15640   3.577   6.803   5.415
 4914SOL    HW115641   3.638   6.731   5.382
 4914SOL    HW215642   3.596   6.820   5.512
 4915SOL     OW15643   4.381   0.453   4.566
 4915SOL    HW115644   4.429   0.399   4.497
 4915SOL    HW215645   4.285   0.464   4.539
 4916SOL     OW15646   1.602   1.113   4.051
 4916SOL    HW115647   1.554   1.033   4.018
 4916SOL    HW215648   1.701   1.098   4.043
 4917SOL     OW15649   1.812   4.860   0.726
 4917SOL    HW115650   1.766   4.916   0.794
 4917SOL    HW215651   1.746   4.798   0.684
 4918SOL     OW15652   3.664   6.627   2.353
 4918SOL    HW115653   3.714   6.658   2.434
 4918SOL    HW215654   3.724   6.634   2.273
 4919SOL     OW15655   2.280   2.335   6.935
 4919SOL    HW115656   2.217   2.382   6.873
 4919SOL    HW215657   2.229   2.293   7.009
 4920SOL     OW15658   5.101   0.431   5.745
 4920SOL    HW115659   5.080   0.335   5.728
 4920SOL    HW215660   5.143   0.471   5.663
 4921SOL     OW15661   2.003   4.528   0.710
 4921SOL    HW115662   2.069   4.569   0.773
 4921SOL    HW215663   2.050   4.499   0.626
 4922SOL     OW15664   1.820   2.798   4.798
 4922SOL    HW115665   1.917   2.815   4.779
 4922SOL    HW215666   1.791   2.854   4.875
 4923SOL     OW15667   3.721   1.507   0.357
 4923SOL    HW115668   3.721   1.537   0.452
 4923SOL    HW215669   3.690   1.582   0.298
 4924SOL     OW15670   2.227   1.716   5.320
 4924SOL    HW115671   2.202   1.774   5.242
 4924SOL    HW215672   2.318   1.743   5.353
 4925SOL     OW15673   5.129   6.681   2.135
 4925SOL    HW115674   5.154   6.777   2.126
 4925SOL    HW215675   5.041   6.673   2.181
 4926SOL     OW15676   4.935   2.220   0.430
 4926SOL    HW115677   4.965   2.147   0.368
 4926SOL    HW215678   4.955   2.309   0.389
 4927SOL     OW15679   3.925   3.467   4.001
 4927SOL    HW115680   4.002   3.458   4.064
 4927SOL    HW215681   3.959   3.476   3.907
 4928SOL     OW15682   0.496   0.261   6.740
 4928SOL    HW115683   0.547   0.230   6.821
 4928SOL    HW215684   0.550   0.330   6.692
 4929SOL     OW15685   1.432   4.729   4.725
 4929SOL    HW115686   1.392   4.637   4.728
 4929SOL    HW215687   1.434   4.761   4.630
 4930SOL     OW15688   4.588   0.959   2.532
 4930SOL    HW115689   4.654   1.034   2.531
 4930SOL    HW215690   4.619   0.886   2.472
 4931SOL     OW15691   6.519   0.099   0.866
 4931SOL    HW115692   6.578   0.165   0.820
 4931SOL    HW215693   6.572   0.048   0.934
 4932SOL     OW15694   2.249   3.212   1.745
 4932SOL    HW115695   2.203   3.222   1.656
 4932SOL    HW215696   2.309   3.290   1.760
 4933SOL     OW15697   1.701   0.072   3.401
 4933SOL    HW115698   1.647   0.156   3.400
 4933SOL    HW215699   1.799   0.094   3.396
 4934SOL     OW15700   2.123   5.027   2.786
 4934SOL    HW115701   2.050   5.078   2.740
 4934SOL    HW215702   2.093   5.000   2.877
 4935SOL     OW15703   1.176   1.525   6.828
 4935SOL    HW115704   1.119   1.513   6.909
 4935SOL    HW215705   1.180   1.440   6.776
 4936SOL     OW15706   1.592   4.492   0.729
 4936SOL    HW115707   1.658   4.548   0.678
 4936SOL    HW215708   1.636   4.457   0.812
 4937SOL     OW15709   0.012   2.868   6.303
 4937SOL    HW115710   6.961   2.797   6.303
 4937SOL    HW215711   0.095   2.832   6.346
 4938SOL     OW15712   2.573   5.680   6.572
 4938SOL    HW115713   2.509   5.617   6.529
 4938SOL    HW215714   2.649   5.699   6.510
 4939SOL     OW15715   0.153   1.779   4.246
 4939SOL    HW115716   0.127   1.852   4.309
 4939SOL    HW215717   0.234   1.732   4.282
 4940SOL     OW15718   0.525   1.889   5.213
 4940SOL    HW115719   0.557   1.803   5.171
 4940SOL    HW215720   0.505   1.873   5.310
 4941SOL     OW15721   4.704   2.638   5.384
 4941SOL    HW115722   4.712   2.736   5.367
 4941SOL    HW215723   4.732   2.618   5.478
 4942SOL     OW15724   5.752   2.738   5.892
 4942SOL    HW115725   5.663   2.699   5.871
 4942SOL    HW215726   5.818   2.711   5.822
 4943SOL     OW15727   4.854   4.270   6.291
 4943SOL    HW115728   4.778   4.210   6.316
 4943SOL    HW215729   4.937   4.216   6.278
 4944SOL     OW15730   2.477   4.186   1.763
 4944SOL    HW115731   2.487   4.281   1.736
 4944SOL    HW215732   2.540   4.129   1.710
 4945SOL     OW15733   1.068   0.132   4.008
 4945SOL    HW115734   1.006   0.059   4.038
 4945SOL    HW215735   1.019   0.194   3.947
 4946SOL     OW15736   0.754   5.349   6.908
 4946SOL    HW115737   0.705   5.302   6.834
 4946SOL    HW215738   0.819   5.286   6.950
 4947SOL     OW15739   2.310   0.673   0.654
 4947SOL    HW115740   2.402   0.658   0.618
 4947SOL    HW215741   2.244   0.674   0.578
 4948SOL     OW15742   2.160   2.784   2.810
 4948SOL    HW115743   2.166   2.853   2.738
 4948SOL    HW215744   2.127   2.826   2.895
 4949SOL     OW15745   5.905   4.558   5.982
 4949SOL    HW115746   5.932   4.588   6.073
 4949SOL    HW215747   5.983   4.564   5.920
 4950SOL     OW15748   2.214   4.707   4.558
 4950SOL    HW115749   2.209   4.797   4.515
 4950SOL    HW215750   2.122   4.668   4.563
 4951SOL     OW15751   5.800   1.018   4.490
 4951SOL    HW115752   5.738   0.939   4.479
 4951SOL    HW215753   5.746   1.099   4.515
 4952SOL     OW15754   6.822   0.199   6.420
 4952SOL    HW115755   6.784   0.137   6.488
 4952SOL    HW215756   6.765   0.196   6.337
 4953SOL     OW15757   1.695   6.827   3.422
 4953SOL    HW115758   1.687   6.927   3.433
 4953SOL    HW215759   1.668   6.801   3.330
 4954SOL     OW15760   2.869   3.265   0.345
 4954SOL    HW115761   2.844   3.171   0.369
 4954SOL    HW215762   2.935   3.299   0.412
 4955SOL     OW15763   3.201   6.464   0.035
 4955SOL    HW115764   3.202   6.366   0.017
 4955SOL    HW215765   3.191   6.479   0.134
 4956SOL     OW15766   2.827   6.848   5.177
 4956SOL    HW115767   2.769   6.913   5.227
 4956SOL    HW215768   2.922   6.863   5.202
 4957SOL     OW15769   5.412   2.668   1.846
 4957SOL    HW115770   5.491   2.698   1.793
 4957SOL    HW215771   5.437   2.589   1.902
 4958SOL     OW15772   0.459   5.653   5.681
 4958SOL    HW115773   0.444   5.598   5.763
 4958SOL    HW215774   0.470   5.593   5.602
 4959SOL     OW15775   6.297   1.816   0.711
 4959SOL    HW115776   6.297   1.913   0.686
 4959SOL    HW215777   6.204   1.787   0.734
 4960SOL     OW15778   3.701   4.985   3.404
 4960SOL    HW115779   3.655   4.960   3.320
 4960SOL    HW215780   3.792   4.943   3.407
 4961SOL     OW15781   3.752   1.283   5.613
 4961SOL    HW115782   3.822   1.264   5.544
 4961SOL    HW215783   3.796   1.312   5.698
 4962SOL     OW15784   5.428   2.416   0.005
 4962SOL    HW115785   5.514   2.420   0.056
 4962SOL    HW215786   5.354   2.389   0.067
 4963SOL     OW15787   0.152   6.037   1.020
 4963SOL    HW115788   0.169   6.020   0.922
 4963SOL    HW215789   0.183   6.129   1.044
 4964SOL     OW15790   2.810   0.588   4.298
 4964SOL    HW115791   2.903   0.613   4.274
 4964SOL    HW215792   2.746   0.651   4.253
 4965SOL     OW15793   0.451   0.857   2.294
 4965SOL    HW115794   0.514   0.781   2.313
 4965SOL    HW215795   0.457   0.924   2.368
 4966SOL     OW15796   2.692   6.383   5.500
 4966SOL    HW115797   2.659   6.475   5.479
 4966SOL    HW215798   2.788   6.375   5.473
 4967SOL     OW15799   3.706   5.005   4.771
 4967SOL    HW115800   3.782   5.042   4.719
 4967SOL    HW215801   3.625   4.998   4.712
 4968SOL     OW15802   0.094   1.758   3.765
 4968SOL    HW115803   0.106   1.828   3.694
 4968SOL    HW215804   0.052   1.799   3.846
 4969SOL     OW15805   2.081   5.525   3.078
 4969SOL    HW115806   2.152   5.461   3.048
 4969SOL    HW215807   2.085   5.534   3.178
 4970SOL     OW15808   2.463   2.433   2.459
 4970SOL    HW115809   2.400   2.487   2.514
 4970SOL    HW215810   2.536   2.395   2.517
 4971SOL     OW15811   5.641   5.959   3.290
 4971SOL    HW115812   5.588   5.908   3.358
 4971SOL    HW215813   5.737   5.963   3.319
 4972SOL     OW15814   0.973   3.524   0.880
 4972SOL    HW115815   0.877   3.547   0.864
 4972SOL    HW215816   0.991   3.432   0.846
 4973SOL     OW15817   1.538   0.107   2.306
 4973SOL    HW115818   1.509   0.195   2.345
 4973SOL    HW215819   1.631   0.086   2.336
 4974SOL     OW15820   6.723   4.312   1.002
 4974SOL    HW115821   6.633   4.283   0.969
 4974SOL    HW215822   6.735   4.285   1.097
 4975SOL     OW15823   6.408   4.063   6.155
 4975SOL    HW115824   6.389   3.965   6.154
 4975SOL    HW215825   6.349   4.109   6.089
 4976SOL     OW15826   2.318   1.384   3.779
 4976SOL    HW115827   2.336   1.300   3.727
 4976SOL    HW215828   2.354   1.463   3.729
 4977SOL     OW15829   3.867   4.208   6.805
 4977SOL    HW115830   3.814   4.292   6.817
 4977SOL    HW215831   3.917   4.212   6.719
 4978SOL     OW15832   6.687   4.422   5.483
 4978SOL    HW115833   6.654   4.439   5.576
 4978SOL    HW215834   6.783   4.448   5.477
 4979SOL     OW15835   6.804   6.566   6.650
 4979SOL    HW115836   6.849   6.480   6.674
 4979SOL    HW215837   6.759   6.557   6.562
 4980SOL     OW15838   5.195   6.543   3.007
 4980SOL    HW115839   5.106   6.588   3.009
 4980SOL    HW215840   5.265   6.606   2.973
 4981SOL     OW15841   4.165   4.946   0.425
 4981SOL    HW115842   4.166   4.894   0.340
 4981SOL    HW215843   4.239   4.914   0.484
 4982SOL     OW15844   3.305   0.887   5.151
 4982SOL    HW115845   3.352   0.970   5.179
 4982SOL    HW215846   3.210   0.891   5.181
 4983SOL     OW15847   6.009   3.878   5.463
 4983SOL    HW115848   5.983   3.927   5.380
 4983SOL    HW215849   6.094   3.829   5.448
 4984SOL     OW15850   5.085   4.341   3.365
 4984SOL    HW115851   5.136   4.418   3.404
 4984SOL    HW215852   5.131   4.256   3.389
 4985SOL     OW15853   5.377   0.048   3.647
 4985SOL    HW115854   5.432   0.131   3.647
 4985SOL    HW215855   5.421   6.999   3.589
 4986SOL     OW15856   0.114   4.478   1.462
 4986SOL    HW115857   0.204   4.463   1.421
 4986SOL    HW215858   0.098   4.409   1.533
 4987SOL     OW15859   1.419   0.636   2.322
 4987SOL    HW115860   1.420   0.630   2.223
 4987SOL    HW215861   1.494   0.695   2.353
 4988SOL     OW15862   5.723   0.955   2.376
 4988SOL    HW115863   5.736   0.970   2.278
 4988SOL    HW215864   5.726   1.043   2.423
 4989SOL     OW15865   5.194   0.022   1.519
 4989SOL    HW115866   5.146   6.970   1.569
 4989SOL    HW215867   5.146   0.040   1.433
 4990SOL     OW15868   2.631   2.140   5.487
 4990SOL    HW115869   2.556   2.142   5.554
 4990SOL    HW215870   2.679   2.228   5.489
 4991SOL     OW15871   5.910   5.476   3.647
 4991SOL    HW115872   5.966   5.420   3.586
 4991SOL    HW215873   5.818   5.436   3.653
 4992SOL     OW15874   4.666   0.775   2.848
 4992SOL    HW115875   4.671   0.680   2.877
 4992SOL    HW215876   4.751   0.801   2.802
 4993SOL     OW15877   3.277   5.989   4.529
 4993SOL    HW115878   3.256   5.905   4.479
 4993SOL    HW215879   3.229   5.989   4.617
 4994SOL     OW15880   2.048   0.875   3.752
 4994SOL    HW115881   2.026   0.875   3.654
 4994SOL    HW215882   2.055   0.970   3.784
 4995SOL     OW15883   0.369   2.711   5.575
 4995SOL    HW115884   0.298   2.659   5.530
 4995SOL    HW215885   0.392   2.791   5.520
 4996SOL     OW15886   0.546   1.329   2.903
 4996SOL    HW115887   0.642   1.343   2.880
 4996SOL    HW215888   0.512   1.407   2.955
 4997SOL     OW15889   5.047   2.518   2.844
 4997SOL    HW115890   5.141   2.519   2.809
 4997SOL    HW215891   4.983   2.531   2.769
 4998SOL     OW15892   2.293   4.249   4.814
 4998SOL    HW115893   2.302   4.156   4.851
 4998SOL    HW215894   2.203   4.286   4.840
 4999SOL     OW15895   6.405   3.964   0.161
 4999SOL    HW115896   6.494   4.004   0.185
 4999SOL    HW215897   6.384   3.889   0.222
 5000SOL     OW15898   3.840   6.659   3.262
 5000SOL    HW115899   3.784   6.740   3.246
 5000SOL    HW215900   3.788   6.594   3.317
 5001SOL     OW15901   6.850   3.875   1.726
 5001SOL    HW115902   6.922   3.885   1.795
 5001SOL    HW215903   6.778   3.942   1.743
 5002SOL     OW15904   0.202   3.139   2.610
 5002SOL    HW115905   0.290   3.137   2.656
 5002SOL    HW215906   0.184   3.231   2.575
 5003SOL     OW15907   2.958   5.919   2.727
 5003SOL    HW115908   3.023   5.991   2.701
 5003SOL    HW215909   3.008   5.837   2.752
 5004SOL     OW15910   2.900   5.163   5.782
 5004SOL    HW115911   2.847   5.102   5.840
 5004SOL    HW215912   2.848   5.183   5.699
 5005SOL     OW15913   2.838   2.569   0.690
 5005SOL    HW115914   2.790   2.570   0.778
 5005SOL    HW215915   2.930   2.533   0.703
 5006SOL     OW15916   4.765   0.368   0.675
 5006SOL    HW115917   4.786   0.393   0.580
 5006SOL    HW215918   4.844   0.324   0.717
 5007SOL     OW15919   0.907   0.031   0.563
 5007SOL    HW115920   0.870   0.049   0.653
 5007SOL    HW215921   0.882   6.959   0.534
 5008SOL     OW15922   5.659   6.837   1.832
 5008SOL    HW115923   5.669   6.925   1.879
 5008SOL    HW215924   5.571   6.796   1.855
 5009SOL     OW15925   0.860   0.587   0.951
 5009SOL    HW115926   0.942   0.612   0.900
 5009SOL    HW215927   0.779   0.625   0.906
 5010SOL     OW15928   4.156   3.367   2.462
 5010SOL    HW115929   4.130   3.270   2.456
 5010SOL    HW215930   4.204   3.394   2.379
 5011SOL     OW15931   1.805   4.278   2.076
 5011SOL    HW115932   1.785   4.208   2.144
 5011SOL    HW215933   1.808   4.236   1.985
 5012SOL     OW15934   6.043   3.932   6.168
 5012SOL    HW115935   6.003   3.855   6.219
 5012SOL    HW215936   5.978   4.009   6.168
 5013SOL     OW15937   4.821   1.239   6.909
 5013SOL    HW115938   4.762   1.304   6.956
 5013SOL    HW215939   4.869   1.182   6.976
 5014SOL     OW15940   6.737   4.794   0.666
 5014SOL    HW115941   6.720   4.696   0.658
 5014SOL    HW215942   6.702   4.826   0.754
 5015SOL     OW15943   4.483   2.045   4.645
 5015SOL    HW115944   4.501   1.969   4.708
 5015SOL    HW215945   4.568   2.075   4.603
 5016SOL     OW15946   1.488   2.489   0.489
 5016SOL    HW115947   1.507   2.582   0.457
 5016SOL    HW215948   1.407   2.490   0.548
 5017SOL     OW15949   1.787   2.706   0.612
 5017SOL    HW115950   1.857   2.755   0.664
 5017SOL    HW215951   1.704   2.762   0.609
 5018SOL     OW15952   0.298   3.822   2.639
 5018SOL    HW115953   0.235   3.838   2.564
 5018SOL    HW215954   0.389   3.857   2.615
 5019SOL     OW15955   1.189   4.586   6.165
 5019SOL    HW115956   1.249   4.583   6.085
 5019SOL    HW215957   1.094   4.571   6.136
 5020SOL     OW15958   5.369   0.656   6.198
 5020SOL    HW115959   5.405   0.567   6.168
 5020SOL    HW215960   5.440   0.705   6.249
 5021SOL     OW15961   0.897   0.971   6.671
 5021SOL    HW115962   0.848   0.936   6.751
 5021SOL    HW215963   0.985   0.925   6.663
 5022SOL     OW15964   0.773   1.726   6.490
 5022SOL    HW115965   0.803   1.818   6.514
 5022SOL    HW215966   0.852   1.671   6.462
 5023SOL     OW15967   6.712   2.618   1.248
 5023SOL    HW115968   6.676   2.576   1.331
 5023SOL    HW215969   6.809   2.638   1.259
 5024SOL     OW15970   6.510   5.239   1.632
 5024SOL    HW115971   6.542   5.217   1.724
 5024SOL    HW215972   6.436   5.307   1.637
 5025SOL     OW15973   3.174   1.764   2.381
 5025SOL    HW115974   3.126   1.824   2.445
 5025SOL    HW215975   3.233   1.702   2.431
 5026SOL     OW15976   6.067   5.949   6.117
 5026SOL    HW115977   6.159   5.936   6.079
 5026SOL    HW215978   6.058   6.042   6.150
 5027SOL     OW15979   6.948   6.918   2.010
 5027SOL    HW115980   6.893   6.980   1.953
 5027SOL    HW215981   0.005   6.883   1.956
 5028SOL     OW15982   0.132   1.601   2.456
 5028SOL    HW115983   0.048   1.644   2.422
 5028SOL    HW215984   0.168   1.654   2.533
 5029SOL     OW15985   6.451   2.630   2.313
 5029SOL    HW115986   6.493   2.665   2.229
 5029SOL    HW215987   6.423   2.535   2.300
 5030SOL     OW15988   6.690   6.598   0.560
 5030SOL    HW115989   6.775   6.620   0.609
 5030SOL    HW215990   6.627   6.551   0.622
 5031SOL     OW15991   5.328   6.895   5.417
 5031SOL    HW115992   5.270   6.912   5.338
 5031SOL    HW215993   5.371   6.806   5.409
 5032SOL     OW15994   2.067   2.144   0.722
 5032SOL    HW115995   2.127   2.168   0.799
 5032SOL    HW215996   2.082   2.208   0.647
 5033SOL     OW15997   2.619   6.941   5.607
 5033SOL    HW115998   2.543   6.896   5.561
 5033SOL    HW215999   2.598   6.949   5.705
 5034SOL     OW16000   5.565   0.528   3.103
 5034SOL    HW116001   5.634   0.543   3.173
 5034SOL    HW216002   5.477   0.563   3.135
 5035SOL     OW16003   1.037   4.049   0.354
 5035SOL    HW116004   1.017   4.144   0.330
 5035SOL    HW216005   1.078   4.047   0.446
 5036SOL     OW16006   0.654   5.060   0.204
 5036SOL    HW116007   0.600   5.142   0.184
 5036SOL    HW216008   0.596   4.979   0.195
 5037SOL     OW16009   4.888   3.434   2.704
 5037SOL    HW116010   4.968   3.437   2.765
 5037SOL    HW216011   4.821   3.501   2.734
 5038SOL     OW16012   2.706   3.869   6.028
 5038SOL    HW116013   2.705   3.966   6.004
 5038SOL    HW216014   2.731   3.859   6.125
 5039SOL     OW16015   3.268   4.647   5.482
 5039SOL    HW116016   3.217   4.688   5.407
 5039SOL    HW216017   3.284   4.717   5.553
 5040SOL     OW16018   1.436   5.961   5.755
 5040SOL    HW116019   1.458   5.942   5.850
 5040SOL    HW216020   1.479   5.891   5.697
 5041SOL     OW16021   1.690   1.629   2.521
 5041SOL    HW116022   1.743   1.665   2.444
 5041SOL    HW216023   1.753   1.594   2.591
 5042SOL     OW16024   6.672   2.702   0.174
 5042SOL    HW116025   6.667   2.662   0.082
 5042SOL    HW216026   6.768   2.720   0.197
 5043SOL     OW16027   3.459   0.382   6.033
 5043SOL    HW116028   3.458   0.481   6.024
 5043SOL    HW216029   3.429   0.357   6.126
 5044SOL     OW16030   0.897   6.559   0.236
 5044SOL    HW116031   0.969   6.489   0.232
 5044SOL    HW216032   0.809   6.519   0.212
 5045SOL     OW16033   5.166   1.276   6.565
 5045SOL    HW116034   5.213   1.195   6.531
 5045SOL    HW216035   5.159   1.344   6.492
 5046SOL     OW16036   3.375   4.083   2.867
 5046SOL    HW116037   3.451   4.090   2.932
 5046SOL    HW216038   3.373   4.165   2.809
 5047SOL     OW16039   0.104   3.818   2.387
 5047SOL    HW116040   0.096   3.782   2.294
 5047SOL    HW216041   0.014   3.847   2.419
 5048SOL     OW16042   0.247   1.617   2.094
 5048SOL    HW116043   0.213   1.531   2.132
 5048SOL    HW216044   0.316   1.655   2.156
 5049SOL     OW16045   5.859   2.075   5.818
 5049SOL    HW116046   5.797   2.153   5.825
 5049SOL    HW216047   5.882   2.042   5.910
 5050SOL     OW16048   1.547   1.051   1.262
 5050SOL    HW116049   1.519   1.131   1.208
 5050SOL    HW216050   1.637   1.067   1.303
 5051SOL     OW16051   4.847   4.683   0.983
 5051SOL    HW116052   4.812   4.590   0.990
 5051SOL    HW216053   4.780   4.741   0.937
 5052SOL     OW16054   2.431   0.618   6.205
 5052SOL    HW116055   2.519   0.624   6.158
 5052SOL    HW216056   2.379   0.541   6.168
 5053SOL     OW16057   2.264   4.129   2.992
 5053SOL    HW116058   2.292   4.161   3.082
 5053SOL    HW216059   2.260   4.029   2.992
 5054SOL     OW16060   3.509   6.130   4.681
 5054SOL    HW116061   3.534   6.148   4.776
 5054SOL    HW216062   3.437   6.061   4.678
 5055SOL     OW16063   1.741   1.249   5.654
 5055SOL    HW116064   1.713   1.345   5.661
 5055SOL    HW216065   1.762   1.214   5.745
 5056SOL     OW16066   6.720   4.596   0.260
 5056SOL    HW116067   6.628   4.601   0.220
 5056SOL    HW216068   6.741   4.681   0.307
 5057SOL     OW16069   0.266   6.092   4.701
 5057SOL    HW116070   0.351   6.091   4.754
 5057SOL    HW216071   0.200   6.153   4.744
 5058SOL     OW16072   3.077   3.326   5.288
 5058SOL    HW116073   3.111   3.232   5.285
 5058SOL    HW216074   3.101   3.368   5.376
 5059SOL     OW16075   5.930   1.502   3.826
 5059SOL    HW116076   5.968   1.558   3.752
 5059SOL    HW216077   5.959   1.407   3.814
 5060SOL     OW16078   1.003   2.016   5.477
 5060SOL    HW116079   0.926   1.995   5.417
 5060SOL    HW216080   1.083   2.040   5.421
 5061SOL     OW16081   4.163   3.313   2.014
 5061SOL    HW116082   4.250   3.299   2.061
 5061SOL    HW216083   4.175   3.379   1.940
 5062SOL     OW16084   5.341   1.015   3.447
 5062SOL    HW116085   5.392   1.048   3.526
 5062SOL    HW216086   5.249   0.987   3.476
 5063SOL     OW16087   1.452   6.724   2.354
 5063SOL    HW116088   1.533   6.776   2.380
 5063SOL    HW216089   1.396   6.778   2.291
 5064SOL     OW16090   5.175   4.267   1.733
 5064SOL    HW116091   5.122   4.196   1.779
 5064SOL    HW216092   5.267   4.271   1.772
 5065SOL     OW16093   1.505   1.659   3.604
 5065SOL    HW116094   1.552   1.725   3.546
 5065SOL    HW216095   1.428   1.703   3.651
 5066SOL     OW16096   4.376   4.686   1.555
 5066SOL    HW116097   4.434   4.610   1.586
 5066SOL    HW216098   4.335   4.662   1.467
 5067SOL     OW16099   4.096   0.938   1.825
 5067SOL    HW116100   4.094   0.840   1.847
 5067SOL    HW216101   4.074   0.991   1.907
 5068SOL     OW16102   2.439   5.018   6.626
 5068SOL    HW116103   2.516   5.024   6.562
 5068SOL    HW216104   2.415   4.923   6.640
 5069SOL     OW16105   2.250   2.902   5.525
 5069SOL    HW116106   2.345   2.898   5.495
 5069SOL    HW216107   2.236   2.836   5.599
 5070SOL     OW16108   4.378   4.788   3.890
 5070SOL    HW116109   4.284   4.813   3.915
 5070SOL    HW216110   4.378   4.698   3.846
 5071SOL     OW16111   4.212   1.552   3.154
 5071SOL    HW116112   4.121   1.571   3.118
 5071SOL    HW216113   4.206   1.532   3.252
 5072SOL     OW16114   1.370   0.698   1.749
 5072SOL    HW116115   1.403   0.764   1.681
 5072SOL    HW216116   1.270   0.697   1.750
 5073SOL     OW16117   0.538   5.857   1.881
 5073SOL    HW116118   0.504   5.775   1.927
 5073SOL    HW216119   0.633   5.842   1.852
 5074SOL     OW16120   3.266   2.940   1.318
 5074SOL    HW116121   3.263   2.856   1.264
 5074SOL    HW216122   3.356   2.951   1.358
 5075SOL     OW16123   0.900   2.496   6.791
 5075SOL    HW116124   0.899   2.557   6.713
 5075SOL    HW216125   0.981   2.513   6.847
 5076SOL     OW16126   4.266   0.508   0.565
 5076SOL    HW116127   4.279   0.519   0.663
 5076SOL    HW216128   4.253   0.411   0.544
 5077SOL     OW16129   2.006   4.275   5.487
 5077SOL    HW116130   2.085   4.247   5.432
 5077SOL    HW216131   2.021   4.368   5.521
 5078SOL     OW16132   0.264   1.346   3.862
 5078SOL    HW116133   0.249   1.390   3.773
 5078SOL    HW216134   0.318   1.263   3.849
 5079SOL     OW16135   2.096   3.348   5.414
 5079SOL    HW116136   2.146   3.282   5.358
 5079SOL    HW216137   2.138   3.352   5.505
 5080SOL     OW16138   5.895   6.456   6.763
 5080SOL    HW116139   5.842   6.516   6.702
 5080SOL    HW216140   5.937   6.511   6.835
 5081SOL     OW16141   3.032   3.059   4.917
 5081SOL    HW116142   2.932   3.057   4.910
 5081SOL    HW216143   3.072   3.021   4.834
 5082SOL     OW16144   5.211   5.746   0.824
 5082SOL    HW116145   5.136   5.703   0.876
 5082SOL    HW216146   5.181   5.761   0.730
 5083SOL     OW16147   2.549   6.693   2.352
 5083SOL    HW116148   2.466   6.654   2.313
 5083SOL    HW216149   2.619   6.622   2.358
 5084SOL     OW16150   0.252   4.461   4.163
 5084SOL    HW116151   0.254   4.553   4.125
 5084SOL    HW216152   0.304   4.399   4.104
 5085SOL     OW16153   5.940   2.422   6.840
 5085SOL    HW116154   5.900   2.377   6.760
 5085SOL    HW216155   5.931   2.362   6.920
 5086SOL     OW16156   1.089   5.476   3.088
 5086SOL    HW116157   1.135   5.550   3.137
 5086SOL    HW216158   1.136   5.459   3.002
 5087SOL     OW16159   1.643   5.457   2.576
 5087SOL    HW116160   1.723   5.419   2.622
 5087SOL    HW216161   1.667   5.483   2.483
 5088SOL     OW16162   6.412   0.546   4.581
 5088SOL    HW116163   6.393   0.600   4.663
 5088SOL    HW216164   6.369   0.456   4.591
 5089SOL     OW16165   5.036   4.168   4.048
 5089SOL    HW116166   5.070   4.252   4.004
 5089SOL    HW216167   5.093   4.091   4.021
 5090SOL     OW16168   1.742   4.123   2.293
 5090SOL    HW116169   1.730   4.026   2.316
 5090SOL    HW216170   1.801   4.166   2.361
 5091SOL     OW16171   0.778   0.885   2.089
 5091SOL    HW116172   0.850   0.935   2.041
 5091SOL    HW216173   0.689   0.919   2.059
 5092SOL     OW16174   3.410   3.551   2.455
 5092SOL    HW116175   3.452   3.492   2.386
 5092SOL    HW216176   3.393   3.498   2.538
 5093SOL     OW16177   2.833   1.345   1.041
 5093SOL    HW116178   2.917   1.326   0.991
 5093SOL    HW216179   2.775   1.264   1.043
 5094SOL     OW16180   2.458   5.320   5.950
 5094SOL    HW116181   2.401   5.381   5.895
 5094SOL    HW216182   2.442   5.337   6.047
 5095SOL     OW16183   6.194   2.153   3.872
 5095SOL    HW116184   6.292   2.130   3.880
 5095SOL    HW216185   6.140   2.082   3.917
 5096SOL     OW16186   3.932   4.475   0.606
 5096SOL    HW116187   3.882   4.389   0.604
 5096SOL    HW216188   3.894   4.537   0.538
 5097SOL     OW16189   1.600   0.550   6.516
 5097SOL    HW116190   1.552   0.537   6.603
 5097SOL    HW216191   1.541   0.518   6.441
 5098SOL     OW16192   2.558   0.438   2.088
 5098SOL    HW116193   2.656   0.430   2.106
 5098SOL    HW216194   2.536   0.394   2.001
 5099SOL     OW16195   0.885   6.837   6.935
 5099SOL    HW116196   0.984   6.822   6.944
 5099SOL    HW216197   0.837   6.751   6.955
 5100SOL     OW16198   3.186   5.531   4.872
 5100SOL    HW116199   3.240   5.541   4.788
 5100SOL    HW216200   3.247   5.511   4.949
 5101SOL     OW16201   5.338   0.004   7.010
 5101SOL    HW116202   5.323   0.092   0.034
 5101SOL    HW216203   5.408   0.014   6.939
 5102SOL     OW16204   5.641   6.420   4.421
 5102SOL    HW116205   5.651   6.384   4.513
 5102SOL    HW216206   5.545   6.445   4.405
 5103SOL     OW16207   6.810   0.887   3.776
 5103SOL    HW116208   6.730   0.928   3.820
 5103SOL    HW216209   6.860   0.958   3.726
 5104SOL     OW16210   1.661   6.571   2.926
 5104SOL    HW116211   1.733   6.611   2.982
 5104SOL    HW216212   1.679   6.591   2.829
 5105SOL     OW16213   3.363   3.270   0.484
 5105SOL    HW116214   3.380   3.316   0.571
 5105SOL    HW216215   3.449   3.265   0.432
 5106SOL     OW16216   4.339   1.479   0.239
 5106SOL    HW116217   4.268   1.435   0.294
 5106SOL    HW216218   4.428   1.439   0.261
 5107SOL     OW16219   3.161   1.422   0.297
 5107SOL    HW116220   3.254   1.459   0.297
 5107SOL    HW216221   3.108   1.467   0.369
 5108SOL     OW16222   3.398   3.127   5.327
 5108SOL    HW116223   3.316   3.144   5.273
 5108SOL    HW216224   3.384   3.161   5.420
 5109SOL     OW16225   1.341   0.945   0.629
 5109SOL    HW116226   1.431   0.903   0.643
 5109SOL    HW216227   1.342   1.038   0.666
 5110SOL     OW16228   7.014   0.401   5.777
 5110SOL    HW116229   0.012   0.313   5.733
 5110SOL    HW216230   6.916   0.419   5.778
 5111SOL     OW16231   1.859   1.417   5.049
 5111SOL    HW116232   1.900   1.508   5.040
 5111SOL    HW216233   1.904   1.367   5.122
 5112SOL     OW16234   2.201   0.745   2.855
 5112SOL    HW116235   2.119   0.798   2.876
 5112SOL    HW216236   2.206   0.727   2.757
 5113SOL     OW16237   1.901   0.034   1.100
 5113SOL    HW116238   1.986   7.001   1.099
 5113SOL    HW216239   1.832   7.006   1.154
 5114SOL     OW16240   2.905   1.150   6.865
 5114SOL    HW116241   2.811   1.162   6.898
 5114SOL    HW216242   2.915   1.060   6.823
 5115SOL     OW16243   1.772   5.160   4.289
 5115SOL    HW116244   1.849   5.186   4.229
 5115SOL    HW216245   1.770   5.061   4.299
 5116SOL     OW16246   6.710   0.230   6.170
 5116SOL    HW116247   6.679   0.164   6.102
 5116SOL    HW216248   6.771   0.296   6.127
 5117SOL     OW16249   2.288   4.318   4.286
 5117SOL    HW116250   2.205   4.271   4.257
 5117SOL    HW216251   2.312   4.291   4.379
 5118SOL     OW16252   5.109   0.327   6.968
 5118SOL    HW116253   5.075   0.234   6.959
 5118SOL    HW216254   5.206   0.330   6.944
 5119SOL     OW16255   4.863   0.838   1.985
 5119SOL    HW116256   4.935   0.901   2.013
 5119SOL    HW216257   4.774   0.875   2.011
 5120SOL     OW16258   3.774   0.868   4.074
 5120SOL    HW116259   3.827   0.802   4.127
 5120SOL    HW216260   3.682   0.876   4.113
 5121SOL     OW16261   2.623   2.166   6.793
 5121SOL    HW116262   2.600   2.224   6.872
 5121SOL    HW216263   2.635   2.072   6.824
 5122SOL     OW16264   3.678   6.698   2.751
 5122SOL    HW116265   3.706   6.669   2.842
 5122SOL    HW216266   3.707   6.793   2.736
 5123SOL     OW16267   4.373   2.179   5.068
 5123SOL    HW116268   4.345   2.207   4.977
 5123SOL    HW216269   4.436   2.101   5.062
 5124SOL     OW16270   2.766   5.261   4.967
 5124SOL    HW116271   2.747   5.262   5.065
 5124SOL    HW216272   2.757   5.168   4.932
 5125SOL     OW16273   6.134   3.506   4.524
 5125SOL    HW116274   6.138   3.440   4.449
 5125SOL    HW216275   6.218   3.501   4.578
 5126SOL     OW16276   6.467   4.967   5.168
 5126SOL    HW116277   6.450   4.994   5.262
 5126SOL    HW216278   6.422   4.880   5.150
 5127SOL     OW16279   1.117   3.524   6.904
 5127SOL    HW116280   1.188   3.551   6.838
 5127SOL    HW216281   1.157   3.518   6.995
 5128SOL     OW16282   6.528   0.570   6.417
 5128SOL    HW116283   6.518   0.650   6.357
 5128SOL    HW216284   6.450   0.565   6.479
 5129SOL     OW16285   5.374   0.178   2.875
 5129SOL    HW116286   5.329   0.097   2.912
 5129SOL    HW216287   5.418   0.229   2.950
 5130SOL     OW16288   1.290   5.850   3.797
 5130SOL    HW116289   1.345   5.850   3.881
 5130SOL    HW216290   1.225   5.925   3.799
 5131SOL     OW16291   2.623   4.989   3.783
 5131SOL    HW116292   2.665   4.905   3.749
 5131SOL    HW216293   2.692   5.061   3.787
 5132SOL     OW16294   3.315   2.545   5.759
 5132SOL    HW116295   3.341   2.462   5.711
 5132SOL    HW216296   3.377   2.619   5.733
 5133SOL     OW16297   1.433   5.577   6.896
 5133SOL    HW116298   1.468   5.520   6.970
 5133SOL    HW216299   1.491   5.565   6.815
 5134SOL     OW16300   6.307   1.315   2.139
 5134SOL    HW116301   6.341   1.227   2.105
 5134SOL    HW216302   6.349   1.389   2.088
 5135SOL     OW16303   5.437   3.113   4.208
 5135SOL    HW116304   5.446   3.041   4.277
 5135SOL    HW216305   5.350   3.161   4.220
 5136SOL     OW16306   5.422   0.937   6.628
 5136SOL    HW116307   5.347   0.975   6.573
 5136SOL    HW216308   5.434   0.992   6.710
 5137SOL     OW16309   4.440   3.755   5.594
 5137SOL    HW116310   4.475   3.810   5.518
 5137SOL    HW216311   4.491   3.670   5.600
 5138SOL     OW16312   3.806   2.961   5.102
 5138SOL    HW116313   3.728   3.021   5.116
 5138SOL    HW216314   3.891   3.011   5.118
 5139SOL     OW16315   0.973   0.901   3.545
 5139SOL    HW116316   1.026   0.871   3.624
 5139SOL    HW216317   0.894   0.842   3.532
 5140SOL     OW16318   4.086   2.208   5.630
 5140SOL    HW116319   4.037   2.123   5.648
 5140SOL    HW216320   4.173   2.208   5.680
 5141SOL     OW16321   6.183   3.722   0.650
 5141SOL    HW116322   6.125   3.670   0.713
 5141SOL    HW216323   6.266   3.752   0.697
 5142SOL     OW16324   5.741   6.446   2.808
 5142SOL    HW116325   5.818   6.492   2.764
 5142SOL    HW216326   5.773   6.364   2.855
 5143SOL     OW16327   6.759   4.280   4.447
 5143SOL    HW116328   6.782   4.189   4.412
 5143SOL    HW216329   6.766   4.280   4.547
 5144SOL     OW16330   0.848   5.019   5.339
 5144SOL    HW116331   0.895   5.036   5.426
 5144SOL    HW216332   0.788   5.096   5.318
 5145SOL     OW16333   3.821   5.867   6.863
 5145SOL    HW116334   3.878   5.894   6.786
 5145SOL    HW216335   3.824   5.938   6.933
 5146SOL     OW16336   2.985   3.921   5.448
 5146SOL    HW116337   2.981   4.004   5.505
 5146SOL    HW216338   2.925   3.932   5.369
 5147SOL     OW16339   6.332   5.702   3.219
 5147SOL    HW116340   6.388   5.634   3.173
 5147SOL    HW216341   6.383   5.788   3.226
 5148SOL     OW16342   6.763   0.952   1.708
 5148SOL    HW116343   6.743   0.985   1.800
 5148SOL    HW216344   6.698   0.880   1.683
 5149SOL     OW16345   6.659   5.804   3.583
 5149SOL    HW116346   6.677   5.898   3.612
 5149SOL    HW216347   6.711   5.783   3.501
 5150SOL     OW16348   2.395   5.439   3.203
 5150SOL    HW116349   2.473   5.393   3.245
 5150SOL    HW216350   2.336   5.476   3.275
 5151SOL     OW16351   6.882   3.882   2.458
 5151SOL    HW116352   6.856   3.978   2.467
 5151SOL    HW216353   6.808   3.824   2.491
 5152SOL     OW16354   1.367   5.284   0.116
 5152SOL    HW116355   1.456   5.285   0.161
 5152SOL    HW216356   1.378   5.274   0.018
 5153SOL     OW16357   1.298   1.425   0.365
 5153SOL    HW116358   1.322   1.338   0.322
 5153SOL    HW216359   1.259   1.487   0.296
 5154SOL     OW16360   1.382   3.117   5.979
 5154SOL    HW116361   1.417   3.025   5.997
 5154SOL    HW216362   1.363   3.127   5.882
 5155SOL     OW16363   4.511   6.745   2.148
 5155SOL    HW116364   4.563   6.830   2.159
 5155SOL    HW216365   4.550   6.692   2.073
 5156SOL     OW16366   5.434   4.105   5.726
 5156SOL    HW116367   5.462   4.171   5.657
 5156SOL    HW216368   5.515   4.061   5.766
 5157SOL     OW16369   3.828   1.906   3.449
 5157SOL    HW116370   3.735   1.870   3.453
 5157SOL    HW216371   3.855   1.940   3.539
 5158SOL     OW16372   3.959   2.048   1.203
 5158SOL    HW116373   3.914   2.022   1.288
 5158SOL    HW216374   3.891   2.055   1.130
 5159SOL     OW16375   5.927   3.519   5.429
 5159SOL    HW116376   5.828   3.512   5.418
 5159SOL    HW216377   5.947   3.560   5.518
 5160SOL     OW16378   0.682   4.978   3.425
 5160SOL    HW116379   0.609   4.954   3.361
 5160SOL    HW216380   0.759   5.017   3.375
 5161SOL     OW16381   1.840   3.923   6.719
 5161SOL    HW116382   1.889   3.897   6.802
 5161SOL    HW216383   1.903   3.924   6.642
 5162SOL     OW16384   0.880   5.942   2.652
 5162SOL    HW116385   0.938   6.023   2.640
 5162SOL    HW216386   0.928   5.862   2.616
 5163SOL     OW16387   2.738   6.849   0.448
 5163SOL    HW116388   2.704   6.942   0.433
 5163SOL    HW216389   2.830   6.840   0.408
 5164SOL     OW16390   4.185   2.361   6.667
 5164SOL    HW116391   4.144   2.452   6.679
 5164SOL    HW216392   4.142   2.297   6.730
 5165SOL     OW16393   0.204   4.546   5.839
 5165SOL    HW116394   0.234   4.639   5.819
 5165SOL    HW216395   0.281   4.492   5.871
 5166SOL     OW16396   1.048   6.114   2.537
 5166SOL    HW116397   1.121   6.182   2.536
 5166SOL    HW216398   0.987   6.130   2.460
 5167SOL     OW16399   6.254   5.044   5.714
 5167SOL    HW116400   6.252   4.959   5.767
 5167SOL    HW216401   6.163   5.086   5.715
 5168SOL     OW16402   5.024   3.524   1.554
 5168SOL    HW116403   4.985   3.604   1.600
 5168SOL    HW216404   5.026   3.447   1.617
 5169SOL     OW16405   4.120   1.788   4.425
 5169SOL    HW116406   4.026   1.754   4.421
 5169SOL    HW216407   4.182   1.713   4.445
 5170SOL     OW16408   1.182   3.985   5.007
 5170SOL    HW116409   1.152   3.956   4.917
 5170SOL    HW216410   1.237   4.068   5.000
 5171SOL     OW16411   0.605   4.261   5.269
 5171SOL    HW116412   0.689   4.299   5.306
 5171SOL    HW216413   0.577   4.313   5.188
 5172SOL     OW16414   1.655   3.371   2.552
 5172SOL    HW116415   1.731   3.307   2.538
 5172SOL    HW216416   1.597   3.371   2.470
 5173SOL     OW16417   4.883   5.152   4.867
 5173SOL    HW116418   4.931   5.239   4.870
 5173SOL    HW216419   4.878   5.120   4.772
 5174SOL     OW16420   2.340   5.103   3.414
 5174SOL    HW116421   2.245   5.121   3.389
 5174SOL    HW216422   2.344   5.069   3.508
 5175SOL     OW16423   2.924   4.048   6.525
 5175SOL    HW116424   2.873   3.976   6.572
 5175SOL    HW216425   2.972   4.104   6.592
 5176SOL     OW16426   5.350   3.067   0.076
 5176SOL    HW116427   5.417   2.994   0.093
 5176SOL    HW216428   5.397   3.155   0.070
 5177SOL     OW16429   5.408   0.228   0.157
 5177SOL    HW116430   5.380   0.319   0.130
 5177SOL    HW216431   5.507   0.219   0.148
 5178SOL     OW16432   0.677   3.640   2.724
 5178SOL    HW116433   0.722   3.553   2.746
 5178SOL    HW216434   0.677   3.699   2.805
 5179SOL     OW16435   4.771   4.926   4.278
 5179SOL    HW116436   4.730   4.857   4.218
 5179SOL    HW216437   4.702   4.993   4.304
 5180SOL     OW16438   2.819   2.249   0.923
 5180SOL    HW116439   2.890   2.249   0.994
 5180SOL    HW216440   2.740   2.301   0.955
 5181SOL     OW16441   5.116   0.922   2.951
 5181SOL    HW116442   5.173   0.847   2.918
 5181SOL    HW216443   5.029   0.921   2.903
 5182SOL     OW16444   4.160   4.411   1.689
 5182SOL    HW116445   4.120   4.502   1.696
 5182SOL    HW216446   4.256   4.418   1.660
 5183SOL     OW16447   4.353   2.022   2.496
 5183SOL    HW116448   4.451   2.044   2.494
 5183SOL    HW216449   4.300   2.106   2.487
 5184SOL     OW16450   0.545   1.859   4.066
 5184SOL    HW116451   0.602   1.921   4.012
 5184SOL    HW216452   0.491   1.801   4.004
 5185SOL     OW16453   5.395   0.657   2.595
 5185SOL    HW116454   5.439   0.746   2.583
 5185SOL    HW216455   5.341   0.658   2.679
 5186SOL     OW16456   7.011   2.399   0.204
 5186SOL    HW116457   6.931   2.427   0.151
 5186SOL    HW216458   6.981   2.365   0.294
 5187SOL     OW16459   1.260   6.118   4.231
 5187SOL    HW116460   1.328   6.187   4.204
 5187SOL    HW216461   1.263   6.106   4.331
 5188SOL     OW16462   6.962   5.972   1.385
 5188SOL    HW116463   6.979   5.966   1.483
 5188SOL    HW216464   0.020   5.933   1.335
 5189SOL     OW16465   4.036   5.083   0.634
 5189SOL    HW116466   4.078   5.056   0.547
 5189SOL    HW216467   4.102   5.072   0.708
 5190SOL     OW16468   0.192   2.192   4.285
 5190SOL    HW116469   0.198   2.263   4.356
 5190SOL    HW216470   0.275   2.195   4.229
 5191SOL     OW16471   4.270   6.780   1.970
 5191SOL    HW116472   4.355   6.742   2.007
 5191SOL    HW216473   4.292   6.853   1.906
 5192SOL     OW16474   2.375   5.732   1.391
 5192SOL    HW116475   2.313   5.659   1.363
 5192SOL    HW216476   2.327   5.796   1.452
 5193SOL     OW16477   5.497   4.884   4.804
 5193SOL    HW116478   5.424   4.925   4.749
 5193SOL    HW216479   5.487   4.913   4.900
 5194SOL     OW16480   4.283   1.976   6.718
 5194SOL    HW116481   4.217   1.922   6.770
 5194SOL    HW216482   4.254   1.983   6.623
 5195SOL     OW16483   6.930   7.000   4.269
 5195SOL    HW116484   7.014   6.953   4.243
 5195SOL    HW216485   6.875   6.940   4.328
 5196SOL     OW16486   3.763   6.522   1.147
 5196SOL    HW116487   3.791   6.480   1.233
 5196SOL    HW216488   3.663   6.517   1.140
 5197SOL     OW16489   2.545   4.117   6.121
 5197SOL    HW116490   2.468   4.159   6.168
 5197SOL    HW216491   2.523   4.105   6.024
 5198SOL     OW16492   4.754   5.908   3.065
 5198SOL    HW116493   4.751   5.893   2.966
 5198SOL    HW216494   4.671   5.872   3.107
 5199SOL     OW16495   1.167   6.472   0.507
 5199SOL    HW116496   1.150   6.390   0.452
 5199SOL    HW216497   1.125   6.460   0.597
 5200SOL     OW16498   0.844   3.687   5.571
 5200SOL    HW116499   0.913   3.706   5.501
 5200SOL    HW216500   0.761   3.652   5.528
 5201SOL     OW16501   0.215   0.383   3.220
 5201SOL    HW116502   0.213   0.407   3.123
 5201SOL    HW216503   0.273   0.303   3.233
 5202SOL     OW16504   6.123   3.058   6.315
 5202SOL    HW116505   6.187   3.092   6.247
 5202SOL    HW216506   6.144   2.963   6.337
 5203SOL     OW16507   2.254   2.850   0.406
 5203SOL    HW116508   2.226   2.882   0.496
 5203SOL    HW216509   2.328   2.784   0.416
 5204SOL     OW16510   4.092   5.048   6.641
 5204SOL    HW116511   4.181   5.040   6.597
 5204SOL    HW216512   4.103   5.048   6.740
 5205SOL     OW16513   0.609   6.147   0.631
 5205SOL    HW116514   0.688   6.131   0.571
 5205SOL    HW216515   0.555   6.224   0.596
 5206SOL     OW16516   0.772   4.656   5.687
 5206SOL    HW116517   0.824   4.609   5.615
 5206SOL    HW216518   0.683   4.685   5.650
 5207SOL     OW16519   1.366   6.215   3.788
 5207SOL    HW116520   1.361   6.134   3.730
 5207SOL    HW216521   1.324   6.293   3.741
 5208SOL     OW16522   4.086   2.600   6.249
 5208SOL    HW116523   4.155   2.619   6.179
 5208SOL    HW216524   4.102   2.508   6.286
 5209SOL     OW16525   5.834   6.222   2.942
 5209SOL    HW116526   5.765   6.150   2.934
 5209SOL    HW216527   5.863   6.231   3.037
 5210SOL     OW16528   4.170   3.085   6.351
 5210SOL    HW116529   4.085   3.100   6.401
 5210SOL    HW216530   4.223   3.013   6.397
 5211SOL     OW16531   3.683   3.050   5.438
 5211SOL    HW116532   3.763   3.105   5.462
 5211SOL    HW216533   3.696   3.008   5.348
 5212SOL     OW16534   0.201   2.559   0.955
 5212SOL    HW116535   0.137   2.594   0.886
 5212SOL    HW216536   0.184   2.462   0.970
 5213SOL     OW16537   4.917   3.497   6.714
 5213SOL    HW116538   4.890   3.412   6.669
 5213SOL    HW216539   4.931   3.569   6.645
 5214SOL     OW16540   4.643   1.930   5.951
 5214SOL    HW116541   4.638   2.026   5.980
 5214SOL    HW216542   4.664   1.873   6.030
 5215SOL     OW16543   6.639   4.770   4.233
 5215SOL    HW116544   6.682   4.860   4.227
 5215SOL    HW216545   6.548   4.774   4.191
 5216SOL     OW16546   5.378   4.822   1.441
 5216SOL    HW116547   5.460   4.778   1.476
 5216SOL    HW216548   5.341   4.883   1.511
 5217SOL     OW16549   3.960   5.418   4.689
 5217SOL    HW116550   4.043   5.474   4.693
 5217SOL    HW216551   3.929   5.397   4.782
 5218SOL     OW16552   0.693   0.905   3.838
 5218SOL    HW116553   0.772   0.862   3.883
 5218SOL    HW216554   0.725   0.969   3.769
 5219SOL     OW16555   4.376   1.416   5.632
 5219SOL    HW116556   4.289   1.407   5.681
 5219SOL    HW216557   4.447   1.366   5.681
 5220SOL     OW16558   1.334   5.725   3.134
 5220SOL    HW116559   1.412   5.669   3.106
 5220SOL    HW216560   1.302   5.779   3.056
 5221SOL     OW16561   6.019   2.300   3.709
 5221SOL    HW116562   6.076   2.227   3.746
 5221SOL    HW216563   6.043   2.387   3.753
 5222SOL     OW16564   3.864   5.947   3.158
 5222SOL    HW116565   3.923   5.985   3.229
 5222SOL    HW216566   3.910   5.953   3.069
 5223SOL     OW16567   6.264   2.681   1.177
 5223SOL    HW116568   6.348   2.723   1.211
 5223SOL    HW216569   6.196   2.680   1.251
 5224SOL     OW16570   6.939   2.432   4.415
 5224SOL    HW116571   6.856   2.483   4.395
 5224SOL    HW216572   6.965   2.378   4.334
 5225SOL     OW16573   0.598   0.163   3.393
 5225SOL    HW116574   0.684   0.115   3.378
 5225SOL    HW216575   0.613   0.262   3.388
 5226SOL     OW16576   0.036   5.916   4.831
 5226SOL    HW116577   0.087   5.934   4.747
 5226SOL    HW216578   6.958   5.915   4.810
 5227SOL     OW16579   0.604   3.253   4.541
 5227SOL    HW116580   0.553   3.315   4.600
 5227SOL    HW216581   0.694   3.235   4.580
 5228SOL     OW16582   5.978   2.868   1.062
 5228SOL    HW116583   5.976   2.773   1.091
 5228SOL    HW216584   5.924   2.923   1.126
 5229SOL     OW16585   1.867   5.635   6.804
 5229SOL    HW116586   1.888   5.725   6.764
 5229SOL    HW216587   1.818   5.647   6.890
 5230SOL     OW16588   0.516   6.357   1.915
 5230SOL    HW116589   0.483   6.268   1.948
 5230SOL    HW216590   0.527   6.353   1.815
 5231SOL     OW16591   4.709   2.956   5.429
 5231SOL    HW116592   4.634   3.022   5.428
 5231SOL    HW216593   4.796   3.002   5.410
 5232SOL     OW16594   3.567   2.548   5.986
 5232SOL    HW116595   3.664   2.559   5.968
 5232SOL    HW216596   3.539   2.454   5.967
 5233SOL     OW16597   5.041   0.919   2.521
 5233SOL    HW116598   4.982   0.995   2.492
 5233SOL    HW216599   5.132   0.954   2.541
 5234SOL     OW16600   2.272   1.506   6.676
 5234SOL    HW116601   2.311   1.554   6.598
 5234SOL    HW216602   2.346   1.463   6.728
 5235SOL     OW16603   1.854   2.648   1.158
 5235SOL    HW116604   1.791   2.638   1.081
 5235SOL    HW216605   1.809   2.699   1.231
 5236SOL     OW16606   5.500   4.317   2.874
 5236SOL    HW116607   5.495   4.231   2.925
 5236SOL    HW216608   5.527   4.391   2.936
 5237SOL     OW16609   1.836   0.991   5.095
 5237SOL    HW116610   1.841   1.064   5.027
 5237SOL    HW216611   1.800   0.908   5.051
 5238SOL     OW16612   0.591   4.487   0.317
 5238SOL    HW116613   0.579   4.436   0.403
 5238SOL    HW216614   0.526   4.563   0.314
 5239SOL     OW16615   3.621   3.199   4.085
 5239SOL    HW116616   3.533   3.152   4.081
 5239SOL    HW216617   3.672   3.167   4.165
 5240SOL     OW16618   2.804   1.543   6.126
 5240SOL    HW116619   2.763   1.559   6.036
 5240SOL    HW216620   2.731   1.530   6.193
 5241SOL     OW16621   1.219   5.163   5.448
 5241SOL    HW116622   1.182   5.191   5.536
 5241SOL    HW216623   1.253   5.244   5.399
 5242SOL     OW16624   0.437   6.793   6.412
 5242SOL    HW116625   0.444   6.875   6.468
 5242SOL    HW216626   0.343   6.758   6.417
 5243SOL     OW16627   0.767   5.364   1.593
 5243SOL    HW116628   0.730   5.370   1.501
 5243SOL    HW216629   0.734   5.281   1.638
 5244SOL     OW16630   3.919   4.910   0.083
 5244SOL    HW116631   3.855   4.981   0.112
 5244SOL    HW216632   3.973   4.943   0.006
 5245SOL     OW16633   4.307   3.947   0.429
 5245SOL    HW116634   4.219   3.994   0.436
 5245SOL    HW216635   4.298   3.867   0.370
 5246SOL     OW16636   5.705   3.962   2.303
 5246SOL    HW116637   5.746   3.961   2.212
 5246SOL    HW216638   5.704   3.869   2.340
 5247SOL     OW16639   0.896   0.472   0.103
 5247SOL    HW116640   0.992   0.503   0.107
 5247SOL    HW216641   0.890   0.392   0.044
 5248SOL     OW16642   5.968   0.700   4.203
 5248SOL    HW116643   6.046   0.745   4.248
 5248SOL    HW216644   5.923   0.638   4.268
 5249SOL     OW16645   6.829   5.111   5.298
 5249SOL    HW116646   6.813   5.206   5.325
 5249SOL    HW216647   6.769   5.051   5.350
 5250SOL     OW16648   1.513   6.825   5.304
 5250SOL    HW116649   1.517   6.924   5.290
 5250SOL    HW216650   1.484   6.805   5.397
 5251SOL     OW16651   0.354   3.399   0.501
 5251SOL    HW116652   0.324   3.491   0.527
 5251SOL    HW216653   0.448   3.403   0.466
 5252SOL     OW16654   2.397   6.184   0.264
 5252SOL    HW116655   2.486   6.165   0.305
 5252SOL    HW216656   2.401   6.168   0.166
 5253SOL     OW16657   5.247   4.550   4.160
 5253SOL    HW116658   5.164   4.589   4.199
 5253SOL    HW216659   5.293   4.495   4.230
 5254SOL     OW16660   4.642   1.250   3.234
 5254SOL    HW116661   4.576   1.299   3.292
 5254SOL    HW216662   4.720   1.309   3.214
 5255SOL     OW16663   4.870   1.236   6.513
 5255SOL    HW116664   4.968   1.242   6.526
 5255SOL    HW216665   4.849   1.236   6.415
 5256SOL     OW16666   4.521   0.856   3.077
 5256SOL    HW116667   4.443   0.911   3.049
 5256SOL    HW216668   4.582   0.842   2.999
 5257SOL     OW16669   4.925   6.206   1.836
 5257SOL    HW116670   4.884   6.116   1.851
 5257SOL    HW216671   4.956   6.243   1.923
 5258SOL     OW16672   5.984   3.591   1.928
 5258SOL    HW116673   5.901   3.612   1.876
 5258SOL    HW216674   6.064   3.629   1.881
 5259SOL     OW16675   5.044   6.342   0.148
 5259SOL    HW116676   4.994   6.346   0.234
 5259SOL    HW216677   4.984   6.305   0.076
 5260SOL     OW16678   5.523   3.916   1.153
 5260SOL    HW116679   5.427   3.939   1.137
 5260SOL    HW216680   5.529   3.825   1.195
 5261SOL     OW16681   1.078   3.784   6.980
 5261SOL    HW116682   1.083   3.690   6.946
 5261SOL    HW216683   1.140   3.842   6.927
 5262SOL     OW16684   2.709   0.288   2.860
 5262SOL    HW116685   2.739   0.334   2.777
 5262SOL    HW216686   2.789   0.267   2.917
 5263SOL     OW16687   2.105   1.640   4.743
 5263SOL    HW116688   2.048   1.670   4.666
 5263SOL    HW216689   2.194   1.687   4.738
 5264SOL     OW16690   6.141   1.668   2.378
 5264SOL    HW116691   6.195   1.621   2.448
 5264SOL    HW216692   6.044   1.643   2.389
 5265SOL     OW16693   5.737   3.578   4.427
 5265SOL    HW116694   5.781   3.663   4.400
 5265SOL    HW216695   5.791   3.533   4.498
 5266SOL     OW16696   2.531   6.328   1.077
 5266SOL    HW116697   2.463   6.368   1.138
 5266SOL    HW216698   2.591   6.268   1.129
 5267SOL     OW16699   4.881   3.872   5.016
 5267SOL    HW116700   4.901   3.887   4.919
 5267SOL    HW216701   4.857   3.776   5.030
 5268SOL     OW16702   6.010   0.468   6.371
 5268SOL    HW116703   6.015   0.558   6.327
 5268SOL    HW216704   5.939   0.413   6.327
 5269SOL     OW16705   1.517   6.682   3.651
 5269SOL    HW116706   1.547   6.730   3.569
 5269SOL    HW216707   1.448   6.614   3.626
 5270SOL     OW16708   5.598   1.401   1.528
 5270SOL    HW116709   5.555   1.490   1.536
 5270SOL    HW216710   5.546   1.334   1.581
 5271SOL     OW16711   5.777   5.786   4.670
 5271SOL    HW116712   5.744   5.810   4.761
 5271SOL    HW216713   5.753   5.691   4.649
 5272SOL     OW16714   2.846   5.223   1.989
 5272SOL    HW116715   2.853   5.206   2.087
 5272SOL    HW216716   2.832   5.136   1.941
 5273SOL     OW16717   6.722   3.204   3.455
 5273SOL    HW116718   6.804   3.189   3.399
 5273SOL    HW216719   6.653   3.136   3.430
 5274SOL     OW16720   6.562   6.413   1.755
 5274SOL    HW116721   6.588   6.453   1.668
 5274SOL    HW216722   6.572   6.481   1.828
 5275SOL     OW16723   3.592   1.846   6.761
 5275SOL    HW116724   3.513   1.895   6.723
 5275SOL    HW216725   3.673   1.905   6.758
 5276SOL     OW16726   1.008   0.351   0.559
 5276SOL    HW116727   1.082   0.416   0.545
 5276SOL    HW216728   1.012   0.280   0.489
 5277SOL     OW16729   1.643   1.964   3.188
 5277SOL    HW116730   1.693   1.991   3.106
 5277SOL    HW216731   1.550   1.939   3.162
 5278SOL     OW16732   5.362   0.343   3.907
 5278SOL    HW116733   5.377   0.250   3.941
 5278SOL    HW216734   5.400   0.408   3.972
 5279SOL     OW16735   1.227   5.187   6.740
 5279SOL    HW116736   1.216   5.094   6.704
 5279SOL    HW216737   1.320   5.198   6.775
 5280SOL     OW16738   3.523   6.660   5.072
 5280SOL    HW116739   3.486   6.751   5.049
 5280SOL    HW216740   3.552   6.660   5.168
 5281SOL     OW16741   0.718   2.323   2.264
 5281SOL    HW116742   0.646   2.269   2.307
 5281SOL    HW216743   0.695   2.338   2.168
 5282SOL     OW16744   2.617   1.382   3.494
 5282SOL    HW116745   2.544   1.434   3.450
 5282SOL    HW216746   2.676   1.342   3.424
 5283SOL     OW16747   4.509   6.474   1.467
 5283SOL    HW116748   4.499   6.505   1.373
 5283SOL    HW216749   4.605   6.452   1.485
 5284SOL     OW16750   5.262   3.510   3.625
 5284SOL    HW116751   5.266   3.440   3.554
 5284SOL    HW216752   5.182   3.569   3.610
 5285SOL     OW16753   1.973   4.361   3.750
 5285SOL    HW116754   2.009   4.439   3.803
 5285SOL    HW216755   1.881   4.383   3.717
 5286SOL     OW16756   1.391   3.563   1.540
 5286SOL    HW116757   1.295   3.558   1.569
 5286SOL    HW216758   1.427   3.470   1.531
 5287SOL     OW16759   1.727   6.378   1.289
 5287SOL    HW116760   1.774   6.323   1.220
 5287SOL    HW216761   1.655   6.431   1.244
 5288SOL     OW16762   3.947   0.084   1.913
 5288SOL    HW116763   4.006   0.165   1.915
 5288SOL    HW216764   3.878   0.094   1.841
 5289SOL     OW16765   1.729   5.238   6.125
 5289SOL    HW116766   1.791   5.213   6.050
 5289SOL    HW216767   1.651   5.175   6.127
 5290SOL     OW16768   1.858   4.722   5.676
 5290SOL    HW116769   1.915   4.731   5.595
 5290SOL    HW216770   1.830   4.627   5.687
 5291SOL     OW16771   2.706   5.330   5.247
 5291SOL    HW116772   2.619   5.334   5.295
 5291SOL    HW216773   2.729   5.420   5.210
 5292SOL     OW16774   6.811   3.649   0.269
 5292SOL    HW116775   6.777   3.574   0.212
 5292SOL    HW216776   6.907   3.665   0.249
 5293SOL     OW16777   1.038   0.714   3.763
 5293SOL    HW116778   1.018   0.709   3.861
 5293SOL    HW216779   0.967   0.665   3.712
 5294SOL     OW16780   4.984   3.477   5.583
 5294SOL    HW116781   5.081   3.488   5.604
 5294SOL    HW216782   4.962   3.530   5.501
 5295SOL     OW16783   4.718   0.184   2.526
 5295SOL    HW116784   4.653   0.260   2.535
 5295SOL    HW216785   4.763   0.190   2.437
 5296SOL     OW16786   1.916   5.414   0.529
 5296SOL    HW116787   1.919   5.383   0.624
 5296SOL    HW216788   1.879   5.342   0.471
 5297SOL     OW16789   3.208   1.938   1.309
 5297SOL    HW116790   3.127   1.919   1.366
 5297SOL    HW216791   3.202   1.883   1.225
 5298SOL     OW16792   1.355   5.988   6.383
 5298SOL    HW116793   1.355   5.933   6.467
 5298SOL    HW216794   1.404   5.938   6.311
 5299SOL     OW16795   3.148   2.456   0.960
 5299SOL    HW116796   3.119   2.518   0.886
 5299SOL    HW216797   3.104   2.484   1.045
 5300SOL     OW16798   0.230   6.453   1.993
 5300SOL    HW116799   0.266   6.403   1.914
 5300SOL    HW216800   0.292   6.527   2.017
 5301SOL     OW16801   4.423   2.636   0.627
 5301SOL    HW116802   4.451   2.563   0.690
 5301SOL    HW216803   4.459   2.723   0.658
 5302SOL     OW16804   6.421   4.691   3.004
 5302SOL    HW116805   6.380   4.669   3.092
 5302SOL    HW216806   6.352   4.684   2.932
 5303SOL     OW16807   0.033   5.497   2.740
 5303SOL    HW116808   0.092   5.439   2.797
 5303SOL    HW216809   0.064   5.592   2.745
 5304SOL     OW16810   6.123   1.237   6.984
 5304SOL    HW116811   6.056   1.310   6.991
 5304SOL    HW216812   6.163   1.220   0.055
 5305SOL     OW16813   1.222   5.759   4.191
 5305SOL    HW116814   1.222   5.687   4.122
 5305SOL    HW216815   1.171   5.838   4.157
 5306SOL     OW16816   0.518   5.207   5.052
 5306SOL    HW116817   0.449   5.261   5.099
 5306SOL    HW216818   0.536   5.246   4.961
 5307SOL     OW16819   4.252   0.050   0.132
 5307SOL    HW116820   4.290   0.082   0.045
 5307SOL    HW216821   4.153   0.034   0.122
 5308SOL     OW16822   1.049   5.975   3.810
 5308SOL    HW116823   0.989   6.009   3.737
 5308SOL    HW216824   1.013   5.888   3.844
 5309SOL     OW16825   3.915   4.301   1.644
 5309SOL    HW116826   3.848   4.369   1.674
 5309SOL    HW216827   4.005   4.344   1.635
 5310SOL     OW16828   6.168   3.069   1.422
 5310SOL    HW116829   6.112   3.004   1.474
 5310SOL    HW216830   6.109   3.126   1.366
 5311SOL     OW16831   6.896   6.208   1.024
 5311SOL    HW116832   6.970   6.252   0.974
 5311SOL    HW216833   6.882   6.255   1.111
 5312SOL     OW16834   0.612   4.003   1.929
 5312SOL    HW116835   0.603   3.966   1.836
 5312SOL    HW216836   0.649   3.932   1.989
 5313SOL     OW16837   0.999   3.979   6.353
 5313SOL    HW116838   0.912   3.932   6.337
 5313SOL    HW216839   0.983   4.078   6.357
 5314SOL     OW16840   3.352   6.582   0.237
 5314SOL    HW116841   3.386   6.676   0.233
 5314SOL    HW216842   3.430   6.519   0.238
 5315SOL     OW16843   3.650   3.437   1.720
 5315SOL    HW116844   3.579   3.369   1.704
 5315SOL    HW216845   3.737   3.391   1.738
 5316SOL     OW16846   0.163   4.406   4.849
 5316SOL    HW116847   0.128   4.327   4.900
 5316SOL    HW216848   0.115   4.413   4.762
 5317SOL     OW16849   0.124   0.497   4.704
 5317SOL    HW116850   0.128   0.452   4.615
 5317SOL    HW216851   0.213   0.535   4.727
 5318SOL     OW16852   0.152   1.756   5.845
 5318SOL    HW116853   0.244   1.790   5.826
 5318SOL    HW216854   0.105   1.819   5.907
 5319SOL     OW16855   4.616   6.712   6.703
 5319SOL    HW116856   4.616   6.742   6.608
 5319SOL    HW216857   4.701   6.741   6.747
 5320SOL     OW16858   5.600   4.995   6.773
 5320SOL    HW116859   5.512   5.020   6.733
 5320SOL    HW216860   5.587   4.929   6.847
 5321SOL     OW16861   0.809   4.049   2.874
 5321SOL    HW116862   0.842   4.065   2.781
 5321SOL    HW216863   0.811   4.134   2.925
 5322SOL     OW16864   3.615   6.028   6.241
 5322SOL    HW116865   3.586   5.940   6.204
 5322SOL    HW216866   3.633   6.020   6.339
 5323SOL     OW16867   4.076   3.279   7.005
 5323SOL    HW116868   4.063   3.332   6.922
 5323SOL    HW216869   4.136   3.201   6.987
 5324SOL     OW16870   4.002   2.255   1.899
 5324SOL    HW116871   3.904   2.248   1.913
 5324SOL    HW216872   4.024   2.344   1.859
 5325SOL     OW16873   5.403   0.037   3.918
 5325SOL    HW116874   5.495   7.019   3.925
 5325SOL    HW216875   5.368   0.023   3.825
 5326SOL     OW16876   0.040   5.566   3.631
 5326SOL    HW116877   7.008   5.584   3.715
 5326SOL    HW216878   0.027   5.471   3.604
 5327SOL     OW16879   5.711   4.596   4.915
 5327SOL    HW116880   5.686   4.662   4.844
 5327SOL    HW216881   5.645   4.602   4.990
 5328SOL     OW16882   4.449   2.831   5.913
 5328SOL    HW116883   4.426   2.859   5.820
 5328SOL    HW216884   4.500   2.904   5.958
 5329SOL     OW16885   0.004   3.813   0.678
 5329SOL    HW116886   0.092   3.803   0.723
 5329SOL    HW216887   6.980   3.723   0.669
 5330SOL     OW16888   3.636   3.877   6.338
 5330SOL    HW116889   3.639   3.955   6.401
 5330SOL    HW216890   3.633   3.911   6.244
 5331SOL     OW16891   5.553   0.613   1.775
 5331SOL    HW116892   5.633   0.597   1.834
 5331SOL    HW216893   5.581   0.668   1.697
 5332SOL     OW16894   0.356   4.080   0.245
 5332SOL    HW116895   0.374   3.982   0.239
 5332SOL    HW216896   0.433   4.126   0.290
 5333SOL     OW16897   0.808   0.603   3.671
 5333SOL    HW116898   0.728   0.655   3.700
 5333SOL    HW216899   0.793   0.505   3.690
 5334SOL     OW16900   3.595   6.054   5.202
 5334SOL    HW116901   3.508   6.074   5.248
 5334SOL    HW216902   3.660   6.127   5.220
 5335SOL     OW16903   0.068   4.876   2.556
 5335SOL    HW116904   0.081   4.936   2.477
 5335SOL    HW216905   0.148   4.817   2.568
 5336SOL     OW16906   2.386   1.635   3.638
 5336SOL    HW116907   2.332   1.670   3.561
 5336SOL    HW216908   2.456   1.702   3.662
 5337SOL     OW16909   5.300   5.323   1.798
 5337SOL    HW116910   5.220   5.373   1.765
 5337SOL    HW216911   5.370   5.387   1.828
 5338SOL     OW16912   6.048   0.784   5.886
 5338SOL    HW116913   5.993   0.726   5.947
 5338SOL    HW216914   5.988   0.849   5.839
 5339SOL     OW16915   5.944   1.144   3.032
 5339SOL    HW116916   5.864   1.086   3.045
 5339SOL    HW216917   5.925   1.236   3.065
 5340SOL     OW16918   5.800   3.573   1.470
 5340SOL    HW116919   5.799   3.663   1.425
 5340SOL    HW216920   5.722   3.566   1.532
 5341SOL     OW16921   3.281   5.453   5.113
 5341SOL    HW116922   3.227   5.409   5.185
 5341SOL    HW216923   3.368   5.486   5.152
 5342SOL     OW16924   5.055   6.764   4.958
 5342SOL    HW116925   5.056   6.688   4.893
 5342SOL    HW216926   4.996   6.741   5.036
 5343SOL     OW16927   4.130   3.496   4.947
 5343SOL    HW116928   4.082   3.440   5.015
 5343SOL    HW216929   4.212   3.536   4.989
 5344SOL     OW16930   1.748   2.116   1.467
 5344SOL    HW116931   1.731   2.024   1.431
 5344SOL    HW216932   1.847   2.134   1.465
 5345SOL     OW16933   5.117   6.687   0.101
 5345SOL    HW116934   5.029   6.641   0.088
 5345SOL    HW216935   5.142   6.736   0.017
 5346SOL     OW16936   2.588   5.643   3.787
 5346SOL    HW116937   2.633   5.688   3.710
 5346SOL    HW216938   2.647   5.650   3.868
 5347SOL     OW16939   0.455   3.204   2.740
 5347SOL    HW116940   0.525   3.139   2.711
 5347SOL    HW216941   0.482   3.296   2.712
 5348SOL     OW16942   6.979   1.142   0.054
 5348SOL    HW116943   6.932   1.071   0.106
 5348SOL    HW216944   6.915   1.215   0.031
 5349SOL     OW16945   1.974   3.692   0.041
 5349SOL    HW116946   2.029   3.621   0.085
 5349SOL    HW216947   1.977   3.679   6.961
 5350SOL     OW16948   1.962   6.986   4.452
 5350SOL    HW116949   1.998   6.895   4.433
 5350SOL    HW216950   1.959   0.020   4.368
 5351SOL     OW16951   0.110   5.590   2.392
 5351SOL    HW116952   0.183   5.611   2.456
 5351SOL    HW216953   0.085   5.672   2.342
 5352SOL     OW16954   2.159   4.620   2.830
 5352SOL    HW116955   2.226   4.546   2.822
 5352SOL    HW216956   2.190   4.686   2.899
 5353SOL     OW16957   3.800   5.436   4.362
 5353SOL    HW116958   3.780   5.509   4.297
 5353SOL    HW216959   3.806   5.474   4.454
 5354SOL     OW16960   2.239   4.394   1.527
 5354SOL    HW116961   2.255   4.492   1.541
 5354SOL    HW216962   2.147   4.381   1.491
 5355SOL     OW16963   5.833   4.878   4.314
 5355SOL    HW116964   5.850   4.894   4.217
 5355SOL    HW216965   5.919   4.885   4.365
 5356SOL     OW16966   6.419   3.644   2.768
 5356SOL    HW116967   6.321   3.659   2.750
 5356SOL    HW216968   6.457   3.584   2.698
 5357SOL     OW16969   2.816   5.503   0.587
 5357SOL    HW116970   2.815   5.493   0.687
 5357SOL    HW216971   2.834   5.599   0.563
 5358SOL     OW16972   4.393   2.048   0.619
 5358SOL    HW116973   4.466   2.111   0.596
 5358SOL    HW216974   4.359   2.006   0.534
 5359SOL     OW16975   2.679   1.814   6.329
 5359SOL    HW116976   2.649   1.814   6.425
 5359SOL    HW216977   2.601   1.833   6.270
 5360SOL     OW16978   3.868   6.222   3.575
 5360SOL    HW116979   3.886   6.286   3.501
 5360SOL    HW216980   3.797   6.259   3.635
 5361SOL     OW16981   2.340   0.007   4.912
 5361SOL    HW116982   2.409   6.988   4.851
 5361SOL    HW216983   2.255   6.976   4.903
 5362SOL     OW16984   6.674   6.475   2.173
 5362SOL    HW116985   6.721   6.498   2.259
 5362SOL    HW216986   6.684   6.377   2.156
 5363SOL     OW16987   6.182   6.284   5.964
 5363SOL    HW116988   6.156   6.233   5.883
 5363SOL    HW216989   6.272   6.324   5.951
 5364SOL     OW16990   5.954   0.206   1.504
 5364SOL    HW116991   5.982   0.183   1.597
 5364SOL    HW216992   5.949   0.123   1.449
 5365SOL     OW16993   3.494   3.136   1.869
 5365SOL    HW116994   3.444   3.145   1.955
 5365SOL    HW216995   3.590   3.112   1.888
 5366SOL     OW16996   6.145   6.421   1.121
 5366SOL    HW116997   6.237   6.381   1.123
 5366SOL    HW216998   6.078   6.351   1.147
 5367SOL     OW16999   0.075   0.083   1.803
 5367SOL    HW117000   0.146   0.037   1.748
 5367SOL    HW217001   0.113   0.106   1.893
 5368SOL     OW17002   5.645   7.009   2.706
 5368SOL    HW117003   5.624   0.063   2.643
 5368SOL    HW217004   5.700   0.025   2.782
 5369SOL     OW17005   2.508   6.737   0.773
 5369SOL    HW117006   2.548   6.659   0.725
 5369SOL    HW217007   2.466   6.799   0.707
 5370SOL     OW17008   4.676   3.396   0.874
 5370SOL    HW117009   4.662   3.467   0.805
 5370SOL    HW217010   4.763   3.412   0.921
 5371SOL     OW17011   1.073   4.384   5.675
 5371SOL    HW117012   1.088   4.451   5.602
 5371SOL    HW217013   1.158   4.334   5.691
 5372SOL     OW17014   1.249   5.949   2.989
 5372SOL    HW117015   1.279   6.040   2.961
 5372SOL    HW217016   1.170   5.957   3.050
 5373SOL     OW17017   4.110   6.064   5.392
 5373SOL    HW117018   4.139   6.145   5.444
 5373SOL    HW217019   4.145   6.071   5.299
 5374SOL     OW17020   2.359   4.868   0.845
 5374SOL    HW117021   2.290   4.919   0.792
 5374SOL    HW217022   2.377   4.915   0.931
 5375SOL     OW17023   0.246   5.799   5.228
 5375SOL    HW117024   0.154   5.767   5.253
 5375SOL    HW217025   0.254   5.803   5.129
 5376SOL     OW17026   1.234   2.304   1.609
 5376SOL    HW117027   1.192   2.341   1.692
 5376SOL    HW217028   1.219   2.206   1.605
 5377SOL     OW17029   0.588   0.344   2.373
 5377SOL    HW117030   0.564   0.248   2.360
 5377SOL    HW217031   0.675   0.350   2.422
 5378SOL     OW17032   6.724   6.927   2.775
 5378SOL    HW117033   6.789   6.895   2.844
 5378SOL    HW217034   6.760   7.008   2.729
 5379SOL     OW17035   1.002   3.868   4.835
 5379SOL    HW117036   0.911   3.911   4.838
 5379SOL    HW217037   1.003   3.790   4.897
 5380SOL     OW17038   3.325   0.098   2.127
 5380SOL    HW117039   3.420   0.098   2.158
 5380SOL    HW217040   3.281   0.183   2.155
 5381SOL     OW17041   6.454   6.071   2.065
 5381SOL    HW117042   6.376   6.115   2.021
 5381SOL    HW217043   6.487   5.996   2.008
 5382SOL     OW17044   2.923   1.895   2.014
 5382SOL    HW117045   3.009   1.927   2.052
 5382SOL    HW217046   2.880   1.969   1.962
 5383SOL     OW17047   1.635   2.894   4.623
 5383SOL    HW117048   1.550   2.912   4.673
 5383SOL    HW217049   1.709   2.878   4.689
 5384SOL     OW17050   5.213   6.977   5.196
 5384SOL    HW117051   5.159   6.995   5.114
 5384SOL    HW217052   5.309   6.963   5.170
 5385SOL     OW17053   4.104   3.303   5.227
 5385SOL    HW117054   4.024   3.344   5.271
 5385SOL    HW217055   4.178   3.294   5.294
 5386SOL     OW17056   4.784   1.516   3.803
 5386SOL    HW117057   4.848   1.522   3.880
 5386SOL    HW217058   4.690   1.515   3.838
 5387SOL     OW17059   2.276   6.714   2.673
 5387SOL    HW117060   2.283   6.780   2.747
 5387SOL    HW217061   2.243   6.627   2.709
 5388SOL     OW17062   0.715   1.178   3.127
 5388SOL    HW117063   0.633   1.141   3.084
 5388SOL    HW217064   0.772   1.222   3.058
 5389SOL     OW17065   3.939   1.312   3.416
 5389SOL    HW117066   3.851   1.271   3.395
 5389SOL    HW217067   4.012   1.259   3.374
 5390SOL     OW17068   5.266   3.993   4.012
 5390SOL    HW117069   5.279   3.944   4.098
 5390SOL    HW217070   5.351   4.038   3.986
 5391SOL     OW17071   2.109   1.524   0.562
 5391SOL    HW117072   2.182   1.592   0.558
 5391SOL    HW217073   2.146   1.434   0.536
 5392SOL     OW17074   5.819   3.615   1.094
 5392SOL    HW117075   5.755   3.590   1.022
 5392SOL    HW217076   5.894   3.549   1.097
 5393SOL     OW17077   4.478   0.791   5.311
 5393SOL    HW117078   4.495   0.693   5.319
 5393SOL    HW217079   4.414   0.820   5.382
 5394SOL     OW17080   0.427   5.842   1.382
 5394SOL    HW117081   0.505   5.804   1.333
 5394SOL    HW217082   0.344   5.793   1.356
 5395SOL     OW17083   5.051   0.515   1.213
 5395SOL    HW117084   5.141   0.471   1.219
 5395SOL    HW217085   4.983   0.460   1.261
 5396SOL     OW17086   5.786   4.849   1.274
 5396SOL    HW117087   5.744   4.767   1.235
 5396SOL    HW217088   5.753   4.930   1.226
 5397SOL     OW17089   0.458   2.167   1.164
 5397SOL    HW117090   0.386   2.108   1.200
 5397SOL    HW217091   0.547   2.125   1.181
 5398SOL     OW17092   3.170   2.082   3.950
 5398SOL    HW117093   3.151   1.985   3.939
 5398SOL    HW217094   3.091   2.126   3.994
 5399SOL     OW17095   2.871   6.645   6.711
 5399SOL    HW117096   2.790   6.686   6.668
 5399SOL    HW217097   2.892   6.559   6.665
 5400SOL     OW17098   2.937   3.665   6.804
 5400SOL    HW117099   2.947   3.632   6.710
 5400SOL    HW217100   2.886   3.751   6.804
 5401SOL     OW17101   5.989   4.329   2.273
 5401SOL    HW117102   6.010   4.261   2.203
 5401SOL    HW217103   6.042   4.309   2.355
 5402SOL     OW17104   2.818   5.874   1.672
 5402SOL    HW117105   2.746   5.814   1.637
 5402SOL    HW217106   2.884   5.820   1.724
 5403SOL     OW17107   4.848   3.121   6.247
 5403SOL    HW117108   4.787   3.192   6.213
 5403SOL    HW217109   4.794   3.048   6.290
 5404SOL     OW17110   0.885   0.925   2.380
 5404SOL    HW117111   0.837   0.913   2.293
 5404SOL    HW217112   0.890   0.837   2.428
 5405SOL     OW17113   5.715   5.233   0.081
 5405SOL    HW117114   5.693   5.246   0.177
 5405SOL    HW217115   5.632   5.212   0.029
 5406SOL     OW17116   1.667   0.470   4.988
 5406SOL    HW117117   1.674   0.392   5.049
 5406SOL    HW217118   1.731   0.459   4.912
 5407SOL     OW17119   3.216   2.216   1.291
 5407SOL    HW117120   3.214   2.116   1.292
 5407SOL    HW217121   3.265   2.249   1.372
 5408SOL     OW17122   4.017   0.139   4.906
 5408SOL    HW117123   4.033   0.212   4.839
 5408SOL    HW217124   4.042   0.051   4.866
 5409SOL     OW17125   6.532   1.740   3.141
 5409SOL    HW117126   6.478   1.683   3.079
 5409SOL    HW217127   6.626   1.746   3.108
 5410SOL     OW17128   0.662   2.361   6.287
 5410SOL    HW117129   0.749   2.332   6.248
 5410SOL    HW217130   0.658   2.333   6.383
 5411SOL     OW17131   5.696   5.336   5.895
 5411SOL    HW117132   5.680   5.247   5.936
 5411SOL    HW217133   5.628   5.401   5.927
 5412SOL     OW17134   3.496   1.546   6.975
 5412SOL    HW117135   3.513   1.538   6.877
 5412SOL    HW217136   3.401   1.573   6.990
 5413SOL     OW17137   6.971   0.461   6.916
 5413SOL    HW117138   6.978   0.376   6.863
 5413SOL    HW217139   6.879   0.499   6.905
 5414SOL     OW17140   6.202   4.101   5.007
 5414SOL    HW117141   6.120   4.045   5.018
 5414SOL    HW217142   6.177   4.194   4.981
 5415SOL     OW17143   1.900   6.687   1.521
 5415SOL    HW117144   1.945   6.635   1.448
 5415SOL    HW217145   1.908   6.784   1.502
 5416SOL     OW17146   2.869   4.933   5.355
 5416SOL    HW117147   2.881   4.893   5.264
 5416SOL    HW217148   2.906   4.869   5.423
 5417SOL     OW17149   4.537   6.583   5.036
 5417SOL    HW117150   4.503   6.516   5.102
 5417SOL    HW217151   4.635   6.570   5.023
 5418SOL     OW17152   5.455   6.979   5.071
 5418SOL    HW117153   5.530   7.011   5.129
 5418SOL    HW217154   5.451   0.013   4.988
 5419SOL     OW17155   3.132   5.526   0.593
 5419SOL    HW117156   3.102   5.569   0.678
 5419SOL    HW217157   3.104   5.430   0.593
 5420SOL     OW17158   2.211   2.505   1.545
 5420SOL    HW117159   2.255   2.423   1.510
 5420SOL    HW217160   2.114   2.487   1.559
 5421SOL     OW17161   3.135   5.388   2.926
 5421SOL    HW117162   3.126   5.302   2.976
 5421SOL    HW217163   3.218   5.435   2.955
 5422SOL     OW17164   0.282   5.377   4.206
 5422SOL    HW117165   0.319   5.294   4.164
 5422SOL    HW217166   0.238   5.432   4.135
 5423SOL     OW17167   5.517   4.832   0.223
 5423SOL    HW117168   5.541   4.889   0.301
 5423SOL    HW217169   5.545   4.737   0.241
 5424SOL     OW17170   5.614   3.847   4.540
 5424SOL    HW117171   5.671   3.928   4.526
 5424SOL    HW217172   5.669   3.774   4.582
 5425SOL     OW17173   5.028   1.990   4.607
 5425SOL    HW117174   5.012   2.062   4.673
 5425SOL    HW217175   5.122   1.998   4.571
 5426SOL     OW17176   5.982   5.840   2.948
 5426SOL    HW117177   6.014   5.861   2.855
 5426SOL    HW217178   5.889   5.804   2.944
 5427SOL     OW17179   5.475   3.811   0.229
 5427SOL    HW117180   5.398   3.767   0.182
 5427SOL    HW217181   5.559   3.797   0.176
 5428SOL     OW17182   5.567   6.925   2.329
 5428SOL    HW117183   5.643   6.986   2.352
 5428SOL    HW217184   5.501   6.974   2.272
 5429SOL     OW17185   2.518   0.883   6.244
 5429SOL    HW117186   2.494   0.786   6.240
 5429SOL    HW217187   2.576   0.901   6.323
 5430SOL     OW17188   1.952   2.634   5.857
 5430SOL    HW117189   1.873   2.649   5.798
 5430SOL    HW217190   2.026   2.592   5.804
 5431SOL     OW17191   3.267   4.208   6.522
 5431SOL    HW117192   3.225   4.146   6.457
 5431SOL    HW217193   3.242   4.302   6.499
 5432SOL     OW17194   3.698   4.985   6.627
 5432SOL    HW117195   3.686   4.941   6.538
 5432SOL    HW217196   3.764   4.933   6.681
 5433SOL     OW17197   0.886   1.321   2.628
 5433SOL    HW117198   0.849   1.229   2.617
 5433SOL    HW217199   0.979   1.325   2.591
 5434SOL     OW17200   3.955   0.718   4.239
 5434SOL    HW117201   3.950   0.659   4.159
 5434SOL    HW217202   4.043   0.766   4.239
 5435SOL     OW17203   6.409   2.299   0.947
 5435SOL    HW117204   6.382   2.339   1.034
 5435SOL    HW217205   6.418   2.371   0.878
 5436SOL     OW17206   5.741   4.457   3.748
 5436SOL    HW117207   5.722   4.547   3.708
 5436SOL    HW217208   5.744   4.464   3.847
 5437SOL     OW17209   2.643   5.610   5.231
 5437SOL    HW117210   2.717   5.622   5.165
 5437SOL    HW217211   2.562   5.660   5.200
 5438SOL     OW17212   5.796   3.026   2.091
 5438SOL    HW117213   5.855   2.945   2.085
 5438SOL    HW217214   5.702   3.000   2.068
 5439SOL     OW17215   0.588   2.537   0.178
 5439SOL    HW117216   0.542   2.614   0.222
 5439SOL    HW217217   0.523   2.462   0.166
 5440SOL     OW17218   6.813   6.614   3.624
 5440SOL    HW117219   6.868   6.595   3.542
 5440SOL    HW217220   6.810   6.533   3.681
 5441SOL     OW17221   4.866   3.083   3.438
 5441SOL    HW117222   4.877   3.036   3.526
 5441SOL    HW217223   4.871   3.181   3.452
 5442SOL     OW17224   3.939   6.947   2.567
 5442SOL    HW117225   3.851   6.991   2.583
 5442SOL    HW217226   4.007   6.984   2.629
 5443SOL     OW17227   3.465   5.215   3.555
 5443SOL    HW117228   3.484   5.247   3.648
 5443SOL    HW217229   3.429   5.122   3.559
 5444SOL     OW17230   0.293   0.896   3.094
 5444SOL    HW117231   0.358   0.961   3.053
 5444SOL    HW217232   0.344   0.824   3.140
 5445SOL     OW17233   6.465   4.219   4.122
 5445SOL    HW117234   6.519   4.242   4.203
 5445SOL    HW217235   6.424   4.302   4.086
 5446SOL     OW17236   5.879   5.374   4.770
 5446SOL    HW117237   5.815   5.306   4.804
 5446SOL    HW217238   5.967   5.363   4.817
 5447SOL     OW17239   1.741   1.339   0.442
 5447SOL    HW117240   1.812   1.405   0.418
 5447SOL    HW217241   1.657   1.389   0.466
 5448SOL     OW17242   4.862   4.703   3.637
 5448SOL    HW117243   4.925   4.750   3.698
 5448SOL    HW217244   4.872   4.739   3.544
 5449SOL     OW17245   2.148   1.613   0.865
 5449SOL    HW117246   2.160   1.521   0.829
 5449SOL    HW217247   2.230   1.667   0.847
 5450SOL     OW17248   3.177   0.461   1.100
 5450SOL    HW117249   3.136   0.415   1.179
 5450SOL    HW217250   3.154   0.412   1.017
 5451SOL     OW17251   2.451   6.245   3.586
 5451SOL    HW117252   2.402   6.301   3.520
 5451SOL    HW217253   2.470   6.298   3.668
 5452SOL     OW17254   2.479   4.275   0.547
 5452SOL    HW117255   2.422   4.195   0.526
 5452SOL    HW217256   2.528   4.303   0.465
 5453SOL     OW17257   5.348   4.417   2.671
 5453SOL    HW117258   5.260   4.382   2.704
 5453SOL    HW217259   5.421   4.379   2.727
 5454SOL     OW17260   4.931   5.803   0.058
 5454SOL    HW117261   5.010   5.761   0.103
 5454SOL    HW217262   4.936   5.788   6.979
 5455SOL     OW17263   0.279   2.632   3.476
 5455SOL    HW117264   0.372   2.650   3.444
 5455SOL    HW217265   0.236   2.563   3.418
 5456SOL     OW17266   3.340   0.438   7.014
 5456SOL    HW117267   3.319   0.360   6.955
 5456SOL    HW217268   3.256   0.490   0.012
 5457SOL     OW17269   6.396   1.893   1.463
 5457SOL    HW117270   6.316   1.927   1.414
 5457SOL    HW217271   6.382   1.796   1.486
 5458SOL     OW17272   0.514   5.257   0.110
 5458SOL    HW117273   0.435   5.316   0.099
 5458SOL    HW217274   0.558   5.243   0.021
 5459SOL     OW17275   2.697   4.106   5.779
 5459SOL    HW117276   2.662   4.053   5.702
 5459SOL    HW217277   2.622   4.152   5.826
 5460SOL     OW17278   3.663   0.032   2.590
 5460SOL    HW117279   3.598   0.038   2.666
 5460SOL    HW217280   3.614   0.031   2.503
 5461SOL     OW17281   0.525   0.183   4.946
 5461SOL    HW117282   0.588   0.261   4.944
 5461SOL    HW217283   0.563   0.111   5.004
 5462SOL     OW17284   5.671   6.510   0.029
 5462SOL    HW117285   5.671   6.449   6.969
 5462SOL    HW217286   5.633   6.599   0.003
 5463SOL     OW17287   0.439   2.030   0.214
 5463SOL    HW117288   0.472   1.945   0.172
 5463SOL    HW217289   0.348   2.052   0.177
 5464SOL     OW17290   6.107   7.015   4.982
 5464SOL    HW117291   6.063   7.019   4.892
 5464SOL    HW217292   6.097   6.923   5.020
 5465SOL     OW17293   5.559   0.530   3.754
 5465SOL    HW117294   5.481   0.482   3.794
 5465SOL    HW217295   5.617   0.465   3.704
 5466SOL     OW17296   5.003   2.721   5.668
 5466SOL    HW117297   5.091   2.688   5.636
 5466SOL    HW217298   5.017   2.790   5.739
 5467SOL     OW17299   5.451   3.791   3.676
 5467SOL    HW117300   5.455   3.870   3.615
 5467SOL    HW217301   5.493   3.712   3.631
 5468SOL     OW17302   6.093   2.194   4.797
 5468SOL    HW117303   6.155   2.162   4.725
 5468SOL    HW217304   6.020   2.127   4.811
 5469SOL     OW17305   3.380   6.078   5.391
 5469SOL    HW117306   3.371   6.175   5.413
 5469SOL    HW217307   3.326   6.024   5.455
 5470SOL     OW17308   3.453   5.511   3.463
 5470SOL    HW117309   3.531   5.512   3.525
 5470SOL    HW217310   3.391   5.438   3.488
 5471SOL     OW17311   6.374   0.490   3.750
 5471SOL    HW117312   6.301   0.511   3.816
 5471SOL    HW217313   6.365   0.394   3.721
 5472SOL     OW17314   2.826   3.621   6.221
 5472SOL    HW117315   2.798   3.553   6.154
 5472SOL    HW217316   2.926   3.632   6.218
 5473SOL     OW17317   1.513   3.340   1.451
 5473SOL    HW117318   1.602   3.311   1.485
 5473SOL    HW217319   1.519   3.364   1.354
 5474SOL     OW17320   1.295   4.487   4.713
 5474SOL    HW117321   1.370   4.421   4.710
 5474SOL    HW217322   1.212   4.445   4.675
 5475SOL     OW17323   2.051   2.285   1.219
 5475SOL    HW117324   1.992   2.318   1.292
 5475SOL    HW217325   2.053   2.185   1.220
 5476SOL     OW17326   2.445   4.517   4.774
 5476SOL    HW117327   2.423   4.420   4.787
 5476SOL    HW217328   2.360   4.569   4.760
 5477SOL     OW17329   2.085   4.031   2.598
 5477SOL    HW117330   2.004   4.063   2.649
 5477SOL    HW217331   2.161   4.094   2.614
 5478SOL     OW17332   3.710   6.572   5.275
 5478SOL    HW117333   3.783   6.518   5.233
 5478SOL    HW217334   3.706   6.552   5.373
 5479SOL     OW17335   5.574   2.144   5.493
 5479SOL    HW117336   5.610   2.198   5.570
 5479SOL    HW217337   5.490   2.186   5.460
 5480SOL     OW17338   5.998   5.817   4.143
 5480SOL    HW117339   6.021   5.852   4.052
 5480SOL    HW217340   5.909   5.771   4.140
 5481SOL     OW17341   4.614   0.885   4.771
 5481SOL    HW117342   4.635   0.916   4.863
 5481SOL    HW217343   4.555   0.805   4.776
 5482SOL     OW17344   3.699   3.901   1.469
 5482SOL    HW117345   3.785   3.949   1.485
 5482SOL    HW217346   3.680   3.839   1.545
 5483SOL     OW17347   0.054   2.509   5.089
 5483SOL    HW117348   7.012   2.517   5.168
 5483SOL    HW217349   0.141   2.552   5.112
 5484SOL     OW17350   4.613   0.542   3.592
 5484SOL    HW117351   4.699   0.560   3.640
 5484SOL    HW217352   4.539   0.592   3.637
 5485SOL     OW17353   3.777   0.034   5.021
 5485SOL    HW117354   3.771   0.054   5.118
 5485SOL    HW217355   3.829   0.105   4.975
 5486SOL     OW17356   1.768   5.580   5.230
 5486SOL    HW117357   1.853   5.631   5.242
 5486SOL    HW217358   1.697   5.642   5.197
 5487SOL     OW17359   5.199   3.264   6.538
 5487SOL    HW117360   5.138   3.343   6.533
 5487SOL    HW217361   5.182   3.215   6.624
 5488SOL     OW17362   6.162   0.754   1.025
 5488SOL    HW117363   6.077   0.707   1.004
 5488SOL    HW217364   6.199   0.720   1.112
 5489SOL     OW17365   0.947   4.097   0.961
 5489SOL    HW117366   0.895   4.078   1.044
 5489SOL    HW217367   1.035   4.138   0.985
 5490SOL     OW17368   2.986   0.151   0.803
 5490SOL    HW117369   3.069   0.206   0.807
 5490SOL    HW217370   2.940   0.165   0.715
 5491SOL     OW17371   2.033   4.061   0.989
 5491SOL    HW117372   2.071   4.148   1.020
 5491SOL    HW217373   1.982   4.075   0.904
 5492SOL     OW17374   0.237   2.481   5.754
 5492SOL    HW117375   0.181   2.407   5.717
 5492SOL    HW217376   0.186   2.567   5.750
 5493SOL     OW17377   3.867   3.907   4.075
 5493SOL    HW117378   3.935   3.873   4.140
 5493SOL    HW217379   3.809   3.975   4.120
 5494SOL     OW17380   6.453   2.434   6.096
 5494SOL    HW117381   6.552   2.423   6.102
 5494SOL    HW217382   6.422   2.418   6.002
 5495SOL     OW17383   3.603   1.991   0.634
 5495SOL    HW117384   3.589   2.073   0.579
 5495SOL    HW217385   3.661   2.012   0.712
 5496SOL     OW17386   3.562   0.304   3.440
 5496SOL    HW117387   3.578   0.289   3.538
 5496SOL    HW217388   3.638   0.263   3.389
 5497SOL     OW17389   0.586   1.838   4.339
 5497SOL    HW117390   0.584   1.836   4.239
 5497SOL    HW217391   0.499   1.803   4.374
 5498SOL     OW17392   5.963   6.182   0.921
 5498SOL    HW117393   5.949   6.175   0.823
 5498SOL    HW217394   5.912   6.260   0.958
 5499SOL     OW17395   0.520   0.606   4.818
 5499SOL    HW117396   0.566   0.582   4.903
 5499SOL    HW217397   0.503   0.524   4.764
 5500SOL     OW17398   0.899   0.638   0.320
 5500SOL    HW117399   0.949   0.570   0.266
 5500SOL    HW217400   0.927   0.630   0.416
 5501SOL     OW17401   3.879   6.540   0.129
 5501SOL    HW117402   3.858   6.537   0.226
 5501SOL    HW217403   3.857   6.630   0.092
 5502SOL     OW17404   5.622   3.316   0.405
 5502SOL    HW117405   5.582   3.291   0.493
 5502SOL    HW217406   5.557   3.372   0.354
 5503SOL     OW17407   0.671   4.945   2.444
 5503SOL    HW117408   0.626   4.890   2.514
 5503SOL    HW217409   0.770   4.929   2.448
 5504SOL     OW17410   3.614   0.874   5.371
 5504SOL    HW117411   3.577   0.965   5.390
 5504SOL    HW217412   3.713   0.875   5.382
 5505SOL     OW17413   1.499   5.136   4.188
 5505SOL    HW117414   1.552   5.075   4.129
 5505SOL    HW217415   1.561   5.191   4.244
 5506SOL     OW17416   1.089   2.366   6.223
 5506SOL    HW117417   1.075   2.465   6.220
 5506SOL    HW217418   1.127   2.335   6.136
 5507SOL     OW17419   3.415   0.633   3.906
 5507SOL    HW117420   3.395   0.538   3.882
 5507SOL    HW217421   3.506   0.657   3.873
 5508SOL     OW17422   1.632   0.846   6.013
 5508SOL    HW117423   1.543   0.809   6.043
 5508SOL    HW217424   1.659   0.920   6.074
 5509SOL     OW17425   0.381   6.537   6.942
 5509SOL    HW117426   0.382   6.541   0.022
 5509SOL    HW217427   0.400   6.628   6.904
 5510SOL     OW17428   5.389   5.312   0.709
 5510SOL    HW117429   5.317   5.330   0.776
 5510SOL    HW217430   5.474   5.288   0.757
 5511SOL     OW17431   1.626   1.308   4.248
 5511SOL    HW117432   1.580   1.237   4.196
 5511SOL    HW217433   1.688   1.359   4.189
 5512SOL     OW17434   5.583   2.234   1.396
 5512SOL    HW117435   5.640   2.153   1.410
 5512SOL    HW217436   5.498   2.206   1.351
 5513SOL     OW17437   4.425   4.755   6.894
 5513SOL    HW117438   4.354   4.775   6.827
 5513SOL    HW217439   4.384   4.716   6.976
 5514SOL     OW17440   4.504   6.628   4.070
 5514SOL    HW117441   4.443   6.549   4.075
 5514SOL    HW217442   4.494   6.672   3.981
 5515SOL     OW17443   0.503   5.528   1.709
 5515SOL    HW117444   0.519   5.535   1.611
 5515SOL    HW217445   0.418   5.575   1.732
 5516SOL     OW17446   2.020   4.268   6.507
 5516SOL    HW117447   1.958   4.340   6.474
 5516SOL    HW217448   2.042   4.206   6.432
 5517SOL     OW17449   2.044   3.284   2.332
 5517SOL    HW117450   2.070   3.378   2.307
 5517SOL    HW217451   1.947   3.281   2.356
 5518SOL     OW17452   5.773   5.838   6.253
 5518SOL    HW117453   5.812   5.781   6.181
 5518SOL    HW217454   5.807   5.808   6.342
 5519SOL     OW17455   5.747   3.685   3.432
 5519SOL    HW117456   5.668   3.625   3.444
 5519SOL    HW217457   5.824   3.653   3.487
 5520SOL     OW17458   5.799   6.118   2.031
 5520SOL    HW117459   5.832   6.090   2.121
 5520SOL    HW217460   5.703   6.091   2.020
 5521SOL     OW17461   5.392   6.581   1.485
 5521SOL    HW117462   5.483   6.607   1.515
 5521SOL    HW217463   5.341   6.543   1.562
 5522SOL     OW17464   0.519   5.314   0.393
 5522SOL    HW117465   0.485   5.300   0.300
 5522SOL    HW217466   0.460   5.265   0.457
 5523SOL     OW17467   3.937   0.567   2.138
 5523SOL    HW117468   3.987   0.591   2.221
 5523SOL    HW217469   3.938   0.467   2.127
 5524SOL     OW17470   5.246   6.614   5.286
 5524SOL    HW117471   5.331   6.651   5.321
 5524SOL    HW217472   5.263   6.566   5.200
 5525SOL     OW17473   0.658   1.909   0.989
 5525SOL    HW117474   0.601   1.876   1.064
 5525SOL    HW217475   0.599   1.936   0.912
 5526SOL     OW17476   4.926   5.365   3.337
 5526SOL    HW117477   4.878   5.280   3.358
 5526SOL    HW217478   5.020   5.359   3.370
 5527SOL     OW17479   5.517   4.132   3.958
 5527SOL    HW117480   5.584   4.158   4.028
 5527SOL    HW217481   5.549   4.051   3.910
 5528SOL     OW17482   1.433   1.195   6.258
 5528SOL    HW117483   1.499   1.232   6.324
 5528SOL    HW217484   1.466   1.214   6.166
 5529SOL     OW17485   3.045   0.031   3.336
 5529SOL    HW117486   3.094   0.076   3.262
 5529SOL    HW217487   3.047   0.089   3.417
 5530SOL     OW17488   5.720   2.296   1.831
 5530SOL    HW117489   5.750   2.391   1.835
 5530SOL    HW217490   5.683   2.269   1.921
 5531SOL     OW17491   3.116   3.151   2.519
 5531SOL    HW117492   3.118   3.168   2.420
 5531SOL    HW217493   3.184   3.082   2.542
 5532SOL     OW17494   1.163   2.739   0.469
 5532SOL    HW117495   1.192   2.651   0.508
 5532SOL    HW217496   1.242   2.801   0.467
 5533SOL     OW17497   3.770   1.694   3.197
 5533SOL    HW117498   3.856   1.670   3.153
 5533SOL    HW217499   3.783   1.697   3.296
 5534SOL     OW17500   0.602   1.330   6.207
 5534SOL    HW117501   0.582   1.243   6.252
 5534SOL    HW217502   0.600   1.404   6.275
 5535SOL     OW17503   6.660   2.878   3.317
 5535SOL    HW117504   6.563   2.889   3.337
 5535SOL    HW217505   6.686   2.941   3.244
 5536SOL     OW17506   3.558   1.061   4.212
 5536SOL    HW117507   3.489   1.130   4.229
 5536SOL    HW217508   3.589   1.022   4.299
 5537SOL     OW17509   3.030   0.464   2.422
 5537SOL    HW117510   2.955   0.499   2.478
 5537SOL    HW217511   3.068   0.382   2.465
 5538SOL     OW17512   2.120   6.231   5.894
 5538SOL    HW117513   2.110   6.142   5.849
 5538SOL    HW217514   2.216   6.258   5.892
 5539SOL     OW17515   1.707   2.765   1.344
 5539SOL    HW117516   1.655   2.847   1.319
 5539SOL    HW217517   1.645   2.695   1.379
 5540SOL     OW17518   5.092   3.904   3.812
 5540SOL    HW117519   5.162   3.916   3.882
 5540SOL    HW217520   5.042   3.819   3.828
 5541SOL     OW17521   6.202   0.276   6.273
 5541SOL    HW117522   6.151   0.347   6.321
 5541SOL    HW217523   6.293   0.310   6.250
 5542SOL     OW17524   5.644   3.725   5.736
 5542SOL    HW117525   5.616   3.742   5.641
 5542SOL    HW217526   5.564   3.698   5.790
 5543SOL     OW17527   4.033   5.076   5.477
 5543SOL    HW117528   3.973   5.133   5.533
 5543SOL    HW217529   4.106   5.132   5.438
 5544SOL     OW17530   5.259   6.433   6.578
 5544SOL    HW117531   5.358   6.419   6.576
 5544SOL    HW217532   5.227   6.438   6.672
 5545SOL     OW17533   3.774   1.407   1.811
 5545SOL    HW117534   3.751   1.318   1.771
 5545SOL    HW217535   3.756   1.479   1.745
 5546SOL     OW17536   1.084   4.897   4.679
 5546SOL    HW117537   1.087   4.996   4.664
 5546SOL    HW217538   0.993   4.863   4.658
 5547SOL     OW17539   2.243   0.248   4.800
 5547SOL    HW117540   2.298   0.178   4.844
 5547SOL    HW217541   2.242   0.233   4.701
 5548SOL     OW17542   5.287   3.211   5.435
 5548SOL    HW117543   5.243   3.243   5.351
 5548SOL    HW217544   5.226   3.146   5.481
 5549SOL     OW17545   4.299   3.745   6.275
 5549SOL    HW117546   4.321   3.650   6.298
 5549SOL    HW217547   4.201   3.760   6.287
 5550SOL     OW17548   2.266   4.164   1.957
 5550SOL    HW117549   2.249   4.082   2.012
 5550SOL    HW217550   2.365   4.176   1.945
 5551SOL     OW17551   2.354   0.391   3.400
 5551SOL    HW117552   2.426   0.437   3.349
 5551SOL    HW217553   2.284   0.357   3.336
 5552SOL     OW17554   6.726   0.563   6.843
 5552SOL    HW117555   6.716   0.601   6.751
 5552SOL    HW217556   6.675   0.478   6.851
 5553SOL     OW17557   4.858   6.595   0.043
 5553SOL    HW117558   4.891   6.593   6.968
 5553SOL    HW217559   4.821   6.505   0.068
 5554SOL     OW17560   4.033   1.950   5.349
 5554SOL    HW117561   4.095   1.953   5.428
 5554SOL    HW217562   3.944   1.985   5.376
 5555SOL     OW17563   1.908   4.651   4.347
 5555SOL    HW117564   1.992   4.683   4.302
 5555SOL    HW217565   1.933   4.587   4.419
 5556SOL     OW17566   6.815   2.170   3.739
 5556SOL    HW117567   6.892   2.181   3.801
 5556SOL    HW217568   6.761   2.090   3.768
 5557SOL     OW17569   3.563   6.438   2.700
 5557SOL    HW117570   3.608   6.526   2.712
 5557SOL    HW217571   3.612   6.368   2.752
 5558SOL     OW17572   4.590   3.283   6.185
 5558SOL    HW117573   4.520   3.252   6.249
 5558SOL    HW217574   4.654   3.344   6.233
 5559SOL     OW17575   3.137   0.134   1.900
 5559SOL    HW117576   3.131   0.181   1.988
 5559SOL    HW217577   3.205   0.061   1.906
 5560SOL     OW17578   0.933   6.587   3.671
 5560SOL    HW117579   0.881   6.640   3.738
 5560SOL    HW217580   0.878   6.573   3.589
 5561SOL     OW17581   1.898   2.389   4.118
 5561SOL    HW117582   1.920   2.485   4.098
 5561SOL    HW217583   1.968   2.330   4.076
 5562SOL     OW17584   2.926   2.305   0.023
 5562SOL    HW117585   2.980   2.256   0.092
 5562SOL    HW217586   2.949   2.271   6.952
 5563SOL     OW17587   4.203   5.603   2.433
 5563SOL    HW117588   4.176   5.674   2.498
 5563SOL    HW217589   4.295   5.622   2.400
 5564SOL     OW17590   4.669   0.996   2.097
 5564SOL    HW117591   4.646   1.049   2.015
 5564SOL    HW217592   4.675   1.057   2.176
 5565SOL     OW17593   4.874   1.986   6.943
 5565SOL    HW117594   4.931   1.910   6.911
 5565SOL    HW217595   4.926   2.071   6.941
 5566SOL     OW17596   2.025   5.829   0.230
 5566SOL    HW117597   2.023   5.922   0.266
 5566SOL    HW217598   1.998   5.765   0.302
 5567SOL     OW17599   0.258   4.620   2.042
 5567SOL    HW117600   0.237   4.529   2.079
 5567SOL    HW217601   0.207   4.635   1.958
 5568SOL     OW17602   4.217   2.210   3.242
 5568SOL    HW117603   4.188   2.124   3.200
 5568SOL    HW217604   4.153   2.236   3.314
 5569SOL     OW17605   2.798   1.608   2.414
 5569SOL    HW117606   2.865   1.638   2.346
 5569SOL    HW217607   2.706   1.611   2.373
 5570SOL     OW17608   5.575   4.940   5.086
 5570SOL    HW117609   5.519   5.009   5.131
 5570SOL    HW217610   5.546   4.849   5.116
 5571SOL     OW17611   0.443   6.358   0.551
 5571SOL    HW117612   0.345   6.354   0.536
 5571SOL    HW217613   0.482   6.434   0.499
 5572SOL     OW17614   1.511   2.419   4.613
 5572SOL    HW117615   1.434   2.483   4.607
 5572SOL    HW217616   1.595   2.467   4.585
 5573SOL     OW17617   2.198   3.378   6.770
 5573SOL    HW117618   2.174   3.339   6.681
 5573SOL    HW217619   2.124   3.436   6.803
 5574SOL     OW17620   6.386   1.840   3.838
 5574SOL    HW117621   6.287   1.845   3.833
 5574SOL    HW217622   6.413   1.793   3.922
 5575SOL     OW17623   0.111   1.588   1.456
 5575SOL    HW117624   0.090   1.563   1.551
 5575SOL    HW217625   0.101   1.507   1.398
 5576SOL     OW17626   0.771   6.320   2.170
 5576SOL    HW117627   0.685   6.317   2.120
 5576SOL    HW217628   0.837   6.376   2.118
 5577SOL     OW17629   3.003   2.845   5.800
 5577SOL    HW117630   2.918   2.889   5.828
 5577SOL    HW217631   2.984   2.781   5.726
 5578SOL     OW17632   4.100   4.100   0.466
 5578SOL    HW117633   4.089   4.134   0.373
 5578SOL    HW217634   4.017   4.052   0.495
 5579SOL     OW17635   6.686   3.555   6.294
 5579SOL    HW117636   6.587   3.553   6.308
 5579SOL    HW217637   6.732   3.572   6.382
 5580SOL     OW17638   4.189   2.378   5.967
 5580SOL    HW117639   4.152   2.386   5.874
 5580SOL    HW217640   4.213   2.469   6.001
 5581SOL     OW17641   2.463   6.563   1.976
 5581SOL    HW117642   2.430   6.552   1.882
 5581SOL    HW217643   2.503   6.654   1.987
 5582SOL     OW17644   3.822   3.362   3.488
 5582SOL    HW117645   3.792   3.429   3.420
 5582SOL    HW217646   3.773   3.377   3.574
 5583SOL     OW17647   4.451   0.082   2.581
 5583SOL    HW117648   4.390   0.037   2.515
 5583SOL    HW217649   4.397   0.143   2.639
 5584SOL     OW17650   5.361   3.944   4.469
 5584SOL    HW117651   5.441   3.890   4.495
 5584SOL    HW217652   5.389   4.018   4.408
 5585SOL     OW17653   4.739   6.524   4.250
 5585SOL    HW117654   4.813   6.491   4.191
 5585SOL    HW217655   4.653   6.525   4.198
 5586SOL     OW17656   0.653   2.260   6.538
 5586SOL    HW117657   0.752   2.265   6.520
 5586SOL    HW217658   0.635   2.188   6.605
 5587SOL     OW17659   4.349   6.281   2.531
 5587SOL    HW117660   4.439   6.311   2.562
 5587SOL    HW217661   4.354   6.186   2.500
 5588SOL     OW17662   1.350   6.904   3.277
 5588SOL    HW117663   1.412   6.933   3.351
 5588SOL    HW217664   1.313   6.985   3.231
 5589SOL     OW17665   5.898   2.700   6.844
 5589SOL    HW117666   5.932   2.606   6.850
 5589SOL    HW217667   5.972   2.760   6.814
 5590SOL     OW17668   6.884   5.639   3.114
 5590SOL    HW117669   6.814   5.711   3.111
 5590SOL    HW217670   6.840   5.550   3.108
 5591SOL     OW17671   5.907   1.153   6.706
 5591SOL    HW117672   5.973   1.185   6.774
 5591SOL    HW217673   5.824   1.208   6.711
 5592SOL     OW17674   1.219   4.176   2.853
 5592SOL    HW117675   1.204   4.083   2.819
 5592SOL    HW217676   1.183   4.242   2.786
 5593SOL     OW17677   6.630   2.074   5.914
 5593SOL    HW117678   6.632   1.993   5.856
 5593SOL    HW217679   6.613   2.155   5.857
 5594SOL     OW17680   2.544   1.254   6.585
 5594SOL    HW117681   2.548   1.166   6.632
 5594SOL    HW217682   2.512   1.324   6.649
 5595SOL     OW17683   6.234   0.879   5.084
 5595SOL    HW117684   6.310   0.938   5.055
 5595SOL    HW217685   6.270   0.800   5.132
 5596SOL     OW17686   5.057   0.330   2.201
 5596SOL    HW117687   5.040   0.316   2.103
 5596SOL    HW217688   5.154   0.317   2.220
 5597SOL     OW17689   5.446   1.853   5.218
 5597SOL    HW117690   5.544   1.847   5.238
 5597SOL    HW217691   5.425   1.801   5.136
 5598SOL     OW17692   5.410   2.180   3.771
 5598SOL    HW117693   5.337   2.172   3.704
 5598SOL    HW217694   5.442   2.275   3.775
 5599SOL     OW17695   6.534   3.155   2.108
 5599SOL    HW117696   6.545   3.086   2.036
 5599SOL    HW217697   6.491   3.113   2.188
 5600SOL     OW17698   1.968   0.391   2.106
 5600SOL    HW117699   1.875   0.399   2.071
 5600SOL    HW217700   1.973   0.320   2.176
 5601SOL     OW17701   3.912   1.321   6.362
 5601SOL    HW117702   3.872   1.407   6.392
 5601SOL    HW217703   4.012   1.330   6.359
 5602SOL     OW17704   0.723   0.791   3.089
 5602SOL    HW117705   0.633   0.749   3.087
 5602SOL    HW217706   0.715   0.888   3.068
 5603SOL     OW17707   5.152   2.313   5.561
 5603SOL    HW117708   5.142   2.230   5.615
 5603SOL    HW217709   5.208   2.295   5.481
 5604SOL     OW17710   0.189   2.211   4.660
 5604SOL    HW117711   0.259   2.234   4.593
 5604SOL    HW217712   0.158   2.294   4.706
 5605SOL     OW17713   1.554   6.841   4.543
 5605SOL    HW117714   1.576   6.747   4.567
 5605SOL    HW217715   1.613   6.903   4.594
 5606SOL     OW17716   4.388   0.815   0.445
 5606SOL    HW117717   4.302   0.791   0.400
 5606SOL    HW217718   4.448   0.734   0.447
 5607SOL     OW17719   5.372   1.886   3.469
 5607SOL    HW117720   5.316   1.874   3.551
 5607SOL    HW217721   5.436   1.961   3.482
 5608SOL     OW17722   5.827   1.374   3.476
 5608SOL    HW117723   5.871   1.459   3.503
 5608SOL    HW217724   5.731   1.376   3.505
 5609SOL     OW17725   4.790   5.788   0.911
 5609SOL    HW117726   4.829   5.696   0.922
 5609SOL    HW217727   4.811   5.843   0.991
 5610SOL     OW17728   5.960   3.889   1.579
 5610SOL    HW117729   5.977   3.979   1.541
 5610SOL    HW217730   5.885   3.894   1.645
 5611SOL     OW17731   0.496   5.331   2.240
 5611SOL    HW117732   0.456   5.380   2.162
 5611SOL    HW217733   0.433   5.335   2.318
 5612SOL     OW17734   3.385   2.836   0.700
 5612SOL    HW117735   3.411   2.907   0.635
 5612SOL    HW217736   3.287   2.818   0.693
 5613SOL     OW17737   6.248   4.731   5.332
 5613SOL    HW117738   6.261   4.820   5.376
 5613SOL    HW217739   6.186   4.742   5.254
 5614SOL     OW17740   5.950   3.198   4.951
 5614SOL    HW117741   5.961   3.185   5.049
 5614SOL    HW217742   6.007   3.132   4.902
 5615SOL     OW17743   6.797   1.765   3.056
 5615SOL    HW117744   6.864   1.767   3.130
 5615SOL    HW217745   6.793   1.855   3.013
 5616SOL     OW17746   2.331   2.735   4.786
 5616SOL    HW117747   2.370   2.827   4.786
 5616SOL    HW217748   2.295   2.713   4.876
 5617SOL     OW17749   1.422   3.620   4.820
 5617SOL    HW117750   1.393   3.652   4.910
 5617SOL    HW217751   1.370   3.667   4.749
 5618SOL     OW17752   6.807   4.645   3.424
 5618SOL    HW117753   6.766   4.681   3.508
 5618SOL    HW217754   6.881   4.582   3.448
 5619SOL     OW17755   3.293   3.716   3.428
 5619SOL    HW117756   3.232   3.639   3.408
 5619SOL    HW217757   3.382   3.680   3.458
 5620SOL     OW17758   4.909   3.668   6.500
 5620SOL    HW117759   4.969   3.737   6.459
 5620SOL    HW217760   4.814   3.700   6.497
 5621SOL     OW17761   1.503   3.408   5.963
 5621SOL    HW117762   1.451   3.323   5.978
 5621SOL    HW217763   1.597   3.395   5.995
 5622SOL     OW17764   4.925   6.646   5.948
 5622SOL    HW117765   4.934   6.547   5.931
 5622SOL    HW217766   4.995   6.695   5.897
 5623SOL     OW17767   4.639   6.059   4.952
 5623SOL    HW117768   4.643   6.110   4.867
 5623SOL    HW217769   4.708   5.986   4.950
 5624SOL     OW17770   0.445   5.264   3.900
 5624SOL    HW117771   0.526   5.229   3.853
 5624SOL    HW217772   0.407   5.192   3.959
 5625SOL     OW17773   6.998   5.282   5.633
 5625SOL    HW117774   7.008   5.282   5.534
 5625SOL    HW217775   6.935   5.355   5.660
 5626SOL     OW17776   2.728   5.596   4.032
 5626SOL    HW117777   2.732   5.551   4.121
 5626SOL    HW217778   2.713   5.694   4.044
 5627SOL     OW17779   7.014   5.433   6.374
 5627SOL    HW117780   6.945   5.475   6.317
 5627SOL    HW217781   0.075   5.411   6.319
 5628SOL     OW17782   2.596   2.248   1.272
 5628SOL    HW117783   2.596   2.149   1.281
 5628SOL    HW217784   2.654   2.288   1.342
 5629SOL     OW17785   5.052   2.963   1.776
 5629SOL    HW117786   4.956   2.945   1.753
 5629SOL    HW217787   5.061   2.975   1.875
 5630SOL     OW17788   1.998   4.213   6.792
 5630SOL    HW117789   1.979   4.307   6.820
 5630SOL    HW217790   1.970   4.201   6.697
 5631SOL     OW17791   5.563   1.418   1.023
 5631SOL    HW117792   5.590   1.323   1.039
 5631SOL    HW217793   5.475   1.421   0.977
 5632SOL     OW17794   4.249   1.733   5.238
 5632SOL    HW117795   4.161   1.738   5.285
 5632SOL    HW217796   4.314   1.683   5.294
 5633SOL     OW17797   6.107   4.688   4.675
 5633SOL    HW117798   6.058   4.635   4.605
 5633SOL    HW217799   6.191   4.725   4.636
 5634SOL     OW17800   1.970   4.775   3.563
 5634SOL    HW117801   2.069   4.784   3.574
 5634SOL    HW217802   1.933   4.856   3.517
 5635SOL     OW17803   2.307   6.342   6.387
 5635SOL    HW117804   2.303   6.272   6.457
 5635SOL    HW217805   2.216   6.357   6.349
 5636SOL     OW17806   5.762   0.993   5.454
 5636SOL    HW117807   5.809   0.905   5.460
 5636SOL    HW217808   5.805   1.049   5.384
 5637SOL     OW17809   3.626   7.011   3.748
 5637SOL    HW117810   3.575   6.928   3.773
 5637SOL    HW217811   3.721   7.000   3.776
 5638SOL     OW17812   6.362   4.829   1.064
 5638SOL    HW117813   6.330   4.766   1.135
 5638SOL    HW217814   6.388   4.776   0.983
 5639SOL     OW17815   3.107   0.478   1.605
 5639SOL    HW117816   3.113   0.564   1.554
 5639SOL    HW217817   3.036   0.486   1.675
 5640SOL     OW17818   2.648   0.475   2.642
 5640SOL    HW117819   2.736   0.509   2.675
 5640SOL    HW217820   2.604   0.544   2.586
 5641SOL     OW17821   0.001   4.944   6.073
 5641SOL    HW117822   6.985   5.029   6.112
 5641SOL    HW217823   0.098   4.955   6.050
 5642SOL     OW17824   0.970   5.354   5.171
 5642SOL    HW117825   1.019   5.269   5.190
 5642SOL    HW217826   0.892   5.334   5.112
 5643SOL     OW17827   3.631   0.948   4.482
 5643SOL    HW117828   3.556   0.893   4.519
 5643SOL    HW217829   3.662   1.012   4.551
 5644SOL     OW17830   3.690   0.433   3.818
 5644SOL    HW117831   3.681   0.521   3.771
 5644SOL    HW217832   3.660   0.442   3.913
 5645SOL     OW17833   6.118   4.304   3.428
 5645SOL    HW117834   6.209   4.307   3.469
 5645SOL    HW217835   6.057   4.365   3.477
 5646SOL     OW17836   1.501   5.953   3.192
 5646SOL    HW117837   1.484   6.033   3.135
 5646SOL    HW217838   1.439   5.879   3.166
 5647SOL     OW17839   5.846   6.781   0.506
 5647SOL    HW117840   5.786   6.702   0.494
 5647SOL    HW217841   5.939   6.750   0.525
 5648SOL     OW17842   2.106   1.528   2.868
 5648SOL    HW117843   2.125   1.450   2.926
 5648SOL    HW217844   2.078   1.606   2.925
 5649SOL     OW17845   6.763   6.850   5.181
 5649SOL    HW117846   6.723   6.941   5.191
 5649SOL    HW217847   6.820   6.847   5.100
 5650SOL     OW17848   0.501   6.087   1.265
 5650SOL    HW117849   0.600   6.072   1.266
 5650SOL    HW217850   0.456   6.012   1.313
 5651SOL     OW17851   0.528   1.076   1.642
 5651SOL    HW117852   0.536   1.176   1.649
 5651SOL    HW217853   0.443   1.046   1.686
 5652SOL     OW17854   5.963   6.518   1.921
 5652SOL    HW117855   5.885   6.507   1.983
 5652SOL    HW217856   5.942   6.589   1.854
 5653SOL     OW17857   0.593   6.037   6.433
 5653SOL    HW117858   0.566   6.015   6.527
 5653SOL    HW217859   0.567   6.131   6.412
 5654SOL     OW17860   6.228   6.605   5.817
 5654SOL    HW117861   6.296   6.556   5.873
 5654SOL    HW217862   6.137   6.591   5.855
 5655SOL     OW17863   1.333   3.150   4.804
 5655SOL    HW117864   1.422   3.194   4.801
 5655SOL    HW217865   1.263   3.219   4.823
 5656SOL     OW17866   0.713   3.063   0.591
 5656SOL    HW117867   0.716   3.101   0.499
 5656SOL    HW217868   0.777   3.112   0.650
 5657SOL     OW17869   5.672   0.572   0.341
 5657SOL    HW117870   5.617   0.617   0.271
 5657SOL    HW217871   5.643   0.602   0.432
 5658SOL     OW17872   3.354   5.345   5.643
 5658SOL    HW117873   3.448   5.344   5.611
 5658SOL    HW217874   3.305   5.266   5.604
 5659SOL     OW17875   4.118   3.598   3.431
 5659SOL    HW117876   4.138   3.608   3.334
 5659SOL    HW217877   4.088   3.686   3.468
 5660SOL     OW17878   5.575   0.180   5.454
 5660SOL    HW117879   5.482   0.200   5.486
 5660SOL    HW217880   5.572   0.116   5.378
 5661SOL     OW17881   0.840   4.213   5.039
 5661SOL    HW117882   0.762   4.276   5.037
 5661SOL    HW217883   0.899   4.229   4.960
 5662SOL     OW17884   2.686   5.683   3.362
 5662SOL    HW117885   2.658   5.595   3.402
 5662SOL    HW217886   2.689   5.752   3.434
 5663SOL     OW17887   2.295   2.939   6.367
 5663SOL    HW117888   2.344   2.877   6.306
 5663SOL    HW217889   2.324   2.923   6.462
 5664SOL     OW17890   0.040   4.411   5.217
 5664SOL    HW117891   0.023   4.455   5.128
 5664SOL    HW217892   0.079   4.320   5.202
 5665SOL     OW17893   1.262   2.036   6.818
 5665SOL    HW117894   1.193   2.106   6.801
 5665SOL    HW217895   1.339   2.049   6.756
 5666SOL     OW17896   5.976   5.853   1.244
 5666SOL    HW117897   6.039   5.788   1.288
 5666SOL    HW217898   5.891   5.807   1.221
 5667SOL     OW17899   0.966   4.316   3.344
 5667SOL    HW117900   0.895   4.386   3.349
 5667SOL    HW217901   1.055   4.359   3.337
 5668SOL     OW17902   4.850   2.193   5.334
 5668SOL    HW117903   4.832   2.229   5.243
 5668SOL    HW217904   4.854   2.269   5.399
 5669SOL     OW17905   0.747   2.841   6.845
 5669SOL    HW117906   0.704   2.765   6.893
 5669SOL    HW217907   0.789   2.808   6.760
 5670SOL     OW17908   6.576   3.116   3.822
 5670SOL    HW117909   6.542   3.076   3.907
 5670SOL    HW217910   6.533   3.205   3.808
 5671SOL     OW17911   0.504   5.756   6.764
 5671SOL    HW117912   0.494   5.668   6.716
 5671SOL    HW217913   0.465   5.829   6.707
 5672SOL     OW17914   4.034   4.456   6.615
 5672SOL    HW117915   3.949   4.489   6.572
 5672SOL    HW217916   4.046   4.503   6.703
 5673SOL     OW17917   0.852   6.550   2.010
 5673SOL    HW117918   0.889   6.617   1.946
 5673SOL    HW217919   0.762   6.581   2.042
 5674SOL     OW17920   6.566   4.516   4.807
 5674SOL    HW117921   6.588   4.589   4.743
 5674SOL    HW217922   6.509   4.552   4.881
 5675SOL     OW17923   4.665   2.138   5.717
 5675SOL    HW117924   4.639   2.200   5.643
 5675SOL    HW217925   4.725   2.067   5.681
 5676SOL     OW17926   2.425   2.304   2.225
 5676SOL    HW117927   2.450   2.344   2.312
 5676SOL    HW217928   2.327   2.317   2.209
 5677SOL     OW17929   0.470   1.793   3.020
 5677SOL    HW117930   0.473   1.822   2.924
 5677SOL    HW217931   0.563   1.774   3.052
 5678SOL     OW17932   3.360   6.420   2.870
 5678SOL    HW117933   3.382   6.390   2.963
 5678SOL    HW217934   3.444   6.430   2.817
 5679SOL     OW17935   0.872   1.329   4.239
 5679SOL    HW117936   0.968   1.350   4.257
 5679SOL    HW217937   0.863   1.295   4.145
 5680SOL     OW17938   1.494   5.686   0.593
 5680SOL    HW117939   1.519   5.589   0.587
 5680SOL    HW217940   1.466   5.719   0.502
 5681SOL     OW17941   0.358   3.881   6.722
 5681SOL    HW117942   0.336   3.929   6.637
 5681SOL    HW217943   0.315   3.929   6.799
 5682SOL     OW17944   2.275   4.441   6.084
 5682SOL    HW117945   2.325   4.377   6.142
 5682SOL    HW217946   2.194   4.396   6.046
 5683SOL     OW17947   3.822   0.476   0.492
 5683SOL    HW117948   3.829   0.575   0.501
 5683SOL    HW217949   3.888   0.432   0.553
 5684SOL     OW17950   3.451   2.885   4.660
 5684SOL    HW117951   3.391   2.925   4.729
 5684SOL    HW217952   3.537   2.856   4.702
 5685SOL     OW17953   1.956   3.006   2.660
 5685SOL    HW117954   1.966   2.907   2.669
 5685SOL    HW217955   2.042   3.045   2.628
 5686SOL     OW17956   2.690   0.009   6.159
 5686SOL    HW117957   2.647   0.081   6.214
 5686SOL    HW217958   2.740   6.967   6.220
 5687SOL     OW17959   0.967   4.504   6.036
 5687SOL    HW117960   0.976   4.454   5.950
 5687SOL    HW217961   0.921   4.446   6.103
 5688SOL     OW17962   0.113   1.914   0.233
 5688SOL    HW117963   0.155   1.829   0.265
 5688SOL    HW217964   0.015   1.898   0.216
 5689SOL     OW17965   4.235   0.848   0.696
 5689SOL    HW117966   4.211   0.754   0.720
 5689SOL    HW217967   4.305   0.848   0.625
 5690SOL     OW17968   2.554   6.139   0.656
 5690SOL    HW117969   2.493   6.061   0.672
 5690SOL    HW217970   2.562   6.156   0.558
 5691SOL     OW17971   2.765   6.785   1.908
 5691SOL    HW117972   2.833   6.831   1.965
 5691SOL    HW217973   2.676   6.787   1.953
 5692SOL     OW17974   6.959   3.049   6.583
 5692SOL    HW117975   6.927   3.139   6.611
 5692SOL    HW217976   0.029   3.057   6.540
 5693SOL     OW17977   5.648   2.364   2.790
 5693SOL    HW117978   5.610   2.288   2.843
 5693SOL    HW217979   5.668   2.440   2.851
 5694SOL     OW17980   1.040   2.375   3.972
 5694SOL    HW117981   0.989   2.307   4.023
 5694SOL    HW217982   1.133   2.342   3.955
 5695SOL     OW17983   1.248   2.642   3.305
 5695SOL    HW117984   1.154   2.658   3.274
 5695SOL    HW217985   1.272   2.710   3.374
 5696SOL     OW17986   1.788   0.842   3.202
 5696SOL    HW117987   1.718   0.912   3.214
 5696SOL    HW217988   1.750   0.752   3.225
 5697SOL     OW17989   6.097   2.692   1.375
 5697SOL    HW117990   6.074   2.775   1.425
 5697SOL    HW217991   6.016   2.655   1.331
 5698SOL     OW17992   0.286   3.394   2.973
 5698SOL    HW117993   0.208   3.340   2.943
 5698SOL    HW217994   0.312   3.459   2.901
 5699SOL     OW17995   6.378   2.700   2.570
 5699SOL    HW117996   6.361   2.681   2.474
 5699SOL    HW217997   6.475   2.721   2.583
 5700SOL     OW17998   6.689   6.670   4.315
 5700SOL    HW117999   6.736   6.754   4.342
 5700SOL    HW218000   6.659   6.621   4.397
 5701SOL     OW18001   1.573   6.687   3.159
 5701SOL    HW118002   1.479   6.714   3.177
 5701SOL    HW218003   1.581   6.655   3.064
 5702SOL     OW18004   2.408   6.746   5.522
 5702SOL    HW118005   2.356   6.693   5.589
 5702SOL    HW218006   2.349   6.816   5.483
 5703SOL     OW18007   5.938   4.619   1.854
 5703SOL    HW118008   5.960   4.654   1.944
 5703SOL    HW218009   5.843   4.587   1.852
 5704SOL     OW18010   3.966   5.427   2.142
 5704SOL    HW118011   3.888   5.485   2.117
 5704SOL    HW218012   3.933   5.335   2.162
 5705SOL     OW18013   4.839   1.139   1.506
 5705SOL    HW118014   4.814   1.058   1.455
 5705SOL    HW218015   4.763   1.204   1.507
 5706SOL     OW18016   0.273   2.945   0.144
 5706SOL    HW118017   0.339   2.872   0.128
 5706SOL    HW218018   0.181   2.905   0.149
 5707SOL     OW18019   6.918   6.586   0.688
 5707SOL    HW118020   6.973   6.566   0.769
 5707SOL    HW218021   6.967   6.556   0.606
 5708SOL     OW18022   4.890   5.926   1.115
 5708SOL    HW118023   4.863   6.013   1.157
 5708SOL    HW218024   4.976   5.937   1.066
 5709SOL     OW18025   1.715   0.590   3.142
 5709SOL    HW118026   1.749   0.537   3.063
 5709SOL    HW218027   1.640   0.541   3.184
 5710SOL     OW18028   2.423   3.286   6.465
 5710SOL    HW118029   2.479   3.366   6.442
 5710SOL    HW218030   2.468   3.234   6.538
 5711SOL     OW18031   5.203   1.325   2.747
 5711SOL    HW118032   5.286   1.320   2.691
 5711SOL    HW218033   5.131   1.272   2.703
 5712SOL     OW18034   0.822   5.960   6.245
 5712SOL    HW118035   0.742   6.011   6.277
 5712SOL    HW218036   0.904   5.996   6.289
 5713SOL     OW18037   2.488   2.811   1.741
 5713SOL    HW118038   2.587   2.797   1.750
 5713SOL    HW218039   2.443   2.780   1.825
 5714SOL     OW18040   0.842   5.922   6.549
 5714SOL    HW118041   0.778   5.949   6.477
 5714SOL    HW218042   0.791   5.881   6.624
 5715SOL     OW18043   0.951   6.618   2.927
 5715SOL    HW118044   0.953   6.589   2.832
 5715SOL    HW218045   1.044   6.643   2.956
 5716SOL     OW18046   1.581   4.168   0.089
 5716SOL    HW118047   1.660   4.205   0.041
 5716SOL    HW218048   1.550   4.084   0.044
 5717SOL     OW18049   1.734   6.351   0.897
 5717SOL    HW118050   1.720   6.279   0.965
 5717SOL    HW218051   1.832   6.365   0.883
 5718SOL     OW18052   1.313   3.190   5.684
 5718SOL    HW118053   1.263   3.136   5.617
 5718SOL    HW218054   1.398   3.223   5.644
 5719SOL     OW18055   2.944   1.065   6.115
 5719SOL    HW118056   2.917   1.161   6.108
 5719SOL    HW218057   2.925   1.018   6.028
 5720SOL     OW18058   1.105   5.234   4.046
 5720SOL    HW118059   1.165   5.303   4.086
 5720SOL    HW218060   1.029   5.280   3.999
 5721SOL     OW18061   0.160   4.069   0.864
 5721SOL    HW118062   0.178   4.104   0.955
 5721SOL    HW218063   0.061   4.068   0.847
 5722SOL     OW18064   5.910   1.487   5.396
 5722SOL    HW118065   5.931   1.411   5.458
 5722SOL    HW218066   5.814   1.482   5.369
 5723SOL     OW18067   4.627   3.506   6.731
 5723SOL    HW118068   4.721   3.490   6.701
 5723SOL    HW218069   4.570   3.429   6.705
 5724SOL     OW18070   4.326   2.695   5.302
 5724SOL    HW118071   4.350   2.647   5.386
 5724SOL    HW218072   4.268   2.637   5.245
 5725SOL     OW18073   5.994   5.854   3.868
 5725SOL    HW118074   5.938   5.936   3.856
 5725SOL    HW218075   6.084   5.869   3.828
 5726SOL     OW18076   0.014   4.324   4.604
 5726SOL    HW118077   7.010   4.227   4.600
 5726SOL    HW218078   6.961   4.375   4.650
 5727SOL     OW18079   0.648   2.549   3.671
 5727SOL    HW118080   0.646   2.449   3.682
 5727SOL    HW218081   0.692   2.572   3.584
 5728SOL     OW18082   4.421   1.574   6.564
 5728SOL    HW118083   4.464   1.483   6.558
 5728SOL    HW218084   4.379   1.585   6.654
 5729SOL     OW18085   0.840   1.711   0.437
 5729SOL    HW118086   0.920   1.661   0.404
 5729SOL    HW218087   0.856   1.742   0.531
 5730SOL     OW18088   4.513   4.990   5.695
 5730SOL    HW118089   4.571   4.943   5.761
 5730SOL    HW218090   4.485   5.078   5.733
 5731SOL     OW18091   1.173   6.673   3.573
 5731SOL    HW118092   1.208   6.763   3.597
 5731SOL    HW218093   1.081   6.662   3.609
 5732SOL     OW18094   6.672   4.825   5.260
 5732SOL    HW118095   6.609   4.765   5.310
 5732SOL    HW218096   6.620   4.888   5.203
 5733SOL     OW18097   3.507   0.320   5.269
 5733SOL    HW118098   3.524   0.385   5.195
 5733SOL    HW218099   3.439   0.357   5.332
 5734SOL     OW18100   1.077   6.090   6.243
 5734SOL    HW118101   1.113   6.073   6.335
 5734SOL    HW218102   1.118   6.026   6.179
 5735SOL     OW18103   4.152   1.849   2.430
 5735SOL    HW118104   4.090   1.909   2.381
 5735SOL    HW218105   4.230   1.902   2.464
 5736SOL     OW18106   5.952   4.243   0.783
 5736SOL    HW118107   5.954   4.171   0.714
 5736SOL    HW218108   6.038   4.295   0.779
 5737SOL     OW18109   4.468   5.168   6.771
 5737SOL    HW118110   4.445   5.105   6.697
 5737SOL    HW218111   4.517   5.118   6.843
 5738SOL     OW18112   2.853   2.705   6.177
 5738SOL    HW118113   2.852   2.798   6.213
 5738SOL    HW218114   2.869   2.641   6.251
 5739SOL     OW18115   0.818   6.827   5.286
 5739SOL    HW118116   0.897   6.830   5.349
 5739SOL    HW218117   0.734   6.817   5.339
 5740SOL     OW18118   4.338   3.453   0.906
 5740SOL    HW118119   4.296   3.527   0.958
 5740SOL    HW218120   4.409   3.490   0.847
 5741SOL     OW18121   6.361   4.284   4.690
 5741SOL    HW118122   6.305   4.276   4.607
 5741SOL    HW218123   6.403   4.375   4.693
 5742SOL     OW18124   4.783   6.618   2.619
 5742SOL    HW118125   4.701   6.585   2.665
 5742SOL    HW218126   4.774   6.604   2.520
 5743SOL     OW18127   2.536   5.903   4.963
 5743SOL    HW118128   2.483   5.987   4.957
 5743SOL    HW218129   2.620   5.912   4.909
 5744SOL     OW18130   4.730   1.271   1.204
 5744SOL    HW118131   4.737   1.233   1.296
 5744SOL    HW218132   4.689   1.203   1.142
 5745SOL     OW18133   1.824   1.445   4.058
 5745SOL    HW118134   1.885   1.396   4.121
 5745SOL    HW218135   1.871   1.459   3.971
 5746SOL     OW18136   5.547   6.937   1.347
 5746SOL    HW118137   5.581   6.904   1.260
 5746SOL    HW218138   5.555   0.017   1.350
 5747SOL     OW18139   0.936   4.905   2.437
 5747SOL    HW118140   0.969   4.960   2.360
 5747SOL    HW218141   1.011   4.887   2.500
 5748SOL     OW18142   1.163   6.957   0.640
 5748SOL    HW118143   1.070   6.993   0.628
 5748SOL    HW218144   1.190   6.908   0.557
 5749SOL     OW18145   1.528   6.105   4.498
 5749SOL    HW118146   1.430   6.090   4.507
 5749SOL    HW218147   1.546   6.204   4.494
 5750SOL     OW18148   6.553   5.974   4.668
 5750SOL    HW118149   6.512   6.019   4.747
 5750SOL    HW218150   6.513   5.883   4.657
 5751SOL     OW18151   2.231   2.734   4.518
 5751SOL    HW118152   2.172   2.662   4.481
 5751SOL    HW218153   2.275   2.702   4.602
 5752SOL     OW18154   6.492   0.478   0.319
 5752SOL    HW118155   6.574   0.490   0.375
 5752SOL    HW218156   6.500   0.533   0.236
 5753SOL     OW18157   3.628   3.409   4.339
 5753SOL    HW118158   3.666   3.320   4.314
 5753SOL    HW218159   3.701   3.478   4.337
 5754SOL     OW18160   6.890   4.763   2.015
 5754SOL    HW118161   6.874   4.725   1.924
 5754SOL    HW218162   6.806   4.755   2.069
 5755SOL     OW18163   2.458   2.563   6.469
 5755SOL    HW118164   2.512   2.488   6.508
 5755SOL    HW218165   2.362   2.551   6.493
 5756SOL     OW18166   6.265   0.290   3.194
 5756SOL    HW118167   6.354   0.323   3.225
 5756SOL    HW218168   6.264   0.190   3.200
 5757SOL     OW18169   0.070   6.467   3.184
 5757SOL    HW118170   7.004   6.486   3.137
 5757SOL    HW218171   0.138   6.435   3.118
 5758SOL     OW18172   2.215   0.512   4.717
 5758SOL    HW118173   2.296   0.507   4.659
 5758SOL    HW218174   2.197   0.422   4.757
 5759SOL     OW18175   4.892   1.789   0.150
 5759SOL    HW118176   4.904   1.691   0.139
 5759SOL    HW218177   4.898   1.834   0.061
 5760SOL     OW18178   6.881   3.481   1.004
 5760SOL    HW118179   6.894   3.567   1.054
 5760SOL    HW218180   6.834   3.500   0.918
 5761SOL     OW18181   5.897   5.775   6.776
 5761SOL    HW118182   5.923   5.841   6.846
 5761SOL    HW218183   5.964   5.700   6.776
 5762SOL     OW18184   4.691   4.096   0.545
 5762SOL    HW118185   4.664   4.000   0.551
 5762SOL    HW218186   4.612   4.151   0.520
 5763SOL     OW18187   6.708   6.431   0.124
 5763SOL    HW118188   6.798   6.448   0.163
 5763SOL    HW218189   6.704   6.468   0.031
 5764SOL     OW18190   5.407   4.939   5.495
 5764SOL    HW118191   5.330   5.001   5.507
 5764SOL    HW218192   5.477   4.984   5.440
 5765SOL     OW18193   6.037   2.363   0.429
 5765SOL    HW118194   6.084   2.436   0.478
 5765SOL    HW218195   6.067   2.274   0.466
 5766SOL     OW18196   1.999   2.092   6.876
 5766SOL    HW118197   1.954   2.176   6.846
 5766SOL    HW218198   1.930   2.027   6.909
 5767SOL     OW18199   1.500   0.909   0.185
 5767SOL    HW118200   1.551   0.823   0.181
 5767SOL    HW218201   1.533   0.970   0.113
 5768SOL     OW18202   1.804   6.363   3.731
 5768SOL    HW118203   1.845   6.376   3.641
 5768SOL    HW218204   1.877   6.353   3.799
 5769SOL     OW18205   2.574   6.086   4.316
 5769SOL    HW118206   2.529   6.016   4.261
 5769SOL    HW218207   2.618   6.153   4.257
 5770SOL     OW18208   6.288   6.139   0.486
 5770SOL    HW118209   6.256   6.141   0.391
 5770SOL    HW218210   6.350   6.216   0.501
 5771SOL     OW18211   1.501   0.040   3.706
 5771SOL    HW118212   1.580   6.998   3.698
 5771SOL    HW218213   1.530   0.134   3.687
 5772SOL     OW18214   5.776   2.008   1.424
 5772SOL    HW118215   5.809   1.958   1.504
 5772SOL    HW218216   5.804   1.960   1.340
 5773SOL     OW18217   4.393   0.615   3.164
 5773SOL    HW118218   4.415   0.556   3.086
 5773SOL    HW218219   4.453   0.695   3.162
 5774SOL     OW18220   2.405   6.032   3.216
 5774SOL    HW118221   2.451   6.007   3.131
 5774SOL    HW218222   2.307   6.012   3.208
 5775SOL     OW18223   1.467   1.136   2.257
 5775SOL    HW118224   1.390   1.089   2.300
 5775SOL    HW218225   1.445   1.156   2.162
 5776SOL     OW18226   6.848   0.870   4.746
 5776SOL    HW118227   6.880   0.858   4.840
 5776SOL    HW218228   6.899   0.809   4.686
 5777SOL     OW18229   6.449   0.014   5.282
 5777SOL    HW118230   6.407   6.999   5.199
 5777SOL    HW218231   6.537   0.057   5.261
 5778SOL     OW18232   1.866   0.615   1.600
 5778SOL    HW118233   1.923   0.579   1.526
 5778SOL    HW218234   1.857   0.714   1.590
 5779SOL     OW18235   4.506   2.833   0.794
 5779SOL    HW118236   4.602   2.837   0.765
 5779SOL    HW218237   4.481   2.918   0.839
 5780SOL     OW18238   5.952   5.686   3.466
 5780SOL    HW118239   5.943   5.615   3.535
 5780SOL    HW218240   6.048   5.712   3.456
 5781SOL     OW18241   6.975   4.647   4.449
 5781SOL    HW118242   6.944   4.615   4.538
 5781SOL    HW218243   0.042   4.602   4.426
 5782SOL     OW18244   1.153   1.447   0.726
 5782SOL    HW118245   1.161   1.506   0.646
 5782SOL    HW218246   1.070   1.471   0.777
 5783SOL     OW18247   2.056   0.236   1.749
 5783SOL    HW118248   2.109   0.285   1.681
 5783SOL    HW218249   2.085   0.263   1.841
 5784SOL     OW18250   6.959   5.899   0.344
 5784SOL    HW118251   6.916   5.811   0.323
 5784SOL    HW218252   6.888   5.966   0.367
 5785SOL     OW18253   1.714   1.755   0.783
 5785SOL    HW118254   1.682   1.667   0.816
 5785SOL    HW218255   1.648   1.793   0.718
 5786SOL     OW18256   0.581   4.334   0.612
 5786SOL    HW118257   0.564   4.423   0.655
 5786SOL    HW218258   0.505   4.273   0.631
 5787SOL     OW18259   3.926   1.295   5.147
 5787SOL    HW118260   3.831   1.276   5.173
 5787SOL    HW218261   3.939   1.273   5.051
 5788SOL     OW18262   3.536   1.794   1.171
 5788SOL    HW118263   3.442   1.773   1.142
 5788SOL    HW218264   3.582   1.710   1.199
 5789SOL     OW18265   3.039   4.694   0.527
 5789SOL    HW118266   2.981   4.620   0.561
 5789SOL    HW218267   3.089   4.663   0.446
 5790SOL     OW18268   0.525   4.970   4.812
 5790SOL    HW118269   0.624   4.983   4.815
 5790SOL    HW218270   0.483   5.012   4.892
 5791SOL     OW18271   3.320   1.555   2.552
 5791SOL    HW118272   3.246   1.491   2.530
 5791SOL    HW218273   3.347   1.543   2.647
 5792SOL     OW18274   5.782   2.953   2.494
 5792SOL    HW118275   5.697   2.902   2.507
 5792SOL    HW218276   5.789   2.983   2.399
 5793SOL     OW18277   5.147   0.713   3.774
 5793SOL    HW118278   5.188   0.738   3.861
 5793SOL    HW218279   5.180   0.623   3.746
 5794SOL     OW18280   2.304   1.091   6.935
 5794SOL    HW118281   2.215   1.089   6.979
 5794SOL    HW218282   2.374   1.118   7.002
 5795SOL     OW18283   6.730   6.663   6.898
 5795SOL    HW118284   6.729   6.637   6.801
 5795SOL    HW218285   6.824   6.671   6.930
 5796SOL     OW18286   4.602   0.949   5.673
 5796SOL    HW118287   4.670   1.002   5.724
 5796SOL    HW218288   4.627   0.948   5.577
 5797SOL     OW18289   4.477   2.543   0.216
 5797SOL    HW118290   4.438   2.635   0.221
 5797SOL    HW218291   4.522   2.530   0.127
 5798SOL     OW18292   6.819   5.491   4.438
 5798SOL    HW118293   6.835   5.436   4.520
 5798SOL    HW218294   6.902   5.543   4.417
 5799SOL     OW18295   0.392   1.028   3.423
 5799SOL    HW118296   0.430   0.952   3.476
 5799SOL    HW218297   0.293   1.034   3.439
 5800SOL     OW18298   6.271   6.425   1.507
 5800SOL    HW118299   6.301   6.476   1.427
 5800SOL    HW218300   6.195   6.473   1.551
 5801SOL     OW18301   1.740   2.857   3.499
 5801SOL    HW118302   1.697   2.882   3.586
 5801SOL    HW218303   1.709   2.766   3.472
 5802SOL     OW18304   6.908   3.301   2.351
 5802SOL    HW118305   6.925   3.219   2.405
 5802SOL    HW218306   6.849   3.363   2.402
 5803SOL     OW18307   1.823   5.498   2.127
 5803SOL    HW118308   1.909   5.543   2.104
 5803SOL    HW218309   1.797   5.520   2.221
 5804SOL     OW18310   0.302   5.038   3.136
 5804SOL    HW118311   0.388   4.987   3.127
 5804SOL    HW218312   0.240   4.989   3.198
 5805SOL     OW18313   2.054   3.546   0.499
 5805SOL    HW118314   2.024   3.530   0.405
 5805SOL    HW218315   2.039   3.642   0.523
 5806SOL     OW18316   6.213   4.924   4.806
 5806SOL    HW118317   6.131   4.887   4.849
 5806SOL    HW218318   6.240   4.865   4.730
 5807SOL     OW18319   1.011   4.520   0.814
 5807SOL    HW118320   1.006   4.560   0.906
 5807SOL    HW218321   0.951   4.440   0.810
 5808SOL     OW18322   6.546   5.178   4.018
 5808SOL    HW118323   6.474   5.244   3.996
 5808SOL    HW218324   6.617   5.181   3.947
 5809SOL     OW18325   6.388   2.184   4.868
 5809SOL    HW118326   6.306   2.237   4.891
 5809SOL    HW218327   6.430   2.149   4.951
 5810SOL     OW18328   4.726   1.498   5.318
 5810SOL    HW118329   4.809   1.442   5.324
 5810SOL    HW218330   4.646   1.439   5.325
 5811SOL     OW18331   3.166   0.451   4.975
 5811SOL    HW118332   3.144   0.485   4.884
 5811SOL    HW218333   3.255   0.487   5.003
 5812SOL     OW18334   5.702   3.235   4.824
 5812SOL    HW118335   5.786   3.234   4.878
 5812SOL    HW218336   5.648   3.316   4.848
 5813SOL     OW18337   1.850   1.827   1.587
 5813SOL    HW118338   1.764   1.776   1.586
 5813SOL    HW218339   1.912   1.788   1.655
 5814SOL     OW18340   6.195   3.805   2.239
 5814SOL    HW118341   6.188   3.718   2.287
 5814SOL    HW218342   6.273   3.856   2.275
 5815SOL     OW18343   4.007   1.515   4.410
 5815SOL    HW118344   4.081   1.449   4.397
 5815SOL    HW218345   3.928   1.469   4.451
 5816SOL     OW18346   5.182   4.341   0.584
 5816SOL    HW118347   5.256   4.336   0.517
 5816SOL    HW218348   5.194   4.423   0.640
 5817SOL     OW18349   5.911   4.073   5.653
 5817SOL    HW118350   5.951   4.163   5.639
 5817SOL    HW218351   5.949   4.008   5.586
 5818SOL     OW18352   6.621   5.336   5.127
 5818SOL    HW118353   6.652   5.374   5.040
 5818SOL    HW218354   6.585   5.244   5.113
 5819SOL     OW18355   3.604   0.276   6.983
 5819SOL    HW118356   3.546   0.356   6.999
 5819SOL    HW218357   3.555   0.193   7.009
 5820SOL     OW18358   4.473   4.592   3.183
 5820SOL    HW118359   4.479   4.660   3.257
 5820SOL    HW218360   4.562   4.550   3.169
 5821SOL     OW18361   0.294   0.650   2.169
 5821SOL    HW118362   0.226   0.601   2.223
 5821SOL    HW218363   0.326   0.730   2.220
 5822SOL     OW18364   1.370   2.619   1.450
 5822SOL    HW118365   1.290   2.657   1.405
 5822SOL    HW218366   1.378   2.657   1.542
 5823SOL     OW18367   2.856   0.324   4.552
 5823SOL    HW118368   2.768   0.322   4.507
 5823SOL    HW218369   2.877   0.233   4.589
 5824SOL     OW18370   6.816   5.479   2.572
 5824SOL    HW118371   6.903   5.497   2.618
 5824SOL    HW218372   6.794   5.555   2.512
 5825SOL     OW18373   6.968   0.148   4.992
 5825SOL    HW118374   6.880   0.170   4.949
 5825SOL    HW218375   0.022   0.193   4.942
 5826SOL     OW18376   0.741   5.044   6.123
 5826SOL    HW118377   0.699   5.040   6.033
 5826SOL    HW218378   0.841   5.046   6.112
 5827SOL     OW18379   1.740   3.939   5.302
 5827SOL    HW118380   1.643   3.914   5.299
 5827SOL    HW218381   1.761   4.002   5.228
 5828SOL     OW18382   5.935   2.120   1.811
 5828SOL    HW118383   5.846   2.165   1.808
 5828SOL    HW218384   5.952   2.086   1.904
 5829SOL     OW18385   1.194   0.369   3.820
 5829SOL    HW118386   1.099   0.337   3.825
 5829SOL    HW218387   1.234   0.367   3.911
 5830SOL     OW18388   5.381   6.443   5.920
 5830SOL    HW118389   5.440   6.374   5.963
 5830SOL    HW218390   5.379   6.525   5.978
 5831SOL     OW18391   1.200   1.037   5.549
 5831SOL    HW118392   1.113   0.991   5.564
 5831SOL    HW218393   1.209   1.113   5.613
 5832SOL     OW18394   3.538   5.250   0.070
 5832SOL    HW118395   3.465   5.255   0.003
 5832SOL    HW218396   3.587   5.337   0.073
 5833SOL     OW18397   3.518   4.331   5.277
 5833SOL    HW118398   3.537   4.428   5.265
 5833SOL    HW218399   3.514   4.287   5.187
 5834SOL     OW18400   6.901   2.822   0.244
 5834SOL    HW118401   6.960   2.822   0.163
 5834SOL    HW218402   6.854   2.909   0.252
 5835SOL     OW18403   5.722   2.938   3.426
 5835SOL    HW118404   5.649   2.871   3.412
 5835SOL    HW218405   5.771   2.916   3.511
 5836SOL     OW18406   2.832   0.417   2.101
 5836SOL    HW118407   2.887   0.440   2.181
 5836SOL    HW218408   2.820   0.318   2.096
 5837SOL     OW18409   3.185   3.901   0.289
 5837SOL    HW118410   3.141   3.991   0.291
 5837SOL    HW218411   3.163   3.856   0.202
 5838SOL     OW18412   2.986   1.843   0.874
 5838SOL    HW118413   2.980   1.743   0.874
 5838SOL    HW218414   3.082   1.870   0.873
 5839SOL     OW18415   1.005   2.205   2.275
 5839SOL    HW118416   1.034   2.167   2.188
 5839SOL    HW218417   0.908   2.229   2.270
 5840SOL     OW18418   1.086   4.937   6.393
 5840SOL    HW118419   1.048   4.856   6.438
 5840SOL    HW218420   1.147   4.908   6.320
 5841SOL     OW18421   5.104   1.522   2.468
 5841SOL    HW118422   5.066   1.537   2.377
 5841SOL    HW218423   5.069   1.592   2.531
 5842SOL     OW18424   5.189   3.183   1.417
 5842SOL    HW118425   5.132   3.228   1.486
 5842SOL    HW218426   5.284   3.214   1.427
 5843SOL     OW18427   1.518   4.206   2.646
 5843SOL    HW118428   1.564   4.252   2.570
 5843SOL    HW218429   1.448   4.145   2.610
 5844SOL     OW18430   1.759   5.978   6.013
 5844SOL    HW118431   1.851   5.966   6.050
 5844SOL    HW218432   1.709   5.892   6.019
 5845SOL     OW18433   0.340   0.510   2.457
 5845SOL    HW118434   0.311   0.432   2.512
 5845SOL    HW218435   0.417   0.483   2.399
 5846SOL     OW18436   6.129   3.190   5.894
 5846SOL    HW118437   6.154   3.245   5.973
 5846SOL    HW218438   6.102   3.098   5.924
 5847SOL     OW18439   2.860   2.158   2.184
 5847SOL    HW118440   2.889   2.232   2.123
 5847SOL    HW218441   2.764   2.137   2.167
 5848SOL     OW18442   1.535   5.528   3.100
 5848SOL    HW118443   1.621   5.502   3.056
 5848SOL    HW218444   1.519   5.471   3.180
 5849SOL     OW18445   0.910   0.391   5.509
 5849SOL    HW118446   1.004   0.403   5.541
 5849SOL    HW218447   0.853   0.465   5.544
 5850SOL     OW18448   6.737   3.356   1.804
 5850SOL    HW118449   6.830   3.370   1.837
 5850SOL    HW218450   6.729   3.390   1.711
 5851SOL     OW18451   5.256   3.227   2.918
 5851SOL    HW118452   5.257   3.266   3.010
 5851SOL    HW218453   5.217   3.135   2.920
 5852SOL     OW18454   5.633   6.251   3.334
 5852SOL    HW118455   5.669   6.281   3.423
 5852SOL    HW218456   5.652   6.154   3.322
 5853SOL     OW18457   3.592   5.449   4.732
 5853SOL    HW118458   3.547   5.379   4.677
 5853SOL    HW218459   3.550   5.538   4.714
 5854SOL     OW18460   4.113   3.998   6.489
 5854SOL    HW118461   4.168   3.956   6.561
 5854SOL    HW218462   4.028   4.033   6.528
 5855SOL     OW18463   0.608   1.356   4.904
 5855SOL    HW118464   0.635   1.443   4.862
 5855SOL    HW218465   0.516   1.331   4.872
 5856SOL     OW18466   1.900   6.133   3.480
 5856SOL    HW118467   1.849   6.217   3.465
 5856SOL    HW218468   1.985   6.154   3.528
 5857SOL     OW18469   6.105   2.054   5.696
 5857SOL    HW118470   6.020   2.032   5.745
 5857SOL    HW218471   6.087   2.058   5.598
 5858SOL     OW18472   2.531   1.942   2.795
 5858SOL    HW118473   2.466   1.916   2.724
 5858SOL    HW218474   2.482   1.965   2.879
 5859SOL     OW18475   5.909   6.251   1.802
 5859SOL    HW118476   5.866   6.207   1.881
 5859SOL    HW218477   5.950   6.338   1.831
 5860SOL     OW18478   0.217   3.442   2.557
 5860SOL    HW118479   0.210   3.476   2.463
 5860SOL    HW218480   0.160   3.498   2.617
 5861SOL     OW18481   4.601   1.787   4.434
 5861SOL    HW118482   4.580   1.828   4.523
 5861SOL    HW218483   4.676   1.723   4.444
 5862SOL     OW18484   5.896   5.622   1.010
 5862SOL    HW118485   5.867   5.718   1.008
 5862SOL    HW218486   5.871   5.577   0.924
 5863SOL     OW18487   3.377   2.104   5.095
 5863SOL    HW118488   3.392   2.043   5.016
 5863SOL    HW218489   3.302   2.166   5.075
 5864SOL     OW18490   4.054   3.851   2.241
 5864SOL    HW118491   4.043   3.817   2.334
 5864SOL    HW218492   4.133   3.911   2.236
 5865SOL     OW18493   5.950   0.101   5.184
 5865SOL    HW118494   5.980   0.188   5.143
 5865SOL    HW218495   6.001   0.026   5.142
 5866SOL     OW18496   3.697   4.268   0.413
 5866SOL    HW118497   3.738   4.225   0.494
 5866SOL    HW218498   3.657   4.356   0.438
 5867SOL     OW18499   2.107   3.350   1.098
 5867SOL    HW118500   2.186   3.405   1.072
 5867SOL    HW218501   2.027   3.409   1.106
 5868SOL     OW18502   0.980   1.237   5.321
 5868SOL    HW118503   0.909   1.288   5.369
 5868SOL    HW218504   1.070   1.274   5.345
 5869SOL     OW18505   2.257   6.549   3.101
 5869SOL    HW118506   2.347   6.591   3.111
 5869SOL    HW218507   2.186   6.615   3.122
 5870SOL     OW18508   4.400   6.390   4.851
 5870SOL    HW118509   4.383   6.313   4.912
 5870SOL    HW218510   4.466   6.452   4.892
 5871SOL     OW18511   3.224   3.414   1.436
 5871SOL    HW118512   3.150   3.458   1.486
 5871SOL    HW218513   3.197   3.321   1.410
 5872SOL     OW18514   4.763   6.122   1.292
 5872SOL    HW118515   4.831   6.176   1.342
 5872SOL    HW218516   4.721   6.179   1.222
 5873SOL     OW18517   3.796   1.578   2.325
 5873SOL    HW118518   3.842   1.664   2.307
 5873SOL    HW218519   3.723   1.565   2.258
 5874SOL     OW18520   3.019   4.753   6.612
 5874SOL    HW118521   3.041   4.717   6.522
 5874SOL    HW218522   2.940   4.814   6.605
 5875SOL     OW18523   4.248   1.012   0.142
 5875SOL    HW118524   4.162   1.005   0.192
 5875SOL    HW218525   4.287   1.103   0.155
 5876SOL     OW18526   3.680   2.886   0.370
 5876SOL    HW118527   3.753   2.920   0.429
 5876SOL    HW218528   3.597   2.939   0.385
 5877SOL     OW18529   0.752   0.370   1.666
 5877SOL    HW118530   0.818   0.432   1.624
 5877SOL    HW218531   0.673   0.361   1.607
 5878SOL     OW18532   6.075   5.136   3.799
 5878SOL    HW118533   6.116   5.203   3.737
 5878SOL    HW218534   6.097   5.160   3.894
 5879SOL     OW18535   1.684   4.439   6.969
 5879SOL    HW118536   1.661   4.395   6.882
 5879SOL    HW218537   1.606   4.491   7.002
 5880SOL     OW18538   4.566   4.364   5.880
 5880SOL    HW118539   4.519   4.281   5.909
 5880SOL    HW218540   4.658   4.366   5.920
 5881SOL     OW18541   0.499   0.091   2.374
 5881SOL    HW118542   0.402   0.078   2.391
 5881SOL    HW218543   0.553   0.032   2.433
 5882SOL     OW18544   0.171   5.390   0.453
 5882SOL    HW118545   0.247   5.338   0.492
 5882SOL    HW218546   0.104   5.409   0.525
 5883SOL     OW18547   0.946   1.517   6.430
 5883SOL    HW118548   0.905   1.447   6.489
 5883SOL    HW218549   1.029   1.480   6.389
 5884SOL     OW18550   4.448   1.159   4.232
 5884SOL    HW118551   4.443   1.111   4.320
 5884SOL    HW218552   4.363   1.146   4.182
 5885SOL     OW18553   0.504   6.691   2.482
 5885SOL    HW118554   0.582   6.655   2.431
 5885SOL    HW218555   0.436   6.726   2.417
 5886SOL     OW18556   6.810   2.472   3.803
 5886SOL    HW118557   6.800   2.387   3.750
 5886SOL    HW218558   6.905   2.502   3.799
 5887SOL     OW18559   2.664   1.772   2.053
 5887SOL    HW118560   2.753   1.816   2.049
 5887SOL    HW218561   2.606   1.819   2.120
 5888SOL     OW18562   2.843   0.794   1.156
 5888SOL    HW118563   2.938   0.808   1.185
 5888SOL    HW218564   2.841   0.740   1.071
 5889SOL     OW18565   0.493   0.593   0.556
 5889SOL    HW118566   0.560   0.645   0.503
 5889SOL    HW218567   0.539   0.550   0.634
 5890SOL     OW18568   2.315   1.129   3.179
 5890SOL    HW118569   2.400   1.148   3.228
 5890SOL    HW218570   2.335   1.079   3.095
 5891SOL     OW18571   3.083   3.100   6.954
 5891SOL    HW118572   3.064   3.188   6.997
 5891SOL    HW218573   3.101   3.031   0.005
 5892SOL     OW18574   1.046   5.762   2.254
 5892SOL    HW118575   0.966   5.780   2.197
 5892SOL    HW218576   1.086   5.674   2.229
 5893SOL     OW18577   1.988   4.077   3.753
 5893SOL    HW118578   1.961   4.057   3.659
 5893SOL    HW218579   1.982   4.175   3.770
 5894SOL     OW18580   6.813   5.844   4.477
 5894SOL    HW118581   6.841   5.784   4.402
 5894SOL    HW218582   6.793   5.788   4.558
 5895SOL     OW18583   5.354   3.506   4.113
 5895SOL    HW118584   5.385   3.490   4.019
 5895SOL    HW218585   5.432   3.496   4.175
 5896SOL     OW18586   3.371   0.780   0.464
 5896SOL    HW118587   3.298   0.760   0.530
 5896SOL    HW218588   3.436   0.704   0.463
 5897SOL     OW18589   4.524   0.006   1.201
 5897SOL    HW118590   4.560   6.948   1.149
 5897SOL    HW218591   4.432   7.004   1.234
 5898SOL     OW18592   2.532   0.309   3.857
 5898SOL    HW118593   2.464   0.281   3.925
 5898SOL    HW218594   2.624   0.297   3.895
 5899SOL     OW18595   6.367   5.392   0.444
 5899SOL    HW118596   6.326   5.304   0.424
 5899SOL    HW218597   6.360   5.452   0.364
 5900SOL     OW18598   6.398   4.967   3.729
 5900SOL    HW118599   6.411   5.050   3.675
 5900SOL    HW218600   6.349   4.900   3.674
 5901SOL     OW18601   2.482   1.161   0.148
 5901SOL    HW118602   2.560   1.186   0.206
 5901SOL    HW218603   2.463   1.063   0.159
 5902SOL     OW18604   5.841   2.022   4.815
 5902SOL    HW118605   5.771   2.068   4.761
 5902SOL    HW218606   5.844   1.925   4.790
 5903SOL     OW18607   5.064   3.989   6.786
 5903SOL    HW118608   5.021   4.011   6.698
 5903SOL    HW218609   5.158   4.021   6.786
 5904SOL     OW18610   0.882   4.594   1.335
 5904SOL    HW118611   0.979   4.606   1.357
 5904SOL    HW218612   0.872   4.521   1.267
 5905SOL     OW18613   6.108   6.776   3.665
 5905SOL    HW118614   6.184   6.825   3.709
 5905SOL    HW218615   6.141   6.688   3.631
 5906SOL     OW18616   3.685   2.097   3.669
 5906SOL    HW118617   3.781   2.083   3.691
 5906SOL    HW218618   3.634   2.121   3.752
 5907SOL     OW18619   0.994   5.143   0.529
 5907SOL    HW118620   1.028   5.050   0.516
 5907SOL    HW218621   1.063   5.197   0.576
 5908SOL     OW18622   0.496   3.236   6.909
 5908SOL    HW118623   0.556   3.227   6.829
 5908SOL    HW218624   0.501   3.152   6.963
 5909SOL     OW18625   0.398   5.438   0.809
 5909SOL    HW118626   0.389   5.504   0.735
 5909SOL    HW218627   0.470   5.373   0.786
 5910SOL     OW18628   0.769   4.031   3.646
 5910SOL    HW118629   0.791   3.937   3.670
 5910SOL    HW218630   0.794   4.092   3.722
 5911SOL     OW18631   6.976   5.152   6.410
 5911SOL    HW118632   7.010   5.246   6.407
 5911SOL    HW218633   6.925   5.132   6.326
 5912SOL     OW18634   5.985   1.901   6.889
 5912SOL    HW118635   6.079   1.919   6.861
 5912SOL    HW218636   5.935   1.861   6.813
 5913SOL     OW18637   5.070   3.009   6.141
 5913SOL    HW118638   5.157   3.044   6.175
 5913SOL    HW218639   4.995   3.064   6.179
 5914SOL     OW18640   1.758   5.444   6.303
 5914SOL    HW118641   1.746   5.365   6.243
 5914SOL    HW218642   1.670   5.468   6.344
 5915SOL     OW18643   4.726   5.267   1.122
 5915SOL    HW118644   4.651   5.321   1.083
 5915SOL    HW218645   4.695   5.224   1.207
 5916SOL     OW18646   4.902   6.364   4.062
 5916SOL    HW118647   4.890   6.273   4.104
 5916SOL    HW218648   4.993   6.369   4.020
 5917SOL     OW18649   3.104   3.639   4.142
 5917SOL    HW118650   3.161   3.558   4.132
 5917SOL    HW218651   3.051   3.654   4.059
 5918SOL     OW18652   1.976   3.623   6.032
 5918SOL    HW118653   2.022   3.669   5.956
 5918SOL    HW218654   2.000   3.526   6.032
 5919SOL     OW18655   3.334   3.181   2.089
 5919SOL    HW118656   3.271   3.259   2.087
 5919SOL    HW218657   3.307   3.119   2.163
 5920SOL     OW18658   4.369   0.431   6.529
 5920SOL    HW118659   4.447   0.466   6.476
 5920SOL    HW218660   4.300   0.502   6.538
 5921SOL     OW18661   3.775   5.383   6.699
 5921SOL    HW118662   3.852   5.383   6.763
 5921SOL    HW218663   3.739   5.291   6.691
 5922SOL     OW18664   5.966   5.223   2.887
 5922SOL    HW118665   6.008   5.242   2.799
 5922SOL    HW218666   5.910   5.302   2.916
 5923SOL     OW18667   6.189   1.004   1.346
 5923SOL    HW118668   6.279   1.001   1.390
 5923SOL    HW218669   6.172   0.917   1.300
 5924SOL     OW18670   6.830   1.189   3.356
 5924SOL    HW118671   6.893   1.179   3.279
 5924SOL    HW218672   6.837   1.281   3.394
 5925SOL     OW18673   4.039   6.287   1.841
 5925SOL    HW118674   3.987   6.281   1.756
 5925SOL    HW218675   3.995   6.354   1.902
 5926SOL     OW18676   4.053   5.392   1.427
 5926SOL    HW118677   4.130   5.441   1.388
 5926SOL    HW218678   3.974   5.454   1.432
 5927SOL     OW18679   1.525   4.135   2.892
 5927SOL    HW118680   1.531   4.180   2.802
 5927SOL    HW218681   1.428   4.124   2.916
 5928SOL     OW18682   3.907   0.229   1.249
 5928SOL    HW118683   3.997   0.251   1.287
 5928SOL    HW218684   3.853   0.180   1.317
 5929SOL     OW18685   0.716   6.893   6.609
 5929SOL    HW118686   0.709   6.794   6.605
 5929SOL    HW218687   0.628   6.934   6.585
 5930SOL     OW18688   6.303   3.432   3.669
 5930SOL    HW118689   6.314   3.507   3.604
 5930SOL    HW218690   6.345   3.456   3.756
 5931SOL     OW18691   6.537   5.190   3.145
 5931SOL    HW118692   6.530   5.100   3.101
 5931SOL    HW218693   6.574   5.178   3.238
 5932SOL     OW18694   2.982   0.487   0.627
 5932SOL    HW118695   2.913   0.544   0.673
 5932SOL    HW218696   2.939   0.403   0.595
 5933SOL     OW18697   6.753   6.215   3.308
 5933SOL    HW118698   6.796   6.177   3.226
 5933SOL    HW218699   6.806   6.190   3.389
 5934SOL     OW18700   3.753   3.146   4.339
 5934SOL    HW118701   3.734   3.119   4.433
 5934SOL    HW218702   3.849   3.126   4.317
 5935SOL     OW18703   5.323   5.045   6.246
 5935SOL    HW118704   5.381   4.968   6.220
 5935SOL    HW218705   5.308   5.104   6.167
 5936SOL     OW18706   3.847   2.946   1.256
 5936SOL    HW118707   3.810   3.005   1.328
 5936SOL    HW218708   3.848   2.996   1.170
 5937SOL     OW18709   0.763   4.514   2.969
 5937SOL    HW118710   0.744   4.560   2.883
 5937SOL    HW218711   0.764   4.582   3.043
 5938SOL     OW18712   0.626   5.389   3.368
 5938SOL    HW118713   0.668   5.359   3.453
 5938SOL    HW218714   0.696   5.394   3.296
 5939SOL     OW18715   3.003   0.027   2.787
 5939SOL    HW118716   3.063   6.989   2.732
 5939SOL    HW218717   2.908   0.001   2.772
 5940SOL     OW18718   5.240   5.387   0.913
 5940SOL    HW118719   5.277   5.387   1.006
 5940SOL    HW218720   5.140   5.381   0.918
 5941SOL     OW18721   6.066   3.107   2.201
 5941SOL    HW118722   5.966   3.112   2.210
 5941SOL    HW218723   6.097   3.168   2.129
 5942SOL     OW18724   4.833   3.414   0.145
 5942SOL    HW118725   4.894   3.431   0.222
 5942SOL    HW218726   4.857   3.475   0.069
 5943SOL     OW18727   3.464   4.801   0.033
 5943SOL    HW118728   3.405   4.879   0.014
 5943SOL    HW218729   3.501   4.809   0.126
 5944SOL     OW18730   6.455   2.975   1.049
 5944SOL    HW118731   6.469   2.925   1.135
 5944SOL    HW218732   6.486   2.919   0.972
 5945SOL     OW18733   6.094   5.569   5.150
 5945SOL    HW118734   6.080   5.580   5.052
 5945SOL    HW218735   6.190   5.548   5.168
 5946SOL     OW18736   3.911   3.139   6.477
 5946SOL    HW118737   3.842   3.120   6.407
 5946SOL    HW218738   3.869   3.133   6.568
 5947SOL     OW18739   3.782   3.559   1.993
 5947SOL    HW118740   3.715   3.609   1.938
 5947SOL    HW218741   3.756   3.462   1.995
 5948SOL     OW18742   4.314   5.587   3.758
 5948SOL    HW118743   4.413   5.583   3.773
 5948SOL    HW218744   4.289   5.522   3.686
 5949SOL     OW18745   5.135   3.652   2.064
 5949SOL    HW118746   5.186   3.633   2.147
 5949SOL    HW218747   5.053   3.594   2.061
 5950SOL     OW18748   4.363   1.747   6.098
 5950SOL    HW118749   4.371   1.846   6.108
 5950SOL    HW218750   4.294   1.725   6.029
 5951SOL     OW18751   1.077   5.975   4.102
 5951SOL    HW118752   1.129   6.041   4.157
 5951SOL    HW218753   1.074   6.007   4.008
 5952SOL     OW18754   5.737   4.849   3.445
 5952SOL    HW118755   5.727   4.944   3.415
 5952SOL    HW218756   5.833   4.822   3.435
 5953SOL     OW18757   6.364   2.458   5.588
 5953SOL    HW118758   6.345   2.546   5.632
 5953SOL    HW218759   6.373   2.471   5.489
 5954SOL     OW18760   6.896   4.791   6.254
 5954SOL    HW118761   6.981   4.787   6.306
 5954SOL    HW218762   6.915   4.828   6.163
 5955SOL     OW18763   4.982   6.328   2.765
 5955SOL    HW118764   4.992   6.231   2.788
 5955SOL    HW218765   4.904   6.366   2.813
 5956SOL     OW18766   4.171   1.148   5.555
 5956SOL    HW118767   4.088   1.190   5.519
 5956SOL    HW218768   4.206   1.201   5.632
 5957SOL     OW18769   4.267   0.867   5.053
 5957SOL    HW118770   4.358   0.826   5.053
 5957SOL    HW218771   4.275   0.966   5.049
 5958SOL     OW18772   5.654   0.011   3.107
 5958SOL    HW118773   5.724   6.973   3.150
 5958SOL    HW218774   5.681   0.033   3.013
 5959SOL     OW18775   3.975   2.748   5.327
 5959SOL    HW118776   3.884   2.758   5.288
 5959SOL    HW218777   4.029   2.685   5.271
 5960SOL     OW18778   3.182   5.059   4.462
 5960SOL    HW118779   3.196   5.074   4.560
 5960SOL    HW218780   3.132   5.137   4.423
 5961SOL     OW18781   5.517   1.388   2.822
 5961SOL    HW118782   5.585   1.457   2.845
 5961SOL    HW218783   5.477   1.409   2.732
 5962SOL     OW18784   5.921   6.260   0.111
 5962SOL    HW118785   5.939   6.353   0.143
 5962SOL    HW218786   5.861   6.213   0.176
 5963SOL     OW18787   3.674   3.583   5.620
 5963SOL    HW118788   3.676   3.661   5.682
 5963SOL    HW218789   3.674   3.615   5.525
 5964SOL     OW18790   0.522   5.258   5.506
 5964SOL    HW118791   0.554   5.201   5.429
 5964SOL    HW218792   0.491   5.346   5.471
 5965SOL     OW18793   1.455   2.316   6.511
 5965SOL    HW118794   1.433   2.386   6.578
 5965SOL    HW218795   1.467   2.228   6.558
 5966SOL     OW18796   2.807   5.473   5.638
 5966SOL    HW118797   2.870   5.424   5.578
 5966SOL    HW218798   2.860   5.523   5.707
 5967SOL     OW18799   4.187   6.688   6.386
 5967SOL    HW118800   4.098   6.727   6.409
 5967SOL    HW218801   4.204   6.608   6.444
 5968SOL     OW18802   4.896   1.803   1.150
 5968SOL    HW118803   4.888   1.707   1.176
 5968SOL    HW218804   4.953   1.851   1.217
 5969SOL     OW18805   0.163   6.879   6.131
 5969SOL    HW118806   0.123   6.879   6.039
 5969SOL    HW218807   0.131   6.960   6.181
 5970SOL     OW18808   0.348   4.269   2.401
 5970SOL    HW118809   0.277   4.333   2.429
 5970SOL    HW218810   0.309   4.200   2.340
 5971SOL     OW18811   1.167   1.076   2.345
 5971SOL    HW118812   1.175   1.168   2.385
 5971SOL    HW218813   1.071   1.048   2.345
 5972SOL     OW18814   5.544   5.311   6.327
 5972SOL    HW118815   5.482   5.362   6.267
 5972SOL    HW218816   5.539   5.349   6.420
 5973SOL     OW18817   1.406   3.453   2.742
 5973SOL    HW118818   1.392   3.404   2.828
 5973SOL    HW218819   1.493   3.425   2.701
 5974SOL     OW18820   5.301   5.124   5.989
 5974SOL    HW118821   5.380   5.079   5.947
 5974SOL    HW218822   5.275   5.203   5.934
 5975SOL     OW18823   3.811   0.745   0.465
 5975SOL    HW118824   3.737   0.767   0.402
 5975SOL    HW218825   3.899   0.763   0.420
 5976SOL     OW18826   3.064   2.976   5.544
 5976SOL    HW118827   3.112   3.064   5.541
 5976SOL    HW218828   3.070   2.938   5.636
 5977SOL     OW18829   2.253   5.091   6.830
 5977SOL    HW118830   2.229   4.994   6.840
 5977SOL    HW218831   2.318   5.101   6.755
 5978SOL     OW18832   5.162   5.410   2.629
 5978SOL    HW118833   5.096   5.340   2.601
 5978SOL    HW218834   5.159   5.486   2.564
 5979SOL     OW18835   5.854   0.494   2.707
 5979SOL    HW118836   5.880   0.456   2.796
 5979SOL    HW218837   5.937   0.517   2.655
 5980SOL     OW18838   4.103   4.239   1.201
 5980SOL    HW118839   4.052   4.217   1.118
 5980SOL    HW218840   4.104   4.160   1.262
 5981SOL     OW18841   5.392   2.512   1.469
 5981SOL    HW118842   5.384   2.428   1.416
 5981SOL    HW218843   5.302   2.536   1.506
 5982SOL     OW18844   6.654   3.263   2.469
 5982SOL    HW118845   6.681   3.167   2.462
 5982SOL    HW218846   6.555   3.269   2.472
 5983SOL     OW18847   1.111   1.538   4.316
 5983SOL    HW118848   1.125   1.593   4.234
 5983SOL    HW218849   1.200   1.519   4.359
 5984SOL     OW18850   6.552   5.421   3.369
 5984SOL    HW118851   6.640   5.441   3.327
 5984SOL    HW218852   6.480   5.419   3.299
 5985SOL     OW18853   0.227   3.059   4.395
 5985SOL    HW118854   0.198   2.985   4.335
 5985SOL    HW218855   0.240   3.142   4.341
 5986SOL     OW18856   2.973   3.784   4.340
 5986SOL    HW118857   2.941   3.717   4.408
 5986SOL    HW218858   3.024   3.737   4.268
 5987SOL     OW18859   4.812   0.407   3.980
 5987SOL    HW118860   4.795   0.441   4.073
 5987SOL    HW218861   4.911   0.395   3.968
 5988SOL     OW18862   4.687   6.938   5.544
 5988SOL    HW118863   4.631   6.986   5.612
 5988SOL    HW218864   4.690   6.992   5.460
 5989SOL     OW18865   2.788   6.225   6.345
 5989SOL    HW118866   2.804   6.270   6.257
 5989SOL    HW218867   2.697   6.249   6.380
 5990SOL     OW18868   3.567   4.278   7.010
 5990SOL    HW118869   3.667   4.286   7.007
 5990SOL    HW218870   3.536   4.292   0.084
 5991SOL     OW18871   3.056   5.289   6.886
 5991SOL    HW118872   3.024   5.310   6.978
 5991SOL    HW218873   3.105   5.369   6.850
 5992SOL     OW18874   4.125   0.509   2.473
 5992SOL    HW118875   4.161   0.588   2.423
 5992SOL    HW218876   4.108   0.535   2.568
 5993SOL     OW18877   3.464   6.077   6.724
 5993SOL    HW118878   3.511   6.084   6.812
 5993SOL    HW218879   3.387   6.141   6.722
 5994SOL     OW18880   5.504   2.870   2.418
 5994SOL    HW118881   5.497   2.921   2.503
 5994SOL    HW218882   5.425   2.809   2.409
 5995SOL     OW18883   4.814   4.196   2.871
 5995SOL    HW118884   4.719   4.194   2.903
 5995SOL    HW218885   4.819   4.250   2.787
 5996SOL     OW18886   1.045   6.348   0.732
 5996SOL    HW118887   1.058   6.249   0.729
 5996SOL    HW218888   0.948   6.368   0.746
 5997SOL     OW18889   0.448   5.542   2.856
 5997SOL    HW118890   0.503   5.617   2.820
 5997SOL    HW218891   0.473   5.457   2.808
 5998SOL     OW18892   5.716   0.990   3.106
 5998SOL    HW118893   5.679   0.980   3.198
 5998SOL    HW218894   5.644   1.020   3.044
 5999SOL     OW18895   1.451   1.482   2.484
 5999SOL    HW118896   1.537   1.527   2.509
 5999SOL    HW218897   1.425   1.508   2.391
 6000SOL     OW18898   4.404   6.725   0.839
 6000SOL    HW118899   4.433   6.686   0.751
 6000SOL    HW218900   4.305   6.718   0.848
 6001SOL     OW18901   1.227   3.886   6.771
 6001SOL    HW118902   1.290   3.848   6.703
 6001SOL    HW218903   1.199   3.978   6.743
 6002SOL     OW18904   5.746   0.330   0.430
 6002SOL    HW118905   5.846   0.338   0.422
 6002SOL    HW218906   5.704   0.413   0.393
 6003SOL     OW18907   5.826   2.447   4.797
 6003SOL    HW118908   5.833   2.400   4.885
 6003SOL    HW218909   5.737   2.493   4.791
 6004SOL     OW18910   0.384   3.610   2.821
 6004SOL    HW118911   0.354   3.694   2.776
 6004SOL    HW218912   0.482   3.614   2.839
 6005SOL     OW18913   4.887   5.764   4.092
 6005SOL    HW118914   4.859   5.696   4.159
 6005SOL    HW218915   4.871   5.729   3.999
 6006SOL     OW18916   2.471   1.027   5.481
 6006SOL    HW118917   2.529   1.063   5.408
 6006SOL    HW218918   2.504   0.937   5.510
 6007SOL     OW18919   4.925   3.563   5.821
 6007SOL    HW118920   4.940   3.522   5.731
 6007SOL    HW218921   4.835   3.607   5.824
 6008SOL     OW18922   2.388   4.564   5.528
 6008SOL    HW118923   2.480   4.603   5.527
 6008SOL    HW218924   2.321   4.637   5.544
 6009SOL     OW18925   3.263   0.311   3.518
 6009SOL    HW118926   3.326   0.278   3.448
 6009SOL    HW218927   3.275   0.409   3.529
 6010SOL     OW18928   1.663   4.196   4.543
 6010SOL    HW118929   1.609   4.266   4.590
 6010SOL    HW218930   1.605   4.116   4.525
 6011SOL     OW18931   4.823   3.147   2.720
 6011SOL    HW118932   4.917   3.111   2.718
 6011SOL    HW218933   4.825   3.247   2.718
 6012SOL     OW18934   5.408   1.328   0.002
 6012SOL    HW118935   5.446   1.413   0.040
 6012SOL    HW218936   5.480   1.260   7.013
 6013SOL     OW18937   4.916   2.038   2.485
 6013SOL    HW118938   4.856   2.060   2.409
 6013SOL    HW218939   4.986   1.973   2.455
 6014SOL     OW18940   3.866   3.317   1.817
 6014SOL    HW118941   3.874   3.281   1.910
 6014SOL    HW218942   3.945   3.375   1.798
 6015SOL     OW18943   5.533   3.447   4.302
 6015SOL    HW118944   5.475   3.415   4.376
 6015SOL    HW218945   5.605   3.506   4.339
 6016SOL     OW18946   6.623   1.826   5.771
 6016SOL    HW118947   6.632   1.727   5.783
 6016SOL    HW218948   6.528   1.850   5.753
 6017SOL     OW18949   6.627   4.143   3.437
 6017SOL    HW118950   6.564   4.188   3.501
 6017SOL    HW218951   6.686   4.081   3.488
 6018SOL     OW18952   3.432   0.618   6.778
 6018SOL    HW118953   3.416   0.548   6.847
 6018SOL    HW218954   3.466   0.701   6.822
 6019SOL     OW18955   6.698   1.789   4.341
 6019SOL    HW118956   6.760   1.862   4.313
 6019SOL    HW218957   6.734   1.746   4.424
 6020SOL     OW18958   0.761   4.857   0.966
 6020SOL    HW118959   0.857   4.855   0.937
 6020SOL    HW218960   0.755   4.895   1.058
 6021SOL     OW18961   4.879   0.497   2.420
 6021SOL    HW118962   4.911   0.583   2.378
 6021SOL    HW218963   4.912   0.420   2.366
 6022SOL     OW18964   4.693   2.004   4.278
 6022SOL    HW118965   4.697   1.906   4.295
 6022SOL    HW218966   4.681   2.020   4.180
 6023SOL     OW18967   6.333   0.302   2.065
 6023SOL    HW118968   6.337   0.202   2.065
 6023SOL    HW218969   6.243   0.331   2.034
 6024SOL     OW18970   1.419   4.530   3.191
 6024SOL    HW118971   1.467   4.551   3.276
 6024SOL    HW218972   1.360   4.607   3.166
 6025SOL     OW18973   3.701   1.707   2.928
 6025SOL    HW118974   3.705   1.691   3.027
 6025SOL    HW218975   3.782   1.757   2.899
 6026SOL     OW18976   0.356   4.636   5.441
 6026SOL    HW118977   0.279   4.680   5.395
 6026SOL    HW218978   0.368   4.676   5.532
 6027SOL     OW18979   1.269   3.942   6.340
 6027SOL    HW118980   1.172   3.963   6.354
 6027SOL    HW218981   1.307   3.903   6.424
 6028SOL     OW18982   0.217   4.511   6.862
 6028SOL    HW118983   0.308   4.488   6.899
 6028SOL    HW218984   0.219   4.604   6.827
 6029SOL     OW18985   2.546   6.204   5.371
 6029SOL    HW118986   2.601   6.269   5.423
 6029SOL    HW218987   2.602   6.164   5.299
 6030SOL     OW18988   3.746   6.001   2.650
 6030SOL    HW118989   3.797   6.048   2.722
 6030SOL    HW218990   3.734   6.062   2.571
 6031SOL     OW18991   3.010   5.645   3.626
 6031SOL    HW118992   3.093   5.692   3.654
 6031SOL    HW218993   3.021   5.610   3.533
 6032SOL     OW18994   2.255   4.206   2.715
 6032SOL    HW118995   2.275   4.179   2.809
 6032SOL    HW218996   2.315   4.281   2.688
 6033SOL     OW18997   3.170   2.183   3.257
 6033SOL    HW118998   3.261   2.143   3.246
 6033SOL    HW218999   3.133   2.210   3.168
 6034SOL     OW19000   1.431   5.394   4.652
 6034SOL    HW119001   1.488   5.467   4.616
 6034SOL    HW219002   1.454   5.378   4.748
 6035SOL     OW19003   0.303   0.855   2.594
 6035SOL    HW119004   0.305   0.954   2.583
 6035SOL    HW219005   0.209   0.822   2.586
 6036SOL     OW19006   5.384   5.640   3.441
 6036SOL    HW119007   5.434   5.722   3.467
 6036SOL    HW219008   5.312   5.664   3.375
 6037SOL     OW19009   4.252   5.316   6.849
 6037SOL    HW119010   4.319   5.249   6.817
 6037SOL    HW219011   4.296   5.405   6.859
 6038SOL     OW19012   1.285   2.028   5.989
 6038SOL    HW119013   1.340   2.006   5.909
 6038SOL    HW219014   1.254   2.123   5.983
 6039SOL     OW19015   3.004   3.672   2.581
 6039SOL    HW119016   2.960   3.704   2.664
 6039SOL    HW219017   3.033   3.577   2.592
 6040SOL     OW19018   0.753   1.792   6.928
 6040SOL    HW119019   0.802   1.751   6.851
 6040SOL    HW219020   0.810   1.864   6.969
 6041SOL     OW19021   2.810   0.382   4.846
 6041SOL    HW119022   2.880   0.335   4.899
 6041SOL    HW219023   2.832   0.377   4.748
 6042SOL     OW19024   5.167   5.840   2.290
 6042SOL    HW119025   5.086   5.894   2.267
 6042SOL    HW219026   5.244   5.870   2.234
 6043SOL     OW19027   0.963   4.794   5.231
 6043SOL    HW119028   0.906   4.853   5.288
 6043SOL    HW219029   1.013   4.730   5.290
 6044SOL     OW19030   1.005   2.088   1.779
 6044SOL    HW119031   0.926   2.040   1.817
 6044SOL    HW219032   0.976   2.177   1.744
 6045SOL     OW19033   6.006   5.007   2.255
 6045SOL    HW119034   6.081   4.968   2.310
 6045SOL    HW219035   5.919   4.968   2.285
 6046SOL     OW19036   3.813   1.795   7.003
 6046SOL    HW119037   3.790   1.860   6.930
 6046SOL    HW219038   3.806   1.840   0.071
 6047SOL     OW19039   5.049   2.203   1.793
 6047SOL    HW119040   5.125   2.265   1.773
 6047SOL    HW219041   5.084   2.110   1.804
 6048SOL     OW19042   4.574   5.484   5.065
 6048SOL    HW119043   4.621   5.396   5.058
 6048SOL    HW219044   4.528   5.490   5.154
 6049SOL     OW19045   5.801   3.251   6.573
 6049SOL    HW119046   5.707   3.219   6.588
 6049SOL    HW219047   5.804   3.310   6.493
 6050SOL     OW19048   3.803   6.102   4.619
 6050SOL    HW119049   3.819   6.023   4.559
 6050SOL    HW219050   3.706   6.110   4.638
 6051SOL     OW19051   2.656   0.587   3.949
 6051SOL    HW119052   2.643   0.677   3.990
 6051SOL    HW219053   2.735   0.589   3.888
 6052SOL     OW19054   6.185   0.564   0.611
 6052SOL    HW119055   6.164   0.490   0.676
 6052SOL    HW219056   6.147   0.650   0.646
 6053SOL     OW19057   4.108   1.287   6.891
 6053SOL    HW119058   4.132   1.305   6.796
 6053SOL    HW219059   4.167   1.341   6.951
 6054SOL     OW19060   2.687   3.547   0.780
 6054SOL    HW119061   2.779   3.545   0.740
 6054SOL    HW219062   2.620   3.525   0.709
 6055SOL     OW19063   4.577   0.511   5.334
 6055SOL    HW119064   4.491   0.460   5.340
 6055SOL    HW219065   4.625   0.486   5.250
 6056SOL     OW19066   4.633   2.721   4.693
 6056SOL    HW119067   4.596   2.812   4.679
 6056SOL    HW219068   4.668   2.712   4.786
 6057SOL     OW19069   5.430   2.964   3.954
 6057SOL    HW119070   5.451   2.984   4.050
 6057SOL    HW219071   5.415   2.866   3.942
 6058SOL     OW19072   5.156   2.758   1.233
 6058SOL    HW119073   5.232   2.761   1.298
 6058SOL    HW219074   5.113   2.668   1.236
 6059SOL     OW19075   5.025   4.644   4.969
 6059SOL    HW119076   5.114   4.598   4.972
 6059SOL    HW219077   5.039   4.741   4.951
 6060SOL     OW19078   2.877   4.476   0.580
 6060SOL    HW119079   2.804   4.492   0.513
 6060SOL    HW219080   2.841   4.491   0.672
 6061SOL     OW19081   3.722   1.998   1.033
 6061SOL    HW119082   3.744   1.982   0.937
 6061SOL    HW219083   3.651   1.934   1.063
 6062SOL     OW19084   2.664   1.539   5.037
 6062SOL    HW119085   2.568   1.537   5.012
 6062SOL    HW219086   2.704   1.448   5.023
 6063SOL     OW19087   3.299   1.928   6.092
 6063SOL    HW119088   3.310   1.864   6.168
 6063SOL    HW219089   3.207   1.967   6.095
 6064SOL     OW19090   2.081   5.833   0.768
 6064SOL    HW119091   2.001   5.864   0.717
 6064SOL    HW219092   2.128   5.912   0.807
 6065SOL     OW19093   6.800   0.316   2.002
 6065SOL    HW119094   6.729   0.319   2.073
 6065SOL    HW219095   6.795   0.399   1.947
 6066SOL     OW19096   4.709   1.533   6.258
 6066SOL    HW119097   4.673   1.449   6.219
 6066SOL    HW219098   4.727   1.520   6.355
 6067SOL     OW19099   5.210   1.440   5.757
 6067SOL    HW119100   5.277   1.375   5.793
 6067SOL    HW219101   5.253   1.529   5.745
 6068SOL     OW19102   5.149   3.068   4.378
 6068SOL    HW119103   5.061   3.025   4.396
 6068SOL    HW219104   5.136   3.165   4.358
 6069SOL     OW19105   6.629   2.843   4.785
 6069SOL    HW119106   6.723   2.852   4.750
 6069SOL    HW219107   6.616   2.905   4.862
 6070SOL     OW19108   1.997   3.131   0.400
 6070SOL    HW119109   2.087   3.089   0.392
 6070SOL    HW219110   1.990   3.179   0.488
 6071SOL     OW19111   5.632   5.272   4.124
 6071SOL    HW119112   5.680   5.331   4.059
 6071SOL    HW219113   5.536   5.266   4.098
 6072SOL     OW19114   0.428   0.441   1.786
 6072SOL    HW119115   0.354   0.499   1.754
 6072SOL    HW219116   0.433   0.444   1.885
 6073SOL     OW19117   5.857   3.573   0.288
 6073SOL    HW119118   5.847   3.626   0.372
 6073SOL    HW219119   5.937   3.514   0.296
 6074SOL     OW19120   1.205   6.420   4.427
 6074SOL    HW119121   1.225   6.508   4.384
 6074SOL    HW219122   1.146   6.366   4.368
 6075SOL     OW19123   0.008   1.709   6.723
 6075SOL    HW119124   0.016   1.643   6.649
 6075SOL    HW219125   6.941   1.696   6.770
 6076SOL     OW19126   2.260   5.528   4.124
 6076SOL    HW119127   2.310   5.545   4.209
 6076SOL    HW219128   2.289   5.439   4.086
 6077SOL     OW19129   5.840   6.034   1.437
 6077SOL    HW119130   5.898   5.961   1.400
 6077SOL    HW219131   5.893   6.119   1.442
 6078SOL     OW19132   4.172   4.376   0.807
 6078SOL    HW119133   4.204   4.442   0.874
 6078SOL    HW219134   4.102   4.418   0.749
 6079SOL     OW19135   3.887   3.466   6.044
 6079SOL    HW119136   3.977   3.471   6.087
 6079SOL    HW219137   3.834   3.547   6.069
 6080SOL     OW19138   6.814   1.247   1.554
 6080SOL    HW119139   6.775   1.201   1.473
 6080SOL    HW219140   6.907   1.214   1.569
 6081SOL     OW19141   6.381   3.553   5.914
 6081SOL    HW119142   6.296   3.542   5.863
 6081SOL    HW219143   6.380   3.642   5.961
 6082SOL     OW19144   2.135   2.008   3.986
 6082SOL    HW119145   2.225   2.002   3.943
 6082SOL    HW219146   2.064   2.003   3.915
 6083SOL     OW19147   0.015   4.762   6.957
 6083SOL    HW119148   7.009   4.726   0.027
 6083SOL    HW219149   0.113   4.748   6.942
 6084SOL     OW19150   0.752   6.814   3.671
 6084SOL    HW119151   0.815   6.822   3.593
 6084SOL    HW219152   0.673   6.760   3.643
 6085SOL     OW19153   0.910   4.383   0.498
 6085SOL    HW119154   0.998   4.340   0.476
 6085SOL    HW219155   0.887   4.365   0.594
 6086SOL     OW19156   3.538   1.040   6.362
 6086SOL    HW119157   3.572   1.106   6.296
 6086SOL    HW219158   3.594   1.044   6.445
 6087SOL     OW19159   4.102   5.555   1.086
 6087SOL    HW119160   4.176   5.492   1.109
 6087SOL    HW219161   4.059   5.524   1.001
 6088SOL     OW19162   5.773   5.709   3.771
 6088SOL    HW119163   5.825   5.643   3.718
 6088SOL    HW219164   5.837   5.768   3.822
 6089SOL     OW19165   6.245   3.251   0.817
 6089SOL    HW119166   6.160   3.273   0.768
 6089SOL    HW219167   6.224   3.191   0.893
 6090SOL     OW19168   2.064   5.809   6.115
 6090SOL    HW119169   2.033   5.725   6.158
 6090SOL    HW219170   2.027   5.888   6.163
 6091SOL     OW19171   1.839   1.263   0.796
 6091SOL    HW119172   1.869   1.356   0.774
 6091SOL    HW219173   1.883   1.233   0.881
 6092SOL     OW19174   4.011   6.855   2.916
 6092SOL    HW119175   4.074   6.933   2.919
 6092SOL    HW219176   4.055   6.778   2.871
 6093SOL     OW19177   1.814   3.449   2.833
 6093SOL    HW119178   1.766   3.534   2.813
 6093SOL    HW219179   1.847   3.408   2.748
 6094SOL     OW19180   3.755   0.376   1.802
 6094SOL    HW119181   3.758   0.450   1.734
 6094SOL    HW219182   3.759   0.288   1.755
 6095SOL     OW19183   4.605   3.326   0.288
 6095SOL    HW119184   4.631   3.307   0.382
 6095SOL    HW219185   4.685   3.361   0.238
 6096SOL     OW19186   0.086   0.359   3.460
 6096SOL    HW119187   7.009   0.334   3.456
 6096SOL    HW219188   0.119   0.378   3.368
 6097SOL     OW19189   2.744   6.873   2.233
 6097SOL    HW119190   2.688   6.790   2.229
 6097SOL    HW219191   2.735   6.914   2.324
 6098SOL     OW19192   1.667   2.611   5.499
 6098SOL    HW119193   1.712   2.562   5.425
 6098SOL    HW219194   1.689   2.708   5.493
 6099SOL     OW19195   6.692   6.234   0.852
 6099SOL    HW119196   6.761   6.238   0.924
 6099SOL    HW219197   6.663   6.140   0.837
 6100SOL     OW19198   4.083   4.064   6.893
 6100SOL    HW119199   3.992   4.107   6.886
 6100SOL    HW219200   4.090   3.990   6.827
 6101SOL     OW19201   6.409   2.532   4.685
 6101SOL    HW119202   6.432   2.565   4.777
 6101SOL    HW219203   6.312   2.505   4.684
 6102SOL     OW19204   3.474   6.601   3.275
 6102SOL    HW119205   3.561   6.598   3.324
 6102SOL    HW219206   3.417   6.523   3.303
 6103SOL     OW19207   6.534   2.685   2.028
 6103SOL    HW119208   6.487   2.611   1.980
 6103SOL    HW219209   6.595   2.732   1.964
 6104SOL     OW19210   5.536   1.142   5.471
 6104SOL    HW119211   5.600   1.069   5.494
 6104SOL    HW219212   5.444   1.104   5.458
 6105SOL     OW19213   2.637   0.124   5.897
 6105SOL    HW119214   2.552   0.119   5.844
 6105SOL    HW219215   2.624   0.081   5.986
 6106SOL     OW19216   2.530   4.507   5.935
 6106SOL    HW119217   2.451   4.503   5.995
 6106SOL    HW219218   2.512   4.453   5.853
 6107SOL     OW19219   2.553   4.676   4.590
 6107SOL    HW119220   2.504   4.661   4.504
 6107SOL    HW219221   2.529   4.603   4.654
 6108SOL     OW19222   0.440   2.335   2.112
 6108SOL    HW119223   0.445   2.311   2.209
 6108SOL    HW219224   0.345   2.329   2.082
 6109SOL     OW19225   5.647   2.699   5.510
 6109SOL    HW119226   5.612   2.701   5.416
 6109SOL    HW219227   5.738   2.741   5.513
 6110SOL     OW19228   4.612   3.574   0.649
 6110SOL    HW119229   4.524   3.594   0.606
 6110SOL    HW219230   4.675   3.650   0.631
 6111SOL     OW19231   2.304   4.138   2.310
 6111SOL    HW119232   2.376   4.075   2.339
 6111SOL    HW219233   2.245   4.092   2.244
 6112SOL     OW19234   4.140   0.212   2.608
 6112SOL    HW119235   4.114   0.216   2.512
 6112SOL    HW219236   4.213   0.278   2.626
 6113SOL     OW19237   1.907   0.925   6.535
 6113SOL    HW119238   1.863   0.851   6.484
 6113SOL    HW219239   1.941   0.994   6.471
 6114SOL     OW19240   5.074   5.539   1.273
 6114SOL    HW119241   5.149   5.567   1.332
 6114SOL    HW219242   5.019   5.470   1.319
 6115SOL     OW19243   5.159   0.149   4.088
 6115SOL    HW119244   5.090   0.128   4.156
 6115SOL    HW219245   5.147   0.090   4.008
 6116SOL     OW19246   3.532   0.148   6.713
 6116SOL    HW119247   3.452   0.122   6.659
 6116SOL    HW219248   3.504   0.203   6.791
 6117SOL     OW19249   0.892   1.329   5.087
 6117SOL    HW119250   0.934   1.305   5.175
 6117SOL    HW219251   0.817   1.265   5.067
 6118SOL     OW19252   6.743   0.699   2.014
 6118SOL    HW119253   6.787   0.688   2.103
 6118SOL    HW219254   6.676   0.625   2.002
 6119SOL     OW19255   1.863   3.397   5.755
 6119SOL    HW119256   1.955   3.363   5.773
 6119SOL    HW219257   1.868   3.487   5.712
 6120SOL     OW19258   3.790   6.487   4.691
 6120SOL    HW119259   3.866   6.507   4.753
 6120SOL    HW219260   3.751   6.573   4.657
 6121SOL     OW19261   1.325   2.736   5.459
 6121SOL    HW119262   1.362   2.750   5.551
 6121SOL    HW219263   1.387   2.776   5.392
 6122SOL     OW19264   4.348   6.210   0.712
 6122SOL    HW119265   4.416   6.282   0.703
 6122SOL    HW219266   4.362   6.141   0.641
 6123SOL     OW19267   6.286   0.108   6.555
 6123SOL    HW119268   6.299   0.087   6.458
 6123SOL    HW219269   6.229   0.189   6.565
 6124SOL     OW19270   2.327   1.051   5.839
 6124SOL    HW119271   2.267   1.060   5.760
 6124SOL    HW219272   2.340   1.141   5.882
 6125SOL     OW19273   1.128   6.082   6.882
 6125SOL    HW119274   1.118   6.004   6.820
 6125SOL    HW219275   1.168   6.050   6.968
 6126SOL     OW19276   0.683   0.659   4.024
 6126SOL    HW119277   0.599   0.632   3.977
 6126SOL    HW219278   0.661   0.725   4.096
 6127SOL     OW19279   3.721   0.138   1.679
 6127SOL    HW119280   3.797   0.098   1.628
 6127SOL    HW219281   3.641   0.146   1.619
 6128SOL     OW19282   6.485   3.146   6.925
 6128SOL    HW119283   6.446   3.149   6.832
 6128SOL    HW219284   6.425   3.091   6.984
 6129SOL     OW19285   6.205   3.788   3.356
 6129SOL    HW119286   6.250   3.877   3.366
 6129SOL    HW219287   6.244   3.740   3.278
 6130SOL     OW19288   5.959   1.931   3.600
 6130SOL    HW119289   5.996   2.015   3.560
 6130SOL    HW219290   5.889   1.893   3.539
 6131SOL     OW19291   6.692   0.903   5.050
 6131SOL    HW119292   6.606   0.930   5.006
 6131SOL    HW219293   6.689   0.928   5.147
 6132SOL     OW19294   4.754   1.626   0.456
 6132SOL    HW119295   4.714   1.660   0.371
 6132SOL    HW219296   4.744   1.695   0.527
 6133SOL     OW19297   1.086   2.448   2.388
 6133SOL    HW119298   1.013   2.471   2.452
 6133SOL    HW219299   1.067   2.359   2.345
 6134SOL     OW19300   3.787   4.523   6.445
 6134SOL    HW119301   3.777   4.432   6.406
 6134SOL    HW219302   3.805   4.589   6.372
 6135SOL     OW19303   0.682   0.652   2.016
 6135SOL    HW119304   0.725   0.735   2.051
 6135SOL    HW219305   0.721   0.630   1.926
 6136SOL     OW19306   0.925   3.014   2.713
 6136SOL    HW119307   0.959   3.108   2.715
 6136SOL    HW219308   0.989   2.954   2.759
 6137SOL     OW19309   6.088   2.544   3.810
 6137SOL    HW119310   6.114   2.597   3.729
 6137SOL    HW219311   6.138   2.579   3.889
 6138SOL     OW19312   4.546   6.548   2.758
 6138SOL    HW119313   4.541   6.579   2.853
 6138SOL    HW219314   4.481   6.600   2.702
 6139SOL     OW19315   1.471   1.302   5.888
 6139SOL    HW119316   1.467   1.226   5.823
 6139SOL    HW219317   1.459   1.388   5.839
 6140SOL     OW19318   0.310   6.669   1.646
 6140SOL    HW119319   0.383   6.638   1.585
 6140SOL    HW219320   0.346   6.738   1.709
 6141SOL     OW19321   6.346   5.510   6.046
 6141SOL    HW119322   6.422   5.571   6.024
 6141SOL    HW219323   6.370   5.455   6.126
 6142SOL     OW19324   1.128   5.865   1.041
 6142SOL    HW119325   1.182   5.837   0.961
 6142SOL    HW219326   1.185   5.922   1.100
 6143SOL     OW19327   6.894   4.022   0.792
 6143SOL    HW119328   6.929   3.946   0.737
 6143SOL    HW219329   6.834   4.078   0.736
 6144SOL     OW19330   5.862   4.520   3.261
 6144SOL    HW119331   5.905   4.544   3.348
 6144SOL    HW219332   5.855   4.421   3.253
 6145SOL     OW19333   4.758   5.574   3.426
 6145SOL    HW119334   4.796   5.496   3.377
 6145SOL    HW219335   4.658   5.571   3.421
 6146SOL     OW19336   2.798   6.410   3.492
 6146SOL    HW119337   2.873   6.343   3.489
 6146SOL    HW219338   2.712   6.363   3.473
 6147SOL     OW19339   1.477   3.466   4.220
 6147SOL    HW119340   1.538   3.483   4.297
 6147SOL    HW219341   1.389   3.511   4.237
 6148SOL     OW19342   6.803   0.160   4.126
 6148SOL    HW119343   6.856   0.110   4.194
 6148SOL    HW219344   6.787   0.102   4.046
 6149SOL     OW19345   3.110   5.514   1.507
 6149SOL    HW119346   3.083   5.571   1.430
 6149SOL    HW219347   3.190   5.460   1.482
 6150SOL     OW19348   4.664   4.610   0.128
 6150SOL    HW119349   4.658   4.701   0.088
 6150SOL    HW219350   4.751   4.600   0.177
 6151SOL     OW19351   5.811   4.372   5.797
 6151SOL    HW119352   5.859   4.394   5.713
 6151SOL    HW219353   5.844   4.431   5.871
 6152SOL     OW19354   6.744   5.516   4.965
 6152SOL    HW119355   6.770   5.613   4.964
 6152SOL    HW219356   6.712   5.490   4.873
 6153SOL     OW19357   5.557   3.820   1.500
 6153SOL    HW119358   5.595   3.809   1.408
 6153SOL    HW219359   5.518   3.912   1.508
 6154SOL     OW19360   6.188   2.347   2.242
 6154SOL    HW119361   6.251   2.424   2.232
 6154SOL    HW219362   6.219   2.272   2.183
 6155SOL     OW19363   1.951   1.723   4.527
 6155SOL    HW119364   1.963   1.716   4.428
 6155SOL    HW219365   1.900   1.807   4.549
 6156SOL     OW19366   4.054   4.651   1.711
 6156SOL    HW119367   4.028   4.712   1.786
 6156SOL    HW219368   4.077   4.705   1.630
 6157SOL     OW19369   1.403   0.903   3.964
 6157SOL    HW119370   1.315   0.950   3.959
 6157SOL    HW219371   1.416   0.865   4.056
 6158SOL     OW19372   4.125   1.358   6.044
 6158SOL    HW119373   4.160   1.346   6.137
 6158SOL    HW219374   4.045   1.418   6.045
 6159SOL     OW19375   4.850   2.434   1.504
 6159SOL    HW119376   4.830   2.518   1.554
 6159SOL    HW219377   4.948   2.430   1.483
 6160SOL     OW19378   5.097   0.851   6.462
 6160SOL    HW119379   5.085   0.781   6.391
 6160SOL    HW219380   5.078   0.810   6.552
 6161SOL     OW19381   4.839   1.637   4.783
 6161SOL    HW119382   4.897   1.714   4.810
 6161SOL    HW219383   4.789   1.605   4.864
 6162SOL     OW19384   1.359   6.483   3.494
 6162SOL    HW119385   1.306   6.411   3.449
 6162SOL    HW219386   1.298   6.559   3.516
 6163SOL     OW19387   6.452   6.366   0.846
 6163SOL    HW119388   6.390   6.372   0.924
 6163SOL    HW219389   6.543   6.339   0.877
 6164SOL     OW19390   3.401   2.694   1.833
 6164SOL    HW119391   3.319   2.641   1.810
 6164SOL    HW219392   3.400   2.717   1.930
 6165SOL     OW19393   4.545   0.682   6.677
 6165SOL    HW119394   4.566   0.603   6.734
 6165SOL    HW219395   4.618   0.696   6.610
 6166SOL     OW19396   4.475   1.012   6.246
 6166SOL    HW119397   4.417   0.969   6.314
 6166SOL    HW219398   4.428   1.014   6.157
 6167SOL     OW19399   1.115   4.807   3.472
 6167SOL    HW119400   1.134   4.889   3.526
 6167SOL    HW219401   1.111   4.728   3.533
 6168SOL     OW19402   0.742   3.816   0.985
 6168SOL    HW119403   0.670   3.869   1.028
 6168SOL    HW219404   0.730   3.719   1.007
 6169SOL     OW19405   1.408   2.444   0.828
 6169SOL    HW119406   1.441   2.395   0.908
 6169SOL    HW219407   1.485   2.466   0.768
 6170SOL     OW19408   1.198   3.929   5.389
 6170SOL    HW119409   1.190   3.978   5.476
 6170SOL    HW219410   1.114   3.876   5.373
 6171SOL     OW19411   0.469   3.272   0.957
 6171SOL    HW119412   0.418   3.328   1.023
 6171SOL    HW219413   0.535   3.214   1.005
 6172SOL     OW19414   2.273   2.877   2.327
 6172SOL    HW119415   2.228   2.931   2.256
 6172SOL    HW219416   2.347   2.823   2.287
 6173SOL     OW19417   6.944   5.830   1.984
 6173SOL    HW119418   6.905   5.911   2.027
 6173SOL    HW219419   6.870   5.765   1.963
 6174SOL     OW19420   4.453   5.794   3.583
 6174SOL    HW119421   4.448   5.707   3.533
 6174SOL    HW219422   4.362   5.821   3.612
 6175SOL     OW19423   4.654   0.269   3.562
 6175SOL    HW119424   4.612   0.358   3.579
 6175SOL    HW219425   4.736   0.280   3.506
 6176SOL     OW19426   4.934   4.489   5.221
 6176SOL    HW119427   4.900   4.559   5.283
 6176SOL    HW219428   4.977   4.532   5.142
 6177SOL     OW19429   5.735   1.184   1.391
 6177SOL    HW119430   5.671   1.158   1.320
 6177SOL    HW219431   5.685   1.213   1.473
 6178SOL     OW19432   4.635   4.354   2.401
 6178SOL    HW119433   4.539   4.366   2.427
 6178SOL    HW219434   4.645   4.370   2.303
 6179SOL     OW19435   6.393   4.640   4.057
 6179SOL    HW119436   6.478   4.587   4.055
 6179SOL    HW219437   6.410   4.733   4.025
 6180SOL     OW19438   2.934   4.190   0.549
 6180SOL    HW119439   2.938   4.289   0.551
 6180SOL    HW219440   2.872   4.160   0.476
 6181SOL     OW19441   4.941   6.621   6.232
 6181SOL    HW119442   5.021   6.678   6.247
 6181SOL    HW219443   4.918   6.621   6.134
 6182SOL     OW19444   4.787   2.987   5.100
 6182SOL    HW119445   4.695   2.949   5.110
 6182SOL    HW219446   4.786   3.083   5.127
 6183SOL     OW19447   1.285   2.436   3.654
 6183SOL    HW119448   1.282   2.523   3.704
 6183SOL    HW219449   1.290   2.360   3.719
 6184SOL     OW19450   2.598   6.413   6.732
 6184SOL    HW119451   2.683   6.400   6.784
 6184SOL    HW219452   2.549   6.492   6.770
 6185SOL     OW19453   0.540   3.838   6.303
 6185SOL    HW119454   0.470   3.886   6.357
 6185SOL    HW219455   0.503   3.814   6.214
 6186SOL     OW19456   0.207   0.839   0.235
 6186SOL    HW119457   0.207   0.780   0.154
 6186SOL    HW219458   0.113   0.857   0.264
 6187SOL     OW19459   5.117   4.411   3.959
 6187SOL    HW119460   5.142   4.417   3.863
 6187SOL    HW219461   5.178   4.469   4.013
 6188SOL     OW19462   2.138   1.953   6.688
 6188SOL    HW119463   2.086   2.001   6.758
 6188SOL    HW219464   2.076   1.928   6.613
 6189SOL     OW19465   4.401   4.573   2.539
 6189SOL    HW119466   4.392   4.662   2.584
 6189SOL    HW219467   4.426   4.586   2.443
 6190SOL     OW19468   0.522   4.313   5.534
 6190SOL    HW119469   0.432   4.343   5.565
 6190SOL    HW219470   0.519   4.295   5.436
 6191SOL     OW19471   2.838   2.562   6.561
 6191SOL    HW119472   2.903   2.557   6.636
 6191SOL    HW219473   2.748   2.531   6.592
 6192SOL     OW19474   2.826   2.271   5.725
 6192SOL    HW119475   2.856   2.317   5.809
 6192SOL    HW219476   2.897   2.282   5.654
 6193SOL     OW19477   4.477   6.301   1.878
 6193SOL    HW119478   4.400   6.273   1.934
 6193SOL    HW219479   4.484   6.241   1.799
 6194SOL     OW19480   0.728   0.341   0.299
 6194SOL    HW119481   0.691   0.373   0.386
 6194SOL    HW219482   0.783   0.413   0.257
 6195SOL     OW19483   4.292   5.988   4.677
 6195SOL    HW119484   4.231   5.914   4.649
 6195SOL    HW219485   4.283   6.065   4.614
 6196SOL     OW19486   5.579   3.391   2.091
 6196SOL    HW119487   5.590   3.482   2.131
 6196SOL    HW219488   5.544   3.399   1.998
 6197SOL     OW19489   3.588   5.134   1.006
 6197SOL    HW119490   3.594   5.034   1.012
 6197SOL    HW219491   3.679   5.173   1.016
 6198SOL     OW19492   4.036   6.605   1.338
 6198SOL    HW119493   4.058   6.508   1.329
 6198SOL    HW219494   4.004   6.639   1.250
 6199SOL     OW19495   1.352   1.166   0.272
 6199SOL    HW119496   1.306   1.141   0.186
 6199SOL    HW219497   1.450   1.147   0.264
 6200SOL     OW19498   1.441   1.410   5.577
 6200SOL    HW119499   1.351   1.428   5.618
 6200SOL    HW219500   1.508   1.474   5.614
 6201SOL     OW19501   0.754   4.366   5.658
 6201SOL    HW119502   0.682   4.352   5.589
 6201SOL    HW219503   0.842   4.340   5.619
 6202SOL     OW19504   4.996   1.583   1.717
 6202SOL    HW119505   4.927   1.551   1.652
 6202SOL    HW219506   5.088   1.570   1.678
 6203SOL     OW19507   6.349   5.579   2.097
 6203SOL    HW119508   6.390   5.548   2.182
 6203SOL    HW219509   6.421   5.591   2.028
 6204SOL     OW19510   0.000   5.657   4.347
 6204SOL    HW119511   0.062   5.672   4.270
 6204SOL    HW219512   0.029   5.714   4.424
 6205SOL     OW19513   6.779   5.822   1.702
 6205SOL    HW119514   6.822   5.740   1.663
 6205SOL    HW219515   6.681   5.819   1.687
 6206SOL     OW19516   6.126   1.835   2.859
 6206SOL    HW119517   6.210   1.864   2.905
 6206SOL    HW219518   6.147   1.762   2.793
 6207SOL     OW19519   1.535   5.324   5.562
 6207SOL    HW119520   1.629   5.358   5.557
 6207SOL    HW219521   1.481   5.363   5.487
 6208SOL     OW19522   4.418   2.887   5.623
 6208SOL    HW119523   4.361   2.948   5.569
 6208SOL    HW219524   4.512   2.891   5.589
 6209SOL     OW19525   3.226   6.200   0.105
 6209SOL    HW119526   3.236   6.211   0.203
 6209SOL    HW219527   3.148   6.140   0.086
 6210SOL     OW19528   4.835   3.184   3.798
 6210SOL    HW119529   4.803   3.266   3.844
 6210SOL    HW219530   4.807   3.103   3.850
 6211SOL     OW19531   2.782   5.974   5.913
 6211SOL    HW119532   2.816   5.960   6.006
 6211SOL    HW219533   2.686   6.003   5.916
 6212SOL     OW19534   2.769   4.757   4.707
 6212SOL    HW119535   2.779   4.706   4.792
 6212SOL    HW219536   2.694   4.719   4.654
 6213SOL     OW19537   5.760   0.366   0.052
 6213SOL    HW119538   5.743   0.445   0.110
 6213SOL    HW219539   5.845   0.321   0.079
 6214SOL     OW19540   5.484   5.540   4.742
 6214SOL    HW119541   5.478   5.478   4.820
 6214SOL    HW219542   5.392   5.561   4.709
 6215SOL     OW19543   3.922   2.193   6.337
 6215SOL    HW119544   3.888   2.225   6.249
 6215SOL    HW219545   3.875   2.241   6.411
 6216SOL     OW19546   6.075   2.273   2.861
 6216SOL    HW119547   6.008   2.311   2.798
 6216SOL    HW219548   6.061   2.174   2.867
 6217SOL     OW19549   0.722   3.463   2.117
 6217SOL    HW119550   0.757   3.535   2.057
 6217SOL    HW219551   0.798   3.404   2.145
 6218SOL     OW19552   3.618   6.493   6.085
 6218SOL    HW119553   3.650   6.584   6.113
 6218SOL    HW219554   3.616   6.432   6.165
 6219SOL     OW19555   0.980   2.020   4.719
 6219SOL    HW119556   0.983   1.974   4.808
 6219SOL    HW219557   1.050   2.091   4.716
 6220SOL     OW19558   2.395   1.251   4.993
 6220SOL    HW119559   2.312   1.195   5.002
 6220SOL    HW219560   2.374   1.345   5.018
 6221SOL     OW19561   5.560   6.360   0.249
 6221SOL    HW119562   5.600   6.394   0.164
 6221SOL    HW219563   5.461   6.352   0.238
 6222SOL     OW19564   1.395   6.885   1.663
 6222SOL    HW119565   1.303   6.912   1.692
 6222SOL    HW219566   1.426   6.807   1.718
 6223SOL     OW19567   1.480   5.307   3.598
 6223SOL    HW119568   1.380   5.302   3.605
 6223SOL    HW219569   1.521   5.275   3.683
 6224SOL     OW19570   3.666   1.244   6.221
 6224SOL    HW119571   3.676   1.322   6.159
 6224SOL    HW219572   3.751   1.233   6.274
 6225SOL     OW19573   4.016   2.843   6.388
 6225SOL    HW119574   3.943   2.887   6.337
 6225SOL    HW219575   4.024   2.747   6.361
 6226SOL     OW19576   0.648   1.568   4.745
 6226SOL    HW119577   0.607   1.522   4.666
 6226SOL    HW219578   0.696   1.650   4.714
 6227SOL     OW19579   3.143   4.908   5.126
 6227SOL    HW119580   3.048   4.937   5.125
 6227SOL    HW219581   3.155   4.834   5.192
 6228SOL     OW19582   0.353   3.137   2.316
 6228SOL    HW119583   0.365   3.072   2.392
 6228SOL    HW219584   0.409   3.218   2.332
 6229SOL     OW19585   0.274   2.284   5.129
 6229SOL    HW119586   0.305   2.378   5.133
 6229SOL    HW219587   0.340   2.229   5.077
 6230SOL     OW19588   0.793   2.021   4.320
 6230SOL    HW119589   0.844   1.935   4.330
 6230SOL    HW219590   0.696   2.005   4.338
 6231SOL     OW19591   6.296   5.733   0.443
 6231SOL    HW119592   6.270   5.693   0.356
 6231SOL    HW219593   6.352   5.668   0.495
 6232SOL     OW19594   6.670   1.281   1.028
 6232SOL    HW119595   6.722   1.196   1.016
 6232SOL    HW219596   6.581   1.272   0.983
 6233SOL     OW19597   6.498   2.802   1.283
 6233SOL    HW119598   6.581   2.747   1.295
 6233SOL    HW219599   6.492   2.869   1.358
 6234SOL     OW19600   0.046   0.073   5.243
 6234SOL    HW119601   0.009   0.101   5.154
 6234SOL    HW219602   7.007   0.110   5.315
 6235SOL     OW19603   6.871   0.649   1.252
 6235SOL    HW119604   6.959   0.682   1.287
 6235SOL    HW219605   6.885   0.608   1.162
 6236SOL     OW19606   0.698   4.346   1.187
 6236SOL    HW119607   0.644   4.272   1.147
 6236SOL    HW219608   0.706   4.420   1.120
 6237SOL     OW19609   3.703   6.955   6.390
 6237SOL    HW119610   3.662   0.022   6.362
 6237SOL    HW219611   3.651   6.917   6.467
 6238SOL     OW19612   5.423   5.754   2.851
 6238SOL    HW119613   5.395   5.840   2.809
 6238SOL    HW219614   5.432   5.766   2.950
 6239SOL     OW19615   4.062   1.860   1.594
 6239SOL    HW119616   4.057   1.762   1.613
 6239SOL    HW219617   3.995   1.885   1.524
 6240SOL     OW19618   2.473   3.824   5.340
 6240SOL    HW119619   2.443   3.882   5.264
 6240SOL    HW219620   2.426   3.736   5.337
 6241SOL     OW19621   3.648   0.652   2.161
 6241SOL    HW119622   3.739   0.615   2.144
 6241SOL    HW219623   3.656   0.745   2.197
 6242SOL     OW19624   4.064   6.841   3.211
 6242SOL    HW119625   3.989   6.781   3.236
 6242SOL    HW219626   4.033   6.907   3.142
 6243SOL     OW19627   0.023   6.488   5.290
 6243SOL    HW119628   6.973   6.543   5.334
 6243SOL    HW219629   0.112   6.534   5.298
 6244SOL     OW19630   5.566   3.271   3.584
 6244SOL    HW119631   5.535   3.179   3.608
 6244SOL    HW219632   5.617   3.268   3.498
 6245SOL     OW19633   1.543   3.330   1.171
 6245SOL    HW119634   1.600   3.263   1.219
 6245SOL    HW219635   1.468   3.283   1.124
 6246SOL     OW19636   0.774   2.061   5.297
 6246SOL    HW119637   0.700   2.012   5.251
 6246SOL    HW219638   0.835   2.102   5.229
 6247SOL     OW19639   0.676   5.939   3.990
 6247SOL    HW119640   0.647   6.028   4.026
 6247SOL    HW219641   0.669   5.939   3.890
 6248SOL     OW19642   3.789   3.916   0.073
 6248SOL    HW119643   3.778   3.977   0.152
 6248SOL    HW219644   3.865   3.853   0.090
 6249SOL     OW19645   6.786   3.248   0.756
 6249SOL    HW119646   6.734   3.229   0.839
 6249SOL    HW219647   6.882   3.223   0.770
 6250SOL     OW19648   6.776   6.668   1.328
 6250SOL    HW119649   6.768   6.767   1.323
 6250SOL    HW219650   6.766   6.638   1.423
 6251SOL     OW19651   4.256   5.692   5.295
 6251SOL    HW119652   4.348   5.725   5.277
 6251SOL    HW219653   4.216   5.746   5.370
 6252SOL     OW19654   2.748   5.686   6.382
 6252SOL    HW119655   2.726   5.749   6.307
 6252SOL    HW219656   2.819   5.623   6.352
 6253SOL     OW19657   2.696   5.225   4.198
 6253SOL    HW119658   2.795   5.207   4.197
 6253SOL    HW219659   2.649   5.159   4.139
 6254SOL     OW19660   6.282   1.170   1.097
 6254SOL    HW119661   6.350   1.203   1.032
 6254SOL    HW219662   6.278   1.232   1.175
 6255SOL     OW19663   2.517   1.219   0.912
 6255SOL    HW119664   2.489   1.157   0.838
 6255SOL    HW219665   2.558   1.165   0.986
 6256SOL     OW19666   3.923   5.164   2.202
 6256SOL    HW119667   3.836   5.186   2.247
 6256SOL    HW219668   3.962   5.082   2.243
 6257SOL     OW19669   4.334   2.771   7.012
 6257SOL    HW119670   4.350   2.794   0.088
 6257SOL    HW219671   4.389   2.691   6.988
 6258SOL     OW19672   3.192   6.983   3.796
 6258SOL    HW119673   3.196   6.975   3.696
 6258SOL    HW219674   3.099   6.966   3.827
 6259SOL     OW19675   1.942   1.344   6.685
 6259SOL    HW119676   1.958   1.371   6.590
 6259SOL    HW219677   2.023   1.364   6.739
 6260SOL     OW19678   3.490   6.130   7.001
 6260SOL    HW119679   3.395   6.162   7.004
 6260SOL    HW219680   3.540   6.169   0.059
 6261SOL     OW19681   5.592   0.561   6.631
 6261SOL    HW119682   5.493   0.561   6.643
 6261SOL    HW219683   5.635   0.504   6.701
 6262SOL     OW19684   2.298   6.082   1.265
 6262SOL    HW119685   2.321   6.061   1.170
 6262SOL    HW219686   2.359   6.154   1.298
 6263SOL     OW19687   0.911   6.689   4.533
 6263SOL    HW119688   0.998   6.666   4.577
 6263SOL    HW219689   0.892   6.786   4.544
 6264SOL     OW19690   1.900   0.593   1.872
 6264SOL    HW119691   1.866   0.602   1.778
 6264SOL    HW219692   1.835   0.635   1.935
 6265SOL     OW19693   4.154   3.333   0.253
 6265SOL    HW119694   4.187   3.427   0.251
 6265SOL    HW219695   4.116   3.308   0.164
 6266SOL     OW19696   5.063   0.065   3.595
 6266SOL    HW119697   4.986   0.005   3.614
 6266SOL    HW219698   5.146   0.029   3.637
 6267SOL     OW19699   2.458   6.847   5.102
 6267SOL    HW119700   2.416   6.912   5.039
 6267SOL    HW219701   2.510   6.897   5.172
 6268SOL     OW19702   3.470   0.862   2.478
 6268SOL    HW119703   3.392   0.885   2.420
 6268SOL    HW219704   3.487   0.764   2.472
 6269SOL     OW19705   6.865   0.110   2.610
 6269SOL    HW119706   6.914   0.197   2.613
 6269SOL    HW219707   6.930   0.035   2.611
 6270SOL     OW19708   0.051   0.171   5.966
 6270SOL    HW119709   0.075   0.160   5.870
 6270SOL    HW219710   0.052   0.268   5.989
 6271SOL     OW19711   5.514   2.513   5.663
 6271SOL    HW119712   5.509   2.551   5.755
 6271SOL    HW219713   5.555   2.580   5.601
 6272SOL     OW19714   0.409   2.377   0.558
 6272SOL    HW119715   0.426   2.334   0.646
 6272SOL    HW219716   0.472   2.454   0.546
 6273SOL     OW19717   0.715   6.482   2.704
 6273SOL    HW119718   0.644   6.497   2.773
 6273SOL    HW219719   0.672   6.444   2.621
 6274SOL     OW19720   3.240   0.070   4.743
 6274SOL    HW119721   3.245   6.996   4.774
 6274SOL    HW219722   3.171   0.119   4.796
 6275SOL     OW19723   2.460   6.477   0.042
 6275SOL    HW119724   2.409   6.468   6.977
 6275SOL    HW219725   2.523   6.400   0.051
 6276SOL     OW19726   1.784   5.222   3.333
 6276SOL    HW119727   1.787   5.308   3.283
 6276SOL    HW219728   1.691   5.185   3.330
 6277SOL     OW19729   4.536   3.079   0.943
 6277SOL    HW119730   4.600   3.098   0.868
 6277SOL    HW219731   4.454   3.135   0.933
 6278SOL     OW19732   4.772   6.921   4.775
 6278SOL    HW119733   4.717   6.838   4.759
 6278SOL    HW219734   4.770   6.978   4.693
 6279SOL     OW19735   3.248   6.215   0.376
 6279SOL    HW119736   3.187   6.142   0.408
 6279SOL    HW219737   3.299   6.252   0.454
 6280SOL     OW19738   0.049   0.738   6.280
 6280SOL    HW119739   0.051   0.730   6.380
 6280SOL    HW219740   7.017   0.661   6.242
 6281SOL     OW19741   6.941   5.094   4.120
 6281SOL    HW119742   6.848   5.074   4.150
 6281SOL    HW219743   6.976   5.173   4.171
 6282SOL     OW19744   6.122   4.873   5.884
 6282SOL    HW119745   6.092   4.901   5.976
 6282SOL    HW219746   6.043   4.873   5.823
 6283SOL     OW19747   0.291   3.831   4.302
 6283SOL    HW119748   0.203   3.784   4.291
 6283SOL    HW219749   0.362   3.777   4.258
 6284SOL     OW19750   1.909   4.880   5.127
 6284SOL    HW119751   1.993   4.859   5.177
 6284SOL    HW219752   1.870   4.796   5.090
 6285SOL     OW19753   0.573   3.366   3.726
 6285SOL    HW119754   0.553   3.444   3.668
 6285SOL    HW219755   0.488   3.330   3.765
 6286SOL     OW19756   6.710   2.384   4.060
 6286SOL    HW119757   6.798   2.403   4.103
 6286SOL    HW219758   6.701   2.439   3.977
 6287SOL     OW19759   3.196   4.903   4.850
 6287SOL    HW119760   3.160   4.866   4.936
 6287SOL    HW219761   3.144   4.984   4.824
 6288SOL     OW19762   4.988   4.655   2.003
 6288SOL    HW119763   5.071   4.637   2.055
 6288SOL    HW219764   4.909   4.660   2.064
 6289SOL     OW19765   1.488   5.234   6.818
 6289SOL    HW119766   1.546   5.283   6.882
 6289SOL    HW219767   1.532   5.229   6.728
 6290SOL     OW19768   5.992   4.693   6.210
 6290SOL    HW119769   5.901   4.708   6.250
 6290SOL    HW219770   6.025   4.602   6.235
 6291SOL     OW19771   4.048   3.813   3.591
 6291SOL    HW119772   3.976   3.881   3.603
 6291SOL    HW219773   4.084   3.786   3.681
 6292SOL     OW19774   2.265   2.078   5.226
 6292SOL    HW119775   2.234   2.173   5.227
 6292SOL    HW219776   2.358   2.073   5.262
 6293SOL     OW19777   4.144   1.987   1.019
 6293SOL    HW119778   4.081   2.002   1.096
 6293SOL    HW219779   4.196   1.903   1.034
 6294SOL     OW19780   4.242   0.541   3.409
 6294SOL    HW119781   4.282   0.591   3.332
 6294SOL    HW219782   4.246   0.598   3.491
 6295SOL     OW19783   5.324   4.910   4.508
 6295SOL    HW119784   5.242   4.856   4.523
 6295SOL    HW219785   5.310   5.002   4.546
 6296SOL     OW19786   6.472   4.771   6.470
 6296SOL    HW119787   6.396   4.821   6.512
 6296SOL    HW219788   6.443   4.678   6.449
 6297SOL     OW19789   5.695   0.425   5.443
 6297SOL    HW119790   5.771   0.425   5.378
 6297SOL    HW219791   5.664   0.331   5.458
 6298SOL     OW19792   1.620   3.392   6.293
 6298SOL    HW119793   1.641   3.487   6.318
 6298SOL    HW219794   1.680   3.364   6.217
 6299SOL     OW19795   5.752   2.727   2.088
 6299SOL    HW119796   5.663   2.764   2.115
 6299SOL    HW219797   5.812   2.722   2.168
 6300SOL     OW19798   6.343   1.123   6.831
 6300SOL    HW119799   6.370   1.034   6.867
 6300SOL    HW219800   6.269   1.160   6.886
 6301SOL     OW19801   2.961   6.787   6.906
 6301SOL    HW119802   2.954   6.740   6.994
 6301SOL    HW219803   2.907   6.738   6.838
 6302SOL     OW19804   1.997   2.125   4.851
 6302SOL    HW119805   2.096   2.134   4.847
 6302SOL    HW219806   1.956   2.179   4.778
 6303SOL     OW19807   0.349   0.765   5.441
 6303SOL    HW119808   0.445   0.771   5.416
 6303SOL    HW219809   0.313   0.676   5.411
 6304SOL     OW19810   3.764   1.114   1.791
 6304SOL    HW119811   3.683   1.059   1.814
 6304SOL    HW219812   3.792   1.095   1.697
 6305SOL     OW19813   5.831   6.332   0.628
 6305SOL    HW119814   5.780   6.279   0.560
 6305SOL    HW219815   5.921   6.354   0.592
 6306SOL     OW19816   6.806   4.012   4.344
 6306SOL    HW119817   6.772   3.930   4.297
 6306SOL    HW219818   6.887   4.046   4.296
 6307SOL     OW19819   3.576   3.904   3.727
 6307SOL    HW119820   3.669   3.940   3.735
 6307SOL    HW219821   3.555   3.848   3.807
 6308SOL     OW19822   1.706   2.612   4.507
 6308SOL    HW119823   1.698   2.573   4.416
 6308SOL    HW219824   1.679   2.709   4.505
 6309SOL     OW19825   0.028   6.594   4.459
 6309SOL    HW119826   0.095   6.668   4.449
 6309SOL    HW219827   6.956   6.632   4.461
 6310SOL     OW19828   1.420   6.411   2.690
 6310SOL    HW119829   1.513   6.394   2.657
 6310SOL    HW219830   1.415   6.503   2.729
 6311SOL     OW19831   4.404   1.714   5.723
 6311SOL    HW119832   4.487   1.677   5.765
 6311SOL    HW219833   4.325   1.666   5.760
 6312SOL     OW19834   0.358   0.069   4.713
 6312SOL    HW119835   0.273   0.116   4.689
 6312SOL    HW219836   0.418   0.133   4.762
 6313SOL     OW19837   6.492   5.899   3.804
 6313SOL    HW119838   6.516   5.817   3.855
 6313SOL    HW219839   6.576   5.943   3.771
 6314SOL     OW19840   3.635   6.478   1.751
 6314SOL    HW119841   3.653   6.542   1.825
 6314SOL    HW219842   3.539   6.448   1.755
 6315SOL     OW19843   3.079   2.114   5.950
 6315SOL    HW119844   3.033   2.200   5.926
 6315SOL    HW219845   3.019   2.058   6.006
 6316SOL     OW19846   5.094   2.091   5.712
 6316SOL    HW119847   5.086   2.017   5.645
 6316SOL    HW219848   5.029   2.075   5.787
 6317SOL     OW19849   4.911   4.532   1.590
 6317SOL    HW119850   4.986   4.562   1.649
 6317SOL    HW219851   4.943   4.528   1.495
 6318SOL     OW19852   4.260   6.814   6.153
 6318SOL    HW119853   4.232   6.773   6.240
 6318SOL    HW219854   4.219   6.905   6.145
 6319SOL     OW19855   6.369   2.089   5.373
 6319SOL    HW119856   6.331   2.175   5.338
 6319SOL    HW219857   6.460   2.074   5.334
 6320SOL     OW19858   6.825   6.688   4.777
 6320SOL    HW119859   6.920   6.666   4.800
 6320SOL    HW219860   6.810   6.786   4.791
 6321SOL     OW19861   4.337   3.204   0.506
 6321SOL    HW119862   4.432   3.227   0.486
 6321SOL    HW219863   4.290   3.285   0.542
 6322SOL     OW19864   2.360   2.384   0.938
 6322SOL    HW119865   2.295   2.312   0.961
 6322SOL    HW219866   2.311   2.471   0.929
 6323SOL     OW19867   0.957   2.478   2.018
 6323SOL    HW119868   1.012   2.467   2.101
 6323SOL    HW219869   0.873   2.528   2.040
 6324SOL     OW19870   3.888   1.238   0.813
 6324SOL    HW119871   3.899   1.148   0.771
 6324SOL    HW219872   3.889   1.308   0.742
 6325SOL     OW19873   2.043   3.196   2.880
 6325SOL    HW119874   1.968   3.176   2.816
 6325SOL    HW219875   2.112   3.251   2.833
 6326SOL     OW19876   5.301   5.208   0.218
 6326SOL    HW119877   5.329   5.244   0.307
 6326SOL    HW219878   5.375   5.223   0.152
 6327SOL     OW19879   6.949   1.771   4.653
 6327SOL    HW119880   6.905   1.719   4.727
 6327SOL    HW219881   6.888   1.775   4.574
 6328SOL     OW19882   4.494   3.563   0.189
 6328SOL    HW119883   4.535   3.495   0.250
 6328SOL    HW219884   4.519   3.543   0.095
 6329SOL     OW19885   1.394   3.011   4.088
 6329SOL    HW119886   1.436   2.990   4.177
 6329SOL    HW219887   1.317   2.950   4.073
 6330SOL     OW19888   5.934   6.751   1.805
 6330SOL    HW119889   5.835   6.759   1.813
 6330SOL    HW219890   5.978   6.789   1.886
 6331SOL     OW19891   6.775   3.499   5.118
 6331SOL    HW119892   6.847   3.550   5.070
 6331SOL    HW219893   6.773   3.527   5.214
 6332SOL     OW19894   0.534   2.464   1.571
 6332SOL    HW119895   0.504   2.416   1.654
 6332SOL    HW219896   0.634   2.469   1.570
 6333SOL     OW19897   4.833   0.338   5.568
 6333SOL    HW119898   4.735   0.354   5.577
 6333SOL    HW219899   4.856   0.317   5.473
 6334SOL     OW19900   3.612   1.270   2.646
 6334SOL    HW119901   3.569   1.350   2.688
 6334SOL    HW219902   3.685   1.301   2.584
 6335SOL     OW19903   3.739   0.053   0.600
 6335SOL    HW119904   3.725   0.151   0.611
 6335SOL    HW219905   3.671   0.003   0.653
 6336SOL     OW19906   0.898   1.944   6.590
 6336SOL    HW119907   0.949   1.889   6.657
 6336SOL    HW219908   0.959   1.975   6.518
 6337SOL     OW19909   4.053   5.172   5.008
 6337SOL    HW119910   4.065   5.210   5.099
 6337SOL    HW219911   4.143   5.162   4.964
 6338SOL     OW19912   2.980   2.261   4.029
 6338SOL    HW119913   3.011   2.352   4.001
 6338SOL    HW219914   2.938   2.266   4.119
 6339SOL     OW19915   1.029   3.365   3.897
 6339SOL    HW119916   0.930   3.369   3.904
 6339SOL    HW219917   1.057   3.373   3.801
 6340SOL     OW19918   2.101   4.846   1.141
 6340SOL    HW119919   2.072   4.940   1.156
 6340SOL    HW219920   2.052   4.808   1.062
 6341SOL     OW19921   6.761   3.229   4.666
 6341SOL    HW119922   6.685   3.264   4.611
 6341SOL    HW219923   6.735   3.229   4.762
 6342SOL     OW19924   2.732   1.564   1.145
 6342SOL    HW119925   2.751   1.473   1.108
 6342SOL    HW219926   2.644   1.597   1.110
 6343SOL     OW19927   4.324   0.871   6.416
 6343SOL    HW119928   4.301   0.775   6.399
 6343SOL    HW219929   4.314   0.891   6.514
 6344SOL     OW19930   5.158   2.546   4.219
 6344SOL    HW119931   5.149   2.455   4.259
 6344SOL    HW219932   5.115   2.613   4.280
 6345SOL     OW19933   5.327   2.805   2.064
 6345SOL    HW119934   5.341   2.772   1.970
 6345SOL    HW219935   5.248   2.866   2.066
 6346SOL     OW19936   6.335   5.403   4.326
 6346SOL    HW119937   6.283   5.318   4.329
 6346SOL    HW219938   6.292   5.466   4.261
 6347SOL     OW19939   2.085   1.284   0.260
 6347SOL    HW119940   2.029   1.216   0.307
 6347SOL    HW219941   2.044   1.374   0.271
 6348SOL     OW19942   1.632   2.324   6.841
 6348SOL    HW119943   1.540   2.342   6.806
 6348SOL    HW219944   1.630   2.327   6.941
 6349SOL     OW19945   1.559   0.889   0.993
 6349SOL    HW119946   1.477   0.832   0.987
 6349SOL    HW219947   1.558   0.940   1.079
 6350SOL     OW19948   0.362   5.108   4.113
 6350SOL    HW119949   0.444   5.051   4.118
 6350SOL    HW219950   0.306   5.094   4.195
 6351SOL     OW19951   6.044   3.594   3.715
 6351SOL    HW119952   5.972   3.524   3.716
 6351SOL    HW219953   6.134   3.549   3.719
 6352SOL     OW19954   2.983   6.819   4.880
 6352SOL    HW119955   3.011   6.907   4.919
 6352SOL    HW219956   3.018   6.744   4.936
 6353SOL     OW19957   0.946   6.230   5.599
 6353SOL    HW119958   0.981   6.161   5.537
 6353SOL    HW219959   0.960   6.200   5.694
 6354SOL     OW19960   3.699   5.425   3.174
 6354SOL    HW119961   3.742   5.506   3.214
 6354SOL    HW219962   3.723   5.344   3.227
 6355SOL     OW19963   2.365   5.489   6.729
 6355SOL    HW119964   2.308   5.460   6.806
 6355SOL    HW219965   2.428   5.560   6.759
 6356SOL     OW19966   4.951   5.079   0.924
 6356SOL    HW119967   4.938   5.170   0.885
 6356SOL    HW219968   4.939   5.082   1.023
 6357SOL     OW19969   6.097   3.441   2.987
 6357SOL    HW119970   6.019   3.461   2.928
 6357SOL    HW219971   6.110   3.517   3.051
 6358SOL     OW19972   0.629   1.646   5.941
 6358SOL    HW119973   0.554   1.583   5.963
 6358SOL    HW219974   0.670   1.680   6.025
 6359SOL     OW19975   6.190   0.038   0.239
 6359SOL    HW119976   6.215   7.014   0.326
 6359SOL    HW219977   6.250   0.004   0.167
 6360SOL     OW19978   1.278   3.716   5.037
 6360SOL    HW119979   1.212   3.681   5.104
 6360SOL    HW219980   1.255   3.811   5.014
 6361SOL     OW19981   1.161   0.551   0.878
 6361SOL    HW119982   1.233   0.553   0.809
 6361SOL    HW219983   1.193   0.500   0.958
 6362SOL     OW19984   0.477   5.476   6.151
 6362SOL    HW119985   0.470   5.574   6.167
 6362SOL    HW219986   0.531   5.434   6.224
 6363SOL     OW19987   2.430   5.987   3.497
 6363SOL    HW119988   2.418   5.994   3.398
 6363SOL    HW219989   2.437   6.078   3.537
 6364SOL     OW19990   2.814   1.924   5.527
 6364SOL    HW119991   2.885   1.933   5.457
 6364SOL    HW219992   2.754   2.004   5.523
 6365SOL     OW19993   5.097   6.622   4.047
 6365SOL    HW119994   5.101   6.677   3.964
 6365SOL    HW219995   5.085   6.526   4.024
 6366SOL     OW19996   1.175   5.438   5.034
 6366SOL    HW119997   1.188   5.536   5.049
 6366SOL    HW219998   1.098   5.406   5.090
 6367SOL     OW19999   4.222   1.449   3.893
 6367SOL    HW120000   4.229   1.547   3.872
 6367SOL    HW220001   4.193   1.438   3.988
 6368SOL     OW20002   3.730   4.871   3.876
 6368SOL    HW120003   3.801   4.908   3.815
 6368SOL    HW220004   3.765   4.867   3.969
 6369SOL     OW20005   1.973   0.454   5.013
 6369SOL    HW120006   1.922   0.436   5.097
 6369SOL    HW220007   1.925   0.414   4.935
 6370SOL     OW20008   5.370   3.451   3.857
 6370SOL    HW120009   5.465   3.452   3.826
 6370SOL    HW220010   5.312   3.490   3.786
 6371SOL     OW20011   5.543   4.728   3.288
 6371SOL    HW120012   5.518   4.786   3.210
 6371SOL    HW220013   5.589   4.784   3.357
 6372SOL     OW20014   1.188   1.673   2.000
 6372SOL    HW120015   1.097   1.661   2.039
 6372SOL    HW220016   1.190   1.756   1.945
 6373SOL     OW20017   5.147   4.332   2.834
 6373SOL    HW120018   5.101   4.370   2.914
 6373SOL    HW220019   5.112   4.240   2.816
 6374SOL     OW20020   4.047   3.218   1.568
 6374SOL    HW120021   4.129   3.169   1.537
 6374SOL    HW220022   4.025   3.291   1.504
 6375SOL     OW20023   6.938   2.117   2.335
 6375SOL    HW120024   6.997   2.042   2.305
 6375SOL    HW220025   6.879   2.085   2.409
 6376SOL     OW20026   4.913   2.295   6.478
 6376SOL    HW120027   4.847   2.221   6.497
 6376SOL    HW220028   4.865   2.371   6.435
 6377SOL     OW20029   6.596   1.334   5.428
 6377SOL    HW120030   6.545   1.250   5.449
 6377SOL    HW220031   6.682   1.310   5.382
 6378SOL     OW20032   4.362   4.567   3.757
 6378SOL    HW120033   4.453   4.557   3.719
 6378SOL    HW220034   4.308   4.484   3.737
 6379SOL     OW20035   0.509   4.030   5.160
 6379SOL    HW120036   0.578   3.959   5.167
 6379SOL    HW220037   0.541   4.112   5.208
 6380SOL     OW20038   6.873   1.587   5.083
 6380SOL    HW120039   6.828   1.661   5.133
 6380SOL    HW220040   6.967   1.613   5.062
 6381SOL     OW20041   4.284   2.635   1.291
 6381SOL    HW120042   4.324   2.703   1.351
 6381SOL    HW220043   4.207   2.676   1.241
 6382SOL     OW20044   3.443   1.785   0.490
 6382SOL    HW120045   3.376   1.766   0.561
 6382SOL    HW220046   3.502   1.861   0.519
 6383SOL     OW20047   2.575   2.445   3.083
 6383SOL    HW120048   2.505   2.421   3.017
 6383SOL    HW220049   2.570   2.543   3.103
 6384SOL     OW20050   6.347   4.044   3.353
 6384SOL    HW120051   6.371   4.140   3.336
 6384SOL    HW220052   6.431   3.989   3.352
 6385SOL     OW20053   0.026   3.341   3.826
 6385SOL    HW120054   6.948   3.331   3.843
 6385SOL    HW220055   0.054   3.276   3.755
 6386SOL     OW20056   3.019   3.203   6.534
 6386SOL    HW120057   2.988   3.108   6.525
 6386SOL    HW220058   3.092   3.208   6.603
 6387SOL     OW20059   0.080   1.584   6.958
 6387SOL    HW120060   0.154   1.650   6.946
 6387SOL    HW220061   7.014   1.624   6.925
 6388SOL     OW20062   4.733   6.369   1.592
 6388SOL    HW120063   4.754   6.436   1.663
 6388SOL    HW220064   4.719   6.279   1.634
 6389SOL     OW20065   0.779   6.476   0.522
 6389SOL    HW120066   0.849   6.490   0.453
 6389SOL    HW220067   0.699   6.533   0.501
 6390SOL     OW20068   6.870   0.408   5.478
 6390SOL    HW120069   6.792   0.435   5.535
 6390SOL    HW220070   6.940   0.479   5.481
 6391SOL     OW20071   1.402   0.740   6.160
 6391SOL    HW120072   1.397   0.645   6.190
 6391SOL    HW220073   1.446   0.796   6.230
 6392SOL     OW20074   2.719   5.114   2.759
 6392SOL    HW120075   2.683   5.027   2.794
 6392SOL    HW220076   2.702   5.186   2.826
 6393SOL     OW20077   0.352   6.089   2.280
 6393SOL    HW120078   0.431   6.102   2.339
 6393SOL    HW220079   0.378   6.103   2.184
 6394SOL     OW20080   1.740   5.833   0.564
 6394SOL    HW120081   1.768   5.873   0.652
 6394SOL    HW220082   1.645   5.801   0.571
 6395SOL     OW20083   0.246   2.846   1.641
 6395SOL    HW120084   0.154   2.808   1.637
 6395SOL    HW220085   0.305   2.786   1.694
 6396SOL     OW20086   6.258   2.943   6.648
 6396SOL    HW120087   6.332   3.002   6.616
 6396SOL    HW220088   6.263   2.932   6.747
 6397SOL     OW20089   5.729   0.906   1.560
 6397SOL    HW120090   5.661   0.900   1.634
 6397SOL    HW220091   5.692   0.962   1.485
 6398SOL     OW20092   2.953   6.893   2.095
 6398SOL    HW120093   2.880   6.906   2.161
 6398SOL    HW220094   2.996   6.804   2.109
 6399SOL     OW20095   1.877   0.487   6.559
 6399SOL    HW120096   1.866   0.444   6.649
 6399SOL    HW220097   1.788   0.499   6.516
 6400SOL     OW20098   2.147   4.925   2.475
 6400SOL    HW120099   2.058   4.970   2.487
 6400SOL    HW220100   2.219   4.983   2.512
 6401SOL     OW20101   5.652   6.013   3.017
 6401SOL    HW120102   5.623   5.980   3.107
 6401SOL    HW220103   5.697   5.940   2.967
 6402SOL     OW20104   2.137   3.305   3.718
 6402SOL    HW120105   2.119   3.374   3.788
 6402SOL    HW220106   2.132   3.347   3.628
 6403SOL     OW20107   5.914   5.660   5.796
 6403SOL    HW120108   5.964   5.632   5.714
 6403SOL    HW220109   5.857   5.739   5.775
 6404SOL     OW20110   4.065   1.610   2.764
 6404SOL    HW120111   4.137   1.630   2.697
 6404SOL    HW220112   3.978   1.596   2.717
 6405SOL     OW20113   3.980   1.085   3.966
 6405SOL    HW120114   3.922   1.006   3.988
 6405SOL    HW220115   3.965   1.110   3.870
 6406SOL     OW20116   0.533   2.707   2.897
 6406SOL    HW120117   0.595   2.781   2.869
 6406SOL    HW220118   0.451   2.709   2.840
 6407SOL     OW20119   2.490   6.965   4.305
 6407SOL    HW120120   2.581   6.924   4.295
 6407SOL    HW220121   2.470   0.000   4.224
 6408SOL     OW20122   5.423   1.012   0.679
 6408SOL    HW120123   5.502   1.073   0.668
 6408SOL    HW220124   5.402   1.003   0.777
 6409SOL     OW20125   6.354   4.519   4.405
 6409SOL    HW120126   6.448   4.513   4.369
 6409SOL    HW220127   6.352   4.580   4.484
 6410SOL     OW20128   2.018   1.550   6.075
 6410SOL    HW120129   1.967   1.465   6.082
 6410SOL    HW220130   2.002   1.591   5.986
 6411SOL     OW20131   0.540   3.109   2.971
 6411SOL    HW120132   0.497   3.102   3.061
 6411SOL    HW220133   0.470   3.130   2.903
 6412SOL     OW20134   1.798   1.191   5.396
 6412SOL    HW120135   1.710   1.220   5.359
 6412SOL    HW220136   1.795   1.197   5.496
 6413SOL     OW20137   3.864   5.012   3.698
 6413SOL    HW120138   3.813   4.991   3.615
 6413SOL    HW220139   3.855   5.109   3.720
 6414SOL     OW20140   5.244   0.899   0.128
 6414SOL    HW120141   5.225   0.997   0.137
 6414SOL    HW220142   5.175   0.847   0.178
 6415SOL     OW20143   1.365   3.408   3.722
 6415SOL    HW120144   1.382   3.505   3.743
 6415SOL    HW220145   1.276   3.399   3.677
 6416SOL     OW20146   1.955   0.115   6.566
 6416SOL    HW120147   1.875   0.137   6.509
 6416SOL    HW220148   2.001   0.035   6.529
 6417SOL     OW20149   5.704   4.617   0.227
 6417SOL    HW120150   5.719   4.570   0.141
 6417SOL    HW220151   5.735   4.560   0.303
 6418SOL     OW20152   4.789   3.935   2.752
 6418SOL    HW120153   4.689   3.931   2.755
 6418SOL    HW220154   4.819   4.029   2.770
 6419SOL     OW20155   1.072   5.194   2.974
 6419SOL    HW120156   1.132   5.274   2.964
 6419SOL    HW220157   1.120   5.122   3.022
 6420SOL     OW20158   2.421   0.095   4.070
 6420SOL    HW120159   2.457   0.062   3.982
 6420SOL    HW220160   2.324   0.074   4.076
 6421SOL     OW20161   4.802   0.665   1.794
 6421SOL    HW120162   4.839   0.687   1.703
 6421SOL    HW220163   4.849   0.720   1.863
 6422SOL     OW20164   6.599   0.510   5.066
 6422SOL    HW120165   6.676   0.495   5.128
 6422SOL    HW220166   6.633   0.520   4.972
 6423SOL     OW20167   4.872   5.513   3.676
 6423SOL    HW120168   4.968   5.487   3.672
 6423SOL    HW220169   4.843   5.548   3.586
 6424SOL     OW20170   0.372   4.240   4.783
 6424SOL    HW120171   0.329   4.174   4.721
 6424SOL    HW220172   0.303   4.302   4.820
 6425SOL     OW20173   6.545   6.207   2.861
 6425SOL    HW120174   6.639   6.178   2.879
 6425SOL    HW220175   6.524   6.194   2.764
 6426SOL     OW20176   0.629   5.291   2.911
 6426SOL    HW120177   0.593   5.258   2.998
 6426SOL    HW220178   0.680   5.375   2.925
 6427SOL     OW20179   3.863   3.955   3.769
 6427SOL    HW120180   3.871   4.048   3.805
 6427SOL    HW220181   3.910   3.891   3.831
 6428SOL     OW20182   5.807   3.497   6.829
 6428SOL    HW120183   5.892   3.448   6.806
 6428SOL    HW220184   5.793   3.496   6.928
 6429SOL     OW20185   0.132   1.160   6.033
 6429SOL    HW120186   0.074   1.223   6.085
 6429SOL    HW220187   0.192   1.213   5.971
 6430SOL     OW20188   6.264   1.055   3.970
 6430SOL    HW120189   6.250   1.014   3.879
 6430SOL    HW220190   6.315   0.991   4.028
 6431SOL     OW20191   3.698   6.147   3.856
 6431SOL    HW120192   3.765   6.084   3.817
 6431SOL    HW220193   3.745   6.213   3.915
 6432SOL     OW20194   4.570   4.642   5.765
 6432SOL    HW120195   4.581   4.548   5.799
 6432SOL    HW220196   4.475   4.671   5.779
 6433SOL     OW20197   1.853   5.158   5.856
 6433SOL    HW120198   1.906   5.074   5.866
 6433SOL    HW220199   1.770   5.138   5.802
 6434SOL     OW20200   2.896   6.533   6.155
 6434SOL    HW120201   2.825   6.540   6.225
 6434SOL    HW220202   2.905   6.620   6.107
 6435SOL     OW20203   5.623   6.950   0.396
 6435SOL    HW120204   5.694   6.896   0.439
 6435SOL    HW220205   5.570   6.893   0.333
 6436SOL     OW20206   1.418   3.176   2.271
 6436SOL    HW120207   1.438   3.269   2.302
 6436SOL    HW220208   1.419   3.114   2.349
 6437SOL     OW20209   1.613   2.386   0.090
 6437SOL    HW120210   1.645   2.472   0.129
 6437SOL    HW220211   1.593   2.321   0.163
 6438SOL     OW20212   0.233   4.331   5.444
 6438SOL    HW120213   0.215   4.422   5.408
 6438SOL    HW220214   0.223   4.263   5.371
 6439SOL     OW20215   5.346   1.065   2.260
 6439SOL    HW120216   5.350   1.045   2.358
 6439SOL    HW220217   5.428   1.117   2.234
 6440SOL     OW20218   2.386   1.426   5.862
 6440SOL    HW120219   2.485   1.441   5.861
 6440SOL    HW220220   2.343   1.491   5.924
 6441SOL     OW20221   0.633   0.605   1.464
 6441SOL    HW120222   0.717   0.586   1.414
 6441SOL    HW220223   0.556   0.609   1.401
 6442SOL     OW20224   2.380   1.815   4.899
 6442SOL    HW120225   2.321   1.876   4.846
 6442SOL    HW220226   2.451   1.777   4.839
 6443SOL     OW20227   3.494   2.732   5.658
 6443SOL    HW120228   3.568   2.789   5.694
 6443SOL    HW220229   3.523   2.690   5.572
 6444SOL     OW20230   5.256   3.076   5.041
 6444SOL    HW120231   5.200   3.023   5.106
 6444SOL    HW220232   5.196   3.129   4.982
 6445SOL     OW20233   4.114   3.784   4.173
 6445SOL    HW120234   4.106   3.730   4.257
 6445SOL    HW220235   4.163   3.869   4.193
 6446SOL     OW20236   1.068   1.448   0.062
 6446SOL    HW120237   1.067   1.348   0.069
 6446SOL    HW220238   0.994   1.485   0.118
 6447SOL     OW20239   6.460   4.776   2.632
 6447SOL    HW120240   6.546   4.813   2.666
 6447SOL    HW220241   6.478   4.714   2.555
 6448SOL     OW20242   4.936   5.367   1.417
 6448SOL    HW120243   4.971   5.336   1.505
 6448SOL    HW220244   4.851   5.417   1.430
 6449SOL     OW20245   3.899   6.087   1.311
 6449SOL    HW120246   3.869   6.089   1.407
 6449SOL    HW220247   3.836   6.029   1.259
 6450SOL     OW20248   1.642   2.502   0.734
 6450SOL    HW120249   1.670   2.407   0.749
 6450SOL    HW220250   1.714   2.551   0.684
 6451SOL     OW20251   2.493   0.436   5.914
 6451SOL    HW120252   2.512   0.343   5.883
 6451SOL    HW220253   2.549   0.500   5.863
 6452SOL     OW20254   4.551   4.431   2.735
 6452SOL    HW120255   4.634   4.381   2.710
 6452SOL    HW220256   4.503   4.461   2.653
 6453SOL     OW20257   2.006   6.953   1.793
 6453SOL    HW120258   1.912   6.920   1.804
 6453SOL    HW220259   2.005   0.029   1.768
 6454SOL     OW20260   0.679   1.605   3.385
 6454SOL    HW120261   0.622   1.615   3.468
 6454SOL    HW220262   0.689   1.507   3.364
 6455SOL     OW20263   0.253   3.265   4.191
 6455SOL    HW120264   0.319   3.322   4.240
 6455SOL    HW220265   0.183   3.323   4.149
 6456SOL     OW20266   1.562   1.353   3.193
 6456SOL    HW120267   1.504   1.407   3.254
 6456SOL    HW220268   1.539   1.374   3.098
 6457SOL     OW20269   4.923   0.758   1.540
 6457SOL    HW120270   4.837   0.807   1.526
 6457SOL    HW220271   4.975   0.758   1.454
 6458SOL     OW20272   0.779   5.498   4.153
 6458SOL    HW120273   0.697   5.540   4.114
 6458SOL    HW220274   0.794   5.532   4.246
 6459SOL     OW20275   6.226   3.165   1.675
 6459SOL    HW120276   6.208   3.147   1.578
 6459SOL    HW220277   6.246   3.263   1.687
 6460SOL     OW20278   5.959   5.844   6.469
 6460SOL    HW120279   6.038   5.888   6.427
 6460SOL    HW220280   5.950   5.873   6.564
 6461SOL     OW20281   2.493   4.479   0.235
 6461SOL    HW120282   2.433   4.550   0.272
 6461SOL    HW220283   2.438   4.406   0.194
 6462SOL     OW20284   2.058   2.885   4.724
 6462SOL    HW120285   2.091   2.979   4.737
 6462SOL    HW220286   2.135   2.825   4.702
 6463SOL     OW20287   5.589   1.440   0.644
 6463SOL    HW120288   5.582   1.532   0.606
 6463SOL    HW220289   5.656   1.440   0.718
 6464SOL     OW20290   1.533   5.162   5.242
 6464SOL    HW120291   1.448   5.158   5.189
 6464SOL    HW220292   1.603   5.107   5.196
 6465SOL     OW20293   6.670   2.955   2.481
 6465SOL    HW120294   6.699   2.908   2.565
 6465SOL    HW220295   6.737   2.937   2.409
 6466SOL     OW20296   6.356   1.524   6.003
 6466SOL    HW120297   6.421   1.536   5.928
 6466SOL    HW220298   6.355   1.427   6.030
 6467SOL     OW20299   3.929   0.145   0.424
 6467SOL    HW120300   3.859   0.098   0.478
 6467SOL    HW220301   3.891   0.229   0.385
 6468SOL     OW20302   2.959   5.952   1.322
 6468SOL    HW120303   2.986   6.034   1.272
 6468SOL    HW220304   2.941   5.975   1.418
 6469SOL     OW20305   4.098   2.269   3.791
 6469SOL    HW120306   4.178   2.328   3.777
 6469SOL    HW220307   4.085   2.252   3.889
 6470SOL     OW20308   5.638   2.849   1.056
 6470SOL    HW120309   5.638   2.809   1.148
 6470SOL    HW220310   5.571   2.802   0.999
 6471SOL     OW20311   0.306   6.413   5.822
 6471SOL    HW120312   0.289   6.500   5.868
 6471SOL    HW220313   0.231   6.395   5.757
 6472SOL     OW20314   7.004   5.995   1.651
 6472SOL    HW120315   0.012   6.080   1.696
 6472SOL    HW220316   6.930   5.953   1.703
 6473SOL     OW20317   3.024   1.756   4.710
 6473SOL    HW120318   3.105   1.767   4.768
 6473SOL    HW220319   3.018   1.661   4.679
 6474SOL     OW20320   3.579   5.486   5.936
 6474SOL    HW120321   3.658   5.547   5.941
 6474SOL    HW220322   3.500   5.531   5.977
 6475SOL     OW20323   6.144   4.811   3.738
 6475SOL    HW120324   6.103   4.757   3.811
 6475SOL    HW220325   6.152   4.907   3.767
 6476SOL     OW20326   5.051   3.266   0.779
 6476SOL    HW120327   5.044   3.231   0.873
 6476SOL    HW220328   5.065   3.190   0.717
 6477SOL     OW20329   6.457   4.804   0.307
 6477SOL    HW120330   6.540   4.827   0.359
 6477SOL    HW220331   6.376   4.827   0.361
 6478SOL     OW20332   3.615   6.918   2.116
 6478SOL    HW120333   3.619   6.957   2.024
 6478SOL    HW220334   3.579   6.825   2.111
 6479SOL     OW20335   4.216   5.793   4.041
 6479SOL    HW120336   4.279   5.735   4.091
 6479SOL    HW220337   4.261   5.881   4.021
 6480SOL     OW20338   2.644   1.264   6.972
 6480SOL    HW120339   2.609   1.334   6.910
 6480SOL    HW220340   2.575   1.245   0.023
 6481SOL     OW20341   3.238   1.958   2.188
 6481SOL    HW120342   3.244   1.888   2.258
 6481SOL    HW220343   3.189   2.038   2.224
 6482SOL     OW20344   6.397   1.994   5.694
 6482SOL    HW120345   6.302   1.995   5.661
 6482SOL    HW220346   6.428   2.087   5.709
 6483SOL     OW20347   0.394   0.192   3.187
 6483SOL    HW120348   0.459   0.175   3.261
 6483SOL    HW220349   0.375   0.106   3.140
 6484SOL     OW20350   3.449   0.188   1.578
 6484SOL    HW120351   3.430   0.093   1.601
 6484SOL    HW220352   3.377   0.246   1.618
 6485SOL     OW20353   1.824   5.228   3.840
 6485SOL    HW120354   1.921   5.215   3.860
 6485SOL    HW220355   1.813   5.305   3.777
 6486SOL     OW20356   0.559   4.392   2.477
 6486SOL    HW120357   0.479   4.351   2.433
 6486SOL    HW220358   0.529   4.454   2.549
 6487SOL     OW20359   0.830   6.601   5.101
 6487SOL    HW120360   0.794   6.621   5.192
 6487SOL    HW220361   0.884   6.679   5.069
 6488SOL     OW20362   4.157   6.484   4.720
 6488SOL    HW120363   4.255   6.484   4.740
 6488SOL    HW220364   4.126   6.389   4.706
 6489SOL     OW20365   3.108   3.629   5.864
 6489SOL    HW120366   3.019   3.666   5.839
 6489SOL    HW220367   3.118   3.536   5.829
 6490SOL     OW20368   3.971   1.037   6.589
 6490SOL    HW120369   3.979   1.024   6.491
 6490SOL    HW220370   3.891   1.093   6.609
 6491SOL     OW20371   3.579   0.782   1.198
 6491SOL    HW120372   3.579   0.809   1.101
 6491SOL    HW220373   3.487   0.753   1.224
 6492SOL     OW20374   4.016   4.434   5.692
 6492SOL    HW120375   3.981   4.402   5.780
 6492SOL    HW220376   4.001   4.532   5.684
 6493SOL     OW20377   1.717   4.287   6.252
 6493SOL    HW120378   1.781   4.228   6.202
 6493SOL    HW220379   1.701   4.248   6.343
 6494SOL     OW20380   6.697   0.549   3.301
 6494SOL    HW120381   6.668   0.534   3.207
 6494SOL    HW220382   6.704   0.648   3.319
 6495SOL     OW20383   6.718   0.563   4.809
 6495SOL    HW120384   6.711   0.494   4.737
 6495SOL    HW220385   6.701   0.654   4.771
 6496SOL     OW20386   5.839   0.743   3.014
 6496SOL    HW120387   5.888   0.754   2.928
 6496SOL    HW220388   5.789   0.827   3.035
 6497SOL     OW20389   1.064   0.969   1.559
 6497SOL    HW120390   1.058   0.899   1.487
 6497SOL    HW220391   1.000   1.043   1.539
 6498SOL     OW20392   1.563   3.001   4.395
 6498SOL    HW120393   1.576   2.938   4.471
 6498SOL    HW220394   1.650   3.015   4.347
 6499SOL     OW20395   5.429   4.091   5.163
 6499SOL    HW120396   5.360   4.128   5.101
 6499SOL    HW220397   5.388   4.018   5.218
 6500SOL     OW20398   6.659   3.803   4.605
 6500SOL    HW120399   6.624   3.886   4.648
 6500SOL    HW220400   6.603   3.780   4.525
 6501SOL     OW20401   6.622   1.178   6.582
 6501SOL    HW120402   6.609   1.189   6.681
 6501SOL    HW220403   6.679   1.097   6.565
 6502SOL     OW20404   6.861   3.557   2.467
 6502SOL    HW120405   6.956   3.575   2.489
 6502SOL    HW220406   6.801   3.610   2.527
 6503SOL     OW20407   5.409   1.115   3.706
 6503SOL    HW120408   5.368   1.077   3.789
 6503SOL    HW220409   5.372   1.207   3.691
 6504SOL     OW20410   4.095   6.478   5.220
 6504SOL    HW120411   4.030   6.448   5.150
 6504SOL    HW220412   4.045   6.500   5.304
 6505SOL     OW20413   5.281   5.958   6.578
 6505SOL    HW120414   5.328   6.044   6.559
 6505SOL    HW220415   5.347   5.883   6.575
 6506SOL     OW20416   6.795   2.633   2.783
 6506SOL    HW120417   6.742   2.557   2.821
 6506SOL    HW220418   6.821   2.611   2.688
 6507SOL     OW20419   1.982   5.574   6.215
 6507SOL    HW120420   2.048   5.531   6.277
 6507SOL    HW220421   1.889   5.549   6.242
 6508SOL     OW20422   1.639   1.084   2.803
 6508SOL    HW120423   1.702   1.147   2.758
 6508SOL    HW220424   1.689   1.026   2.867
 6509SOL     OW20425   4.198   1.950   4.868
 6509SOL    HW120426   4.189   2.032   4.811
 6509SOL    HW220427   4.125   1.949   4.936
 6510SOL     OW20428   6.542   5.115   0.091
 6510SOL    HW120429   6.544   5.086   0.186
 6510SOL    HW220430   6.558   5.037   0.031
 6511SOL     OW20431   3.926   0.742   4.722
 6511SOL    HW120432   4.024   0.760   4.724
 6511SOL    HW220433   3.895   0.734   4.627
 6512SOL     OW20434   3.691   6.322   2.079
 6512SOL    HW120435   3.690   6.232   2.037
 6512SOL    HW220436   3.598   6.360   2.079
 6513SOL     OW20437   2.654   5.235   2.997
 6513SOL    HW120438   2.630   5.182   3.078
 6513SOL    HW220439   2.736   5.290   3.015
 6514SOL     OW20440   6.150   1.225   4.161
 6514SOL    HW120441   6.068   1.179   4.195
 6514SOL    HW220442   6.190   1.171   4.086
 6515SOL     OW20443   0.564   4.420   3.757
 6515SOL    HW120444   0.609   4.508   3.750
 6515SOL    HW220445   0.632   4.347   3.748
 6516SOL     OW20446   0.525   3.596   1.872
 6516SOL    HW120447   0.488   3.515   1.918
 6516SOL    HW220448   0.596   3.638   1.929
 6517SOL     OW20449   0.303   1.322   1.933
 6517SOL    HW120450   0.269   1.340   2.025
 6517SOL    HW220451   0.232   1.278   1.879
 6518SOL     OW20452   6.958   0.045   0.644
 6518SOL    HW120453   0.033   0.052   0.676
 6518SOL    HW220454   6.914   6.986   0.686
 6519SOL     OW20455   0.788   2.045   2.703
 6519SOL    HW120456   0.825   1.953   2.709
 6519SOL    HW220457   0.861   2.109   2.678
 6520SOL     OW20458   6.723   5.305   0.917
 6520SOL    HW120459   6.805   5.282   0.969
 6520SOL    HW220460   6.731   5.267   0.824
 6521SOL     OW20461   1.946   2.718   3.948
 6521SOL    HW120462   1.954   2.704   4.047
 6521SOL    HW220463   1.887   2.647   3.909
 6522SOL     OW20464   2.971   4.753   5.561
 6522SOL    HW120465   2.988   4.683   5.631
 6522SOL    HW220466   3.015   4.838   5.587
 6523SOL     OW20467   3.244   1.023   6.960
 6523SOL    HW120468   3.231   1.113   6.919
 6523SOL    HW220469   3.254   0.954   6.888
 6524SOL     OW20470   2.658   3.522   1.482
 6524SOL    HW120471   2.562   3.499   1.469
 6524SOL    HW220472   2.713   3.480   1.410
 6525SOL     OW20473   2.241   5.118   3.129
 6525SOL    HW120474   2.325   5.150   3.172
 6525SOL    HW220475   2.167   5.115   3.196
 6526SOL     OW20476   2.513   0.682   1.034
 6526SOL    HW120477   2.413   0.682   1.043
 6526SOL    HW220478   2.555   0.708   1.121
 6527SOL     OW20479   6.967   1.593   5.815
 6527SOL    HW120480   6.950   1.578   5.718
 6527SOL    HW220481   0.032   1.646   5.827
 6528SOL     OW20482   5.367   1.302   5.169
 6528SOL    HW120483   5.452   1.262   5.202
 6528SOL    HW220484   5.293   1.234   5.177
 6529SOL     OW20485   2.201   0.740   2.586
 6529SOL    HW120486   2.104   0.750   2.564
 6529SOL    HW220487   2.254   0.805   2.532
 6530SOL     OW20488   0.019   1.949   0.608
 6530SOL    HW120489   0.009   2.035   0.658
 6530SOL    HW220490   0.099   1.900   0.641
 6531SOL     OW20491   4.916   3.373   5.067
 6531SOL    HW120492   4.892   3.469   5.080
 6531SOL    HW220493   4.856   3.316   5.122
 6532SOL     OW20494   0.530   0.966   1.380
 6532SOL    HW120495   0.512   0.989   1.475
 6532SOL    HW220496   0.451   0.991   1.324
 6533SOL     OW20497   4.757   6.966   0.942
 6533SOL    HW120498   4.682   7.008   0.890
 6533SOL    HW220499   4.807   6.903   0.883
 6534SOL     OW20500   5.111   4.196   1.435
 6534SOL    HW120501   5.187   4.194   1.500
 6534SOL    HW220502   5.030   4.157   1.478
 6535SOL     OW20503   6.263   4.392   3.972
 6535SOL    HW120504   6.290   4.488   3.964
 6535SOL    HW220505   6.275   4.347   3.884
 6536SOL     OW20506   0.400   1.468   5.452
 6536SOL    HW120507   0.372   1.466   5.548
 6536SOL    HW220508   0.325   1.503   5.396
 6537SOL     OW20509   6.878   5.046   0.037
 6537SOL    HW120510   6.836   5.094   0.114
 6537SOL    HW220511   6.962   5.093   0.010
 6538SOL     OW20512   2.343   3.651   6.247
 6538SOL    HW120513   2.351   3.552   6.254
 6538SOL    HW220514   2.397   3.683   6.168
 6539SOL     OW20515   5.287   0.992   6.870
 6539SOL    HW120516   5.195   1.019   6.843
 6539SOL    HW220517   5.283   0.944   6.958
 6540SOL     OW20518   4.197   2.002   6.421
 6540SOL    HW120519   4.282   2.048   6.394
 6540SOL    HW220520   4.210   1.903   6.418
 6541SOL     OW20521   4.951   1.678   5.237
 6541SOL    HW120522   4.857   1.647   5.251
 6541SOL    HW220523   4.999   1.615   5.176
 6542SOL     OW20524   6.730   3.129   4.147
 6542SOL    HW120525   6.755   3.033   4.139
 6542SOL    HW220526   6.637   3.136   4.185
 6543SOL     OW20527   4.470   3.092   5.419
 6543SOL    HW120528   4.449   3.184   5.452
 6543SOL    HW220529   4.390   3.053   5.375
 6544SOL     OW20530   1.210   6.637   3.053
 6544SOL    HW120531   1.197   6.656   3.150
 6544SOL    HW220532   1.272   6.705   3.014
 6545SOL     OW20533   4.439   0.449   0.981
 6545SOL    HW120534   4.434   0.365   1.034
 6545SOL    HW220535   4.496   0.516   1.030
 6546SOL     OW20536   2.765   4.432   0.144
 6546SOL    HW120537   2.666   4.420   0.157
 6546SOL    HW220538   2.810   4.342   0.147
 6547SOL     OW20539   4.693   0.899   6.330
 6547SOL    HW120540   4.613   0.951   6.299
 6547SOL    HW220541   4.701   0.907   6.430
 6548SOL     OW20542   0.392   4.148   0.711
 6548SOL    HW120543   0.457   4.094   0.658
 6548SOL    HW220544   0.308   4.094   0.725
 6549SOL     OW20545   4.257   0.487   1.868
 6549SOL    HW120546   4.166   0.523   1.845
 6549SOL    HW220547   4.280   0.510   1.962
 6550SOL     OW20548   6.898   6.889   3.427
 6550SOL    HW120549   6.980   6.924   3.383
 6550SOL    HW220550   6.889   6.928   3.519
 6551SOL     OW20551   1.599   4.184   1.560
 6551SOL    HW120552   1.594   4.224   1.469
 6551SOL    HW220553   1.577   4.254   1.628
 6552SOL     OW20554   1.581   0.128   0.323
 6552SOL    HW120555   1.604   0.164   0.414
 6552SOL    HW220556   1.645   0.163   0.256
 6553SOL     OW20557   0.036   2.462   3.323
 6553SOL    HW120558   6.974   2.428   3.368
 6553SOL    HW220559   0.115   2.408   3.351
 6554SOL     OW20560   0.832   0.552   4.363
 6554SOL    HW120561   0.894   0.625   4.392
 6554SOL    HW220562   0.886   0.476   4.326
 6555SOL     OW20563   5.623   1.442   3.211
 6555SOL    HW120564   5.598   1.484   3.298
 6555SOL    HW220565   5.588   1.349   3.208
 6556SOL     OW20566   5.107   4.412   3.684
 6556SOL    HW120567   5.192   4.408   3.632
 6556SOL    HW220568   5.055   4.328   3.671
 6557SOL     OW20569   3.140   0.217   2.498
 6557SOL    HW120570   3.237   0.234   2.479
 6557SOL    HW220571   3.129   0.125   2.535
 6558SOL     OW20572   0.339   5.154   0.530
 6558SOL    HW120573   0.266   5.124   0.468
 6558SOL    HW220574   0.399   5.077   0.551
 6559SOL     OW20575   1.163   4.339   0.146
 6559SOL    HW120576   1.227   4.301   0.212
 6559SOL    HW220577   1.177   4.295   0.057
 6560SOL     OW20578   4.721   4.916   1.400
 6560SOL    HW120579   4.820   4.914   1.408
 6560SOL    HW220580   4.688   4.830   1.362
 6561SOL     OW20581   3.280   4.096   1.679
 6561SOL    HW120582   3.200   4.086   1.739
 6561SOL    HW220583   3.315   4.006   1.656
 6562SOL     OW20584   6.407   2.906   0.586
 6562SOL    HW120585   6.417   3.005   0.586
 6562SOL    HW220586   6.453   2.868   0.507
 6563SOL     OW20587   4.993   5.937   6.585
 6563SOL    HW120588   5.086   5.957   6.553
 6563SOL    HW220589   4.934   5.916   6.507
 6564SOL     OW20590   6.998   3.903   2.978
 6564SOL    HW120591   7.010   3.923   2.881
 6564SOL    HW220592   0.042   3.831   3.005
 6565SOL     OW20593   5.604   1.973   2.731
 6565SOL    HW120594   5.570   2.010   2.817
 6565SOL    HW220595   5.700   1.946   2.742
 6566SOL     OW20596   4.281   6.175   2.017
 6566SOL    HW120597   4.184   6.178   1.994
 6566SOL    HW220598   4.294   6.123   2.102
 6567SOL     OW20599   4.917   0.844   2.748
 6567SOL    HW120600   4.945   0.876   2.657
 6567SOL    HW220601   4.945   0.749   2.760
 6568SOL     OW20602   3.297   1.318   3.749
 6568SOL    HW120603   3.308   1.271   3.662
 6568SOL    HW220604   3.353   1.274   3.819
 6569SOL     OW20605   2.475   3.505   0.549
 6569SOL    HW120606   2.505   3.437   0.482
 6569SOL    HW220607   2.384   3.481   0.583
 6570SOL     OW20608   3.900   0.848   2.615
 6570SOL    HW120609   3.817   0.901   2.633
 6570SOL    HW220610   3.927   0.860   2.519
 6571SOL     OW20611   2.989   4.965   1.690
 6571SOL    HW120612   2.950   4.884   1.646
 6571SOL    HW220613   2.943   4.981   1.777
 6572SOL     OW20614   0.104   4.687   4.845
 6572SOL    HW120615   0.184   4.732   4.805
 6572SOL    HW220616   0.130   4.598   4.881
 6573SOL     OW20617   1.112   2.097   2.039
 6573SOL    HW120618   1.163   2.014   2.061
 6573SOL    HW220619   1.082   2.094   1.944
 6574SOL     OW20620   2.303   5.298   2.342
 6574SOL    HW120621   2.334   5.228   2.407
 6574SOL    HW220622   2.377   5.319   2.279
 6575SOL     OW20623   0.827   0.029   3.345
 6575SOL    HW120624   0.834   6.952   3.371
 6575SOL    HW220625   0.825   0.037   3.245
 6576SOL     OW20626   2.217   6.461   6.943
 6576SOL    HW120627   2.209   6.475   0.022
 6576SOL    HW220628   2.138   6.501   6.897
 6577SOL     OW20629   0.855   1.833   3.974
 6577SOL    HW120630   0.863   1.811   4.071
 6577SOL    HW220631   0.805   1.760   3.927
 6578SOL     OW20632   0.996   5.967   3.149
 6578SOL    HW120633   0.951   5.889   3.105
 6578SOL    HW220634   0.940   5.997   3.226
 6579SOL     OW20635   0.278   3.550   4.436
 6579SOL    HW120636   0.197   3.567   4.380
 6579SOL    HW220637   0.340   3.488   4.388
 6580SOL     OW20638   1.036   2.042   1.254
 6580SOL    HW120639   1.033   1.957   1.306
 6580SOL    HW220640   1.078   2.114   1.309
 6581SOL     OW20641   2.577   0.776   0.419
 6581SOL    HW120642   2.589   0.678   0.401
 6581SOL    HW220643   2.665   0.818   0.437
 6582SOL     OW20644   0.471   1.507   3.078
 6582SOL    HW120645   0.467   1.507   3.177
 6582SOL    HW220646   0.442   1.597   3.043
 6583SOL     OW20647   4.259   0.323   5.653
 6583SOL    HW120648   4.189   0.315   5.582
 6583SOL    HW220649   4.266   0.236   5.702
 6584SOL     OW20650   4.389   2.612   0.955
 6584SOL    HW120651   4.444   2.639   1.034
 6584SOL    HW220652   4.408   2.674   0.879
 6585SOL     OW20653   6.528   6.050   6.945
 6585SOL    HW120654   6.509   6.138   6.989
 6585SOL    HW220655   6.442   6.009   6.914
 6586SOL     OW20656   5.351   0.882   5.509
 6586SOL    HW120657   5.291   0.903   5.432
 6586SOL    HW220658   5.296   0.861   5.590
 6587SOL     OW20659   2.234   5.344   5.318
 6587SOL    HW120660   2.272   5.436   5.329
 6587SOL    HW220661   2.148   5.337   5.370
 6588SOL     OW20662   0.460   3.026   1.910
 6588SOL    HW120663   0.403   3.042   1.829
 6588SOL    HW220664   0.465   3.110   1.965
 6589SOL     OW20665   4.881   0.543   0.964
 6589SOL    HW120666   4.825   0.461   0.959
 6589SOL    HW220667   4.897   0.567   1.060
 6590SOL     OW20668   0.211   0.909   6.157
 6590SOL    HW120669   0.147   0.849   6.206
 6590SOL    HW220670   0.165   0.995   6.135
 6591SOL     OW20671   6.185   5.676   2.445
 6591SOL    HW120672   6.164   5.739   2.370
 6591SOL    HW220673   6.251   5.608   2.414
 6592SOL     OW20674   5.235   0.086   3.241
 6592SOL    HW120675   5.296   0.153   3.200
 6592SOL    HW220676   5.263   7.014   3.215
 6593SOL     OW20677   1.955   2.415   2.490
 6593SOL    HW120678   1.863   2.426   2.450
 6593SOL    HW220679   2.021   2.467   2.436
 6594SOL     OW20680   3.760   1.602   6.740
 6594SOL    HW120681   3.813   1.596   6.825
 6594SOL    HW220682   3.700   1.682   6.744
 6595SOL     OW20683   1.242   4.524   6.931
 6595SOL    HW120684   1.146   4.548   6.919
 6595SOL    HW220685   1.252   4.424   6.928
 6596SOL     OW20686   3.355   6.711   4.207
 6596SOL    HW120687   3.399   6.767   4.136
 6596SOL    HW220688   3.348   6.764   4.292
 6597SOL     OW20689   1.320   5.579   1.404
 6597SOL    HW120690   1.325   5.480   1.418
 6597SOL    HW220691   1.225   5.608   1.408
 6598SOL     OW20692   1.592   5.550   4.487
 6598SOL    HW120693   1.514   5.607   4.462
 6598SOL    HW220694   1.666   5.564   4.421
 6599SOL     OW20695   3.970   6.342   6.551
 6599SOL    HW120696   3.946   6.286   6.630
 6599SOL    HW220697   3.993   6.283   6.473
 6600SOL     OW20698   4.544   5.674   5.489
 6600SOL    HW120699   4.628   5.727   5.478
 6600SOL    HW220700   4.465   5.735   5.480
 6601SOL     OW20701   1.653   2.019   4.751
 6601SOL    HW120702   1.685   1.974   4.834
 6601SOL    HW220703   1.612   1.952   4.689
 6602SOL     OW20704   1.675   1.248   2.435
 6602SOL    HW120705   1.581   1.216   2.431
 6602SOL    HW220706   1.692   1.289   2.525
 6603SOL     OW20707   0.094   2.738   3.635
 6603SOL    HW120708   0.003   2.719   3.599
 6603SOL    HW220709   0.163   2.721   3.564
 6604SOL     OW20710   1.224   0.376   1.078
 6604SOL    HW120711   1.323   0.380   1.092
 6604SOL    HW220712   1.179   0.346   1.162
 6605SOL     OW20713   5.916   5.165   1.403
 6605SOL    HW120714   5.904   5.136   1.308
 6605SOL    HW220715   5.826   5.176   1.446
 6606SOL     OW20716   0.840   5.769   2.078
 6606SOL    HW120717   0.798   5.683   2.110
 6606SOL    HW220718   0.810   5.788   1.985
 6607SOL     OW20719   1.803   3.544   1.888
 6607SOL    HW120720   1.871   3.471   1.896
 6607SOL    HW220721   1.760   3.541   1.798
 6608SOL     OW20722   6.320   5.915   0.986
 6608SOL    HW120723   6.285   5.878   0.900
 6608SOL    HW220724   6.262   5.991   1.016
 6609SOL     OW20725   5.039   1.081   6.778
 6609SOL    HW120726   5.025   1.174   6.812
 6609SOL    HW220727   4.966   1.058   6.713
 6610SOL     OW20728   2.868   6.198   0.196
 6610SOL    HW120729   2.934   6.273   0.206
 6610SOL    HW220730   2.783   6.233   0.157
 6611SOL     OW20731   4.874   2.613   3.459
 6611SOL    HW120732   4.789   2.663   3.442
 6611SOL    HW220733   4.953   2.672   3.441
 6612SOL     OW20734   6.151   1.765   6.224
 6612SOL    HW120735   6.139   1.834   6.153
 6612SOL    HW220736   6.063   1.719   6.241
 6613SOL     OW20737   6.641   6.517   5.302
 6613SOL    HW120738   6.703   6.577   5.352
 6613SOL    HW220739   6.636   6.545   5.207
 6614SOL     OW20740   4.554   5.407   0.033
 6614SOL    HW120741   4.634   5.348   0.020
 6614SOL    HW220742   4.483   5.356   0.082
 6615SOL     OW20743   1.813   5.931   0.813
 6615SOL    HW120744   1.756   6.011   0.832
 6615SOL    HW220745   1.805   5.867   0.889
 6616SOL     OW20746   4.707   1.073   5.904
 6616SOL    HW120747   4.782   1.058   5.969
 6616SOL    HW220748   4.655   1.154   5.930
 6617SOL     OW20749   4.521   5.209   3.734
 6617SOL    HW120750   4.511   5.229   3.636
 6617SOL    HW220751   4.591   5.268   3.773
 6618SOL     OW20752   1.347   2.316   2.371
 6618SOL    HW120753   1.390   2.303   2.461
 6618SOL    HW220754   1.270   2.379   2.379
 6619SOL     OW20755   5.720   0.189   3.886
 6619SOL    HW120756   5.774   0.255   3.938
 6619SOL    HW220757   5.679   0.235   3.807
 6620SOL     OW20758   1.724   2.874   5.477
 6620SOL    HW120759   1.819   2.896   5.503
 6620SOL    HW220760   1.693   2.938   5.407
 6621SOL     OW20761   3.070   3.376   5.782
 6621SOL    HW120762   2.973   3.355   5.771
 6621SOL    HW220763   3.118   3.297   5.819
 6622SOL     OW20764   5.537   6.282   1.981
 6622SOL    HW120765   5.484   6.198   1.969
 6622SOL    HW220766   5.528   6.340   1.900
 6623SOL     OW20767   3.546   3.341   4.959
 6623SOL    HW120768   3.469   3.321   4.898
 6623SOL    HW220769   3.627   3.362   4.903
 6624SOL     OW20770   0.571   4.564   6.258
 6624SOL    HW120771   0.480   4.562   6.301
 6624SOL    HW220772   0.608   4.471   6.255
 6625SOL     OW20773   5.250   2.020   5.079
 6625SOL    HW120774   5.319   1.973   5.133
 6625SOL    HW220775   5.163   1.972   5.088
 6626SOL     OW20776   3.474   5.597   5.251
 6626SOL    HW120777   3.565   5.579   5.287
 6626SOL    HW220778   3.433   5.674   5.301
 6627SOL     OW20779   1.887   6.605   5.691
 6627SOL    HW120780   1.836   6.690   5.676
 6627SOL    HW220781   1.926   6.573   5.605
 6628SOL     OW20782   5.313   5.538   4.354
 6628SOL    HW120783   5.293   5.588   4.269
 6628SOL    HW220784   5.275   5.445   4.347
 6629SOL     OW20785   4.643   6.815   6.471
 6629SOL    HW120786   4.734   6.852   6.453
 6629SOL    HW220787   4.591   6.813   6.385
 6630SOL     OW20788   3.804   1.596   1.374
 6630SOL    HW120789   3.752   1.574   1.292
 6630SOL    HW220790   3.779   1.534   1.448
 6631SOL     OW20791   2.464   5.396   3.800
 6631SOL    HW120792   2.513   5.482   3.806
 6631SOL    HW220793   2.378   5.410   3.751
 6632SOL     OW20794   0.782   0.527   1.219
 6632SOL    HW120795   0.701   0.468   1.212
 6632SOL    HW220796   0.823   0.538   1.129
 6633SOL     OW20797   1.562   4.544   6.678
 6633SOL    HW120798   1.550   4.446   6.699
 6633SOL    HW220799   1.559   4.596   6.764
 6634SOL     OW20800   4.608   1.950   5.074
 6634SOL    HW120801   4.641   1.942   5.169
 6634SOL    HW220802   4.524   1.898   5.064
 6635SOL     OW20803   4.711   5.035   2.801
 6635SOL    HW120804   4.636   5.074   2.854
 6635SOL    HW220805   4.781   5.105   2.785
 6636SOL     OW20806   4.654   1.766   6.589
 6636SOL    HW120807   4.650   1.864   6.573
 6636SOL    HW220808   4.561   1.728   6.593
 6637SOL     OW20809   0.819   0.083   6.919
 6637SOL    HW120810   0.731   0.090   6.965
 6637SOL    HW220811   0.845   7.007   6.911
 6638SOL     OW20812   2.965   3.852   3.124
 6638SOL    HW120813   2.931   3.806   3.042
 6638SOL    HW220814   3.009   3.938   3.099
 6639SOL     OW20815   4.903   4.543   6.224
 6639SOL    HW120816   4.891   4.447   6.250
 6639SOL    HW220817   5.001   4.564   6.219
 6640SOL     OW20818   0.194   1.926   5.016
 6640SOL    HW120819   0.120   1.948   5.080
 6640SOL    HW220820   0.157   1.926   4.923
 6641SOL     OW20821   2.567   1.179   6.251
 6641SOL    HW120822   2.638   1.170   6.321
 6641SOL    HW220823   2.529   1.089   6.230
 6642SOL     OW20824   1.802   6.010   6.633
 6642SOL    HW120825   1.815   6.001   6.732
 6642SOL    HW220826   1.891   6.024   6.589
 6643SOL     OW20827   6.009   5.714   0.533
 6643SOL    HW120828   5.978   5.634   0.584
 6643SOL    HW220829   6.109   5.711   0.523
 6644SOL     OW20830   2.369   5.023   1.561
 6644SOL    HW120831   2.440   5.030   1.630
 6644SOL    HW220832   2.279   5.017   1.605
 6645SOL     OW20833   6.115   4.146   0.245
 6645SOL    HW120834   6.060   4.074   0.288
 6645SOL    HW220835   6.144   4.117   0.154
 6646SOL     OW20836   4.321   0.290   4.985
 6646SOL    HW120837   4.258   0.308   5.061
 6646SOL    HW220838   4.332   0.191   4.974
 6647SOL     OW20839   5.097   0.919   0.908
 6647SOL    HW120840   5.191   0.955   0.906
 6647SOL    HW220841   5.043   0.971   0.974
 6648SOL     OW20842   3.234   6.234   3.614
 6648SOL    HW120843   3.142   6.215   3.579
 6648SOL    HW220844   3.302   6.214   3.544
 6649SOL     OW20845   5.681   1.299   6.759
 6649SOL    HW120846   5.630   1.231   6.811
 6649SOL    HW220847   5.620   1.341   6.691
 6650SOL     OW20848   3.507   1.418   5.682
 6650SOL    HW120849   3.585   1.379   5.632
 6650SOL    HW220850   3.436   1.445   5.617
 6651SOL     OW20851   2.795   0.808   5.660
 6651SOL    HW120852   2.863   0.814   5.587
 6651SOL    HW220853   2.703   0.816   5.621
 6652SOL     OW20854   0.478   4.090   6.982
 6652SOL    HW120855   0.502   4.012   0.021
 6652SOL    HW220856   0.379   4.104   6.984
 6653SOL     OW20857   4.141   3.804   1.461
 6653SOL    HW120858   4.050   3.764   1.461
 6653SOL    HW220859   4.185   3.786   1.373
 6654SOL     OW20860   1.259   4.740   1.045
 6654SOL    HW120861   1.274   4.779   0.954
 6654SOL    HW220862   1.319   4.785   1.111
 6655SOL     OW20863   0.994   6.707   4.134
 6655SOL    HW120864   0.947   6.632   4.180
 6655SOL    HW220865   1.005   6.687   4.037
 6656SOL     OW20866   4.841   1.863   3.882
 6656SOL    HW120867   4.783   1.821   3.811
 6656SOL    HW220868   4.867   1.794   3.949
 6657SOL     OW20869   6.125   4.416   6.175
 6657SOL    HW120870   6.208   4.403   6.122
 6657SOL    HW220871   6.139   4.381   6.268
 6658SOL     OW20872   6.110   1.008   4.753
 6658SOL    HW120873   6.089   0.995   4.850
 6658SOL    HW220874   6.057   1.085   4.717
 6659SOL     OW20875   2.324   3.690   0.261
 6659SOL    HW120876   2.229   3.717   0.247
 6659SOL    HW220877   2.331   3.590   0.262
 6660SOL     OW20878   1.170   5.083   1.233
 6660SOL    HW120879   1.112   5.096   1.152
 6660SOL    HW220880   1.116   5.040   1.306
 6661SOL     OW20881   1.475   0.088   5.193
 6661SOL    HW120882   1.458   0.163   5.130
 6661SOL    HW220883   1.388   0.053   5.227
 6662SOL     OW20884   1.110   6.925   0.187
 6662SOL    HW120885   1.055   7.007   0.199
 6662SOL    HW220886   1.181   6.941   0.119
 6663SOL     OW20887   6.194   5.876   4.471
 6663SOL    HW120888   6.205   5.932   4.389
 6663SOL    HW220889   6.283   5.846   4.503
 6664SOL     OW20890   2.373   6.865   0.321
 6664SOL    HW120891   2.316   6.855   0.403
 6664SOL    HW220892   2.362   6.784   0.263
 6665SOL     OW20893   1.914   5.985   4.743
 6665SOL    HW120894   1.936   6.021   4.834
 6665SOL    HW220895   1.915   5.885   4.747
 6666SOL     OW20896   5.991   6.241   6.167
 6666SOL    HW120897   6.045   6.257   6.085
 6666SOL    HW220898   6.030   6.293   6.243
 6667SOL     OW20899   6.223   6.397   6.249
 6667SOL    HW120900   6.253   6.397   6.153
 6667SOL    HW220901   6.256   6.480   6.293
 6668SOL     OW20902   6.611   5.334   0.565
 6668SOL    HW120903   6.636   5.244   0.601
 6668SOL    HW220904   6.527   5.326   0.512
 6669SOL     OW20905   1.828   2.350   2.969
 6669SOL    HW120906   1.839   2.442   2.930
 6669SOL    HW220907   1.908   2.329   3.026
 6670SOL     OW20908   3.209   1.780   5.251
 6670SOL    HW120909   3.228   1.719   5.175
 6670SOL    HW220910   3.285   1.844   5.263
 6671SOL     OW20911   5.062   6.613   0.401
 6671SOL    HW120912   5.130   6.658   0.342
 6671SOL    HW220913   4.978   6.597   0.349
 6672SOL     OW20914   6.399   2.563   6.604
 6672SOL    HW120915   6.424   2.479   6.556
 6672SOL    HW220916   6.320   2.546   6.662
 6673SOL     OW20917   4.637   4.286   4.662
 6673SOL    HW120918   4.707   4.310   4.594
 6673SOL    HW220919   4.603   4.370   4.705
 6674SOL     OW20920   0.897   3.726   6.688
 6674SOL    HW120921   0.845   3.643   6.707
 6674SOL    HW220922   0.958   3.710   6.611
 6675SOL     OW20923   5.789   3.106   0.054
 6675SOL    HW120924   5.815   3.091   0.150
 6675SOL    HW220925   5.862   3.075   7.014
 6676SOL     OW20926   1.308   4.245   5.731
 6676SOL    HW120927   1.363   4.186   5.790
 6676SOL    HW220928   1.364   4.323   5.701
 6677SOL     OW20929   1.667   1.589   6.166
 6677SOL    HW120930   1.693   1.617   6.258
 6677SOL    HW220931   1.648   1.670   6.110
 6678SOL     OW20932   3.679   3.070   6.643
 6678SOL    HW120933   3.585   3.049   6.672
 6678SOL    HW220934   3.702   3.162   6.673
 6679SOL     OW20935   3.464   1.136   3.943
 6679SOL    HW120936   3.409   1.053   3.932
 6679SOL    HW220937   3.497   1.143   4.037
 6680SOL     OW20938   5.147   6.806   6.586
 6680SOL    HW120939   5.104   6.726   6.545
 6680SOL    HW220940   5.239   6.818   6.548
 6681SOL     OW20941   4.021   5.191   1.224
 6681SOL    HW120942   4.021   5.280   1.270
 6681SOL    HW220943   4.021   5.118   1.292
 6682SOL     OW20944   1.141   4.646   1.712
 6682SOL    HW120945   1.049   4.678   1.736
 6682SOL    HW220946   1.181   4.598   1.790
 6683SOL     OW20947   6.247   3.708   5.073
 6683SOL    HW120948   6.329   3.664   5.111
 6683SOL    HW220949   6.234   3.797   5.115
 6684SOL     OW20950   2.756   6.879   1.392
 6684SOL    HW120951   2.752   6.975   1.420
 6684SOL    HW220952   2.773   6.822   1.473
 6685SOL     OW20953   5.944   2.670   5.703
 6685SOL    HW120954   6.027   2.614   5.704
 6685SOL    HW220955   5.958   2.750   5.644
 6686SOL     OW20956   4.758   6.467   3.856
 6686SOL    HW120957   4.809   6.438   3.938
 6686SOL    HW220958   4.822   6.482   3.781
 6687SOL     OW20959   1.256   2.995   0.879
 6687SOL    HW120960   1.175   2.947   0.914
 6687SOL    HW220961   1.263   2.980   0.780
 6688SOL     OW20962   6.216   4.917   2.436
 6688SOL    HW120963   6.225   4.821   2.462
 6688SOL    HW220964   6.224   4.975   2.517
 6689SOL     OW20965   3.748   3.302   6.702
 6689SOL    HW120966   3.706   3.379   6.655
 6689SOL    HW220967   3.772   3.329   6.796
 6690SOL     OW20968   0.674   1.307   1.031
 6690SOL    HW120969   0.771   1.296   1.012
 6690SOL    HW220970   0.623   1.307   0.945
 6691SOL     OW20971   2.787   6.518   2.732
 6691SOL    HW120972   2.732   6.578   2.674
 6691SOL    HW220973   2.749   6.517   2.824
 6692SOL     OW20974   3.459   2.873   4.387
 6692SOL    HW120975   3.484   2.969   4.388
 6692SOL    HW220976   3.422   2.848   4.477
 6693SOL     OW20977   3.917   2.687   5.571
 6693SOL    HW120978   3.831   2.735   5.587
 6693SOL    HW220979   3.946   2.701   5.476
 6694SOL     OW20980   4.281   5.353   1.176
 6694SOL    HW120981   4.356   5.397   1.226
 6694SOL    HW220982   4.266   5.261   1.213
 6695SOL     OW20983   2.911   1.917   0.033
 6695SOL    HW120984   2.882   1.970   6.974
 6695SOL    HW220985   2.837   1.914   0.100
 6696SOL     OW20986   3.137   3.057   5.195
 6696SOL    HW120987   3.123   3.046   5.097
 6696SOL    HW220988   3.112   2.972   5.242
 6697SOL     OW20989   5.026   2.207   2.675
 6697SOL    HW120990   4.935   2.224   2.712
 6697SOL    HW220991   5.017   2.174   2.581
 6698SOL     OW20992   3.058   2.305   0.730
 6698SOL    HW120993   3.004   2.222   0.740
 6698SOL    HW220994   3.068   2.349   0.819
 6699SOL     OW20995   2.433   5.783   5.193
 6699SOL    HW120996   2.466   5.844   5.120
 6699SOL    HW220997   2.376   5.711   5.154
 6700SOL     OW20998   0.795   0.969   1.380
 6700SOL    HW120999   0.696   0.966   1.378
 6700SOL    HW221000   0.831   0.875   1.377
 6701SOL     OW21001   5.832   4.753   2.314
 6701SOL    HW121002   5.872   4.713   2.397
 6701SOL    HW221003   5.735   4.772   2.329
 6702SOL     OW21004   3.157   2.087   1.830
 6702SOL    HW121005   3.115   2.123   1.746
 6702SOL    HW221006   3.239   2.139   1.851
 6703SOL     OW21007   6.765   1.570   0.112
 6703SOL    HW121008   6.741   1.599   0.205
 6703SOL    HW221009   6.794   1.474   0.114
 6704SOL     OW21010   3.779   1.576   3.525
 6704SOL    HW121011   3.705   1.510   3.511
 6704SOL    HW221012   3.810   1.572   3.620
 6705SOL     OW21013   6.600   3.716   1.815
 6705SOL    HW121014   6.517   3.765   1.788
 6705SOL    HW221015   6.576   3.640   1.875
 6706SOL     OW21016   1.282   4.427   1.839
 6706SOL    HW121017   1.292   4.357   1.909
 6706SOL    HW221018   1.190   4.423   1.800
 6707SOL     OW21019   6.494   6.339   3.701
 6707SOL    HW121020   6.413   6.353   3.759
 6707SOL    HW221021   6.572   6.386   3.742
 6708SOL     OW21022   0.173   5.016   0.773
 6708SOL    HW121023   0.257   4.997   0.723
 6708SOL    HW221024   0.174   5.111   0.806
 6709SOL     OW21025   2.645   6.213   2.994
 6709SOL    HW121026   2.577   6.141   3.009
 6709SOL    HW221027   2.725   6.173   2.949
 6710SOL     OW21028   3.260   1.158   6.048
 6710SOL    HW121029   3.240   1.061   6.057
 6710SOL    HW221030   3.336   1.171   5.985
 6711SOL     OW21031   4.457   5.744   5.792
 6711SOL    HW121032   4.435   5.743   5.695
 6711SOL    HW221033   4.480   5.837   5.821
 6712SOL     OW21034   5.572   3.818   0.669
 6712SOL    HW121035   5.555   3.756   0.592
 6712SOL    HW221036   5.489   3.868   0.690
 6713SOL     OW21037   2.204   0.262   2.436
 6713SOL    HW121038   2.221   0.239   2.532
 6713SOL    HW221039   2.289   0.293   2.394
 6714SOL     OW21040   6.701   0.768   5.906
 6714SOL    HW121041   6.725   0.686   5.856
 6714SOL    HW221042   6.779   0.831   5.908
 6715SOL     OW21043   0.332   0.089   0.125
 6715SOL    HW121044   0.254   0.064   0.182
 6715SOL    HW221045   0.300   0.132   0.041
 6716SOL     OW21046   0.173   5.720   2.093
 6716SOL    HW121047   0.206   5.767   2.175
 6716SOL    HW221048   0.082   5.754   2.070
 6717SOL     OW21049   3.963   2.791   6.082
 6717SOL    HW121050   4.046   2.831   6.044
 6717SOL    HW221051   3.988   2.713   6.140
 6718SOL     OW21052   6.050   1.015   1.039
 6718SOL    HW121053   6.080   0.921   1.026
 6718SOL    HW221054   6.124   1.068   1.080
 6719SOL     OW21055   2.553   6.283   6.500
 6719SOL    HW121056   2.511   6.334   6.425
 6719SOL    HW221057   2.568   6.344   6.577
 6720SOL     OW21058   1.434   0.400   4.671
 6720SOL    HW121059   1.444   0.487   4.719
 6720SOL    HW221060   1.520   0.376   4.626
 6721SOL     OW21061   6.620   0.067   0.494
 6721SOL    HW121062   6.550   0.105   0.435
 6721SOL    HW221063   6.578   0.009   0.564
 6722SOL     OW21064   6.671   2.897   1.890
 6722SOL    HW121065   6.757   2.904   1.941
 6722SOL    HW221066   6.644   2.988   1.857
 6723SOL     OW21067   2.141   6.327   3.181
 6723SOL    HW121068   2.186   6.405   3.137
 6723SOL    HW221069   2.202   6.289   3.250
 6724SOL     OW21070   2.116   3.384   6.053
 6724SOL    HW121071   2.057   3.306   6.077
 6724SOL    HW221072   2.189   3.393   6.121
 6725SOL     OW21073   0.055   3.117   1.735
 6725SOL    HW121074   0.054   3.133   1.834
 6725SOL    HW221075   0.150   3.120   1.702
 6726SOL     OW21076   0.335   2.538   5.189
 6726SOL    HW121077   0.292   2.527   5.279
 6726SOL    HW221078   0.428   2.572   5.200
 6727SOL     OW21079   0.110   4.751   5.422
 6727SOL    HW121080   0.039   4.765   5.353
 6727SOL    HW221081   0.074   4.775   5.512
 6728SOL     OW21082   3.845   2.168   2.475
 6728SOL    HW121083   3.819   2.089   2.531
 6728SOL    HW221084   3.787   2.172   2.394
 6729SOL     OW21085   0.004   1.037   2.834
 6729SOL    HW121086   0.039   1.003   2.921
 6729SOL    HW221087   6.925   1.050   2.841
 6730SOL     OW21088   1.523   6.826   1.409
 6730SOL    HW121089   1.489   6.870   1.492
 6730SOL    HW221090   1.463   6.750   1.385
 6731SOL     OW21091   0.628   6.456   1.136
 6731SOL    HW121092   0.701   6.398   1.101
 6731SOL    HW221093   0.540   6.409   1.124
 6732SOL     OW21094   5.690   4.736   4.682
 6732SOL    HW121095   5.618   4.805   4.691
 6732SOL    HW221096   5.704   4.715   4.586
 6733SOL     OW21097   3.983   5.327   6.936
 6733SOL    HW121098   4.064   5.317   6.878
 6733SOL    HW221099   3.970   5.424   6.959
 6734SOL     OW21100   6.043   2.789   4.215
 6734SOL    HW121101   5.944   2.782   4.205
 6734SOL    HW221102   6.065   2.800   4.312
 6735SOL     OW21103   6.752   4.313   5.134
 6735SOL    HW121104   6.784   4.254   5.061
 6735SOL    HW221105   6.715   4.258   5.209
 6736SOL     OW21106   3.528   3.567   0.330
 6736SOL    HW121107   3.551   3.640   0.267
 6736SOL    HW221108   3.455   3.597   0.392
 6737SOL     OW21109   1.219   2.486   0.597
 6737SOL    HW121110   1.146   2.432   0.554
 6737SOL    HW221111   1.240   2.449   0.687
 6738SOL     OW21112   1.707   5.935   2.872
 6738SOL    HW121113   1.656   5.859   2.830
 6738SOL    HW221114   1.776   5.899   2.934
 6739SOL     OW21115   3.849   5.911   5.143
 6739SOL    HW121116   3.854   5.877   5.237
 6739SOL    HW221117   3.759   5.952   5.127
 6740SOL     OW21118   0.896   0.427   4.718
 6740SOL    HW121119   0.947   0.484   4.654
 6740SOL    HW221120   0.880   0.337   4.677
 6741SOL     OW21121   3.898   1.635   5.438
 6741SOL    HW121122   3.799   1.620   5.433
 6741SOL    HW221123   3.929   1.678   5.353
 6742SOL     OW21124   5.624   6.219   2.417
 6742SOL    HW121125   5.606   6.121   2.418
 6742SOL    HW221126   5.559   6.264   2.356
 6743SOL     OW21127   3.702   5.485   0.085
 6743SOL    HW121128   3.708   5.535   0.171
 6743SOL    HW221129   3.765   5.525   0.018
 6744SOL     OW21130   5.674   3.979   5.788
 6744SOL    HW121131   5.736   4.032   5.731
 6744SOL    HW221132   5.680   3.882   5.763
 6745SOL     OW21133   6.731   6.767   3.210
 6745SOL    HW121134   6.777   6.792   3.295
 6745SOL    HW221135   6.737   6.668   3.197
 6746SOL     OW21136   0.778   1.585   3.853
 6746SOL    HW121137   0.854   1.537   3.898
 6746SOL    HW221138   0.692   1.540   3.878
 6747SOL     OW21139   5.095   1.158   4.864
 6747SOL    HW121140   5.006   1.197   4.840
 6747SOL    HW221141   5.110   1.168   4.962
 6748SOL     OW21142   2.905   1.127   3.922
 6748SOL    HW121143   2.930   1.075   3.841
 6748SOL    HW221144   2.806   1.136   3.927
 6749SOL     OW21145   2.899   5.249   0.519
 6749SOL    HW121146   2.894   5.349   0.526
 6749SOL    HW221147   2.814   5.209   0.552
 6750SOL     OW21148   3.944   2.132   4.872
 6750SOL    HW121149   4.036   2.172   4.867
 6750SOL    HW221150   3.900   2.161   4.956
 6751SOL     OW21151   4.393   6.891   3.280
 6751SOL    HW121152   4.311   6.841   3.306
 6751SOL    HW221153   4.368   6.980   3.241
 6752SOL     OW21154   0.965   1.652   2.978
 6752SOL    HW121155   0.884   1.634   3.035
 6752SOL    HW221156   1.036   1.584   2.998
 6753SOL     OW21157   2.818   0.369   6.448
 6753SOL    HW121158   2.776   0.445   6.499
 6753SOL    HW221159   2.913   0.358   6.478
 6754SOL     OW21160   0.311   1.946   0.546
 6754SOL    HW121161   0.409   1.961   0.558
 6754SOL    HW221162   0.277   2.005   0.473
 6755SOL     OW21163   4.691   0.557   3.009
 6755SOL    HW121164   4.763   0.493   2.982
 6755SOL    HW221165   4.709   0.592   3.101
 6756SOL     OW21166   3.880   5.379   4.954
 6756SOL    HW121167   3.923   5.292   4.978
 6756SOL    HW221168   3.789   5.384   4.994
 6757SOL     OW21169   4.352   2.169   1.087
 6757SOL    HW121170   4.302   2.255   1.074
 6757SOL    HW221171   4.307   2.096   1.035
 6758SOL     OW21172   6.310   1.815   1.736
 6758SOL    HW121173   6.400   1.779   1.763
 6758SOL    HW221174   6.323   1.903   1.690
 6759SOL     OW21175   0.970   3.947   4.474
 6759SOL    HW121176   0.903   3.911   4.539
 6759SOL    HW221177   0.948   3.915   4.382
 6760SOL     OW21178   6.649   4.077   2.442
 6760SOL    HW121179   6.629   4.166   2.399
 6760SOL    HW221180   6.636   4.085   2.541
 6761SOL     OW21181   6.515   2.271   5.706
 6761SOL    HW121182   6.580   2.345   5.722
 6761SOL    HW221183   6.441   2.303   5.647
 6762SOL     OW21184   0.762   5.548   4.446
 6762SOL    HW121185   0.734   5.509   4.533
 6762SOL    HW221186   0.751   5.647   4.447
 6763SOL     OW21187   0.973   4.719   2.733
 6763SOL    HW121188   1.038   4.795   2.724
 6763SOL    HW221189   1.003   4.642   2.677
 6764SOL     OW21190   1.857   5.359   0.826
 6764SOL    HW121191   1.762   5.328   0.818
 6764SOL    HW221192   1.859   5.448   0.871
 6765SOL     OW21193   5.718   4.119   4.137
 6765SOL    HW121194   5.782   4.059   4.090
 6765SOL    HW221195   5.769   4.186   4.191
 6766SOL     OW21196   4.883   6.935   6.340
 6766SOL    HW121197   4.955   6.875   6.304
 6766SOL    HW221198   4.924   7.016   6.382
 6767SOL     OW21199   1.309   2.358   1.194
 6767SOL    HW121200   1.366   2.312   1.126
 6767SOL    HW221201   1.363   2.430   1.239
 6768SOL     OW21202   1.106   6.313   3.518
 6768SOL    HW121203   1.014   6.339   3.489
 6768SOL    HW221204   1.131   6.362   3.601
 6769SOL     OW21205   2.812   0.898   5.374
 6769SOL    HW121206   2.806   0.940   5.465
 6769SOL    HW221207   2.774   0.962   5.306
 6770SOL     OW21208   4.960   1.920   3.517
 6770SOL    HW121209   4.992   1.962   3.432
 6770SOL    HW221210   5.029   1.933   3.588
 6771SOL     OW21211   4.233   1.329   2.352
 6771SOL    HW121212   4.190   1.419   2.352
 6771SOL    HW221213   4.258   1.303   2.445
 6772SOL     OW21214   4.740   2.775   2.116
 6772SOL    HW121215   4.737   2.868   2.078
 6772SOL    HW221216   4.810   2.771   2.188
 6773SOL     OW21217   0.828   6.217   1.904
 6773SOL    HW121218   0.805   6.199   2.000
 6773SOL    HW221219   0.896   6.151   1.873
 6774SOL     OW21220   1.912   3.659   5.210
 6774SOL    HW121221   1.985   3.727   5.200
 6774SOL    HW221222   1.932   3.600   5.288
 6775SOL     OW21223   1.344   2.457   3.155
 6775SOL    HW121224   1.320   2.523   3.227
 6775SOL    HW221225   1.325   2.497   3.065
 6776SOL     OW21226   4.405   3.233   0.133
 6776SOL    HW121227   4.316   3.240   0.178
 6776SOL    HW221228   4.477   3.261   0.197
 6777SOL     OW21229   5.215   4.575   0.706
 6777SOL    HW121230   5.225   4.632   0.625
 6777SOL    HW221231   5.283   4.602   0.774
 6778SOL     OW21232   0.201   5.381   1.795
 6778SOL    HW121233   0.217   5.480   1.801
 6778SOL    HW221234   0.244   5.345   1.713
 6779SOL     OW21235   5.710   5.057   6.307
 6779SOL    HW121236   5.647   5.126   6.342
 6779SOL    HW221237   5.801   5.097   6.299
 6780SOL     OW21238   1.382   2.983   2.483
 6780SOL    HW121239   1.457   2.922   2.510
 6780SOL    HW221240   1.364   3.048   2.556
 6781SOL     OW21241   5.935   1.759   4.762
 6781SOL    HW121242   5.898   1.676   4.803
 6781SOL    HW221243   6.017   1.787   4.812
 6782SOL     OW21244   0.680   1.323   3.355
 6782SOL    HW121245   0.684   1.279   3.265
 6782SOL    HW221246   0.714   1.259   3.424
 6783SOL     OW21247   0.306   1.536   5.771
 6783SOL    HW121248   0.227   1.591   5.799
 6783SOL    HW221249   0.345   1.491   5.851
 6784SOL     OW21250   1.817   3.693   0.749
 6784SOL    HW121251   1.844   3.618   0.810
 6784SOL    HW221252   1.897   3.727   0.701
 6785SOL     OW21253   6.147   5.926   5.138
 6785SOL    HW121254   6.173   6.003   5.196
 6785SOL    HW221255   6.218   5.857   5.141
 6786SOL     OW21256   1.313   2.046   0.709
 6786SOL    HW121257   1.385   2.055   0.778
 6786SOL    HW221258   1.274   1.954   0.712
 6787SOL     OW21259   3.291   3.224   0.219
 6787SOL    HW121260   3.310   3.283   0.297
 6787SOL    HW221261   3.241   3.143   0.249
 6788SOL     OW21262   0.774   4.694   1.904
 6788SOL    HW121263   0.847   4.709   1.970
 6788SOL    HW221264   0.685   4.704   1.950
 6789SOL     OW21265   0.603   4.763   4.130
 6789SOL    HW121266   0.686   4.816   4.113
 6789SOL    HW221267   0.623   4.666   4.120
 6790SOL     OW21268   1.186   3.510   0.145
 6790SOL    HW121269   1.106   3.559   0.111
 6790SOL    HW221270   1.262   3.573   0.156
 6791SOL     OW21271   3.713   2.026   2.190
 6791SOL    HW121272   3.668   2.094   2.131
 6791SOL    HW221273   3.651   1.999   2.263
 6792SOL     OW21274   5.133   0.120   5.407
 6792SOL    HW121275   5.113   0.176   5.327
 6792SOL    HW221276   5.175   0.034   5.379
 6793SOL     OW21277   2.121   1.440   6.960
 6793SOL    HW121278   2.119   1.526   6.909
 6793SOL    HW221279   2.033   1.427   7.007
 6794SOL     OW21280   5.322   1.584   5.170
 6794SOL    HW121281   5.332   1.485   5.175
 6794SOL    HW221282   5.236   1.606   5.123
 6795SOL     OW21283   1.212   6.789   1.418
 6795SOL    HW121284   1.188   6.747   1.331
 6795SOL    HW221285   1.140   6.852   1.446
 6796SOL     OW21286   6.022   0.749   3.224
 6796SOL    HW121287   6.108   0.744   3.174
 6796SOL    HW221288   5.946   0.729   3.162
 6797SOL     OW21289   6.782   2.279   1.737
 6797SOL    HW121290   6.698   2.334   1.735
 6797SOL    HW221291   6.779   2.211   1.664
 6798SOL     OW21292   5.676   6.308   1.594
 6798SOL    HW121293   5.751   6.306   1.659
 6798SOL    HW221294   5.621   6.225   1.604
 6799SOL     OW21295   6.247   0.990   2.187
 6799SOL    HW121296   6.291   0.939   2.113
 6799SOL    HW221297   6.206   1.073   2.149
 6800SOL     OW21298   2.366   2.608   2.251
 6800SOL    HW121299   2.355   2.537   2.182
 6800SOL    HW221300   2.413   2.570   2.331
 6801SOL     OW21301   1.658   0.719   3.423
 6801SOL    HW121302   1.640   0.811   3.459
 6801SOL    HW221303   1.574   0.664   3.427
 6802SOL     OW21304   3.320   5.347   1.425
 6802SOL    HW121305   3.357   5.360   1.332
 6802SOL    HW221306   3.247   5.279   1.423
 6803SOL     OW21307   4.293   3.981   6.121
 6803SOL    HW121308   4.272   3.920   6.045
 6803SOL    HW221309   4.345   3.930   6.190
 6804SOL     OW21310   4.084   4.843   3.778
 6804SOL    HW121311   3.999   4.882   3.742
 6804SOL    HW221312   4.071   4.820   3.875
 6805SOL     OW21313   0.370   4.657   6.401
 6805SOL    HW121314   0.395   4.753   6.388
 6805SOL    HW221315   0.274   4.651   6.427
 6806SOL     OW21316   6.188   1.771   3.337
 6806SOL    HW121317   6.155   1.856   3.295
 6806SOL    HW221318   6.194   1.699   3.268
 6807SOL     OW21319   3.130   3.176   1.348
 6807SOL    HW121320   3.084   3.183   1.259
 6807SOL    HW221321   3.179   3.088   1.354
 6808SOL     OW21322   6.866   1.923   5.791
 6808SOL    HW121323   6.776   1.880   5.781
 6808SOL    HW221324   6.902   1.903   5.882
 6809SOL     OW21325   0.315   3.230   1.372
 6809SOL    HW121326   0.249   3.174   1.322
 6809SOL    HW221327   0.301   3.326   1.350
 6810SOL     OW21328   3.369   1.142   2.594
 6810SOL    HW121329   3.458   1.175   2.623
 6810SOL    HW221330   3.369   1.129   2.495
 6811SOL     OW21331   5.712   3.566   1.790
 6811SOL    HW121332   5.626   3.527   1.823
 6811SOL    HW221333   5.779   3.493   1.780
 6812SOL     OW21334   3.376   4.025   4.908
 6812SOL    HW121335   3.372   4.012   4.809
 6812SOL    HW221336   3.286   4.053   4.942
 6813SOL     OW21337   5.523   3.183   2.801
 6813SOL    HW121338   5.527   3.150   2.896
 6813SOL    HW221339   5.464   3.264   2.798
 6814SOL     OW21340   4.110   2.020   6.123
 6814SOL    HW121341   4.112   2.042   6.221
 6814SOL    HW221342   4.162   2.089   6.073
 6815SOL     OW21343   2.527   6.022   6.966
 6815SOL    HW121344   2.438   6.066   6.962
 6815SOL    HW221345   2.560   6.005   6.874
 6816SOL     OW21346   6.552   0.967   5.729
 6816SOL    HW121347   6.615   0.893   5.754
 6816SOL    HW221348   6.458   0.935   5.740
 6817SOL     OW21349   2.316   2.537   3.356
 6817SOL    HW121350   2.262   2.554   3.439
 6817SOL    HW221351   2.321   2.621   3.302
 6818SOL     OW21352   2.285   6.528   0.623
 6818SOL    HW121353   2.338   6.502   0.542
 6818SOL    HW221354   2.189   6.539   0.597
 6819SOL     OW21355   4.374   1.821   2.776
 6819SOL    HW121356   4.418   1.762   2.844
 6819SOL    HW221357   4.316   1.767   2.716
 6820SOL     OW21358   2.055   6.190   1.209
 6820SOL    HW121359   2.038   6.216   1.304
 6820SOL    HW221360   2.149   6.158   1.200
 6821SOL     OW21361   4.021   2.382   5.368
 6821SOL    HW121362   4.063   2.430   5.291
 6821SOL    HW221363   4.090   2.361   5.437
 6822SOL     OW21364   5.649   2.288   5.792
 6822SOL    HW121365   5.591   2.233   5.853
 6822SOL    HW221366   5.594   2.360   5.750
 6823SOL     OW21367   5.597   3.766   5.450
 6823SOL    HW121368   5.669   3.800   5.390
 6823SOL    HW221369   5.565   3.678   5.417
 6824SOL     OW21370   1.139   1.608   0.515
 6824SOL    HW121371   1.116   1.698   0.478
 6824SOL    HW221372   1.201   1.560   0.453
 6825SOL     OW21373   6.395   0.204   0.404
 6825SOL    HW121374   6.312   0.171   0.360
 6825SOL    HW221375   6.415   0.297   0.373
 6826SOL     OW21376   1.997   3.708   3.310
 6826SOL    HW121377   1.904   3.672   3.312
 6826SOL    HW221378   2.059   3.640   3.271
 6827SOL     OW21379   4.787   5.239   6.020
 6827SOL    HW121380   4.809   5.173   5.948
 6827SOL    HW221381   4.817   5.202   6.108
 6828SOL     OW21382   3.411   1.565   1.511
 6828SOL    HW121383   3.384   1.660   1.527
 6828SOL    HW221384   3.346   1.521   1.450
 6829SOL     OW21385   5.412   6.251   5.449
 6829SOL    HW121386   5.348   6.288   5.381
 6829SOL    HW221387   5.488   6.207   5.402
 6830SOL     OW21388   5.597   0.356   2.912
 6830SOL    HW121389   5.583   0.432   2.976
 6830SOL    HW221390   5.595   0.391   2.818
 6831SOL     OW21391   1.611   1.026   6.781
 6831SOL    HW121392   1.633   1.102   6.720
 6831SOL    HW221393   1.674   0.950   6.763
 6832SOL     OW21394   2.307   4.411   1.065
 6832SOL    HW121395   2.363   4.330   1.081
 6832SOL    HW221396   2.348   4.466   0.992
 6833SOL     OW21397   2.797   4.847   0.005
 6833SOL    HW121398   2.846   4.922   6.979
 6833SOL    HW221399   2.810   4.854   0.104
 6834SOL     OW21400   6.213   0.497   0.281
 6834SOL    HW121401   6.308   0.522   0.302
 6834SOL    HW221402   6.165   0.475   0.367
 6835SOL     OW21403   4.223   0.809   4.774
 6835SOL    HW121404   4.301   0.759   4.736
 6835SOL    HW221405   4.229   0.807   4.874
 6836SOL     OW21406   3.313   4.605   0.335
 6836SOL    HW121407   3.281   4.521   0.377
 6836SOL    HW221408   3.246   4.638   0.268
 6837SOL     OW21409   0.711   2.213   2.916
 6837SOL    HW121410   0.749   2.191   3.006
 6837SOL    HW221411   0.731   2.138   2.853
 6838SOL     OW21412   3.379   6.413   6.290
 6838SOL    HW121413   3.368   6.337   6.226
 6838SOL    HW221414   3.476   6.438   6.296
 6839SOL     OW21415   5.253   1.170   5.464
 6839SOL    HW121416   5.224   1.131   5.551
 6839SOL    HW221417   5.275   1.267   5.477
 6840SOL     OW21418   3.351   0.081   4.489
 6840SOL    HW121419   3.448   0.105   4.476
 6840SOL    HW221420   3.334   0.064   4.586
 6841SOL     OW21421   3.575   4.504   0.427
 6841SOL    HW121422   3.503   4.565   0.460
 6841SOL    HW221423   3.662   4.552   0.425
 6842SOL     OW21424   2.591   3.189   0.670
 6842SOL    HW121425   2.671   3.129   0.670
 6842SOL    HW221426   2.559   3.203   0.764
 6843SOL     OW21427   5.697   0.083   1.916
 6843SOL    HW121428   5.789   0.110   1.945
 6843SOL    HW221429   5.629   0.135   1.968
 6844SOL     OW21430   5.317   6.771   3.840
 6844SOL    HW121431   5.362   6.697   3.890
 6844SOL    HW221432   5.375   6.800   3.764
 6845SOL     OW21433   5.867   5.503   3.073
 6845SOL    HW121434   5.966   5.508   3.081
 6845SOL    HW221435   5.826   5.509   3.164
 6846SOL     OW21436   4.157   3.039   0.762
 6846SOL    HW121437   4.199   3.092   0.836
 6846SOL    HW221438   4.209   3.052   0.678
 6847SOL     OW21439   0.124   4.958   3.359
 6847SOL    HW121440   0.162   4.935   3.449
 6847SOL    HW221441   0.063   5.037   3.369
 6848SOL     OW21442   3.676   6.638   4.101
 6848SOL    HW121443   3.759   6.624   4.154
 6848SOL    HW221444   3.597   6.605   4.153
 6849SOL     OW21445   3.590   5.297   5.285
 6849SOL    HW121446   3.576   5.200   5.301
 6849SOL    HW221447   3.576   5.317   5.187
 6850SOL     OW21448   5.816   3.780   2.117
 6850SOL    HW121449   5.801   3.718   2.193
 6850SOL    HW221450   5.884   3.740   2.054
 6851SOL     OW21451   0.721   3.180   3.524
 6851SOL    HW121452   0.678   3.201   3.612
 6851SOL    HW221453   0.820   3.184   3.533
 6852SOL     OW21454   2.206   5.181   0.672
 6852SOL    HW121455   2.260   5.184   0.756
 6852SOL    HW221456   2.248   5.117   0.608
 6853SOL     OW21457   6.389   3.752   0.351
 6853SOL    HW121458   6.453   3.686   0.313
 6853SOL    HW221459   6.402   3.760   0.450
 6854SOL     OW21460   4.989   1.774   6.819
 6854SOL    HW121461   4.972   1.676   6.828
 6854SOL    HW221462   5.063   1.789   6.754
 6855SOL     OW21463   3.291   5.917   3.399
 6855SOL    HW121464   3.262   5.844   3.337
 6855SOL    HW221465   3.291   5.884   3.493
 6856SOL     OW21466   5.255   3.577   5.609
 6856SOL    HW121467   5.251   3.557   5.511
 6856SOL    HW221468   5.225   3.671   5.625
 6857SOL     OW21469   2.601   2.245   0.030
 6857SOL    HW121470   2.695   2.277   0.040
 6857SOL    HW221471   2.592   2.154   0.070
 6858SOL     OW21472   3.449   3.735   3.992
 6858SOL    HW121473   3.374   3.670   3.978
 6858SOL    HW221474   3.535   3.684   4.005
 6859SOL     OW21475   0.422   1.048   0.747
 6859SOL    HW121476   0.329   1.016   0.731
 6859SOL    HW221477   0.484   1.004   0.681
 6860SOL     OW21478   6.436   5.233   0.904
 6860SOL    HW121479   6.523   5.281   0.890
 6860SOL    HW221480   6.448   5.162   0.974
 6861SOL     OW21481   4.766   4.750   0.361
 6861SOL    HW121482   4.859   4.786   0.375
 6861SOL    HW221483   4.752   4.673   0.422
 6862SOL     OW21484   1.620   4.500   5.413
 6862SOL    HW121485   1.591   4.492   5.508
 6862SOL    HW221486   1.570   4.434   5.357
 6863SOL     OW21487   5.426   0.631   5.719
 6863SOL    HW121488   5.381   0.661   5.803
 6863SOL    HW221489   5.478   0.707   5.680
 6864SOL     OW21490   3.074   6.055   4.006
 6864SOL    HW121491   3.172   6.068   4.023
 6864SOL    HW221492   3.039   5.984   4.068
 6865SOL     OW21493   0.879   5.738   3.012
 6865SOL    HW121494   0.806   5.675   3.038
 6865SOL    HW221495   0.916   5.712   2.923
 6866SOL     OW21496   6.323   4.937   3.198
 6866SOL    HW121497   6.296   4.844   3.223
 6866SOL    HW221498   6.410   4.935   3.150
 6867SOL     OW21499   2.437   4.754   1.399
 6867SOL    HW121500   2.362   4.781   1.460
 6867SOL    HW221501   2.399   4.713   1.316
 6868SOL     OW21502   1.048   5.511   6.283
 6868SOL    HW121503   1.031   5.563   6.199
 6868SOL    HW221504   1.036   5.414   6.266
 6869SOL     OW21505   5.107   0.963   5.343
 6869SOL    HW121506   5.144   1.044   5.390
 6869SOL    HW221507   5.020   0.987   5.301
 6870SOL     OW21508   6.626   4.818   2.122
 6870SOL    HW121509   6.586   4.849   2.035
 6870SOL    HW221510   6.673   4.894   2.166
 6871SOL     OW21511   6.427   4.316   3.295
 6871SOL    HW121512   6.384   4.333   3.206
 6871SOL    HW221513   6.526   4.327   3.285
 6872SOL     OW21514   0.805   3.081   1.512
 6872SOL    HW121515   0.746   3.006   1.480
 6872SOL    HW221516   0.751   3.165   1.519
 6873SOL     OW21517   6.785   4.021   5.197
 6873SOL    HW121518   6.714   3.980   5.139
 6873SOL    HW221519   6.745   4.051   5.283
 6874SOL     OW21520   0.550   6.083   2.086
 6874SOL    HW121521   0.583   6.042   2.171
 6874SOL    HW221522   0.568   6.022   2.010
 6875SOL     OW21523   1.898   2.454   3.402
 6875SOL    HW121524   1.812   2.423   3.361
 6875SOL    HW221525   1.936   2.382   3.459
 6876SOL     OW21526   3.745   6.490   3.875
 6876SOL    HW121527   3.818   6.445   3.926
 6876SOL    HW221528   3.702   6.559   3.933
 6877SOL     OW21529   2.537   3.890   1.061
 6877SOL    HW121530   2.465   3.875   1.128
 6877SOL    HW221531   2.503   3.866   0.970
 6878SOL     OW21532   3.213   1.141   5.465
 6878SOL    HW121533   3.289   1.160   5.403
 6878SOL    HW221534   3.160   1.225   5.480
 6879SOL     OW21535   0.990   2.120   0.453
 6879SOL    HW121536   0.986   2.164   0.543
 6879SOL    HW221537   0.908   2.144   0.401
 6880SOL     OW21538   1.817   4.626   5.091
 6880SOL    HW121539   1.720   4.647   5.107
 6880SOL    HW221540   1.838   4.535   5.129
 6881SOL     OW21541   1.252   3.929   1.684
 6881SOL    HW121542   1.338   3.886   1.658
 6881SOL    HW221543   1.208   3.967   1.603
 6882SOL     OW21544   3.126   0.429   6.516
 6882SOL    HW121545   3.096   0.452   6.608
 6882SOL    HW221546   3.204   0.486   6.490
 6883SOL     OW21547   4.271   1.268   0.439
 6883SOL    HW121548   4.281   1.335   0.513
 6883SOL    HW221549   4.354   1.211   0.434
 6884SOL     OW21550   2.375   4.587   4.360
 6884SOL    HW121551   2.323   4.629   4.435
 6884SOL    HW221552   2.330   4.502   4.333
 6885SOL     OW21553   3.886   5.262   3.827
 6885SOL    HW121554   3.828   5.301   3.899
 6885SOL    HW221555   3.976   5.305   3.831
 6886SOL     OW21556   6.707   0.336   4.588
 6886SOL    HW121557   6.699   0.422   4.538
 6886SOL    HW221558   6.618   0.291   4.592
 6887SOL     OW21559   5.255   5.680   6.359
 6887SOL    HW121560   5.263   5.768   6.406
 6887SOL    HW221561   5.182   5.686   6.290
 6888SOL     OW21562   5.361   6.280   7.015
 6888SOL    HW121563   5.307   6.327   6.946
 6888SOL    HW221564   5.307   6.268   0.078
 6889SOL     OW21565   1.992   1.645   5.027
 6889SOL    HW121566   1.965   1.650   4.931
 6889SOL    HW221567   2.055   1.720   5.047
 6890SOL     OW21568   4.042   6.334   1.283
 6890SOL    HW121569   3.983   6.254   1.296
 6890SOL    HW221570   4.135   6.312   1.310
 6891SOL     OW21571   2.176   4.459   3.486
 6891SOL    HW121572   2.091   4.449   3.537
 6891SOL    HW221573   2.155   4.473   3.389
 6892SOL     OW21574   2.948   2.057   3.620
 6892SOL    HW121575   2.935   1.967   3.660
 6892SOL    HW221576   2.908   2.126   3.681
 6893SOL     OW21577   4.302   4.055   0.060
 6893SOL    HW121578   4.241   4.063   7.002
 6893SOL    HW221579   4.371   3.985   0.041
 6894SOL     OW21580   6.039   4.720   0.452
 6894SOL    HW121581   5.996   4.702   0.541
 6894SOL    HW221582   6.102   4.645   0.431
 6895SOL     OW21583   2.592   5.453   0.009
 6895SOL    HW121584   2.610   5.435   6.933
 6895SOL    HW221585   2.679   5.453   0.060
 6896SOL     OW21586   1.941   6.732   3.514
 6896SOL    HW121587   1.862   6.762   3.461
 6896SOL    HW221588   1.945   6.632   3.515
 6897SOL     OW21589   3.963   4.087   6.287
 6897SOL    HW121590   4.025   4.048   6.355
 6897SOL    HW221591   3.988   4.053   6.196
 6898SOL     OW21592   3.885   1.618   1.987
 6898SOL    HW121593   3.874   1.519   1.975
 6898SOL    HW221594   3.796   1.659   2.006
 6899SOL     OW21595   5.641   6.747   1.101
 6899SOL    HW121596   5.565   6.784   1.048
 6899SOL    HW221597   5.609   6.668   1.155
 6900SOL     OW21598   6.683   6.373   5.884
 6900SOL    HW121599   6.724   6.446   5.939
 6900SOL    HW221600   6.742   6.353   5.806
 6901SOL     OW21601   0.353   6.034   6.184
 6901SOL    HW121602   0.348   6.079   6.095
 6901SOL    HW221603   0.434   5.975   6.187
 6902SOL     OW21604   5.949   6.192   6.851
 6902SOL    HW121605   5.929   6.211   6.947
 6902SOL    HW221606   5.957   6.278   6.800
 6903SOL     OW21607   3.290   5.534   4.259
 6903SOL    HW121608   3.287   5.502   4.164
 6903SOL    HW221609   3.269   5.459   4.321
 6904SOL     OW21610   5.757   0.856   4.891
 6904SOL    HW121611   5.806   0.776   4.926
 6904SOL    HW221612   5.732   0.841   4.796
 6905SOL     OW21613   5.758   6.385   6.358
 6905SOL    HW121614   5.752   6.308   6.295
 6905SOL    HW221615   5.853   6.400   6.383
 6906SOL     OW21616   4.901   1.026   3.723
 6906SOL    HW121617   4.825   1.072   3.676
 6906SOL    HW221618   4.952   0.971   3.657
 6907SOL     OW21619   5.141   2.486   1.218
 6907SOL    HW121620   5.095   2.411   1.265
 6907SOL    HW221621   5.210   2.450   1.156
 6908SOL     OW21622   0.832   5.636   6.359
 6908SOL    HW121623   0.867   5.724   6.393
 6908SOL    HW221624   0.909   5.579   6.331
 6909SOL     OW21625   6.152   4.266   1.192
 6909SOL    HW121626   6.080   4.216   1.144
 6909SOL    HW221627   6.226   4.204   1.216
 6910SOL     OW21628   6.646   2.488   3.346
 6910SOL    HW121629   6.616   2.393   3.338
 6910SOL    HW221630   6.613   2.526   3.433
 6911SOL     OW21631   4.331   6.050   4.019
 6911SOL    HW121632   4.423   6.023   4.046
 6911SOL    HW221633   4.336   6.108   3.937
 6912SOL     OW21634   3.261   5.045   0.263
 6912SOL    HW121635   3.183   5.056   0.325
 6912SOL    HW221636   3.228   5.036   0.169
 6913SOL     OW21637   4.817   5.025   4.628
 6913SOL    HW121638   4.720   5.001   4.639
 6913SOL    HW221639   4.874   4.953   4.668
 6914SOL     OW21640   6.262   3.745   5.450
 6914SOL    HW121641   6.336   3.714   5.509
 6914SOL    HW221642   6.294   3.819   5.392
 6915SOL     OW21643   6.009   3.477   1.650
 6915SOL    HW121644   5.956   3.506   1.571
 6915SOL    HW221645   5.955   3.415   1.706
 6916SOL     OW21646   6.962   3.268   0.039
 6916SOL    HW121647   0.029   3.317   0.048
 6916SOL    HW221648   6.976   3.183   7.009
 6917SOL     OW21649   2.607   5.651   1.523
 6917SOL    HW121650   2.676   5.608   1.464
 6917SOL    HW221651   2.525   5.670   1.470
 6918SOL     OW21652   6.923   3.082   4.511
 6918SOL    HW121653   6.848   3.115   4.568
 6918SOL    HW221654   7.009   3.123   4.543
 6919SOL     OW21655   0.201   6.230   2.490
 6919SOL    HW121656   0.265   6.306   2.480
 6919SOL    HW221657   0.220   6.160   2.421
 6920SOL     OW21658   4.465   5.125   5.437
 6920SOL    HW121659   4.466   5.064   5.516
 6920SOL    HW221660   4.414   5.208   5.460
 6921SOL     OW21661   5.386   5.721   3.127
 6921SOL    HW121662   5.456   5.650   3.135
 6921SOL    HW221663   5.297   5.683   3.154
 6922SOL     OW21664   2.136   5.957   5.836
 6922SOL    HW121665   2.087   5.890   5.893
 6922SOL    HW221666   2.230   5.927   5.823
 6923SOL     OW21667   3.942   5.635   3.560
 6923SOL    HW121668   3.959   5.553   3.504
 6923SOL    HW221669   3.898   5.705   3.504
 6924SOL     OW21670   2.479   3.923   6.629
 6924SOL    HW121671   2.469   3.881   6.719
 6924SOL    HW221672   2.563   3.976   6.627
 6925SOL     OW21673   4.361   6.118   4.902
 6925SOL    HW121674   4.330   6.059   4.827
 6925SOL    HW221675   4.450   6.086   4.933
 6926SOL     OW21676   3.303   2.730   1.143
 6926SOL    HW121677   3.336   2.803   1.082
 6926SOL    HW221678   3.358   2.648   1.129
 6927SOL     OW21679   5.165   2.411   6.419
 6927SOL    HW121680   5.073   2.379   6.443
 6927SOL    HW221681   5.177   2.407   6.320
 6928SOL     OW21682   6.201   5.875   0.738
 6928SOL    HW121683   6.115   5.900   0.695
 6928SOL    HW221684   6.277   5.903   0.679
 6929SOL     OW21685   6.043   5.101   0.632
 6929SOL    HW121686   6.140   5.122   0.646
 6929SOL    HW221687   6.024   5.010   0.668
 6930SOL     OW21688   0.361   6.431   2.464
 6930SOL    HW121689   0.459   6.410   2.456
 6930SOL    HW221690   0.345   6.524   2.432
 6931SOL     OW21691   2.090   0.657   2.065
 6931SOL    HW121692   2.044   0.659   1.976
 6931SOL    HW221693   2.054   0.580   2.119
 6932SOL     OW21694   4.126   6.745   0.768
 6932SOL    HW121695   4.103   6.722   0.673
 6932SOL    HW221696   4.056   6.708   0.829
 6933SOL     OW21697   2.995   6.595   4.477
 6933SOL    HW121698   3.008   6.685   4.518
 6933SOL    HW221699   2.957   6.604   4.386
 6934SOL     OW21700   5.040   3.473   6.066
 6934SOL    HW121701   5.108   3.404   6.041
 6934SOL    HW221702   4.986   3.497   5.985
 6935SOL     OW21703   4.168   4.730   3.330
 6935SOL    HW121704   4.201   4.744   3.423
 6935SOL    HW221705   4.194   4.639   3.299
 6936SOL     OW21706   6.348   2.394   4.059
 6936SOL    HW121707   6.339   2.449   3.976
 6936SOL    HW221708   6.392   2.448   4.130
 6937SOL     OW21709   0.151   6.348   0.167
 6937SOL    HW121710   0.178   6.305   0.081
 6937SOL    HW221711   0.103   6.281   0.223
 6938SOL     OW21712   5.440   3.312   5.661
 6938SOL    HW121713   5.416   3.406   5.685
 6938SOL    HW221714   5.391   3.285   5.578
 6939SOL     OW21715   0.834   4.704   2.247
 6939SOL    HW121716   0.741   4.668   2.240
 6939SOL    HW221717   0.838   4.772   2.321
 6940SOL     OW21718   4.043   0.813   0.312
 6940SOL    HW121719   4.106   0.737   0.324
 6940SOL    HW221720   4.061   0.882   0.382
 6941SOL     OW21721   3.570   3.181   1.606
 6941SOL    HW121722   3.526   3.111   1.550
 6941SOL    HW221723   3.531   3.179   1.698
 6942SOL     OW21724   5.211   0.608   1.511
 6942SOL    HW121725   5.160   0.624   1.595
 6942SOL    HW221726   5.219   0.510   1.495
 6943SOL     OW21727   4.165   6.335   6.821
 6943SOL    HW121728   4.155   6.238   6.844
 6943SOL    HW221729   4.252   6.369   6.856
 6944SOL     OW21730   0.898   3.998   6.781
 6944SOL    HW121731   0.804   4.022   6.759
 6944SOL    HW221732   0.909   3.899   6.781
 6945SOL     OW21733   6.365   1.611   6.273
 6945SOL    HW121734   6.274   1.651   6.260
 6945SOL    HW221735   6.395   1.568   6.188
 6946SOL     OW21736   5.661   6.090   1.096
 6946SOL    HW121737   5.719   6.028   1.042
 6946SOL    HW221738   5.709   6.176   1.111
 6947SOL     OW21739   3.647   6.332   6.317
 6947SOL    HW121740   3.746   6.335   6.330
 6947SOL    HW221741   3.617   6.238   6.303
 6948SOL     OW21742   6.934   0.549   0.164
 6948SOL    HW121743   6.922   0.526   0.067
 6948SOL    HW221744   6.957   0.467   0.215
 6949SOL     OW21745   5.046   6.801   2.777
 6949SOL    HW121746   4.981   6.857   2.726
 6949SOL    HW221747   5.021   6.801   2.874
 6950SOL     OW21748   2.216   1.223   4.560
 6950SOL    HW121749   2.154   1.224   4.482
 6950SOL    HW221750   2.166   1.195   4.642
 6951SOL     OW21751   6.586   5.725   5.396
 6951SOL    HW121752   6.555   5.787   5.323
 6951SOL    HW221753   6.511   5.665   5.423
 6952SOL     OW21754   0.586   6.355   3.575
 6952SOL    HW121755   0.523   6.328   3.501
 6952SOL    HW221756   0.565   6.303   3.657
 6953SOL     OW21757   4.727   6.733   0.264
 6953SOL    HW121758   4.792   6.707   0.193
 6953SOL    HW221759   4.748   6.824   0.297
 6954SOL     OW21760   0.172   3.759   3.688
 6954SOL    HW121761   0.184   3.679   3.628
 6954SOL    HW221762   0.203   3.841   3.640
 6955SOL     OW21763   6.455   0.229   2.564
 6955SOL    HW121764   6.501   0.229   2.653
 6955SOL    HW221765   6.517   0.193   2.494
 6956SOL     OW21766   5.126   5.629   3.210
 6956SOL    HW121767   5.053   5.687   3.245
 6956SOL    HW221768   5.087   5.560   3.149
 6957SOL     OW21769   6.698   5.128   0.717
 6957SOL    HW121770   6.789   5.100   0.688
 6957SOL    HW221771   6.658   5.057   0.775
 6958SOL     OW21772   2.905   3.367   4.380
 6958SOL    HW121773   2.896   3.359   4.480
 6958SOL    HW221774   2.914   3.276   4.340
 6959SOL     OW21775   1.759   1.695   4.197
 6959SOL    HW121776   1.781   1.607   4.154
 6959SOL    HW221777   1.833   1.760   4.180
 6960SOL     OW21778   2.172   4.685   1.566
 6960SOL    HW121779   2.187   4.760   1.631
 6960SOL    HW221780   2.106   4.714   1.497
 6961SOL     OW21781   5.723   2.078   3.866
 6961SOL    HW121782   5.712   1.995   3.810
 6961SOL    HW221783   5.716   2.159   3.807
 6962SOL     OW21784   4.488   5.968   1.875
 6962SOL    HW121785   4.492   5.991   1.778
 6962SOL    HW221786   4.409   6.014   1.917
 6963SOL     OW21787   5.144   6.002   1.006
 6963SOL    HW121788   5.196   5.954   0.935
 6963SOL    HW221789   5.134   6.098   0.980
 6964SOL     OW21790   3.584   0.376   4.964
 6964SOL    HW121791   3.677   0.389   4.929
 6964SOL    HW221792   3.550   0.287   4.934
 6965SOL     OW21793   1.066   3.184   1.532
 6965SOL    HW121794   0.966   3.185   1.530
 6965SOL    HW221795   1.098   3.153   1.622
 6966SOL     OW21796   6.931   2.340   2.902
 6966SOL    HW121797   6.932   2.363   2.804
 6966SOL    HW221798   6.967   2.417   2.954
 6967SOL     OW21799   2.572   6.610   5.365
 6967SOL    HW121800   2.527   6.628   5.277
 6967SOL    HW221801   2.520   6.655   5.438
 6968SOL     OW21802   4.398   6.740   2.616
 6968SOL    HW121803   4.415   6.838   2.623
 6968SOL    HW221804   4.304   6.724   2.586
 6969SOL     OW21805   2.987   2.221   1.138
 6969SOL    HW121806   3.077   2.229   1.180
 6969SOL    HW221807   2.927   2.294   1.171
 6970SOL     OW21808   3.528   4.238   6.651
 6970SOL    HW121809   3.521   4.283   6.740
 6970SOL    HW221810   3.440   4.242   6.604
 6971SOL     OW21811   6.218   4.072   2.459
 6971SOL    HW121812   6.185   4.162   2.487
 6971SOL    HW221813   6.141   4.011   2.441
 6972SOL     OW21814   4.895   3.978   3.211
 6972SOL    HW121815   4.979   4.010   3.167
 6972SOL    HW221816   4.851   3.908   3.153
 6973SOL     OW21817   0.576   2.855   4.291
 6973SOL    HW121818   0.501   2.795   4.318
 6973SOL    HW221819   0.543   2.919   4.222
 6974SOL     OW21820   3.375   4.004   2.267
 6974SOL    HW121821   3.396   3.908   2.279
 6974SOL    HW221822   3.276   4.019   2.277
 6975SOL     OW21823   2.349   6.446   6.131
 6975SOL    HW121824   2.386   6.365   6.085
 6975SOL    HW221825   2.340   6.427   6.229
 6976SOL     OW21826   5.181   5.889   4.546
 6976SOL    HW121827   5.083   5.870   4.552
 6976SOL    HW221828   5.218   5.845   4.464
 6977SOL     OW21829   4.012   2.479   1.683
 6977SOL    HW121830   4.111   2.483   1.693
 6977SOL    HW221831   3.975   2.571   1.680
 6978SOL     OW21832   5.145   1.591   2.830
 6978SOL    HW121833   5.097   1.604   2.917
 6978SOL    HW221834   5.153   1.493   2.810
 6979SOL     OW21835   0.804   4.064   1.180
 6979SOL    HW121836   0.740   3.994   1.212
 6979SOL    HW221837   0.822   4.130   1.253
 6980SOL     OW21838   1.614   0.960   3.581
 6980SOL    HW121839   1.630   0.903   3.661
 6980SOL    HW221840   1.682   1.033   3.577
 6981SOL     OW21841   4.025   2.463   5.700
 6981SOL    HW121842   3.982   2.535   5.646
 6981SOL    HW221843   4.043   2.384   5.642
 6982SOL     OW21844   1.217   0.501   4.527
 6982SOL    HW121845   1.174   0.577   4.576
 6982SOL    HW221846   1.284   0.456   4.586
 6983SOL     OW21847   3.962   2.055   3.680
 6983SOL    HW121848   4.021   2.132   3.704
 6983SOL    HW221849   3.992   1.973   3.730
 6984SOL     OW21850   2.564   1.818   3.691
 6984SOL    HW121851   2.620   1.836   3.771
 6984SOL    HW221852   2.504   1.896   3.674
 6985SOL     OW21853   5.050   4.870   1.818
 6985SOL    HW121854   5.027   4.786   1.869
 6985SOL    HW221855   5.089   4.937   1.881
 6986SOL     OW21856   1.733   6.882   6.431
 6986SOL    HW121857   1.691   6.972   6.419
 6986SOL    HW221858   1.692   6.818   6.366
 6987SOL     OW21859   6.148   1.754   5.641
 6987SOL    HW121860   6.176   1.827   5.703
 6987SOL    HW221861   6.145   1.667   5.690
 6988SOL     OW21862   0.558   0.525   5.202
 6988SOL    HW121863   0.573   0.611   5.252
 6988SOL    HW221864   0.623   0.456   5.236
 6989SOL     OW21865   0.712   4.010   3.185
 6989SOL    HW121866   0.762   4.024   3.271
 6989SOL    HW221867   0.731   4.086   3.122
 6990SOL     OW21868   4.705   2.794   1.342
 6990SOL    HW121869   4.777   2.773   1.408
 6990SOL    HW221870   4.743   2.847   1.266
 6991SOL     OW21871   3.597   4.928   3.167
 6991SOL    HW121872   3.508   4.929   3.121
 6991SOL    HW221873   3.669   4.914   3.099
 6992SOL     OW21874   4.847   6.167   6.418
 6992SOL    HW121875   4.938   6.206   6.437
 6992SOL    HW221876   4.854   6.101   6.344
 6993SOL     OW21877   6.096   0.510   2.590
 6993SOL    HW121878   6.085   0.541   2.495
 6993SOL    HW221879   6.165   0.438   2.594
 6994SOL     OW21880   0.637   2.333   4.388
 6994SOL    HW121881   0.595   2.256   4.340
 6994SOL    HW221882   0.630   2.416   4.333
 6995SOL     OW21883   6.634   4.493   6.327
 6995SOL    HW121884   6.683   4.536   6.403
 6995SOL    HW221885   6.669   4.400   6.314
 6996SOL     OW21886   1.424   0.031   6.623
 6996SOL    HW121887   1.444   0.095   6.697
 6996SOL    HW221888   1.331   0.046   6.589
 6997SOL     OW21889   7.006   5.944   5.105
 6997SOL    HW121890   6.937   6.016   5.102
 6997SOL    HW221891   0.007   5.914   5.012
 6998SOL     OW21892   2.422   0.708   1.684
 6998SOL    HW121893   2.426   0.703   1.784
 6998SOL    HW221894   2.451   0.798   1.654
 6999SOL     OW21895   2.344   2.238   5.880
 6999SOL    HW121896   2.404   2.314   5.904
 6999SOL    HW221897   2.366   2.206   5.787
 7000SOL     OW21898   5.311   6.418   1.071
 7000SOL    HW121899   5.258   6.364   1.005
 7000SOL    HW221900   5.360   6.356   1.132
 7001SOL     OW21901   1.805   2.472   5.320
 7001SOL    HW121902   1.760   2.384   5.339
 7001SOL    HW221903   1.893   2.474   5.367
 7002SOL     OW21904   1.528   5.456   4.159
 7002SOL    HW121905   1.502   5.361   4.178
 7002SOL    HW221906   1.446   5.512   4.152
 7003SOL     OW21907   3.943   4.697   0.232
 7003SOL    HW121908   3.934   4.768   0.162
 7003SOL    HW221909   4.008   4.628   0.201
 7004SOL     OW21910   1.049   4.504   2.590
 7004SOL    HW121911   1.017   4.487   2.497
 7004SOL    HW221912   1.147   4.483   2.595
 7005SOL     OW21913   1.529   0.526   0.498
 7005SOL    HW121914   1.567   0.614   0.470
 7005SOL    HW221915   1.591   0.452   0.471
 7006SOL     OW21916   5.130   5.077   3.728
 7006SOL    HW121917   5.132   5.152   3.662
 7006SOL    HW221918   5.202   5.012   3.706
 7007SOL     OW21919   5.209   0.262   3.488
 7007SOL    HW121920   5.186   0.173   3.528
 7007SOL    HW221921   5.217   0.253   3.389
 7008SOL     OW21922   0.711   3.861   4.573
 7008SOL    HW121923   0.663   3.774   4.575
 7008SOL    HW221924   0.721   3.897   4.666
 7009SOL     OW21925   5.278   6.196   1.910
 7009SOL    HW121926   5.254   6.293   1.920
 7009SOL    HW221927   5.256   6.167   1.817
 7010SOL     OW21928   5.429   4.115   4.273
 7010SOL    HW121929   5.330   4.105   4.277
 7010SOL    HW221930   5.453   4.188   4.208
 7011SOL     OW21931   3.646   6.683   6.334
 7011SOL    HW121932   3.693   6.618   6.394
 7011SOL    HW221933   3.688   6.773   6.344
 7012SOL     OW21934   1.409   1.950   1.384
 7012SOL    HW121935   1.330   1.991   1.429
 7012SOL    HW221936   1.395   1.947   1.286
 7013SOL     OW21937   0.571   0.416   0.084
 7013SOL    HW121938   0.487   0.452   0.124
 7013SOL    HW221939   0.628   0.378   0.156
 7014SOL     OW21940   4.273   3.198   0.949
 7014SOL    HW121941   4.307   3.288   0.923
 7014SOL    HW221942   4.189   3.207   1.003
 7015SOL     OW21943   5.705   4.932   2.518
 7015SOL    HW121944   5.768   4.950   2.593
 7015SOL    HW221945   5.696   5.014   2.461
 7016SOL     OW21946   3.777   4.789   1.309
 7016SOL    HW121947   3.678   4.800   1.322
 7016SOL    HW221948   3.793   4.727   1.232
 7017SOL     OW21949   1.952   4.786   2.238
 7017SOL    HW121950   1.879   4.787   2.306
 7017SOL    HW221951   2.041   4.781   2.285
 7018SOL     OW21952   5.551   3.875   4.198
 7018SOL    HW121953   5.556   3.975   4.192
 7018SOL    HW221954   5.455   3.847   4.200
 7019SOL     OW21955   3.458   3.901   0.306
 7019SOL    HW121956   3.486   3.824   0.248
 7019SOL    HW221957   3.360   3.918   0.294
 7020SOL     OW21958   6.539   5.508   6.982
 7020SOL    HW121959   6.492   5.435   0.011
 7020SOL    HW221960   6.544   5.485   6.885
 7021SOL     OW21961   1.133   1.821   5.693
 7021SOL    HW121962   1.229   1.801   5.673
 7021SOL    HW221963   1.093   1.873   5.617
 7022SOL     OW21964   4.712   0.059   6.187
 7022SOL    HW121965   4.783   7.020   6.225
 7022SOL    HW221966   4.752   0.117   6.116
 7023SOL     OW21967   0.348   1.611   4.370
 7023SOL    HW121968   0.288   1.638   4.446
 7023SOL    HW221969   0.345   1.511   4.360
 7024SOL     OW21970   2.583   4.140   5.342
 7024SOL    HW121971   2.507   4.109   5.284
 7024SOL    HW221972   2.669   4.102   5.309
 7025SOL     OW21973   3.088   1.281   0.601
 7025SOL    HW121974   3.084   1.190   0.560
 7025SOL    HW221975   3.005   1.332   0.577
 7026SOL     OW21976   3.405   1.473   2.290
 7026SOL    HW121977   3.398   1.522   2.377
 7026SOL    HW221978   3.320   1.483   2.238
 7027SOL     OW21979   2.356   5.271   4.034
 7027SOL    HW121980   2.416   5.192   4.051
 7027SOL    HW221981   2.383   5.315   3.948
 7028SOL     OW21982   3.705   1.333   4.121
 7028SOL    HW121983   3.616   1.331   4.166
 7028SOL    HW221984   3.704   1.405   4.051
 7029SOL     OW21985   5.196   4.967   5.163
 7029SOL    HW121986   5.110   5.017   5.169
 7029SOL    HW221987   5.208   4.911   5.245
 7030SOL     OW21988   1.358   1.008   5.312
 7030SOL    HW121989   1.345   0.987   5.215
 7030SOL    HW221990   1.269   1.013   5.358
 7031SOL     OW21991   2.828   5.864   4.839
 7031SOL    HW121992   2.823   5.963   4.823
 7031SOL    HW221993   2.791   5.816   4.759
 7032SOL     OW21994   3.912   0.701   3.225
 7032SOL    HW121995   4.000   0.748   3.236
 7032SOL    HW221996   3.922   0.626   3.160
 7033SOL     OW21997   1.790   2.494   3.782
 7033SOL    HW121998   1.841   2.409   3.794
 7033SOL    HW221999   1.722   2.483   3.710
 7034SOL     OW22000   6.292   0.593   4.024
 7034SOL    HW122001   6.241   0.638   4.097
 7034SOL    HW222002   6.390   0.600   4.041
 7035SOL     OW22003   1.496   6.514   1.200
 7035SOL    HW122004   1.425   6.465   1.251
 7035SOL    HW222005   1.467   6.608   1.184
 7036SOL     OW22006   0.440   0.595   2.895
 7036SOL    HW122007   0.472   0.615   2.802
 7036SOL    HW222008   0.345   0.565   2.891
 7037SOL     OW22009   1.804   1.635   6.717
 7037SOL    HW122010   1.752   1.698   6.775
 7037SOL    HW222011   1.895   1.622   6.755
 7038SOL     OW22012   2.566   3.184   5.393
 7038SOL    HW122013   2.484   3.209   5.443
 7038SOL    HW222014   2.542   3.163   5.298
 7039SOL     OW22015   2.803   4.968   1.902
 7039SOL    HW122016   2.726   4.996   1.845
 7039SOL    HW222017   2.777   4.890   1.958
 7040SOL     OW22018   6.005   1.873   5.310
 7040SOL    HW122019   5.945   1.834   5.380
 7040SOL    HW222020   6.057   1.949   5.349
 7041SOL     OW22021   6.565   1.735   1.781
 7041SOL    HW122022   6.605   1.684   1.858
 7041SOL    HW222023   6.625   1.728   1.702
 7042SOL     OW22024   4.526   4.841   5.223
 7042SOL    HW122025   4.524   4.937   5.196
 7042SOL    HW222026   4.501   4.833   5.320
 7043SOL     OW22027   2.153   3.849   2.979
 7043SOL    HW122028   2.053   3.856   2.984
 7043SOL    HW222029   2.181   3.837   2.884
 7044SOL     OW22030   4.613   4.729   4.061
 7044SOL    HW122031   4.695   4.690   4.020
 7044SOL    HW222032   4.560   4.777   3.992
 7045SOL     OW22033   4.896   5.788   3.327
 7045SOL    HW122034   4.865   5.693   3.334
 7045SOL    HW222035   4.821   5.845   3.293
 7046SOL     OW22036   3.194   0.908   3.215
 7046SOL    HW122037   3.266   0.972   3.243
 7046SOL    HW222038   3.114   0.959   3.184
 7047SOL     OW22039   6.373   1.639   2.200
 7047SOL    HW122040   6.325   1.670   2.118
 7047SOL    HW222041   6.307   1.612   2.270
 7048SOL     OW22042   5.386   6.301   2.989
 7048SOL    HW122043   5.295   6.343   2.991
 7048SOL    HW222044   5.408   6.274   2.895
 7049SOL     OW22045   3.729   1.506   0.901
 7049SOL    HW122046   3.826   1.525   0.909
 7049SOL    HW222047   3.716   1.414   0.864
 7050SOL     OW22048   4.278   3.369   1.327
 7050SOL    HW122049   4.292   3.291   1.388
 7050SOL    HW222050   4.340   3.362   1.249
 7051SOL     OW22051   6.494   6.926   1.526
 7051SOL    HW122052   6.423   6.875   1.575
 7051SOL    HW222053   6.500   7.019   1.564
 7052SOL     OW22054   5.871   2.503   3.410
 7052SOL    HW122055   5.923   2.474   3.329
 7052SOL    HW222056   5.774   2.479   3.398
 7053SOL     OW22057   1.195   3.384   5.362
 7053SOL    HW122058   1.144   3.371   5.446
 7053SOL    HW222059   1.289   3.411   5.383
 7054SOL     OW22060   0.915   6.758   0.470
 7054SOL    HW122061   0.907   6.708   0.384
 7054SOL    HW222062   1.004   6.803   0.474
 7055SOL     OW22063   2.842   0.149   5.729
 7055SOL    HW122064   2.869   0.241   5.759
 7055SOL    HW222065   2.771   0.114   5.788
 7056SOL     OW22066   6.146   4.547   2.160
 7056SOL    HW122067   6.095   4.467   2.193
 7056SOL    HW222068   6.082   4.617   2.129
 7057SOL     OW22069   1.734   5.615   4.238
 7057SOL    HW122070   1.696   5.706   4.256
 7057SOL    HW222071   1.665   5.558   4.193
 7058SOL     OW22072   5.913   5.010   5.472
 7058SOL    HW122073   5.906   4.911   5.480
 7058SOL    HW222074   5.822   5.049   5.461
 7059SOL     OW22075   6.909   1.586   3.951
 7059SOL    HW122076   6.843   1.563   4.023
 7059SOL    HW222077   7.001   1.582   3.988
 7060SOL     OW22078   4.295   0.201   1.501
 7060SOL    HW122079   4.338   0.263   1.566
 7060SOL    HW222080   4.203   0.178   1.533
 7061SOL     OW22081   0.654   2.935   3.382
 7061SOL    HW122082   0.729   2.882   3.341
 7061SOL    HW222083   0.691   3.017   3.426
 7062SOL     OW22084   3.885   0.902   5.412
 7062SOL    HW122085   3.934   0.937   5.333
 7062SOL    HW222086   3.889   0.802   5.414
 7063SOL     OW22087   1.490   0.232   1.980
 7063SOL    HW122088   1.560   0.291   1.941
 7063SOL    HW222089   1.518   0.136   1.970
 7064SOL     OW22090   3.936   1.770   0.757
 7064SOL    HW122091   3.861   1.774   0.823
 7064SOL    HW222092   3.985   1.683   0.767
 7065SOL     OW22093   4.658   3.854   6.204
 7065SOL    HW122094   4.655   3.779   6.137
 7065SOL    HW222095   4.746   3.900   6.197
 7066SOL     OW22096   4.661   0.439   6.853
 7066SOL    HW122097   4.652   0.500   6.931
 7066SOL    HW222098   4.571   0.412   6.820
 7067SOL     OW22099   1.697   2.684   5.149
 7067SOL    HW122100   1.683   2.656   5.054
 7067SOL    HW222101   1.743   2.610   5.199
 7068SOL     OW22102   6.358   4.468   5.059
 7068SOL    HW122103   6.409   4.448   5.143
 7068SOL    HW222104   6.274   4.413   5.056
 7069SOL     OW22105   5.469   1.690   4.383
 7069SOL    HW122106   5.441   1.780   4.351
 7069SOL    HW222107   5.549   1.660   4.331
 7070SOL     OW22108   0.305   6.673   4.756
 7070SOL    HW122109   0.257   6.586   4.748
 7070SOL    HW222110   0.361   6.673   4.839
 7071SOL     OW22111   3.156   5.942   5.896
 7071SOL    HW122112   3.158   5.845   5.869
 7071SOL    HW222113   3.090   5.991   5.840
 7072SOL     OW22114   1.970   6.350   0.135
 7072SOL    HW122115   1.905   6.388   0.068
 7072SOL    HW222116   1.939   6.371   0.227
 7073SOL     OW22117   5.360   6.909   4.625
 7073SOL    HW122118   5.387   6.832   4.567
 7073SOL    HW222119   5.261   6.912   4.633
 7074SOL     OW22120   5.103   2.516   1.630
 7074SOL    HW122121   5.020   2.527   1.684
 7074SOL    HW222122   5.172   2.468   1.684
 7075SOL     OW22123   1.861   4.368   5.198
 7075SOL    HW122124   1.879   4.367   5.297
 7075SOL    HW222125   1.916   4.298   5.154
 7076SOL     OW22126   5.812   2.086   6.141
 7076SOL    HW122127   5.726   2.050   6.177
 7076SOL    HW222128   5.814   2.185   6.152
 7077SOL     OW22129   2.744   4.704   3.422
 7077SOL    HW122130   2.772   4.713   3.517
 7077SOL    HW222131   2.682   4.626   3.412
 7078SOL     OW22132   6.932   6.972   1.628
 7078SOL    HW122133   6.995   7.017   1.692
 7078SOL    HW222134   6.982   6.947   1.545
 7079SOL     OW22135   6.995   5.901   4.058
 7079SOL    HW122136   6.988   5.901   3.958
 7079SOL    HW222137   0.033   5.825   4.087
 7080SOL     OW22138   3.496   1.079   4.929
 7080SOL    HW122139   3.436   1.148   4.889
 7080SOL    HW222140   3.460   0.988   4.910
 7081SOL     OW22141   2.486   6.639   6.791
 7081SOL    HW122142   2.551   6.670   6.861
 7081SOL    HW222143   2.396   6.678   6.810
 7082SOL     OW22144   6.774   3.925   0.228
 7082SOL    HW122145   6.760   3.834   0.267
 7082SOL    HW222146   6.844   3.920   0.157
 7083SOL     OW22147   2.278   0.022   0.866
 7083SOL    HW122148   2.225   6.971   0.912
 7083SOL    HW222149   2.360   0.043   0.919
 7084SOL     OW22150   0.153   5.259   5.823
 7084SOL    HW122151   0.179   5.353   5.845
 7084SOL    HW222152   0.084   5.260   5.750
 7085SOL     OW22153   1.029   1.400   1.930
 7085SOL    HW122154   1.023   1.304   1.901
 7085SOL    HW222155   1.108   1.443   1.887
 7086SOL     OW22156   5.501   0.124   5.742
 7086SOL    HW122157   5.590   0.162   5.718
 7086SOL    HW222158   5.431   0.158   5.679
 7087SOL     OW22159   6.101   4.000   4.634
 7087SOL    HW122160   6.112   4.085   4.583
 7087SOL    HW222161   6.177   3.938   4.613
 7088SOL     OW22162   4.967   2.892   3.627
 7088SOL    HW122163   4.911   2.832   3.684
 7088SOL    HW222164   5.013   2.959   3.685
 7089SOL     OW22165   2.956   2.009   4.648
 7089SOL    HW122166   3.015   2.043   4.575
 7089SOL    HW222167   2.959   1.909   4.651
 7090SOL     OW22168   1.842   0.587   0.038
 7090SOL    HW122169   1.938   0.591   0.067
 7090SOL    HW222170   1.838   0.570   6.959
 7091SOL     OW22171   0.493   2.243   0.772
 7091SOL    HW122172   0.530   2.306   0.841
 7091SOL    HW222173   0.425   2.184   0.814
 7092SOL     OW22174   3.530   3.350   6.124
 7092SOL    HW122175   3.548   3.365   6.027
 7092SOL    HW222176   3.495   3.257   6.138
 7093SOL     OW22177   3.132   3.856   2.451
 7093SOL    HW122178   3.218   3.828   2.495
 7093SOL    HW222179   3.059   3.795   2.480
 7094SOL     OW22180   0.007   5.666   5.801
 7094SOL    HW122181   6.963   5.599   5.763
 7094SOL    HW222182   0.028   5.736   5.732
 7095SOL     OW22183   4.257   4.527   5.604
 7095SOL    HW122184   4.171   4.488   5.635
 7095SOL    HW222185   4.247   4.560   5.510
 7096SOL     OW22186   6.620   1.500   3.403
 7096SOL    HW122187   6.693   1.471   3.464
 7096SOL    HW222188   6.614   1.600   3.403
 7097SOL     OW22189   5.220   1.906   1.562
 7097SOL    HW122190   5.135   1.905   1.509
 7097SOL    HW222191   5.290   1.855   1.514
 7098SOL     OW22192   1.785   5.400   5.683
 7098SOL    HW122193   1.804   5.335   5.757
 7098SOL    HW222194   1.789   5.493   5.718
 7099SOL     OW22195   3.683   1.310   5.242
 7099SOL    HW122196   3.657   1.377   5.312
 7099SOL    HW222197   3.647   1.338   5.153
 7100SOL     OW22198   6.408   3.439   0.159
 7100SOL    HW122199   6.474   3.379   0.205
 7100SOL    HW222200   6.453   3.485   0.083
 7101SOL     OW22201   1.995   1.371   5.332
 7101SOL    HW122202   1.993   1.458   5.381
 7101SOL    HW222203   1.922   1.312   5.367
 7102SOL     OW22204   5.404   6.964   0.679
 7102SOL    HW122205   5.397   0.036   0.719
 7102SOL    HW222206   5.475   6.964   0.609
 7103SOL     OW22207   5.221   4.923   2.673
 7103SOL    HW122208   5.241   5.020   2.686
 7103SOL    HW222209   5.291   4.882   2.615
 7104SOL     OW22210   0.106   3.179   3.577
 7104SOL    HW122211   0.055   3.180   3.491
 7104SOL    HW222212   0.204   3.191   3.557
 7105SOL     OW22213   2.786   3.363   5.674
 7105SOL    HW122214   2.790   3.392   5.579
 7105SOL    HW222215   2.762   3.265   5.678
 7106SOL     OW22216   3.783   3.482   2.332
 7106SOL    HW122217   3.772   3.578   2.305
 7106SOL    HW222218   3.714   3.427   2.286
 7107SOL     OW22219   4.576   1.138   0.711
 7107SOL    HW122220   4.644   1.083   0.757
 7107SOL    HW222221   4.524   1.192   0.778
 7108SOL     OW22222   3.322   6.691   2.678
 7108SOL    HW122223   3.372   6.638   2.746
 7108SOL    HW222224   3.226   6.662   2.677
 7109SOL     OW22225   2.768   0.574   5.810
 7109SOL    HW122226   2.770   0.648   5.742
 7109SOL    HW222227   2.853   0.522   5.805
 7110SOL     OW22228   3.206   5.712   4.439
 7110SOL    HW122229   3.106   5.710   4.431
 7110SOL    HW222230   3.247   5.662   4.363
 7111SOL     OW22231   1.475   2.864   5.236
 7111SOL    HW122232   1.549   2.801   5.213
 7111SOL    HW222233   1.469   2.935   5.166
 7112SOL     OW22234   2.093   5.041   4.732
 7112SOL    HW122235   2.119   5.058   4.637
 7112SOL    HW222236   2.057   5.125   4.773
 7113SOL     OW22237   3.887   4.100   4.914
 7113SOL    HW122238   3.978   4.135   4.891
 7113SOL    HW222239   3.839   4.074   4.831
 7114SOL     OW22240   5.214   5.985   1.261
 7114SOL    HW122241   5.169   6.000   1.172
 7114SOL    HW222242   5.144   5.976   1.332
 7115SOL     OW22243   5.417   3.130   0.849
 7115SOL    HW122244   5.516   3.127   0.866
 7115SOL    HW222245   5.372   3.170   0.929
 7116SOL     OW22246   5.996   4.202   2.765
 7116SOL    HW122247   6.067   4.189   2.835
 7116SOL    HW222248   5.939   4.120   2.761
 7117SOL     OW22249   0.497   6.673   5.233
 7117SOL    HW122250   0.554   6.610   5.286
 7117SOL    HW222251   0.507   6.766   5.269
 7118SOL     OW22252   3.093   4.854   0.923
 7118SOL    HW122253   3.062   4.902   1.005
 7118SOL    HW222254   3.053   4.762   0.921
 7119SOL     OW22255   4.960   1.616   4.030
 7119SOL    HW122256   4.908   1.542   4.071
 7119SOL    HW222257   5.030   1.648   4.094
 7120SOL     OW22258   3.502   2.044   2.394
 7120SOL    HW122259   3.473   1.962   2.442
 7120SOL    HW222260   3.423   2.089   2.352
 7121SOL     OW22261   0.934   0.106   3.619
 7121SOL    HW122262   1.017   0.159   3.607
 7121SOL    HW222263   0.909   0.063   3.532
 7122SOL     OW22264   1.912   0.532   5.888
 7122SOL    HW122265   1.890   0.437   5.863
 7122SOL    HW222266   2.008   0.538   5.914
 7123SOL     OW22267   1.558   4.848   2.967
 7123SOL    HW122268   1.464   4.879   2.958
 7123SOL    HW222269   1.565   4.754   2.933
 7124SOL     OW22270   6.870   2.353   1.411
 7124SOL    HW122271   6.957   2.399   1.396
 7124SOL    HW222272   6.880   2.286   1.485
 7125SOL     OW22273   0.651   0.017   0.732
 7125SOL    HW122274   0.713   6.975   0.781
 7125SOL    HW222275   0.686   0.110   0.738
 7126SOL     OW22276   3.456   5.235   0.339
 7126SOL    HW122277   3.385   5.166   0.356
 7126SOL    HW222278   3.491   5.224   0.246
 7127SOL     OW22279   1.823   4.978   6.265
 7127SOL    HW122280   1.853   4.891   6.229
 7127SOL    HW222281   1.895   5.046   6.255
 7128SOL     OW22282   2.952   5.022   6.894
 7128SOL    HW122283   2.977   5.119   6.882
 7128SOL    HW222284   3.025   4.965   6.857
 7129SOL     OW22285   2.273   1.708   0.421
 7129SOL    HW122286   2.371   1.686   0.422
 7129SOL    HW222287   2.240   1.706   0.326
 7130SOL     OW22288   3.811   5.823   4.773
 7130SOL    HW122289   3.872   5.776   4.837
 7130SOL    HW222290   3.859   5.902   4.734
 7131SOL     OW22291   2.568   1.024   1.286
 7131SOL    HW122292   2.595   1.077   1.366
 7131SOL    HW222293   2.472   1.044   1.265
 7132SOL     OW22294   3.994   3.691   0.376
 7132SOL    HW122295   3.993   3.699   0.276
 7132SOL    HW222296   3.978   3.781   0.416
 7133SOL     OW22297   4.805   5.624   5.836
 7133SOL    HW122298   4.791   5.544   5.778
 7133SOL    HW222299   4.729   5.633   5.900
 7134SOL     OW22300   4.975   6.786   1.377
 7134SOL    HW122301   5.033   6.740   1.311
 7134SOL    HW222302   4.932   6.866   1.334
 7135SOL     OW22303   1.652   2.606   3.377
 7135SOL    HW122304   1.653   2.538   3.304
 7135SOL    HW222305   1.666   2.560   3.465
 7136SOL     OW22306   2.073   1.826   0.578
 7136SOL    HW122307   2.094   1.814   0.675
 7136SOL    HW222308   2.156   1.814   0.524
 7137SOL     OW22309   3.375   0.559   6.481
 7137SOL    HW122310   3.422   0.488   6.429
 7137SOL    HW222311   3.409   0.558   6.575
 7138SOL     OW22312   2.624   1.994   0.141
 7138SOL    HW122313   2.672   1.974   0.227
 7138SOL    HW222314   2.526   1.993   0.157
 7139SOL     OW22315   6.373   3.848   1.745
 7139SOL    HW122316   6.387   3.923   1.681
 7139SOL    HW222317   6.301   3.787   1.711
 7140SOL     OW22318   6.469   3.676   2.451
 7140SOL    HW122319   6.394   3.617   2.421
 7140SOL    HW222320   6.484   3.748   2.383
 7141SOL     OW22321   3.597   6.121   0.820
 7141SOL    HW122322   3.666   6.174   0.771
 7141SOL    HW222323   3.541   6.182   0.876
 7142SOL     OW22324   4.199   0.088   2.920
 7142SOL    HW122325   4.216   0.108   3.016
 7142SOL    HW222326   4.263   0.140   2.863
 7143SOL     OW22327   1.765   2.485   6.015
 7143SOL    HW122328   1.784   2.457   6.109
 7143SOL    HW222329   1.841   2.540   5.981
 7144SOL     OW22330   2.027   2.189   2.626
 7144SOL    HW122331   2.014   2.261   2.558
 7144SOL    HW222332   2.108   2.209   2.681
 7145SOL     OW22333   4.042   0.349   0.079
 7145SOL    HW122334   4.030   0.305   7.010
 7145SOL    HW222335   4.130   0.395   0.082
 7146SOL     OW22336   1.846   6.655   0.290
 7146SOL    HW122337   1.797   6.622   0.209
 7146SOL    HW222338   1.819   6.749   0.310
 7147SOL     OW22339   6.860   0.103   3.118
 7147SOL    HW122340   6.765   0.113   3.088
 7147SOL    HW222341   6.910   0.188   3.098
 7148SOL     OW22342   0.235   6.843   1.240
 7148SOL    HW122343   0.291   6.921   1.212
 7148SOL    HW222344   0.293   6.763   1.254
 7149SOL     OW22345   6.544   6.788   3.547
 7149SOL    HW122346   6.475   6.764   3.479
 7149SOL    HW222347   6.630   6.743   3.525
 7150SOL     OW22348   3.661   2.703   1.381
 7150SOL    HW122349   3.592   2.637   1.412
 7150SOL    HW222350   3.673   2.694   1.282
 7151SOL     OW22351   2.992   6.835   0.399
 7151SOL    HW122352   3.022   6.915   0.451
 7151SOL    HW222353   3.032   6.753   0.440
 7152SOL     OW22354   0.007   0.980   5.695
 7152SOL    HW122355   7.012   0.949   5.789
 7152SOL    HW222356   0.105   0.993   5.679
 7153SOL     OW22357   4.134   5.171   1.588
 7153SOL    HW122358   4.104   5.170   1.683
 7153SOL    HW222359   4.081   5.239   1.536
 7154SOL     OW22360   4.898   6.607   3.240
 7154SOL    HW122361   4.937   6.684   3.292
 7154SOL    HW222362   4.964   6.532   3.237
 7155SOL     OW22363   1.932   3.279   0.623
 7155SOL    HW122364   1.995   3.253   0.696
 7155SOL    HW222365   1.962   3.365   0.582
 7156SOL     OW22366   0.227   3.068   3.993
 7156SOL    HW122367   0.212   3.144   4.056
 7156SOL    HW222368   0.145   3.056   3.936
 7157SOL     OW22369   0.349   3.690   1.076
 7157SOL    HW122370   0.386   3.736   1.157
 7157SOL    HW222371   0.417   3.626   1.041
 7158SOL     OW22372   1.263   0.322   4.095
 7158SOL    HW122373   1.190   0.256   4.075
 7158SOL    HW222374   1.313   0.292   4.176
 7159SOL     OW22375   0.749   4.486   3.447
 7159SOL    HW122376   0.785   4.566   3.399
 7159SOL    HW222377   0.702   4.515   3.530
 7160SOL     OW22378   5.579   0.467   2.673
 7160SOL    HW122379   5.519   0.531   2.625
 7160SOL    HW222380   5.674   0.494   2.657
 7161SOL     OW22381   3.436   4.180   3.301
 7161SOL    HW122382   3.442   4.219   3.393
 7161SOL    HW222383   3.357   4.119   3.296
 7162SOL     OW22384   0.886   5.562   6.764
 7162SOL    HW122385   0.799   5.525   6.796
 7162SOL    HW222386   0.920   5.507   6.688
 7163SOL     OW22387   2.923   6.727   2.516
 7163SOL    HW122388   2.958   6.706   2.608
 7163SOL    HW222389   2.966   6.811   2.483
 7164SOL     OW22390   3.198   0.590   4.066
 7164SOL    HW122391   3.290   0.614   4.035
 7164SOL    HW222392   3.185   0.623   4.160
 7165SOL     OW22393   6.710   0.624   2.662
 7165SOL    HW122394   6.713   0.706   2.605
 7165SOL    HW222395   6.733   0.649   2.756
 7166SOL     OW22396   4.973   1.955   0.853
 7166SOL    HW122397   4.970   1.994   0.945
 7166SOL    HW222398   4.904   2.000   0.795
 7167SOL     OW22399   5.337   3.285   4.591
 7167SOL    HW122400   5.293   3.265   4.504
 7167SOL    HW222401   5.422   3.233   4.598
 7168SOL     OW22402   1.980   2.743   2.582
 7168SOL    HW122403   2.004   2.656   2.626
 7168SOL    HW222404   2.009   2.741   2.487
 7169SOL     OW22405   0.506   3.216   5.792
 7169SOL    HW122406   0.587   3.265   5.822
 7169SOL    HW222407   0.463   3.170   5.870
 7170SOL     OW22408   5.233   6.685   3.544
 7170SOL    HW122409   5.203   6.620   3.613
 7170SOL    HW222410   5.333   6.684   3.538
 7171SOL     OW22411   6.365   3.790   6.930
 7171SOL    HW122412   6.412   3.704   6.909
 7171SOL    HW222413   6.429   3.866   6.922
 7172SOL     OW22414   1.340   0.262   4.994
 7172SOL    HW122415   1.251   0.219   5.011
 7172SOL    HW222416   1.372   0.238   4.903
 7173SOL     OW22417   6.325   4.436   6.757
 7173SOL    HW122418   6.361   4.399   6.842
 7173SOL    HW222419   6.391   4.501   6.718
 7174SOL     OW22420   1.572   3.264   0.826
 7174SOL    HW122421   1.504   3.270   0.899
 7174SOL    HW222422   1.535   3.304   0.743
 7175SOL     OW22423   5.837   2.853   6.480
 7175SOL    HW122424   5.782   2.857   6.397
 7175SOL    HW222425   5.776   2.852   6.560
 7176SOL     OW22426   6.886   1.116   3.623
 7176SOL    HW122427   6.850   1.186   3.684
 7176SOL    HW222428   6.845   1.126   3.532
 7177SOL     OW22429   1.529   4.820   5.035
 7177SOL    HW122430   1.437   4.847   5.009
 7177SOL    HW222431   1.528   4.783   5.128
 7178SOL     OW22432   0.440   1.437   6.010
 7178SOL    HW122433   0.479   1.406   6.097
 7178SOL    HW222434   0.417   1.357   5.954
 7179SOL     OW22435   2.080   3.068   4.223
 7179SOL    HW122436   2.125   3.041   4.309
 7179SOL    HW222437   2.082   2.991   4.160
 7180SOL     OW22438   1.643   5.340   0.034
 7180SOL    HW122439   1.669   5.385   0.119
 7180SOL    HW222440   1.726   5.314   7.003
 7181SOL     OW22441   1.820   0.481   0.314
 7181SOL    HW122442   1.862   0.486   0.404
 7181SOL    HW222443   1.892   0.480   0.244
 7182SOL     OW22444   0.139   3.157   4.644
 7182SOL    HW122445   0.234   3.145   4.617
 7182SOL    HW222446   0.111   3.252   4.629
 7183SOL     OW22447   1.813   5.527   1.286
 7183SOL    HW122448   1.733   5.547   1.343
 7183SOL    HW222449   1.879   5.602   1.295
 7184SOL     OW22450   6.347   1.213   3.611
 7184SOL    HW122451   6.330   1.135   3.551
 7184SOL    HW222452   6.407   1.184   3.686
 7185SOL     OW22453   5.407   0.160   4.721
 7185SOL    HW122454   5.474   0.201   4.658
 7185SOL    HW222455   5.378   0.071   4.686
 7186SOL     OW22456   6.359   1.630   1.483
 7186SOL    HW122457   6.425   1.590   1.419
 7186SOL    HW222458   6.317   1.557   1.538
 7187SOL     OW22459   3.634   4.442   5.826
 7187SOL    HW122460   3.658   4.504   5.752
 7187SOL    HW222461   3.629   4.348   5.792
 7188SOL     OW22462   5.380   0.385   6.883
 7188SOL    HW122463   5.334   0.453   6.826
 7188SOL    HW222464   5.420   0.430   6.963
 7189SOL     OW22465   5.984   0.994   5.044
 7189SOL    HW122466   5.920   0.931   5.000
 7189SOL    HW222467   6.052   0.942   5.095
 7190SOL     OW22468   0.027   4.156   2.014
 7190SOL    HW122469   6.964   4.125   2.060
 7190SOL    HW222470   0.019   4.141   1.916
 7191SOL     OW22471   1.404   5.308   2.533
 7191SOL    HW122472   1.326   5.371   2.530
 7191SOL    HW222473   1.489   5.360   2.530
 7192SOL     OW22474   2.827   4.598   5.890
 7192SOL    HW122475   2.899   4.555   5.836
 7192SOL    HW222476   2.743   4.543   5.883
 7193SOL     OW22477   1.312   3.083   2.726
 7193SOL    HW122478   1.311   3.160   2.790
 7193SOL    HW222479   1.256   3.008   2.762
 7194SOL     OW22480   2.250   2.635   0.951
 7194SOL    HW122481   2.263   2.616   1.049
 7194SOL    HW222482   2.154   2.623   0.927
 7195SOL     OW22483   1.299   4.266   6.878
 7195SOL    HW122484   1.341   4.186   6.919
 7195SOL    HW222485   1.254   4.241   6.792
 7196SOL     OW22486   2.380   3.810   1.748
 7196SOL    HW122487   2.368   3.713   1.728
 7196SOL    HW222488   2.385   3.861   1.662
 7197SOL     OW22489   0.580   2.211   5.982
 7197SOL    HW122490   0.555   2.261   5.899
 7197SOL    HW222491   0.679   2.210   5.992
 7198SOL     OW22492   0.261   0.739   0.531
 7198SOL    HW122493   0.297   0.826   0.497
 7198SOL    HW222494   0.337   0.680   0.558
 7199SOL     OW22495   1.841   1.045   2.388
 7199SOL    HW122496   1.875   1.045   2.294
 7199SOL    HW222497   1.761   1.105   2.395
 7200SOL     OW22498   2.524   2.504   6.905
 7200SOL    HW122499   2.477   2.582   6.864
 7200SOL    HW222500   2.457   2.437   6.937
 7201SOL     OW22501   0.523   6.062   4.371
 7201SOL    HW122502   0.566   6.137   4.421
 7201SOL    HW222503   0.581   5.980   4.377
 7202SOL     OW22504   5.449   6.878   0.192
 7202SOL    HW122505   5.398   6.926   0.121
 7202SOL    HW222506   5.389   6.857   0.269
 7203SOL     OW22507   0.564   1.269   0.818
 7203SOL    HW122508   0.505   1.189   0.804
 7203SOL    HW222509   0.599   1.299   0.730
 7204SOL     OW22510   0.239   0.147   5.444
 7204SOL    HW122511   0.244   0.093   5.360
 7204SOL    HW222512   0.327   0.192   5.460
 7205SOL     OW22513   1.222   3.914   4.407
 7205SOL    HW122514   1.131   3.930   4.444
 7205SOL    HW222515   1.219   3.914   4.307
 7206SOL     OW22516   1.682   0.977   1.858
 7206SOL    HW122517   1.596   1.025   1.840
 7206SOL    HW222518   1.663   0.885   1.889
 7207SOL     OW22519   4.092   0.519   2.761
 7207SOL    HW122520   3.998   0.500   2.788
 7207SOL    HW222521   4.133   0.584   2.825
 7208SOL     OW22522   4.208   0.107   3.644
 7208SOL    HW122523   4.185   0.032   3.706
 7208SOL    HW222524   4.171   0.090   3.553
 7209SOL     OW22525   2.628   3.363   1.718
 7209SOL    HW122526   2.539   3.403   1.741
 7209SOL    HW222527   2.664   3.407   1.635
 7210SOL     OW22528   4.299   1.301   3.065
 7210SOL    HW122529   4.384   1.314   3.013
 7210SOL    HW222530   4.260   1.390   3.087
 7211SOL     OW22531   2.531   6.980   4.701
 7211SOL    HW122532   2.608   6.919   4.684
 7211SOL    HW222533   2.560   0.055   4.690
 7212SOL     OW22534   0.313   6.324   4.971
 7212SOL    HW122535   0.331   6.422   4.980
 7212SOL    HW222536   0.252   6.308   4.894
 7213SOL     OW22537   4.423   5.857   0.110
 7213SOL    HW122538   4.508   5.880   0.063
 7213SOL    HW222539   4.431   5.767   0.152
 7214SOL     OW22540   6.365   0.120   4.990
 7214SOL    HW122541   6.419   0.055   4.936
 7214SOL    HW222542   6.270   0.089   4.995
 7215SOL     OW22543   0.096   3.421   4.606
 7215SOL    HW122544   0.055   3.491   4.665
 7215SOL    HW222545   0.158   3.464   4.541
 7216SOL     OW22546   3.253   0.199   6.919
 7216SOL    HW122547   3.163   0.211   6.877
 7216SOL    HW222548   3.253   0.116   6.975
 7217SOL     OW22549   2.176   4.036   3.500
 7217SOL    HW122550   2.159   4.046   3.402
 7217SOL    HW222551   2.147   3.944   3.529
 7218SOL     OW22552   5.588   3.041   5.334
 7218SOL    HW122553   5.601   3.029   5.235
 7218SOL    HW222554   5.494   3.071   5.351
 7219SOL     OW22555   4.691   0.048   3.234
 7219SOL    HW122556   4.699   0.060   3.333
 7219SOL    HW222557   4.692   0.138   3.190
 7220SOL     OW22558   0.856   4.367   5.329
 7220SOL    HW122559   0.916   4.445   5.345
 7220SOL    HW222560   0.897   4.307   5.260
 7221SOL     OW22561   3.482   6.016   4.364
 7221SOL    HW122562   3.489   5.918   4.347
 7221SOL    HW222563   3.432   6.032   4.449
 7222SOL     OW22564   6.071   6.971   3.210
 7222SOL    HW122565   5.990   0.004   3.235
 7222SOL    HW222566   6.050   6.873   3.217
 7223SOL     OW22567   2.769   1.303   0.739
 7223SOL    HW122568   2.722   1.381   0.781
 7223SOL    HW222569   2.710   1.222   0.744
 7224SOL     OW22570   5.323   1.554   3.956
 7224SOL    HW122571   5.225   1.558   3.935
 7224SOL    HW222572   5.369   1.633   3.915
 7225SOL     OW22573   0.911   5.490   0.803
 7225SOL    HW122574   0.953   5.580   0.793
 7225SOL    HW222575   0.831   5.485   0.743
 7226SOL     OW22576   6.037   1.469   1.806
 7226SOL    HW122577   5.981   1.410   1.748
 7226SOL    HW222578   6.054   1.556   1.759
 7227SOL     OW22579   2.203   2.181   0.980
 7227SOL    HW122580   2.262   2.110   1.017
 7227SOL    HW222581   2.163   2.234   1.054
 7228SOL     OW22582   0.839   2.433   3.199
 7228SOL    HW122583   0.869   2.340   3.175
 7228SOL    HW222584   0.746   2.429   3.234
 7229SOL     OW22585   1.265   6.252   5.260
 7229SOL    HW122586   1.337   6.241   5.191
 7229SOL    HW222587   1.301   6.304   5.337
 7230SOL     OW22588   3.339   5.155   4.233
 7230SOL    HW122589   3.324   5.057   4.246
 7230SOL    HW222590   3.312   5.205   4.315
 7231SOL     OW22591   4.091   0.838   6.717
 7231SOL    HW122592   4.039   0.909   6.669
 7231SOL    HW222593   4.087   0.855   6.816
 7232SOL     OW22594   5.064   6.396   3.251
 7232SOL    HW122595   5.072   6.316   3.311
 7232SOL    HW222596   5.155   6.429   3.226
 7233SOL     OW22597   0.768   2.016   3.384
 7233SOL    HW122598   0.810   1.932   3.419
 7233SOL    HW222599   0.792   2.093   3.444
 7234SOL     OW22600   5.367   2.709   3.942
 7234SOL    HW122601   5.437   2.663   3.997
 7234SOL    HW222602   5.277   2.670   3.964
 7235SOL     OW22603   6.856   4.972   2.675
 7235SOL    HW122604   6.947   4.939   2.651
 7235SOL    HW222605   6.834   4.947   2.769
 7236SOL     OW22606   2.271   2.070   1.551
 7236SOL    HW122607   2.174   2.095   1.560
 7236SOL    HW222608   2.321   2.144   1.507
 7237SOL     OW22609   4.036   0.245   5.146
 7237SOL    HW122610   4.033   0.184   5.067
 7237SOL    HW222611   4.065   0.193   5.227
 7238SOL     OW22612   3.601   1.716   0.177
 7238SOL    HW122613   3.533   1.762   0.119
 7238SOL    HW222614   3.660   1.785   0.220
 7239SOL     OW22615   1.368   2.497   2.641
 7239SOL    HW122616   1.462   2.469   2.624
 7239SOL    HW222617   1.345   2.575   2.582
 7240SOL     OW22618   1.317   0.310   5.717
 7240SOL    HW122619   1.317   0.284   5.621
 7240SOL    HW222620   1.348   0.405   5.726
 7241SOL     OW22621   1.418   0.631   1.332
 7241SOL    HW122622   1.421   0.554   1.396
 7241SOL    HW222623   1.354   0.611   1.258
 7242SOL     OW22624   6.703   5.812   0.492
 7242SOL    HW122625   6.669   5.869   0.417
 7242SOL    HW222626   6.629   5.754   0.526
 7243SOL     OW22627   6.223   4.253   6.594
 7243SOL    HW122628   6.273   4.239   6.508
 7243SOL    HW222629   6.261   4.333   6.641
 7244SOL     OW22630   6.129   1.143   1.694
 7244SOL    HW122631   6.056   1.096   1.743
 7244SOL    HW222632   6.099   1.163   1.601
 7245SOL     OW22633   1.044   2.669   5.975
 7245SOL    HW122634   1.123   2.608   5.975
 7245SOL    HW222635   1.069   2.756   5.934
 7246SOL     OW22636   0.166   0.091   3.896
 7246SOL    HW122637   0.099   0.164   3.881
 7246SOL    HW222638   0.194   0.090   3.992
 7247SOL     OW22639   2.267   0.978   4.056
 7247SOL    HW122640   2.304   1.043   3.989
 7247SOL    HW222641   2.256   0.889   4.012
 7248SOL     OW22642   2.427   1.449   3.317
 7248SOL    HW122643   2.342   1.482   3.277
 7248SOL    HW222644   2.464   1.375   3.261
 7249SOL     OW22645   6.542   4.597   2.460
 7249SOL    HW122646   6.640   4.587   2.442
 7249SOL    HW222647   6.490   4.563   2.382
 7250SOL     OW22648   4.699   6.798   6.012
 7250SOL    HW122649   4.785   6.754   5.987
 7250SOL    HW222650   4.717   6.893   6.038
 7251SOL     OW22651   0.589   6.640   5.702
 7251SOL    HW122652   0.568   6.692   5.784
 7251SOL    HW222653   0.605   6.544   5.726
 7252SOL     OW22654   3.874   3.412   2.615
 7252SOL    HW122655   3.850   3.465   2.534
 7252SOL    HW222656   3.925   3.470   2.679
 7253SOL     OW22657   1.507   6.027   6.733
 7253SOL    HW122658   1.510   6.113   6.783
 7253SOL    HW222659   1.575   6.029   6.660
 7254SOL     OW22660   4.559   5.127   4.343
 7254SOL    HW122661   4.502   5.123   4.262
 7254SOL    HW222662   4.511   5.083   4.420
 7255SOL     OW22663   2.923   4.126   1.478
 7255SOL    HW122664   2.910   4.224   1.462
 7255SOL    HW222665   2.907   4.076   1.393
 7256SOL     OW22666   2.948   5.112   4.212
 7256SOL    HW122667   2.977   5.021   4.242
 7256SOL    HW222668   3.022   5.155   4.159
 7257SOL     OW22669   6.047   2.715   3.583
 7257SOL    HW122670   6.144   2.726   3.562
 7257SOL    HW222671   6.003   2.659   3.512
 7258SOL     OW22672   4.026   1.875   3.924
 7258SOL    HW122673   3.991   1.962   3.959
 7258SOL    HW222674   3.987   1.800   3.977
 7259SOL     OW22675   2.755   3.772   1.369
 7259SOL    HW122676   2.666   3.739   1.337
 7259SOL    HW222677   2.745   3.806   1.463
 7260SOL     OW22678   3.609   1.852   1.701
 7260SOL    HW122679   3.654   1.933   1.737
 7260SOL    HW222680   3.510   1.866   1.700
 7261SOL     OW22681   1.369   2.762   1.701
 7261SOL    HW122682   1.438   2.731   1.766
 7261SOL    HW222683   1.284   2.711   1.717
 7262SOL     OW22684   5.057   1.868   5.538
 7262SOL    HW122685   5.010   1.780   5.543
 7262SOL    HW222686   5.142   1.858   5.486
 7263SOL     OW22687   0.656   0.353   0.592
 7263SOL    HW122688   0.707   0.291   0.650
 7263SOL    HW222689   0.584   0.303   0.545
 7264SOL     OW22690   5.759   1.819   6.299
 7264SOL    HW122691   5.786   1.808   6.203
 7264SOL    HW222692   5.675   1.872   6.304
 7265SOL     OW22693   5.458   5.656   5.533
 7265SOL    HW122694   5.521   5.618   5.465
 7265SOL    HW222695   5.504   5.661   5.621
 7266SOL     OW22696   5.626   6.774   1.557
 7266SOL    HW122697   5.573   6.844   1.508
 7266SOL    HW222698   5.667   6.815   1.639
 7267SOL     OW22699   6.506   5.912   5.216
 7267SOL    HW122700   6.563   5.984   5.175
 7267SOL    HW222701   6.432   5.954   5.268
 7268SOL     OW22702   5.338   4.944   3.609
 7268SOL    HW122703   5.310   4.848   3.614
 7268SOL    HW222704   5.432   4.953   3.641
 7269SOL     OW22705   0.273   6.914   6.940
 7269SOL    HW122706   0.306   6.964   0.000
 7269SOL    HW222707   0.341   6.846   6.912
 7270SOL     OW22708   1.475   3.498   5.429
 7270SOL    HW122709   1.495   3.439   5.507
 7270SOL    HW222710   1.454   3.590   5.461
 7271SOL     OW22711   0.679   5.946   3.027
 7271SOL    HW122712   0.719   5.855   3.020
 7271SOL    HW222713   0.713   6.004   2.953
 7272SOL     OW22714   5.331   5.903   2.064
 7272SOL    HW122715   5.421   5.912   2.020
 7272SOL    HW222716   5.260   5.907   1.994
 7273SOL     OW22717   5.673   4.997   2.102
 7273SOL    HW122718   5.706   5.032   2.189
 7273SOL    HW222719   5.675   4.897   2.103
 7274SOL     OW22720   1.097   6.004   6.509
 7274SOL    HW122721   1.157   5.927   6.490
 7274SOL    HW222722   1.005   5.971   6.532
 7275SOL     OW22723   6.894   6.871   3.018
 7275SOL    HW122724   6.868   6.796   3.078
 7275SOL    HW222725   6.876   6.958   3.064
 7276SOL     OW22726   3.870   1.910   2.815
 7276SOL    HW122727   3.831   1.867   2.734
 7276SOL    HW222728   3.850   2.008   2.813
 7277SOL     OW22729   4.734   0.307   3.225
 7277SOL    HW122730   4.651   0.331   3.275
 7277SOL    HW222731   4.812   0.307   3.288
 7278SOL     OW22732   3.039   2.611   1.168
 7278SOL    HW122733   2.974   2.686   1.159
 7278SOL    HW222734   3.131   2.648   1.182
 7279SOL     OW22735   3.880   4.148   5.990
 7279SOL    HW122736   3.906   4.111   5.901
 7279SOL    HW222737   3.780   4.149   5.998
 7280SOL     OW22738   0.214   2.208   3.870
 7280SOL    HW122739   0.208   2.130   3.807
 7280SOL    HW222740   0.226   2.292   3.817
 7281SOL     OW22741   1.578   0.815   0.719
 7281SOL    HW122742   1.615   0.846   0.806
 7281SOL    HW222743   1.649   0.768   0.667
 7282SOL     OW22744   6.098   6.216   1.426
 7282SOL    HW122745   6.160   6.289   1.456
 7282SOL    HW222746   6.152   6.135   1.400
 7283SOL     OW22747   4.433   0.841   2.082
 7283SOL    HW122748   4.359   0.908   2.082
 7283SOL    HW222749   4.516   0.883   2.118
 7284SOL     OW22750   6.905   2.211   5.876
 7284SOL    HW122751   6.869   2.118   5.887
 7284SOL    HW222752   6.976   2.212   5.806
 7285SOL     OW22753   5.488   3.288   2.345
 7285SOL    HW122754   5.546   3.309   2.266
 7285SOL    HW222755   5.543   3.242   2.415
 7286SOL     OW22756   1.064   1.083   1.230
 7286SOL    HW122757   0.986   1.039   1.274
 7286SOL    HW222758   1.146   1.026   1.241
 7287SOL     OW22759   6.546   2.779   5.664
 7287SOL    HW122760   6.600   2.709   5.711
 7287SOL    HW222761   6.494   2.832   5.731
 7288SOL     OW22762   1.854   2.243   1.788
 7288SOL    HW122763   1.769   2.217   1.832
 7288SOL    HW222764   1.835   2.306   1.712
 7289SOL     OW22765   5.676   2.332   4.010
 7289SOL    HW122766   5.620   2.311   3.929
 7289SOL    HW222767   5.669   2.256   4.075
 7290SOL     OW22768   2.092   1.151   4.930
 7290SOL    HW122769   2.080   1.244   4.895
 7290SOL    HW222770   2.111   1.154   5.028
 7291SOL     OW22771   1.300   7.004   0.022
 7291SOL    HW122772   1.385   6.974   6.999
 7291SOL    HW222773   1.315   0.072   0.069
 7292SOL     OW22774   3.351   0.387   3.163
 7292SOL    HW122775   3.430   0.392   3.225
 7292SOL    HW222776   3.289   0.463   3.183
 7293SOL     OW22777   0.929   1.661   4.748
 7293SOL    HW122778   1.026   1.685   4.744
 7293SOL    HW222779   0.905   1.602   4.671
 7294SOL     OW22780   3.140   4.722   0.182
 7294SOL    HW122781   3.078   4.665   0.129
 7294SOL    HW222782   3.090   4.802   0.216
 7295SOL     OW22783   6.181   4.429   0.703
 7295SOL    HW122784   6.252   4.499   0.689
 7295SOL    HW222785   6.137   4.408   0.616
 7296SOL     OW22786   3.907   5.857   1.543
 7296SOL    HW122787   3.969   5.785   1.571
 7296SOL    HW222788   3.959   5.941   1.524
 7297SOL     OW22789   3.066   6.194   1.234
 7297SOL    HW122790   3.067   6.224   1.139
 7297SOL    HW222791   3.060   6.273   1.294
 7298SOL     OW22792   4.570   5.621   6.007
 7298SOL    HW122793   4.513   5.650   5.930
 7298SOL    HW222794   4.541   5.531   6.038
 7299SOL     OW22795   1.036   2.167   0.739
 7299SOL    HW122796   1.133   2.144   0.728
 7299SOL    HW222797   1.026   2.240   0.806
 7300SOL     OW22798   0.186   0.076   2.444
 7300SOL    HW122799   0.131   0.035   2.371
 7300SOL    HW222800   0.166   0.030   2.530
 7301SOL     OW22801   5.529   2.220   4.842
 7301SOL    HW122802   5.528   2.301   4.783
 7301SOL    HW222803   5.600   2.231   4.911
 7302SOL     OW22804   0.055   2.348   6.271
 7302SOL    HW122805   0.032   2.380   6.179
 7302SOL    HW222806   0.057   2.248   6.272
 7303SOL     OW22807   3.571   0.953   0.336
 7303SOL    HW122808   3.560   0.979   0.240
 7303SOL    HW222809   3.489   0.905   0.367
 7304SOL     OW22810   2.660   4.932   1.471
 7304SOL    HW122811   2.579   4.878   1.448
 7304SOL    HW222812   2.740   4.872   1.472
 7305SOL     OW22813   5.248   1.513   1.268
 7305SOL    HW122814   5.185   1.466   1.206
 7305SOL    HW222815   5.198   1.578   1.325
 7306SOL     OW22816   3.806   1.906   1.397
 7306SOL    HW122817   3.804   1.811   1.364
 7306SOL    HW222818   3.713   1.941   1.403
 7307SOL     OW22819   3.385   6.741   2.373
 7307SOL    HW122820   3.354   6.745   2.468
 7307SOL    HW222821   3.467   6.683   2.367
 7308SOL     OW22822   6.250   1.691   4.532
 7308SOL    HW122823   6.194   1.655   4.457
 7308SOL    HW222824   6.207   1.774   4.569
 7309SOL     OW22825   3.646   5.593   1.052
 7309SOL    HW122826   3.583   5.630   1.120
 7309SOL    HW222827   3.674   5.666   0.989
 7310SOL     OW22828   1.972   3.616   6.648
 7310SOL    HW122829   2.008   3.700   6.607
 7310SOL    HW222830   1.952   3.549   6.576
 7311SOL     OW22831   1.732   1.950   1.006
 7311SOL    HW122832   1.824   1.956   0.969
 7311SOL    HW222833   1.707   1.854   1.018
 7312SOL     OW22834   1.007   2.590   4.858
 7312SOL    HW122835   0.942   2.576   4.784
 7312SOL    HW222836   1.091   2.539   4.838
 7313SOL     OW22837   2.116   1.161   0.683
 7313SOL    HW122838   2.162   1.227   0.623
 7313SOL    HW222839   2.021   1.188   0.694
 7314SOL     OW22840   0.115   3.681   6.225
 7314SOL    HW122841   0.087   3.670   6.130
 7314SOL    HW222842   0.135   3.778   6.243
 7315SOL     OW22843   5.047   5.440   1.903
 7315SOL    HW122844   5.074   5.530   1.940
 7315SOL    HW222845   4.960   5.449   1.855
 7316SOL     OW22846   3.195   3.336   6.355
 7316SOL    HW122847   3.226   3.383   6.438
 7316SOL    HW222848   3.104   3.297   6.372
 7317SOL     OW22849   4.181   1.970   1.376
 7317SOL    HW122850   4.156   1.933   1.465
 7317SOL    HW222851   4.122   2.048   1.354
 7318SOL     OW22852   3.262   0.555   2.291
 7318SOL    HW122853   3.330   0.536   2.363
 7318SOL    HW222854   3.172   0.565   2.333
 7319SOL     OW22855   6.121   3.893   6.886
 7319SOL    HW122856   6.208   3.849   6.910
 7319SOL    HW222857   6.109   3.890   6.787
 7320SOL     OW22858   0.523   3.846   1.729
 7320SOL    HW122859   0.446   3.846   1.666
 7320SOL    HW222860   0.522   3.762   1.783
 7321SOL     OW22861   1.909   6.561   5.953
 7321SOL    HW122862   1.966   6.632   5.993
 7321SOL    HW222863   1.907   6.572   5.854
 7322SOL     OW22864   6.622   2.987   3.070
 7322SOL    HW122865   6.641   3.075   3.025
 7322SOL    HW222866   6.526   2.962   3.053
 7323SOL     OW22867   2.145   2.955   1.843
 7323SOL    HW122868   2.193   2.878   1.885
 7323SOL    HW222869   2.206   3.035   1.841
 7324SOL     OW22870   5.419   5.308   1.438
 7324SOL    HW122871   5.439   5.340   1.531
 7324SOL    HW222872   5.349   5.237   1.443
 7325SOL     OW22873   2.279   0.371   6.331
 7325SOL    HW122874   2.253   0.306   6.259
 7325SOL    HW222875   2.268   0.327   6.420
 7326SOL     OW22876   3.369   5.796   6.482
 7326SOL    HW122877   3.412   5.739   6.552
 7326SOL    HW222878   3.366   5.891   6.514
 7327SOL     OW22879   6.046   2.351   5.420
 7327SOL    HW122880   5.966   2.355   5.480
 7327SOL    HW222881   6.079   2.443   5.401
 7328SOL     OW22882   4.428   0.089   6.176
 7328SOL    HW122883   4.403   0.008   6.122
 7328SOL    HW222884   4.528   0.096   6.179
 7329SOL     OW22885   0.849   4.296   0.735
 7329SOL    HW122886   0.911   4.223   0.764
 7329SOL    HW222887   0.754   4.267   0.750
 7330SOL     OW22888   2.099   3.489   0.203
 7330SOL    HW122889   2.042   3.408   0.194
 7330SOL    HW222890   2.196   3.463   0.195
 7331SOL     OW22891   5.543   6.668   0.700
 7331SOL    HW122892   5.525   6.626   0.789
 7331SOL    HW222893   5.520   6.765   0.704
 7332SOL     OW22894   3.207   5.588   7.002
 7332SOL    HW122895   3.127   5.616   0.036
 7332SOL    HW222896   3.287   5.581   0.042
 7333SOL     OW22897   6.443   3.375   3.241
 7333SOL    HW122898   6.439   3.428   3.156
 7333SOL    HW222899   6.354   3.334   3.259
 7334SOL     OW22900   1.732   6.190   6.182
 7334SOL    HW122901   1.789   6.256   6.133
 7334SOL    HW222902   1.703   6.118   6.120
 7335SOL     OW22903   0.143   3.059   3.137
 7335SOL    HW122904   0.126   2.962   3.125
 7335SOL    HW222905   0.222   3.072   3.197
 7336SOL     OW22906   2.364   6.927   2.237
 7336SOL    HW122907   2.451   6.947   2.280
 7336SOL    HW222908   2.299   6.897   2.307
 7337SOL     OW22909   1.259   2.734   2.121
 7337SOL    HW122910   1.222   2.812   2.069
 7337SOL    HW222911   1.263   2.653   2.062
 7338SOL     OW22912   5.252   1.534   1.650
 7338SOL    HW122913   5.338   1.564   1.609
 7338SOL    HW222914   5.270   1.499   1.742
 7339SOL     OW22915   5.867   0.282   5.004
 7339SOL    HW122916   5.817   0.196   5.012
 7339SOL    HW222917   5.899   0.294   4.909
 7340SOL     OW22918   3.221   1.553   0.030
 7340SOL    HW122919   3.138   1.517   7.006
 7340SOL    HW222920   3.212   1.548   0.129
 7341SOL     OW22921   0.912   4.223   4.706
 7341SOL    HW122922   0.972   4.163   4.654
 7341SOL    HW222923   0.946   4.317   4.702
 7342SOL     OW22924   0.219   6.830   5.820
 7342SOL    HW122925   0.233   6.917   5.868
 7342SOL    HW222926   0.247   6.755   5.879
 7343SOL     OW22927   6.038   4.403   1.586
 7343SOL    HW122928   6.043   4.499   1.611
 7343SOL    HW222929   6.107   4.383   1.517
 7344SOL     OW22930   1.066   0.730   6.091
 7344SOL    HW122931   1.000   0.722   6.166
 7344SOL    HW222932   1.159   0.726   6.128
 7345SOL     OW22933   5.173   5.860   5.279
 7345SOL    HW122934   5.162   5.945   5.228
 7345SOL    HW222935   5.180   5.880   5.376
 7346SOL     OW22936   5.028   4.049   1.745
 7346SOL    HW122937   4.967   4.051   1.824
 7346SOL    HW222938   4.984   4.001   1.670
 7347SOL     OW22939   0.749   3.106   1.082
 7347SOL    HW122940   0.774   3.030   1.021
 7347SOL    HW222941   0.671   3.079   1.139
 7348SOL     OW22942   1.259   3.726   3.334
 7348SOL    HW122943   1.171   3.768   3.312
 7348SOL    HW222944   1.288   3.668   3.258
 7349SOL     OW22945   4.512   2.047   0.295
 7349SOL    HW122946   4.475   2.139   0.297
 7349SOL    HW222947   4.492   2.005   0.206
 7350SOL     OW22948   1.771   3.117   5.320
 7350SOL    HW122949   1.736   3.205   5.286
 7350SOL    HW222950   1.835   3.079   5.254
 7351SOL     OW22951   4.917   6.148   5.535
 7351SOL    HW122952   4.893   6.236   5.494
 7351SOL    HW222953   5.013   6.128   5.518
 7352SOL     OW22954   1.793   2.794   3.020
 7352SOL    HW122955   1.882   2.838   3.034
 7352SOL    HW222956   1.725   2.837   3.078
 7353SOL     OW22957   0.807   0.344   5.812
 7353SOL    HW122958   0.731   0.285   5.840
 7353SOL    HW222959   0.858   0.301   5.738
 7354SOL     OW22960   0.415   1.688   6.179
 7354SOL    HW122961   0.362   1.709   6.261
 7354SOL    HW222962   0.375   1.608   6.133
 7355SOL     OW22963   2.410   0.980   0.451
 7355SOL    HW122964   2.320   0.963   0.411
 7355SOL    HW222965   2.467   0.898   0.439
 7356SOL     OW22966   3.752   3.675   6.139
 7356SOL    HW122967   3.689   3.650   6.212
 7356SOL    HW222968   3.702   3.712   6.061
 7357SOL     OW22969   4.597   6.577   1.921
 7357SOL    HW122970   4.694   6.569   1.899
 7357SOL    HW222971   4.558   6.486   1.935
 7358SOL     OW22972   6.529   3.622   3.071
 7358SOL    HW122973   6.543   3.599   2.975
 7358SOL    HW222974   6.612   3.664   3.108
 7359SOL     OW22975   2.493   2.429   6.048
 7359SOL    HW122976   2.552   2.510   6.046
 7359SOL    HW222977   2.410   2.450   6.099
 7360SOL     OW22978   3.552   4.565   6.044
 7360SOL    HW122979   3.486   4.500   6.081
 7360SOL    HW222980   3.600   4.524   5.966
 7361SOL     OW22981   4.874   0.332   1.343
 7361SOL    HW122982   4.779   0.361   1.335
 7361SOL    HW222983   4.908   0.354   1.435
 7362SOL     OW22984   0.888   5.067   4.408
 7362SOL    HW122985   0.962   5.109   4.461
 7362SOL    HW222986   0.842   5.138   4.354
 7363SOL     OW22987   4.163   1.775   1.204
 7363SOL    HW122988   4.159   1.689   1.254
 7363SOL    HW222989   4.191   1.849   1.266
 7364SOL     OW22990   4.545   0.875   1.199
 7364SOL    HW122991   4.596   0.944   1.147
 7364SOL    HW222992   4.447   0.896   1.195
 7365SOL     OW22993   1.517   6.666   1.776
 7365SOL    HW122994   1.498   6.671   1.874
 7365SOL    HW222995   1.609   6.629   1.762
 7366SOL     OW22996   2.471   5.931   6.581
 7366SOL    HW122997   2.519   5.843   6.575
 7366SOL    HW222998   2.392   5.921   6.641
 7367SOL     OW22999   5.221   3.458   0.984
 7367SOL    HW123000   5.143   3.517   1.004
 7367SOL    HW223001   5.201   3.365   1.015
 7368SOL     OW23002   3.852   2.978   3.233
 7368SOL    HW123003   3.838   2.913   3.308
 7368SOL    HW223004   3.914   3.051   3.262
 7369SOL     OW23005   4.031   2.601   6.624
 7369SOL    HW123006   3.941   2.636   6.595
 7369SOL    HW223007   4.087   2.582   6.544
 7370SOL     OW23008   2.013   0.689   4.719
 7370SOL    HW123009   2.027   0.712   4.623
 7370SOL    HW223010   2.073   0.613   4.744
 7371SOL     OW23011   2.130   6.211   3.584
 7371SOL    HW123012   2.224   6.179   3.582
 7371SOL    HW223013   2.128   6.310   3.596
 7372SOL     OW23014   4.265   1.150   5.073
 7372SOL    HW123015   4.345   1.125   5.127
 7372SOL    HW223016   4.227   1.236   5.109
 7373SOL     OW23017   5.654   1.252   4.559
 7373SOL    HW123018   5.617   1.212   4.643
 7373SOL    HW223019   5.683   1.346   4.578
 7374SOL     OW23020   2.733   1.722   4.835
 7374SOL    HW123021   2.735   1.666   4.918
 7374SOL    HW223022   2.826   1.737   4.803
 7375SOL     OW23023   2.138   3.462   3.511
 7375SOL    HW123024   2.160   3.543   3.565
 7375SOL    HW223025   2.162   3.478   3.416
 7376SOL     OW23026   3.207   1.835   0.176
 7376SOL    HW123027   3.278   1.841   0.106
 7376SOL    HW223028   3.184   1.927   0.207
 7377SOL     OW23029   5.797   4.458   0.413
 7377SOL    HW123030   5.753   4.448   0.503
 7377SOL    HW223031   5.786   4.374   0.361
 7378SOL     OW23032   0.339   1.228   5.871
 7378SOL    HW123033   0.349   1.154   5.937
 7378SOL    HW223034   0.350   1.192   5.778
 7379SOL     OW23035   3.278   1.927   3.008
 7379SOL    HW123036   3.337   1.999   3.044
 7379SOL    HW223037   3.268   1.855   3.077
 7380SOL     OW23038   0.082   4.139   4.884
 7380SOL    HW123039   0.114   4.052   4.921
 7380SOL    HW223040   0.118   4.151   4.791
 7381SOL     OW23041   4.486   3.786   1.704
 7381SOL    HW123042   4.561   3.730   1.668
 7381SOL    HW223043   4.519   3.879   1.718
 7382SOL     OW23044   6.826   5.467   6.156
 7382SOL    HW123045   6.851   5.537   6.089
 7382SOL    HW223046   6.736   5.486   6.194
 7383SOL     OW23047   0.948   6.941   1.522
 7383SOL    HW123048   0.866   6.941   1.579
 7383SOL    HW223049   0.927   6.977   1.432
 7384SOL     OW23050   5.688   0.973   3.385
 7384SOL    HW123051   5.646   0.935   3.467
 7384SOL    HW223052   5.772   1.021   3.409
 7385SOL     OW23053   4.022   5.623   1.705
 7385SOL    HW123054   3.940   5.572   1.678
 7385SOL    HW223055   4.053   5.592   1.795
 7386SOL     OW23056   0.399   2.323   5.601
 7386SOL    HW123057   0.359   2.378   5.673
 7386SOL    HW223058   0.489   2.360   5.577
 7387SOL     OW23059   5.025   6.372   4.462
 7387SOL    HW123060   5.032   6.447   4.396
 7387SOL    HW223061   5.084   6.297   4.434
 7388SOL     OW23062   0.019   5.190   2.575
 7388SOL    HW123063   0.006   5.256   2.502
 7388SOL    HW223064   6.951   5.170   2.619
 7389SOL     OW23065   0.472   3.392   6.110
 7389SOL    HW123066   0.480   3.395   6.209
 7389SOL    HW223067   0.547   3.443   6.069
 7390SOL     OW23068   1.645   1.906   0.529
 7390SOL    HW123069   1.691   1.973   0.588
 7390SOL    HW223070   1.712   1.868   0.464
 7391SOL     OW23071   3.916   3.653   4.778
 7391SOL    HW123072   3.890   3.731   4.836
 7391SOL    HW223073   4.013   3.633   4.790
 7392SOL     OW23074   2.646   6.280   0.026
 7392SOL    HW123075   2.631   6.188   7.010
 7392SOL    HW223076   2.714   6.327   6.990
 7393SOL     OW23077   5.415   4.875   2.484
 7393SOL    HW123078   5.399   4.779   2.458
 7393SOL    HW223079   5.513   4.891   2.491
 7394SOL     OW23080   3.177   1.920   5.536
 7394SOL    HW123081   3.110   1.930   5.463
 7394SOL    HW223082   3.269   1.926   5.498
 7395SOL     OW23083   1.926   2.359   0.229
 7395SOL    HW123084   1.843   2.379   0.282
 7395SOL    HW223085   1.997   2.426   0.252
 7396SOL     OW23086   1.199   6.823   0.410
 7396SOL    HW123087   1.259   6.745   0.392
 7396SOL    HW223088   1.169   6.862   0.323
 7397SOL     OW23089   4.355   5.384   4.869
 7397SOL    HW123090   4.359   5.285   4.876
 7397SOL    HW223091   4.341   5.424   4.960
 7398SOL     OW23092   2.278   4.762   4.048
 7398SOL    HW123093   2.294   4.700   3.971
 7398SOL    HW223094   2.365   4.781   4.093
 7399SOL     OW23095   1.004   2.283   5.360
 7399SOL    HW123096   0.966   2.375   5.370
 7399SOL    HW223097   1.021   2.264   5.263
 7400SOL     OW23098   4.232   2.660   5.991
 7400SOL    HW123099   4.188   2.707   5.914
 7400SOL    HW223100   4.323   2.700   6.006
 7401SOL     OW23101   1.519   0.858   4.632
 7401SOL    HW123102   1.493   0.932   4.570
 7401SOL    HW223103   1.453   0.853   4.707
 7402SOL     OW23104   2.524   5.814   5.793
 7402SOL    HW123105   2.534   5.891   5.856
 7402SOL    HW223106   2.562   5.838   5.704
 7403SOL     OW23107   2.022   3.919   2.362
 7403SOL    HW123108   1.986   3.839   2.411
 7403SOL    HW223109   2.031   3.996   2.426
 7404SOL     OW23110   2.389   5.156   1.335
 7404SOL    HW123111   2.453   5.141   1.260
 7404SOL    HW223112   2.394   5.079   1.399
 7405SOL     OW23113   3.471   4.975   3.832
 7405SOL    HW123114   3.456   4.971   3.734
 7405SOL    HW223115   3.559   4.933   3.855
 7406SOL     OW23116   0.119   3.424   3.284
 7406SOL    HW123117   0.201   3.382   3.243
 7406SOL    HW223118   0.043   3.418   3.220
 7407SOL     OW23119   0.562   6.673   4.338
 7407SOL    HW123120   0.539   6.719   4.252
 7407SOL    HW223121   0.478   6.644   4.383
 7408SOL     OW23122   2.929   4.158   6.888
 7408SOL    HW123123   3.023   4.169   6.919
 7408SOL    HW223124   2.898   4.242   6.843
 7409SOL     OW23125   7.007   1.860   6.074
 7409SOL    HW123126   7.016   1.943   6.129
 7409SOL    HW223127   0.020   1.781   6.127
 7410SOL     OW23128   0.518   6.856   0.583
 7410SOL    HW123129   0.514   6.881   0.486
 7410SOL    HW223130   0.540   6.937   0.637
 7411SOL     OW23131   2.624   0.011   5.285
 7411SOL    HW123132   2.611   0.072   5.206
 7411SOL    HW223133   2.576   0.048   5.364
 7412SOL     OW23134   4.922   0.149   1.700
 7412SOL    HW123135   4.905   0.246   1.683
 7412SOL    HW223136   4.987   0.114   1.632
 7413SOL     OW23137   5.054   5.881   4.266
 7413SOL    HW123138   5.009   5.839   4.187
 7413SOL    HW223139   4.985   5.905   4.334
 7414SOL     OW23140   6.829   0.436   3.713
 7414SOL    HW123141   6.812   0.396   3.623
 7414SOL    HW223142   6.749   0.488   3.742
 7415SOL     OW23143   1.922   4.489   4.581
 7415SOL    HW123144   1.896   4.411   4.638
 7415SOL    HW223145   1.939   4.569   4.639
 7416SOL     OW23146   2.041   1.388   3.422
 7416SOL    HW123147   2.001   1.432   3.502
 7416SOL    HW223148   2.055   1.456   3.350
 7417SOL     OW23149   1.811   0.449   6.810
 7417SOL    HW123150   1.715   0.477   6.810
 7417SOL    HW223151   1.817   0.354   6.840
 7418SOL     OW23152   3.006   5.396   1.139
 7418SOL    HW123153   3.059   5.345   1.206
 7418SOL    HW223154   3.068   5.437   1.072
 7419SOL     OW23155   5.795   2.852   5.010
 7419SOL    HW123156   5.730   2.914   5.054
 7419SOL    HW223157   5.755   2.817   4.925
 7420SOL     OW23158   0.468   6.941   1.950
 7420SOL    HW123159   0.520   6.901   1.875
 7420SOL    HW223160   0.417   0.000   1.917
 7421SOL     OW23161   3.812   4.185   0.640
 7421SOL    HW123162   3.843   4.102   0.686
 7421SOL    HW223163   3.791   4.255   0.708
 7422SOL     OW23164   6.844   3.153   2.754
 7422SOL    HW123165   6.799   3.081   2.808
 7422SOL    HW223166   6.784   3.233   2.751
 7423SOL     OW23167   5.987   4.036   5.248
 7423SOL    HW123168   5.917   4.016   5.179
 7423SOL    HW223169   5.979   4.131   5.276
 7424SOL     OW23170   6.780   6.586   6.027
 7424SOL    HW123171   6.716   6.572   6.102
 7424SOL    HW223172   6.796   6.684   6.014
 7425SOL     OW23173   4.177   5.039   6.917
 7425SOL    HW123174   4.231   5.025   6.999
 7425SOL    HW223175   4.177   5.136   6.894
 7426SOL     OW23176   2.177   1.338   5.708
 7426SOL    HW123177   2.258   1.377   5.750
 7426SOL    HW223178   2.101   1.402   5.714
 7427SOL     OW23179   4.190   0.474   4.074
 7427SOL    HW123180   4.091   0.471   4.085
 7427SOL    HW223181   4.222   0.388   4.035
 7428SOL     OW23182   3.504   1.563   5.900
 7428SOL    HW123183   3.483   1.654   5.864
 7428SOL    HW223184   3.526   1.502   5.824
 7429SOL     OW23185   0.264   6.740   3.982
 7429SOL    HW123186   0.243   6.804   3.908
 7429SOL    HW223187   0.305   6.657   3.943
 7430SOL     OW23188   0.847   3.034   0.126
 7430SOL    HW123189   0.756   3.032   0.085
 7430SOL    HW223190   0.916   3.050   0.056
 7431SOL     OW23191   1.132   2.616   2.905
 7431SOL    HW123192   1.091   2.532   2.870
 7431SOL    HW223193   1.232   2.609   2.899
 7432SOL     OW23194   1.057   0.984   2.770
 7432SOL    HW123195   1.099   0.894   2.781
 7432SOL    HW223196   0.970   0.975   2.722
 7433SOL     OW23197   4.402   5.698   6.445
 7433SOL    HW123198   4.478   5.652   6.400
 7433SOL    HW223199   4.389   5.789   6.406
 7434SOL     OW23200   5.185   6.244   6.161
 7434SOL    HW123201   5.243   6.325   6.172
 7434SOL    HW223202   5.221   6.187   6.087
 7435SOL     OW23203   4.019   5.457   0.841
 7435SOL    HW123204   4.001   5.534   0.780
 7435SOL    HW223205   3.962   5.379   0.814
 7436SOL     OW23206   5.733   3.390   6.345
 7436SOL    HW123207   5.794   3.437   6.281
 7436SOL    HW223208   5.638   3.414   6.325
 7437SOL     OW23209   0.890   6.230   6.956
 7437SOL    HW123210   0.976   6.182   6.940
 7437SOL    HW223211   0.816   6.185   6.906
 7438SOL     OW23212   1.443   5.902   6.960
 7438SOL    HW123213   1.459   5.805   6.942
 7438SOL    HW223214   1.474   5.956   6.882
 7439SOL     OW23215   1.830   5.729   5.706
 7439SOL    HW123216   1.840   5.706   5.802
 7439SOL    HW223217   1.855   5.825   5.692
 7440SOL     OW23218   0.309   3.793   4.610
 7440SOL    HW123219   0.218   3.812   4.648
 7440SOL    HW223220   0.300   3.729   4.534
 7441SOL     OW23221   5.800   6.047   3.833
 7441SOL    HW123222   5.714   6.022   3.878
 7441SOL    HW223223   5.788   6.042   3.734
 7442SOL     OW23224   6.068   1.243   5.855
 7442SOL    HW123225   6.167   1.254   5.848
 7442SOL    HW223226   6.047   1.147   5.872
 7443SOL     OW23227   6.773   0.042   1.862
 7443SOL    HW123228   6.799   0.137   1.876
 7443SOL    HW223229   6.786   0.017   1.766
 7444SOL     OW23230   6.021   2.903   5.538
 7444SOL    HW123231   6.087   2.955   5.593
 7444SOL    HW223232   5.931   2.946   5.544
 7445SOL     OW23233   3.909   1.236   1.452
 7445SOL    HW123234   3.848   1.158   1.435
 7445SOL    HW223235   3.858   1.321   1.438
 7446SOL     OW23236   5.982   3.385   1.065
 7446SOL    HW123237   5.962   3.317   0.994
 7446SOL    HW223238   6.027   3.340   1.142
 7447SOL     OW23239   0.804   3.510   6.429
 7447SOL    HW123240   0.724   3.489   6.486
 7447SOL    HW223241   0.876   3.444   6.448
 7448SOL     OW23242   6.860   6.116   5.421
 7448SOL    HW123243   6.769   6.156   5.408
 7448SOL    HW223244   6.904   6.158   5.500
 7449SOL     OW23245   6.503   3.446   1.919
 7449SOL    HW123246   6.583   3.400   1.879
 7449SOL    HW223247   6.508   3.441   2.018
 7450SOL     OW23248   5.291   1.918   4.552
 7450SOL    HW123249   5.347   1.923   4.470
 7450SOL    HW223250   5.345   1.945   4.632
 7451SOL     OW23251   6.933   0.356   3.031
 7451SOL    HW123252   7.000   0.407   3.085
 7451SOL    HW223253   6.925   0.397   2.941
 7452SOL     OW23254   0.370   6.532   4.472
 7452SOL    HW123255   0.417   6.466   4.531
 7452SOL    HW223256   0.302   6.582   4.525
 7453SOL     OW23257   4.542   0.073   5.718
 7453SOL    HW123258   4.573   0.166   5.700
 7453SOL    HW223259   4.442   0.071   5.722
 7454SOL     OW23260   0.465   2.472   2.613
 7454SOL    HW123261   0.389   2.531   2.585
 7454SOL    HW223262   0.551   2.512   2.583
 7455SOL     OW23263   6.889   1.696   2.420
 7455SOL    HW123264   6.811   1.640   2.392
 7455SOL    HW223265   6.888   1.783   2.370
 7456SOL     OW23266   0.551   1.248   4.324
 7456SOL    HW123267   0.460   1.277   4.353
 7456SOL    HW223268   0.620   1.303   4.371
 7457SOL     OW23269   3.612   0.153   5.967
 7457SOL    HW123270   3.695   0.166   5.913
 7457SOL    HW223271   3.588   0.238   6.013
 7458SOL     OW23272   1.589   6.466   5.647
 7458SOL    HW123273   1.684   6.438   5.664
 7458SOL    HW223274   1.533   6.439   5.725
 7459SOL     OW23275   4.512   0.711   1.523
 7459SOL    HW123276   4.431   0.755   1.485
 7459SOL    HW223277   4.520   0.733   1.620
 7460SOL     OW23278   1.105   5.649   0.669
 7460SOL    HW123279   1.137   5.554   0.675
 7460SOL    HW223280   1.176   5.705   0.626
 7461SOL     OW23281   5.836   1.419   5.963
 7461SOL    HW123282   5.922   1.415   6.013
 7461SOL    HW223283   5.771   1.476   6.014
 7462SOL     OW23284   2.179   3.798   2.704
 7462SOL    HW123285   2.144   3.887   2.673
 7462SOL    HW223286   2.171   3.731   2.630
 7463SOL     OW23287   2.283   4.640   1.201
 7463SOL    HW123288   2.198   4.674   1.161
 7463SOL    HW223289   2.299   4.547   1.171
 7464SOL     OW23290   5.163   0.513   6.611
 7464SOL    HW123291   5.134   0.542   6.520
 7464SOL    HW223292   5.177   0.414   6.611
 7465SOL     OW23293   0.974   5.773   6.890
 7465SOL    HW123294   0.977   5.696   6.826
 7465SOL    HW223295   0.882   5.813   6.890
 7466SOL     OW23296   6.839   0.796   5.602
 7466SOL    HW123297   6.854   0.761   5.510
 7466SOL    HW223298   6.913   0.859   5.627
 7467SOL     OW23299   0.403   1.523   0.935
 7467SOL    HW123300   0.465   1.446   0.950
 7467SOL    HW223301   0.331   1.523   1.004
 7468SOL     OW23302   5.717   2.571   3.697
 7468SOL    HW123303   5.783   2.531   3.634
 7468SOL    HW223304   5.668   2.646   3.651
 7469SOL     OW23305   6.840   1.070   0.957
 7469SOL    HW123306   6.912   1.083   0.890
 7469SOL    HW223307   6.787   0.988   0.935
 7470SOL     OW23308   6.584   3.443   4.267
 7470SOL    HW123309   6.570   3.350   4.234
 7470SOL    HW223310   6.505   3.499   4.243
 7471SOL     OW23311   6.418   5.993   6.132
 7471SOL    HW123312   6.386   5.901   6.153
 7471SOL    HW223313   6.435   6.001   6.034
 7472SOL     OW23314   6.503   6.828   4.910
 7472SOL    HW123315   6.460   6.789   4.991
 7472SOL    HW223316   6.581   6.771   4.882
 7473SOL     OW23317   6.247   5.108   3.403
 7473SOL    HW123318   6.277   5.030   3.348
 7473SOL    HW223319   6.321   5.134   3.466
 7474SOL     OW23320   1.177   1.488   5.408
 7474SOL    HW123321   1.260   1.531   5.446
 7474SOL    HW223322   1.096   1.536   5.442
 7475SOL     OW23323   5.050   1.851   2.108
 7475SOL    HW123324   5.056   1.950   2.090
 7475SOL    HW223325   4.964   1.831   2.153
 7476SOL     OW23326   3.519   0.152   4.075
 7476SOL    HW123327   3.603   0.181   4.029
 7476SOL    HW223328   3.535   0.064   4.121
 7477SOL     OW23329   0.448   0.824   5.086
 7477SOL    HW123330   0.514   0.750   5.100
 7477SOL    HW223331   0.356   0.785   5.079
 7478SOL     OW23332   5.153   5.256   6.368
 7478SOL    HW123333   5.187   5.166   6.341
 7478SOL    HW223334   5.215   5.297   6.435
 7479SOL     OW23335   4.427   2.430   1.996
 7479SOL    HW123336   4.389   2.461   1.908
 7479SOL    HW223337   4.371   2.355   2.031
 7480SOL     OW23338   0.369   4.146   2.016
 7480SOL    HW123339   0.347   4.111   2.108
 7480SOL    HW223340   0.448   4.097   1.981
 7481SOL     OW23341   6.193   5.021   1.479
 7481SOL    HW123342   6.205   4.927   1.447
 7481SOL    HW223343   6.106   5.057   1.443
 7482SOL     OW23344   4.701   2.157   3.091
 7482SOL    HW123345   4.732   2.192   3.179
 7482SOL    HW223346   4.602   2.148   3.091
 7483SOL     OW23347   4.579   2.494   4.536
 7483SOL    HW123348   4.564   2.525   4.443
 7483SOL    HW223349   4.600   2.572   4.595
 7484SOL     OW23350   1.884   0.243   3.803
 7484SOL    HW123351   1.945   0.323   3.811
 7484SOL    HW223352   1.934   0.168   3.761
 7485SOL     OW23353   3.506   6.836   4.779
 7485SOL    HW123354   3.440   6.793   4.718
 7485SOL    HW223355   3.595   6.791   4.768
 7486SOL     OW23356   1.953   6.851   0.660
 7486SOL    HW123357   2.018   6.918   0.624
 7486SOL    HW223358   1.862   6.892   0.664
 7487SOL     OW23359   2.252   6.837   2.931
 7487SOL    HW123360   2.198   6.795   3.003
 7487SOL    HW223361   2.345   6.852   2.964
 7488SOL     OW23362   2.803   0.210   3.855
 7488SOL    HW123363   2.884   0.267   3.842
 7488SOL    HW223364   2.766   0.183   3.766
 7489SOL     OW23365   5.018   2.516   5.321
 7489SOL    HW123366   5.083   2.463   5.265
 7489SOL    HW223367   5.000   2.466   5.406
 7490SOL     OW23368   1.210   0.842   2.224
 7490SOL    HW123369   1.174   0.838   2.131
 7490SOL    HW223370   1.207   0.937   2.257
 7491SOL     OW23371   5.407   2.183   6.388
 7491SOL    HW123372   5.429   2.190   6.485
 7491SOL    HW223373   5.350   2.261   6.361
 7492SOL     OW23374   1.959   0.151   3.369
 7492SOL    HW123375   2.017   0.165   3.288
 7492SOL    HW223376   1.975   0.224   3.435
 7493SOL     OW23377   0.478   3.451   6.383
 7493SOL    HW123378   0.441   3.543   6.371
 7493SOL    HW223379   0.547   3.452   6.455
 7494SOL     OW23380   5.312   1.071   2.538
 7494SOL    HW123381   5.269   1.152   2.498
 7494SOL    HW223382   5.294   1.071   2.637
 7495SOL     OW23383   1.940   1.708   0.156
 7495SOL    HW123384   2.033   1.733   0.130
 7495SOL    HW223385   1.900   1.648   0.087
 7496SOL     OW23386   5.920   3.406   5.850
 7496SOL    HW123387   5.834   3.369   5.816
 7496SOL    HW223388   5.992   3.337   5.839
 7497SOL     OW23389   2.612   4.241   6.914
 7497SOL    HW123390   2.672   4.194   6.849
 7497SOL    HW223391   2.592   4.333   6.881
 7498SOL     OW23392   3.052   0.775   5.543
 7498SOL    HW123393   3.083   0.827   5.623
 7498SOL    HW223394   3.088   0.817   5.460
 7499SOL     OW23395   3.529   1.893   2.818
 7499SOL    HW123396   3.582   1.815   2.851
 7499SOL    HW223397   3.470   1.926   2.892
 7500SOL     OW23398   3.407   5.221   2.940
 7500SOL    HW123399   3.502   5.193   2.951
 7500SOL    HW223400   3.352   5.144   2.907
 7501SOL     OW23401   5.369   4.113   4.697
 7501SOL    HW123402   5.273   4.123   4.724
 7501SOL    HW223403   5.376   4.038   4.630
 7502SOL     OW23404   1.866   0.510   4.060
 7502SOL    HW123405   1.856   0.601   4.019
 7502SOL    HW223406   1.792   0.451   4.030
 7503SOL     OW23407   2.543   0.511   1.350
 7503SOL    HW123408   2.476   0.498   1.276
 7503SOL    HW223409   2.567   0.607   1.357
 7504SOL     OW23410   1.495   6.999   2.796
 7504SOL    HW123411   1.490   0.064   2.743
 7504SOL    HW223412   1.502   0.002   2.893
 7505SOL     OW23413   1.997   1.631   5.468
 7505SOL    HW123414   1.918   1.655   5.411
 7505SOL    HW223415   2.081   1.664   5.424
 7506SOL     OW23416   5.503   0.793   2.994
 7506SOL    HW123417   5.588   0.741   2.989
 7506SOL    HW223418   5.492   0.830   3.086
 7507SOL     OW23419   0.481   1.089   2.473
 7507SOL    HW123420   0.549   1.161   2.456
 7507SOL    HW223421   0.464   1.082   2.571
 7508SOL     OW23422   1.145   7.002   1.704
 7508SOL    HW123423   1.132   6.970   1.798
 7508SOL    HW223424   1.065   6.978   1.650
 7509SOL     OW23425   5.513   4.152   0.598
 7509SOL    HW123426   5.563   4.212   0.661
 7509SOL    HW223427   5.436   4.110   0.645
 7510SOL     OW23428   3.982   3.644   5.493
 7510SOL    HW123429   4.002   3.691   5.580
 7510SOL    HW223430   3.955   3.711   5.425
 7511SOL     OW23431   2.383   6.619   3.661
 7511SOL    HW123432   2.407   6.545   3.724
 7511SOL    HW223433   2.465   6.649   3.612
 7512SOL     OW23434   2.906   6.397   6.566
 7512SOL    HW123435   2.987   6.433   6.521
 7512SOL    HW223436   2.875   6.314   6.520
 7513SOL     OW23437   2.694   0.927   1.647
 7513SOL    HW123438   2.727   0.965   1.733
 7513SOL    HW223439   2.598   0.953   1.634
 7514SOL     OW23440   2.540   6.300   2.020
 7514SOL    HW123441   2.464   6.272   1.963
 7514SOL    HW223442   2.541   6.400   2.028
 7515SOL     OW23443   6.837   5.069   2.972
 7515SOL    HW123444   6.933   5.095   2.987
 7515SOL    HW223445   6.783   5.151   2.952
 7516SOL     OW23446   6.838   6.690   5.376
 7516SOL    HW123447   6.803   6.751   5.306
 7516SOL    HW223448   6.907   6.738   5.431
 7517SOL     OW23449   0.075   2.984   0.998
 7517SOL    HW123450   0.140   2.920   0.956
 7517SOL    HW223451   0.103   3.003   1.092
 7518SOL     OW23452   4.095   4.818   4.055
 7518SOL    HW123453   4.158   4.890   4.084
 7518SOL    HW223454   4.088   4.750   4.127
 7519SOL     OW23455   0.243   6.398   2.982
 7519SOL    HW123456   0.306   6.472   2.958
 7519SOL    HW223457   0.292   6.312   2.988
 7520SOL     OW23458   2.410   0.428   2.344
 7520SOL    HW123459   2.447   0.414   2.252
 7520SOL    HW223460   2.458   0.503   2.388
 7521SOL     OW23461   5.097   4.160   6.190
 7521SOL    HW123462   5.189   4.128   6.211
 7521SOL    HW223463   5.100   4.224   6.113
 7522SOL     OW23464   1.737   1.054   6.146
 7522SOL    HW123465   1.811   1.025   6.206
 7522SOL    HW223466   1.721   1.152   6.158
 7523SOL     OW23467   5.999   0.381   5.712
 7523SOL    HW123468   5.970   0.472   5.684
 7523SOL    HW223469   6.065   0.345   5.647
 7524SOL     OW23470   1.455   2.162   5.505
 7524SOL    HW123471   1.412   2.083   5.462
 7524SOL    HW223472   1.407   2.246   5.478
 7525SOL     OW23473   3.233   0.874   6.160
 7525SOL    HW123474   3.250   0.858   6.257
 7525SOL    HW223475   3.142   0.915   6.148
 7526SOL     OW23476   2.835   3.334   2.074
 7526SOL    HW123477   2.758   3.272   2.093
 7526SOL    HW223478   2.800   3.416   2.028
 7527SOL     OW23479   2.911   6.175   2.968
 7527SOL    HW123480   2.960   6.088   2.977
 7527SOL    HW223481   2.922   6.211   2.876
 7528SOL     OW23482   5.428   2.100   0.130
 7528SOL    HW123483   5.361   2.039   0.086
 7528SOL    HW223484   5.389   2.192   0.139
 7529SOL     OW23485   4.823   1.342   4.862
 7529SOL    HW123486   4.752   1.274   4.880
 7529SOL    HW223487   4.817   1.371   4.766
 7530SOL     OW23488   6.754   2.901   2.842
 7530SOL    HW123489   6.694   2.910   2.922
 7530SOL    HW223490   6.774   2.804   2.826
 7531SOL     OW23491   5.349   3.345   4.858
 7531SOL    HW123492   5.350   3.327   4.760
 7531SOL    HW223493   5.278   3.289   4.901
 7532SOL     OW23494   4.852   5.438   6.791
 7532SOL    HW123495   4.847   5.435   6.890
 7532SOL    HW223496   4.884   5.351   6.755
 7533SOL     OW23497   2.471   1.457   1.752
 7533SOL    HW123498   2.475   1.551   1.718
 7533SOL    HW223499   2.490   1.456   1.850
 7534SOL     OW23500   4.716   6.158   5.726
 7534SOL    HW123501   4.799   6.117   5.688
 7534SOL    HW223502   4.731   6.256   5.739
 7535SOL     OW23503   1.759   0.118   4.806
 7535SOL    HW123504   1.819   0.108   4.886
 7535SOL    HW223505   1.776   0.044   4.742
 7536SOL     OW23506   4.720   4.789   4.837
 7536SOL    HW123507   4.734   4.754   4.930
 7536SOL    HW223508   4.678   4.718   4.780
 7537SOL     OW23509   3.049   5.485   2.266
 7537SOL    HW123510   3.008   5.527   2.347
 7537SOL    HW223511   3.120   5.545   2.230
 7538SOL     OW23512   1.993   3.025   1.331
 7538SOL    HW123513   2.089   2.999   1.319
 7538SOL    HW223514   1.957   2.982   1.414
 7539SOL     OW23515   1.523   3.819   4.021
 7539SOL    HW123516   1.505   3.754   3.947
 7539SOL    HW223517   1.560   3.771   4.100
 7540SOL     OW23518   4.076   0.439   4.491
 7540SOL    HW123519   4.013   0.403   4.422
 7540SOL    HW223520   4.025   0.454   4.576
 7541SOL     OW23521   0.281   5.082   5.022
 7541SOL    HW123522   0.211   5.011   5.033
 7541SOL    HW223523   0.277   5.144   5.101
 7542SOL     OW23524   1.103   5.223   6.351
 7542SOL    HW123525   1.099   5.289   6.426
 7542SOL    HW223526   1.123   5.132   6.387
 7543SOL     OW23527   3.723   1.527   6.469
 7543SOL    HW123528   3.634   1.546   6.429
 7543SOL    HW223529   3.731   1.572   6.557
 7544SOL     OW23530   6.658   2.441   2.956
 7544SOL    HW123531   6.633   2.502   3.031
 7544SOL    HW223532   6.750   2.404   2.972
 7545SOL     OW23533   0.332   5.847   0.845
 7545SOL    HW123534   0.251   5.893   0.807
 7545SOL    HW223535   0.387   5.912   0.896
 7546SOL     OW23536   3.520   2.126   1.764
 7546SOL    HW123537   3.615   2.107   1.737
 7546SOL    HW223538   3.519   2.163   1.857
 7547SOL     OW23539   5.283   1.431   0.984
 7547SOL    HW123540   5.195   1.393   1.011
 7547SOL    HW223541   5.281   1.454   0.887
 7548SOL     OW23542   4.424   1.146   6.803
 7548SOL    HW123543   4.408   1.224   6.864
 7548SOL    HW223544   4.521   1.141   6.780
 7549SOL     OW23545   4.397   2.812   0.256
 7549SOL    HW123546   4.475   2.833   0.314
 7549SOL    HW223547   4.315   2.857   0.292
 7550SOL     OW23548   2.478   5.263   2.582
 7550SOL    HW123549   2.443   5.345   2.627
 7550SOL    HW223550   2.548   5.288   2.516
 7551SOL     OW23551   5.233   3.307   6.008
 7551SOL    HW123552   5.313   3.291   5.951
 7551SOL    HW223553   5.246   3.264   6.098
 7552SOL     OW23554   1.334   6.208   2.861
 7552SOL    HW123555   1.413   6.176   2.914
 7552SOL    HW223556   1.364   6.273   2.792
 7553SOL     OW23557   4.397   6.270   5.698
 7553SOL    HW123558   4.458   6.269   5.777
 7553SOL    HW223559   4.436   6.329   5.627
 7554SOL     OW23560   4.944   1.158   0.372
 7554SOL    HW123561   5.043   1.172   0.376
 7554SOL    HW223562   4.905   1.168   0.464
 7555SOL     OW23563   2.236   4.892   5.857
 7555SOL    HW123564   2.332   4.866   5.866
 7555SOL    HW223565   2.231   4.983   5.816
 7556SOL     OW23566   1.920   3.258   0.166
 7556SOL    HW123567   1.944   3.201   0.244
 7556SOL    HW223568   1.829   3.297   0.179
 7557SOL     OW23569   4.933   0.845   5.543
 7557SOL    HW123570   4.964   0.870   5.451
 7557SOL    HW223571   4.854   0.784   5.535
 7558SOL     OW23572   1.312   2.540   4.088
 7558SOL    HW123573   1.359   2.616   4.132
 7558SOL    HW223574   1.260   2.489   4.157
 7559SOL     OW23575   5.242   3.273   0.428
 7559SOL    HW123576   5.288   3.285   0.516
 7559SOL    HW223577   5.290   3.327   0.358
 7560SOL     OW23578   5.402   0.206   0.771
 7560SOL    HW123579   5.393   0.261   0.854
 7560SOL    HW223580   5.496   0.210   0.738
 7561SOL     OW23581   0.871   3.225   6.670
 7561SOL    HW123582   0.846   3.254   6.762
 7561SOL    HW223583   0.888   3.306   6.614
 7562SOL     OW23584   0.283   6.352   4.049
 7562SOL    HW123585   0.331   6.287   4.108
 7562SOL    HW223586   0.221   6.408   4.104
 7563SOL     OW23587   3.296   0.346   1.717
 7563SOL    HW123588   3.231   0.405   1.670
 7563SOL    HW223589   3.257   0.315   1.803
 7564SOL     OW23590   4.496   0.312   3.013
 7564SOL    HW123591   4.545   0.241   2.962
 7564SOL    HW223592   4.553   0.395   3.018
 7565SOL     OW23593   5.396   3.309   0.635
 7565SOL    HW123594   5.426   3.402   0.654
 7565SOL    HW223595   5.386   3.259   0.721
 7566SOL     OW23596   6.218   4.721   2.749
 7566SOL    HW123597   6.300   4.763   2.709
 7566SOL    HW223598   6.228   4.622   2.750
 7567SOL     OW23599   1.990   2.017   4.505
 7567SOL    HW123600   1.974   2.077   4.583
 7567SOL    HW223601   1.945   2.055   4.424
 7568SOL     OW23602   5.279   6.053   3.149
 7568SOL    HW123603   5.324   6.128   3.101
 7568SOL    HW223604   5.345   6.006   3.208
 7569SOL     OW23605   3.915   4.849   5.870
 7569SOL    HW123606   3.899   4.769   5.928
 7569SOL    HW223607   3.838   4.912   5.878
 7570SOL     OW23608   5.658   3.485   5.380
 7570SOL    HW123609   5.563   3.455   5.373
 7570SOL    HW223610   5.696   3.498   5.288
 7571SOL     OW23611   3.958   5.402   3.421
 7571SOL    HW123612   3.984   5.376   3.328
 7571SOL    HW223613   3.886   5.341   3.453
 7572SOL     OW23614   4.376   1.405   1.395
 7572SOL    HW123615   4.373   1.504   1.382
 7572SOL    HW223616   4.296   1.363   1.352
 7573SOL     OW23617   0.172   0.562   5.674
 7573SOL    HW123618   0.109   0.490   5.705
 7573SOL    HW223619   0.188   0.552   5.576
 7574SOL     OW23620   5.030   0.149   5.682
 7574SOL    HW123621   4.945   0.200   5.670
 7574SOL    HW223622   5.074   0.137   5.594
 7575SOL     OW23623   4.932   0.463   6.158
 7575SOL    HW123624   4.874   0.384   6.137
 7575SOL    HW223625   4.876   0.538   6.193
 7576SOL     OW23626   4.563   3.907   0.093
 7576SOL    HW123627   4.592   3.997   0.060
 7576SOL    HW223628   4.609   3.835   0.040
 7577SOL     OW23629   0.778   0.244   6.689
 7577SOL    HW123630   0.761   0.184   6.611
 7577SOL    HW223631   0.801   0.190   6.769
 7578SOL     OW23632   1.714   5.196   1.270
 7578SOL    HW123633   1.626   5.174   1.226
 7578SOL    HW223634   1.716   5.294   1.291
 7579SOL     OW23635   0.521   0.982   2.064
 7579SOL    HW123636   0.490   0.941   2.150
 7579SOL    HW223637   0.471   0.941   1.988
 7580SOL     OW23638   0.640   4.076   4.419
 7580SOL    HW123639   0.671   3.998   4.473
 7580SOL    HW223640   0.639   4.158   4.477
 7581SOL     OW23641   0.044   1.174   1.604
 7581SOL    HW123642   0.127   1.229   1.599
 7581SOL    HW223643   0.044   1.121   1.689
 7582SOL     OW23644   4.098   1.268   1.645
 7582SOL    HW123645   4.019   1.246   1.588
 7582SOL    HW223646   4.083   1.236   1.738
 7583SOL     OW23647   5.858   3.292   2.052
 7583SOL    HW123648   5.855   3.197   2.083
 7583SOL    HW223649   5.782   3.343   2.092
 7584SOL     OW23650   3.389   6.932   1.586
 7584SOL    HW123651   3.369   6.932   1.488
 7584SOL    HW223652   3.467   6.872   1.604
 7585SOL     OW23653   1.702   2.882   6.995
 7585SOL    HW123654   1.776   2.876   6.927
 7585SOL    HW223655   1.699   2.798   0.029
 7586SOL     OW23656   3.013   0.240   3.545
 7586SOL    HW123657   2.959   0.275   3.621
 7586SOL    HW223658   3.103   0.283   3.545
 7587SOL     OW23659   2.301   2.757   6.857
 7587SOL    HW123660   2.330   2.754   6.953
 7587SOL    HW223661   2.226   2.823   6.848
 7588SOL     OW23662   1.632   3.012   3.715
 7588SOL    HW123663   1.692   3.069   3.771
 7588SOL    HW223664   1.562   2.969   3.773
 7589SOL     OW23665   0.797   0.677   2.499
 7589SOL    HW123666   0.722   0.661   2.435
 7589SOL    HW223667   0.761   0.699   2.589
 7590SOL     OW23668   3.715   1.812   6.017
 7590SOL    HW123669   3.659   1.894   6.028
 7590SOL    HW223670   3.689   1.744   6.086
 7591SOL     OW23671   6.873   3.583   0.643
 7591SOL    HW123672   6.914   3.510   0.588
 7591SOL    HW223673   6.775   3.569   0.649
 7592SOL     OW23674   6.494   4.959   4.818
 7592SOL    HW123675   6.505   4.861   4.800
 7592SOL    HW223676   6.396   4.981   4.821
 7593SOL     OW23677   6.367   3.182   0.589
 7593SOL    HW123678   6.332   3.258   0.536
 7593SOL    HW223679   6.320   3.178   0.677
 7594SOL     OW23680   1.333   4.968   2.277
 7594SOL    HW123681   1.351   4.891   2.339
 7594SOL    HW223682   1.412   5.029   2.275
 7595SOL     OW23683   6.394   3.045   6.016
 7595SOL    HW123684   6.412   3.115   5.946
 7595SOL    HW223685   6.347   2.968   5.974
 7596SOL     OW23686   3.607   5.925   4.002
 7596SOL    HW123687   3.628   6.022   4.011
 7596SOL    HW223688   3.524   5.903   4.054
 7597SOL     OW23689   2.165   6.451   2.845
 7597SOL    HW123690   2.133   6.356   2.844
 7597SOL    HW223691   2.179   6.481   2.940
 7598SOL     OW23692   0.419   1.273   3.342
 7598SOL    HW123693   0.403   1.179   3.373
 7598SOL    HW223694   0.514   1.299   3.360
 7599SOL     OW23695   5.705   2.503   2.263
 7599SOL    HW123696   5.764   2.448   2.204
 7599SOL    HW223697   5.610   2.473   2.254
 7600SOL     OW23698   1.515   1.710   2.950
 7600SOL    HW123699   1.594   1.729   3.009
 7600SOL    HW223700   1.499   1.788   2.890
 7601SOL     OW23701   1.933   5.103   2.538
 7601SOL    HW123702   1.847   5.106   2.588
 7601SOL    HW223703   1.936   5.178   2.472
 7602SOL     OW23704   2.283   4.066   6.464
 7602SOL    HW123705   2.357   4.010   6.502
 7602SOL    HW223706   2.269   4.146   6.522
 7603SOL     OW23707   1.415   5.968   6.030
 7603SOL    HW123708   1.480   5.967   6.106
 7603SOL    HW223709   1.322   5.966   6.065
 7604SOL     OW23710   2.149   3.884   4.806
 7604SOL    HW123711   2.220   3.937   4.851
 7604SOL    HW223712   2.059   3.911   4.842
 7605SOL     OW23713   1.383   0.446   1.527
 7605SOL    HW123714   1.298   0.422   1.574
 7605SOL    HW223715   1.446   0.489   1.591
 7606SOL     OW23716   6.236   3.919   5.237
 7606SOL    HW123717   6.276   3.979   5.168
 7606SOL    HW223718   6.138   3.937   5.245
 7607SOL     OW23719   3.744   5.768   0.464
 7607SOL    HW123720   3.703   5.842   0.517
 7607SOL    HW223721   3.674   5.726   0.406
 7608SOL     OW23722   3.970   4.051   1.794
 7608SOL    HW123723   3.923   4.121   1.741
 7608SOL    HW223724   4.067   4.048   1.767
 7609SOL     OW23725   1.180   3.346   4.571
 7609SOL    HW123726   1.272   3.342   4.610
 7609SOL    HW223727   1.182   3.314   4.477
 7610SOL     OW23728   4.672   4.737   6.151
 7610SOL    HW123729   4.755   4.699   6.192
 7610SOL    HW223730   4.645   4.820   6.200
 7611SOL     OW23731   6.118   3.432   2.138
 7611SOL    HW123732   6.025   3.398   2.154
 7611SOL    HW223733   6.123   3.475   2.048
 7612SOL     OW23734   4.682   2.814   2.871
 7612SOL    HW123735   4.636   2.728   2.891
 7612SOL    HW223736   4.713   2.813   2.776
 7613SOL     OW23737   6.753   2.753   0.858
 7613SOL    HW123738   6.808   2.778   0.779
 7613SOL    HW223739   6.657   2.777   0.841
 7614SOL     OW23740   4.962   3.483   0.627
 7614SOL    HW123741   4.990   3.445   0.539
 7614SOL    HW223742   5.013   3.439   0.701
 7615SOL     OW23743   3.908   5.386   0.260
 7615SOL    HW123744   3.876   5.402   0.167
 7615SOL    HW223745   3.829   5.377   0.321
 7616SOL     OW23746   5.882   6.180   4.534
 7616SOL    HW123747   5.950   6.125   4.582
 7616SOL    HW223748   5.816   6.217   4.599
 7617SOL     OW23749   3.806   5.628   2.023
 7617SOL    HW123750   3.800   5.682   2.107
 7617SOL    HW223751   3.874   5.667   1.962
 7618SOL     OW23752   6.559   1.661   5.421
 7618SOL    HW123753   6.546   1.562   5.432
 7618SOL    HW223754   6.470   1.706   5.415
 7619SOL     OW23755   6.148   2.928   5.292
 7619SOL    HW123756   6.089   2.873   5.233
 7619SOL    HW223757   6.116   2.921   5.387
 7620SOL     OW23758   4.219   5.879   1.043
 7620SOL    HW123759   4.141   5.939   1.032
 7620SOL    HW223760   4.192   5.797   1.093
 7621SOL     OW23761   6.786   1.510   1.358
 7621SOL    HW123762   6.814   1.460   1.276
 7621SOL    HW223763   6.776   1.446   1.435
 7622SOL     OW23764   4.405   5.001   0.067
 7622SOL    HW123765   4.501   4.973   0.081
 7622SOL    HW223766   4.345   4.925   0.091
 7623SOL     OW23767   4.847   4.184   0.124
 7623SOL    HW123768   4.781   4.144   0.061
 7623SOL    HW223769   4.940   4.159   0.096
 7624SOL     OW23770   0.027   3.069   4.901
 7624SOL    HW123771   6.960   3.117   4.913
 7624SOL    HW223772   0.063   3.088   4.810
 7625SOL     OW23773   4.742   0.914   1.366
 7625SOL    HW123774   4.659   0.895   1.314
 7625SOL    HW223775   4.821   0.875   1.318
 7626SOL     OW23776   5.862   0.158   4.420
 7626SOL    HW123777   5.769   0.127   4.438
 7626SOL    HW223778   5.924   0.079   4.418
 7627SOL     OW23779   4.914   3.062   6.663
 7627SOL    HW123780   4.814   3.052   6.667
 7627SOL    HW223781   4.943   3.132   6.727
 7628SOL     OW23782   3.446   1.921   2.034
 7628SOL    HW123783   3.486   2.013   2.031
 7628SOL    HW223784   3.366   1.922   2.095
 7629SOL     OW23785   0.119   5.768   3.091
 7629SOL    HW123786   0.033   5.719   3.109
 7629SOL    HW223787   0.195   5.703   3.093
 7630SOL     OW23788   0.253   6.973   1.635
 7630SOL    HW123789   0.234   7.005   1.542
 7630SOL    HW223790   0.347   6.939   1.640
 7631SOL     OW23791   1.190   1.393   5.697
 7631SOL    HW123792   1.138   1.473   5.666
 7631SOL    HW223793   1.127   1.323   5.730
 7632SOL     OW23794   4.444   3.526   1.477
 7632SOL    HW123795   4.366   3.472   1.445
 7632SOL    HW223796   4.437   3.619   1.443
 7633SOL     OW23797   5.294   0.838   1.131
 7633SOL    HW123798   5.282   0.766   1.063
 7633SOL    HW223799   5.357   0.806   1.202
 7634SOL     OW23800   2.078   1.984   2.470
 7634SOL    HW123801   2.054   2.070   2.517
 7634SOL    HW223802   2.063   1.994   2.372
 7635SOL     OW23803   2.995   5.328   4.828
 7635SOL    HW123804   3.057   5.390   4.874
 7635SOL    HW223805   2.916   5.309   4.887
 7636SOL     OW23806   1.649   2.957   3.986
 7636SOL    HW123807   1.706   3.029   4.027
 7636SOL    HW223808   1.554   2.970   4.014
 7637SOL     OW23809   1.911   5.310   2.346
 7637SOL    HW123810   1.969   5.290   2.267
 7637SOL    HW223811   1.911   5.409   2.363
 7638SOL     OW23812   2.696   6.126   1.268
 7638SOL    HW123813   2.683   6.027   1.252
 7638SOL    HW223814   2.791   6.144   1.291
 7639SOL     OW23815   0.813   2.003   0.731
 7639SOL    HW123816   0.893   2.063   0.738
 7639SOL    HW223817   0.737   2.053   0.690
 7640SOL     OW23818   2.832   0.945   5.894
 7640SOL    HW123819   2.753   0.979   5.944
 7640SOL    HW223820   2.804   0.919   5.801
 7641SOL     OW23821   1.812   3.615   2.441
 7641SOL    HW123822   1.784   3.617   2.345
 7641SOL    HW223823   1.738   3.577   2.496
 7642SOL     OW23824   3.543   1.858   3.447
 7642SOL    HW123825   3.476   1.832   3.378
 7642SOL    HW223826   3.516   1.945   3.488
 7643SOL     OW23827   4.632   2.531   2.885
 7643SOL    HW123828   4.625   2.529   2.785
 7643SOL    HW223829   4.546   2.498   2.925
 7644SOL     OW23830   5.496   1.656   1.560
 7644SOL    HW123831   5.501   1.703   1.472
 7644SOL    HW223832   5.500   1.724   1.634
 7645SOL     OW23833   4.579   3.507   5.604
 7645SOL    HW123834   4.521   3.455   5.667
 7645SOL    HW223835   4.590   3.456   5.519
 7646SOL     OW23836   1.470   3.481   3.419
 7646SOL    HW123837   1.440   3.563   3.468
 7646SOL    HW223838   1.533   3.429   3.477
 7647SOL     OW23839   6.383   2.874   3.284
 7647SOL    HW123840   6.338   2.793   3.323
 7647SOL    HW223841   6.356   2.883   3.188
 7648SOL     OW23842   3.138   1.365   3.039
 7648SOL    HW123843   3.163   1.449   3.087
 7648SOL    HW223844   3.048   1.376   2.997
 7649SOL     OW23845   0.702   0.892   3.344
 7649SOL    HW123846   0.635   0.852   3.406
 7649SOL    HW223847   0.718   0.831   3.267
 7650SOL     OW23848   5.107   1.261   0.587
 7650SOL    HW123849   5.197   1.281   0.547
 7650SOL    HW223850   5.044   1.335   0.565
 7651SOL     OW23851   2.173   0.608   3.634
 7651SOL    HW123852   2.255   0.564   3.670
 7651SOL    HW223853   2.185   0.624   3.535
 7652SOL     OW23854   6.205   3.071   5.654
 7652SOL    HW123855   6.163   3.122   5.729
 7652SOL    HW223856   6.202   3.125   5.570
 7653SOL     OW23857   1.228   1.641   0.163
 7653SOL    HW123858   1.228   1.731   0.119
 7653SOL    HW223859   1.171   1.578   0.111
 7654SOL     OW23860   4.826   2.670   4.118
 7654SOL    HW123861   4.806   2.573   4.136
 7654SOL    HW223862   4.853   2.714   4.204
 7655SOL     OW23863   4.524   6.670   3.060
 7655SOL    HW123864   4.426   6.687   3.070
 7655SOL    HW223865   4.567   6.666   3.150
 7656SOL     OW23866   3.164   3.857   6.174
 7656SOL    HW123867   3.190   3.764   6.201
 7656SOL    HW223868   3.176   3.868   6.076
 7657SOL     OW23869   1.478   2.410   3.903
 7657SOL    HW123870   1.536   2.488   3.878
 7657SOL    HW223871   1.417   2.437   3.977
 7658SOL     OW23872   3.918   6.706   6.198
 7658SOL    HW123873   3.996   6.667   6.246
 7658SOL    HW223874   3.838   6.705   6.259
 7659SOL     OW23875   5.751   4.789   6.333
 7659SOL    HW123876   5.703   4.754   6.414
 7659SOL    HW223877   5.718   4.881   6.312
 7660SOL     OW23878   0.067   5.844   3.535
 7660SOL    HW123879   0.112   5.755   3.534
 7660SOL    HW223880   0.128   5.912   3.577
 7661SOL     OW23881   5.885   2.389   5.064
 7661SOL    HW123882   5.929   2.302   5.088
 7661SOL    HW223883   5.854   2.434   5.148
 7662SOL     OW23884   1.043   2.967   3.447
 7662SOL    HW123885   1.140   2.942   3.446
 7662SOL    HW223886   1.021   3.011   3.534
 7663SOL     OW23887   7.014   5.372   5.374
 7663SOL    HW123888   0.066   5.391   5.307
 7663SOL    HW223889   6.944   5.443   5.369
 7664SOL     OW23890   4.037   0.175   1.629
 7664SOL    HW123891   4.088   0.177   1.715
 7664SOL    HW223892   3.990   0.087   1.620
 7665SOL     OW23893   6.237   0.356   4.760
 7665SOL    HW123894   6.213   0.375   4.855
 7665SOL    HW223895   6.171   0.292   4.720
 7666SOL     OW23896   0.739   5.539   1.861
 7666SOL    HW123897   0.643   5.552   1.834
 7666SOL    HW223898   0.786   5.485   1.792
 7667SOL     OW23899   4.538   7.013   2.229
 7667SOL    HW123900   4.606   0.067   2.225
 7667SOL    HW223901   4.460   0.024   2.283
 7668SOL     OW23902   3.285   4.358   0.733
 7668SOL    HW123903   3.371   4.406   0.747
 7668SOL    HW223904   3.238   4.348   0.821
 7669SOL     OW23905   4.531   1.483   4.638
 7669SOL    HW123906   4.515   1.561   4.699
 7669SOL    HW223907   4.628   1.477   4.616
 7670SOL     OW23908   0.777   4.762   0.424
 7670SOL    HW123909   0.768   4.861   0.410
 7670SOL    HW223910   0.799   4.745   0.520
 7671SOL     OW23911   4.635   1.318   1.480
 7671SOL    HW123912   4.618   1.398   1.537
 7671SOL    HW223913   4.555   1.299   1.424
 7672SOL     OW23914   0.286   6.819   2.344
 7672SOL    HW123915   0.271   6.915   2.320
 7672SOL    HW223916   0.304   6.767   2.260
 7673SOL     OW23917   1.203   6.613   0.818
 7673SOL    HW123918   1.281   6.612   0.755
 7673SOL    HW223919   1.134   6.548   0.787
 7674SOL     OW23920   5.468   0.880   3.247
 7674SOL    HW123921   5.560   0.883   3.284
 7674SOL    HW223922   5.402   0.895   3.320
 7675SOL     OW23923   6.255   6.935   2.404
 7675SOL    HW123924   6.296   6.854   2.445
 7675SOL    HW223925   6.165   6.912   2.367
 7676SOL     OW23926   2.934   1.979   0.588
 7676SOL    HW123927   2.861   1.914   0.609
 7676SOL    HW223928   3.013   1.962   0.646
 7677SOL     OW23929   0.211   4.869   1.519
 7677SOL    HW123930   0.209   4.821   1.432
 7677SOL    HW223931   0.291   4.841   1.572
 7678SOL     OW23932   1.830   3.174   4.974
 7678SOL    HW123933   1.805   3.077   4.984
 7678SOL    HW223934   1.928   3.185   4.989
 7679SOL     OW23935   3.337   6.247   5.688
 7679SOL    HW123936   3.332   6.267   5.786
 7679SOL    HW223937   3.381   6.158   5.675
 7680SOL     OW23938   0.624   1.057   0.066
 7680SOL    HW123939   0.528   1.033   0.051
 7680SOL    HW223940   0.679   0.974   0.068
 7681SOL     OW23941   2.909   0.965   0.866
 7681SOL    HW123942   2.962   1.042   0.902
 7681SOL    HW223943   2.971   0.894   0.834
 7682SOL     OW23944   3.428   0.529   2.068
 7682SOL    HW123945   3.346   0.543   2.124
 7682SOL    HW223946   3.503   0.583   2.105
 7683SOL     OW23947   5.636   2.143   4.496
 7683SOL    HW123948   5.624   2.242   4.493
 7683SOL    HW223949   5.732   2.120   4.480
 7684SOL     OW23950   2.957   1.690   2.205
 7684SOL    HW123951   3.054   1.702   2.226
 7684SOL    HW223952   2.931   1.749   2.129
 7685SOL     OW23953   2.677   2.108   5.861
 7685SOL    HW123954   2.720   2.161   5.787
 7685SOL    HW223955   2.679   2.161   5.946
 7686SOL     OW23956   6.749   6.486   3.167
 7686SOL    HW123957   6.807   6.431   3.106
 7686SOL    HW223958   6.707   6.426   3.235
 7687SOL     OW23959   6.012   4.898   3.516
 7687SOL    HW123960   6.056   4.917   3.428
 7687SOL    HW223961   6.078   4.857   3.578
 7688SOL     OW23962   0.749   6.104   5.270
 7688SOL    HW123963   0.759   6.185   5.211
 7688SOL    HW223964   0.652   6.087   5.286
 7689SOL     OW23965   5.440   6.351   2.266
 7689SOL    HW123966   5.355   6.397   2.294
 7689SOL    HW223967   5.428   6.312   2.175
 7690SOL     OW23968   5.263   4.948   0.330
 7690SOL    HW123969   5.333   4.899   0.278
 7690SOL    HW223970   5.243   5.035   0.285
 7691SOL     OW23971   5.150   3.785   4.518
 7691SOL    HW123972   5.200   3.862   4.478
 7691SOL    HW223973   5.209   3.736   4.582
 7692SOL     OW23974   0.723   6.386   1.715
 7692SOL    HW123975   0.764   6.333   1.790
 7692SOL    HW223976   0.762   6.356   1.628
 7693SOL     OW23977   3.080   6.772   1.821
 7693SOL    HW123978   3.151   6.703   1.839
 7693SOL    HW223979   3.109   6.860   1.858
 7694SOL     OW23980   5.402   3.568   4.596
 7694SOL    HW123981   5.492   3.596   4.565
 7694SOL    HW223982   5.393   3.469   4.586
 7695SOL     OW23983   4.941   0.126   0.738
 7695SOL    HW123984   5.018   0.116   0.802
 7695SOL    HW223985   4.969   0.094   0.648
 7696SOL     OW23986   0.306   0.813   5.726
 7696SOL    HW123987   0.215   0.773   5.712
 7696SOL    HW223988   0.363   0.796   5.646
 7697SOL     OW23989   2.554   6.787   2.598
 7697SOL    HW123990   2.550   6.761   2.501
 7697SOL    HW223991   2.468   6.765   2.643
 7698SOL     OW23992   5.751   1.351   4.088
 7698SOL    HW123993   5.768   1.384   4.181
 7698SOL    HW223994   5.815   1.396   4.025
 7699SOL     OW23995   3.585   5.601   6.687
 7699SOL    HW123996   3.664   5.539   6.681
 7699SOL    HW223997   3.503   5.554   6.655
 7700SOL     OW23998   4.541   5.889   2.778
 7700SOL    HW123999   4.545   5.974   2.831
 7700SOL    HW224000   4.447   5.856   2.776
 7701SOL     OW24001   6.134   2.173   0.587
 7701SOL    HW124002   6.076   2.140   0.661
 7701SOL    HW224003   6.230   2.158   0.612
 7702SOL     OW24004   3.096   6.273   5.163
 7702SOL    HW124005   3.033   6.280   5.241
 7702SOL    HW224006   3.169   6.341   5.174
 7703SOL     OW24007   6.657   6.123   6.574
 7703SOL    HW124008   6.597   6.083   6.505
 7703SOL    HW224009   6.629   6.217   6.592
 7704SOL     OW24010   6.064   0.015   4.699
 7704SOL    HW124011   6.155   7.013   4.736
 7704SOL    HW224012   6.071   0.026   4.599
 7705SOL     OW24013   2.809   5.787   0.603
 7705SOL    HW124014   2.851   5.814   0.516
 7705SOL    HW224015   2.803   5.867   0.663
 7706SOL     OW24016   3.673   3.635   4.981
 7706SOL    HW124017   3.748   3.699   5.001
 7706SOL    HW224018   3.679   3.557   5.044
 7707SOL     OW24019   6.832   4.750   5.869
 7707SOL    HW124020   6.841   4.838   5.916
 7707SOL    HW224021   6.889   4.681   5.916
 7708SOL     OW24022   1.149   6.678   5.669
 7708SOL    HW124023   1.202   6.755   5.703
 7708SOL    HW224024   1.068   6.665   5.726
 7709SOL     OW24025   6.015   4.140   2.049
 7709SOL    HW124026   6.051   4.051   2.022
 7709SOL    HW224027   6.031   4.206   1.975
 7710SOL     OW24028   3.099   2.114   0.148
 7710SOL    HW124029   3.053   2.145   0.232
 7710SOL    HW224030   3.047   2.039   0.107
 7711SOL     OW24031   5.316   6.090   5.972
 7711SOL    HW124032   5.346   5.996   5.986
 7711SOL    HW224033   5.254   6.094   5.894
 7712SOL     OW24034   6.653   5.236   1.884
 7712SOL    HW124035   6.624   5.259   1.977
 7712SOL    HW224036   6.744   5.194   1.886
 7713SOL     OW24037   2.129   3.780   0.991
 7713SOL    HW124038   2.066   3.856   1.009
 7713SOL    HW224039   2.221   3.805   1.021
 7714SOL     OW24040   0.068   3.980   5.503
 7714SOL    HW124041   0.136   4.012   5.570
 7714SOL    HW224042   0.033   4.059   5.452
 7715SOL     OW24043   2.805   1.898   0.332
 7715SOL    HW124044   2.888   1.861   0.290
 7715SOL    HW224045   2.828   1.938   0.421
 7716SOL     OW24046   6.529   4.882   1.876
 7716SOL    HW124047   6.483   4.799   1.844
 7716SOL    HW224048   6.609   4.900   1.818
 7717SOL     OW24049   1.993   0.963   5.525
 7717SOL    HW124050   1.941   0.924   5.601
 7717SOL    HW224051   2.065   1.022   5.560
 7718SOL     OW24052   6.925   3.745   3.702
 7718SOL    HW124053   0.003   3.764   3.705
 7718SOL    HW224054   6.901   3.710   3.612
 7719SOL     OW24055   6.954   4.465   5.703
 7719SOL    HW124056   6.947   4.490   5.606
 7719SOL    HW224057   0.027   4.481   5.736
 7720SOL     OW24058   6.788   1.614   6.291
 7720SOL    HW124059   6.763   1.541   6.354
 7720SOL    HW224060   6.718   1.685   6.293
 7721SOL     OW24061   0.542   5.295   1.867
 7721SOL    HW124062   0.629   5.285   1.915
 7721SOL    HW224063   0.545   5.376   1.809
 7722SOL     OW24064   1.315   4.176   3.500
 7722SOL    HW124065   1.323   4.123   3.415
 7722SOL    HW224066   1.405   4.206   3.530
 7723SOL     OW24067   4.776   3.501   6.321
 7723SOL    HW124068   4.818   3.549   6.398
 7723SOL    HW224069   4.844   3.488   6.249
 7724SOL     OW24070   3.355   3.758   1.071
 7724SOL    HW124071   3.353   3.666   1.112
 7724SOL    HW224072   3.280   3.812   1.108
 7725SOL     OW24073   6.526   1.900   2.765
 7725SOL    HW124074   6.466   1.927   2.689
 7725SOL    HW224075   6.548   1.803   2.758
 7726SOL     OW24076   1.637   5.093   5.670
 7726SOL    HW124077   1.707   5.084   5.599
 7726SOL    HW224078   1.572   5.164   5.644
 7727SOL     OW24079   0.058   2.454   2.409
 7727SOL    HW124080   0.012   2.388   2.468
 7727SOL    HW224081   0.091   2.408   2.326
 7728SOL     OW24082   2.113   3.328   4.931
 7728SOL    HW124083   2.167   3.328   5.015
 7728SOL    HW224084   2.089   3.422   4.906
 7729SOL     OW24085   6.057   2.336   1.265
 7729SOL    HW124086   6.156   2.346   1.251
 7729SOL    HW224087   6.041   2.285   1.349
 7730SOL     OW24088   6.533   5.630   0.593
 7730SOL    HW124089   6.523   5.638   0.692
 7730SOL    HW224090   6.523   5.534   0.566
 7731SOL     OW24091   6.774   1.289   6.990
 7731SOL    HW124092   6.730   1.207   6.954
 7731SOL    HW224093   6.839   1.325   6.923
 7732SOL     OW24094   4.942   0.114   0.242
 7732SOL    HW124095   4.992   0.074   0.165
 7732SOL    HW224096   4.972   0.209   0.255
 7733SOL     OW24097   5.289   5.803   2.521
 7733SOL    HW124098   5.228   5.811   2.443
 7733SOL    HW224099   5.257   5.863   2.594
 7734SOL     OW24100   1.332   4.835   4.026
 7734SOL    HW124101   1.299   4.746   4.058
 7734SOL    HW224102   1.309   4.906   4.092
 7735SOL     OW24103   5.063   6.582   6.478
 7735SOL    HW124104   5.004   6.549   6.405
 7735SOL    HW224105   5.136   6.516   6.495
 7736SOL     OW24106   3.015   2.894   6.787
 7736SOL    HW124107   3.047   2.978   6.832
 7736SOL    HW224108   2.976   2.918   6.698
 7737SOL     OW24109   2.906   6.277   2.718
 7737SOL    HW124110   2.848   6.358   2.729
 7737SOL    HW224111   2.889   6.235   2.629
 7738SOL     OW24112   3.139   5.499   6.699
 7738SOL    HW124113   3.093   5.580   6.664
 7738SOL    HW224114   3.229   5.490   6.657
 7739SOL     OW24115   0.153   2.308   1.066
 7739SOL    HW124116   0.185   2.217   1.042
 7739SOL    HW224117   0.072   2.301   1.125
 7740SOL     OW24118   2.589   1.508   3.045
 7740SOL    HW124119   2.564   1.551   3.132
 7740SOL    HW224120   2.679   1.541   3.016
 7741SOL     OW24121   6.800   5.177   5.881
 7741SOL    HW124122   6.858   5.171   5.800
 7741SOL    HW224123   6.722   5.236   5.862
 7742SOL     OW24124   4.297   1.800   3.202
 7742SOL    HW124125   4.209   1.810   3.248
 7742SOL    HW224126   4.311   1.703   3.179
 7743SOL     OW24127   5.393   1.575   0.168
 7743SOL    HW124128   5.420   1.671   0.177
 7743SOL    HW224129   5.299   1.564   0.199
 7744SOL     OW24130   0.302   0.472   4.254
 7744SOL    HW124131   0.290   0.468   4.155
 7744SOL    HW224132   0.398   0.457   4.276
 7745SOL     OW24133   4.012   1.515   0.097
 7745SOL    HW124134   3.919   1.516   0.060
 7745SOL    HW224135   4.028   1.426   0.141
 7746SOL     OW24136   1.616   0.243   0.587
 7746SOL    HW124137   1.585   0.263   0.680
 7746SOL    HW224138   1.716   0.250   0.583
 7747SOL     OW24139   5.291   5.684   1.428
 7747SOL    HW124140   5.229   5.665   1.504
 7747SOL    HW224141   5.304   5.783   1.420
 7748SOL     OW24142   3.020   3.643   4.603
 7748SOL    HW124143   3.021   3.733   4.646
 7748SOL    HW224144   2.987   3.575   4.669
 7749SOL     OW24145   2.769   3.772   5.566
 7749SOL    HW124146   2.845   3.827   5.531
 7749SOL    HW224147   2.791   3.736   5.656
 7750SOL     OW24148   6.982   6.360   1.541
 7750SOL    HW124149   0.011   6.446   1.529
 7750SOL    HW224150   7.012   6.316   1.625
 7751SOL     OW24151   1.659   2.821   2.354
 7751SOL    HW124152   1.741   2.870   2.324
 7751SOL    HW224153   1.581   2.849   2.299
 7752SOL     OW24154   5.701   6.378   5.497
 7752SOL    HW124155   5.617   6.423   5.527
 7752SOL    HW224156   5.746   6.335   5.576
 7753SOL     OW24157   2.043   0.476   4.279
 7753SOL    HW124158   1.994   0.502   4.196
 7753SOL    HW224159   2.132   0.521   4.281
 7754SOL     OW24160   3.936   6.430   2.067
 7754SOL    HW124161   3.942   6.519   2.111
 7754SOL    HW224162   3.843   6.393   2.079
 7755SOL     OW24163   1.161   2.274   5.935
 7755SOL    HW124164   1.123   2.275   5.843
 7755SOL    HW224165   1.229   2.347   5.943
 7756SOL     OW24166   2.161   5.819   2.411
 7756SOL    HW124167   2.168   5.722   2.389
 7756SOL    HW224168   2.194   5.873   2.333
 7757SOL     OW24169   5.916   5.208   6.162
 7757SOL    HW124170   5.937   5.285   6.101
 7757SOL    HW224171   5.950   5.123   6.122
 7758SOL     OW24172   1.621   0.820   5.720
 7758SOL    HW124173   1.635   0.821   5.819
 7758SOL    HW224174   1.648   0.731   5.684
 7759SOL     OW24175   1.195   1.767   5.307
 7759SOL    HW124176   1.130   1.712   5.254
 7759SOL    HW224177   1.285   1.762   5.264
 7760SOL     OW24178   5.465   3.386   3.340
 7760SOL    HW124179   5.504   3.478   3.349
 7760SOL    HW224180   5.539   3.320   3.330
 7761SOL     OW24181   0.632   0.762   5.350
 7761SOL    HW124182   0.671   0.853   5.342
 7761SOL    HW224183   0.660   0.722   5.438
 7762SOL     OW24184   3.901   0.213   4.240
 7762SOL    HW124185   3.849   0.288   4.282
 7762SOL    HW224186   3.854   0.126   4.257
 7763SOL     OW24187   1.354   1.191   6.707
 7763SOL    HW124188   1.258   1.217   6.720
 7763SOL    HW224189   1.372   1.106   6.757
 7764SOL     OW24190   3.597   3.147   3.500
 7764SOL    HW124191   3.691   3.179   3.486
 7764SOL    HW224192   3.549   3.144   3.413
 7765SOL     OW24193   6.268   3.257   5.449
 7765SOL    HW124194   6.332   3.205   5.392
 7765SOL    HW224195   6.244   3.343   5.403
 7766SOL     OW24196   6.757   3.386   0.169
 7766SOL    HW124197   6.696   3.307   0.170
 7766SOL    HW224198   6.845   3.359   0.129
 7767SOL     OW24199   4.937   6.062   2.741
 7767SOL    HW124200   4.869   6.089   2.672
 7767SOL    HW224201   5.000   5.995   2.701
 7768SOL     OW24202   4.435   4.847   2.633
 7768SOL    HW124203   4.342   4.866   2.602
 7768SOL    HW224204   4.449   4.889   2.723
 7769SOL     OW24205   4.346   2.428   3.467
 7769SOL    HW124206   4.395   2.492   3.408
 7769SOL    HW224207   4.323   2.346   3.415
 7770SOL     OW24208   1.874   4.297   3.053
 7770SOL    HW124209   1.913   4.382   3.019
 7770SOL    HW224210   1.775   4.296   3.035
 7771SOL     OW24211   3.351   2.233   5.343
 7771SOL    HW124212   3.290   2.296   5.296
 7771SOL    HW224213   3.377   2.159   5.280
 7772SOL     OW24214   4.613   0.463   1.877
 7772SOL    HW124215   4.580   0.498   1.965
 7772SOL    HW224216   4.690   0.519   1.846
 7773SOL     OW24217   2.612   6.246   5.007
 7773SOL    HW124218   2.557   6.321   5.043
 7773SOL    HW224219   2.660   6.200   5.082
 7774SOL     OW24220   5.293   1.815   5.440
 7774SOL    HW124221   5.345   1.865   5.510
 7774SOL    HW224222   5.345   1.815   5.354
 7775SOL     OW24223   4.943   5.379   0.935
 7775SOL    HW124224   4.882   5.399   0.858
 7775SOL    HW224225   4.889   5.361   1.017
 7776SOL     OW24226   1.594   5.185   6.550
 7776SOL    HW124227   1.569   5.272   6.507
 7776SOL    HW224228   1.541   5.111   6.507
 7777SOL     OW24229   6.289   6.370   4.664
 7777SOL    HW124230   6.326   6.344   4.574
 7777SOL    HW224231   6.281   6.289   4.721
 7778SOL     OW24232   5.658   3.974   0.914
 7778SOL    HW124233   5.641   3.924   0.829
 7778SOL    HW224234   5.585   3.953   0.980
 7779SOL     OW24235   2.670   2.481   1.793
 7779SOL    HW124236   2.608   2.452   1.866
 7779SOL    HW224237   2.765   2.476   1.826
 7780SOL     OW24238   1.059   4.554   5.417
 7780SOL    HW124239   1.134   4.570   5.352
 7780SOL    HW224240   1.070   4.615   5.496
 7781SOL     OW24241   1.347   5.176   0.668
 7781SOL    HW124242   1.340   5.145   0.573
 7781SOL    HW224243   1.257   5.204   0.701
 7782SOL     OW24244   5.760   5.034   4.655
 7782SOL    HW124245   5.850   5.007   4.621
 7782SOL    HW224246   5.770   5.091   4.736
 7783SOL     OW24247   0.870   5.811   5.595
 7783SOL    HW124248   0.904   5.724   5.630
 7783SOL    HW224249   0.946   5.863   5.556
 7784SOL     OW24250   3.352   1.833   1.534
 7784SOL    HW124251   3.331   1.867   1.626
 7784SOL    HW224252   3.291   1.877   1.468
 7785SOL     OW24253   2.048   6.154   4.567
 7785SOL    HW124254   2.026   6.174   4.472
 7785SOL    HW224255   1.987   6.082   4.601
 7786SOL     OW24256   3.052   6.389   0.303
 7786SOL    HW124257   3.061   6.486   0.325
 7786SOL    HW224258   3.138   6.342   0.326
 7787SOL     OW24259   2.070   2.693   6.103
 7787SOL    HW124260   2.025   2.772   6.145
 7787SOL    HW224261   2.038   2.681   6.010
 7788SOL     OW24262   2.552   5.110   1.143
 7788SOL    HW124263   2.621   5.178   1.119
 7788SOL    HW224264   2.590   5.018   1.130
 7789SOL     OW24265   2.029   6.408   6.359
 7789SOL    HW124266   2.016   6.347   6.281
 7789SOL    HW224267   1.950   6.400   6.421
 7790SOL     OW24268   5.541   5.410   3.462
 7790SOL    HW124269   5.530   5.349   3.384
 7790SOL    HW224270   5.479   5.488   3.452
 7791SOL     OW24271   2.402   4.997   2.958
 7791SOL    HW124272   2.364   5.034   2.874
 7791SOL    HW224273   2.345   5.024   3.035
 7792SOL     OW24274   2.030   5.296   5.133
 7792SOL    HW124275   2.102   5.300   5.202
 7792SOL    HW224276   1.955   5.356   5.159
 7793SOL     OW24277   3.291   0.811   1.023
 7793SOL    HW124278   3.309   0.727   0.971
 7793SOL    HW224279   3.357   0.881   0.997
 7794SOL     OW24280   6.228   3.672   3.071
 7794SOL    HW124281   6.185   3.751   3.028
 7794SOL    HW224282   6.327   3.676   3.058
 7795SOL     OW24283   1.892   3.901   5.543
 7795SOL    HW124284   1.978   3.854   5.522
 7795SOL    HW224285   1.841   3.916   5.458
 7796SOL     OW24286   4.002   3.197   3.691
 7796SOL    HW124287   4.028   3.139   3.613
 7796SOL    HW224288   3.963   3.283   3.657
 7797SOL     OW24289   1.800   0.135   2.038
 7797SOL    HW124290   1.899   0.131   2.051
 7797SOL    HW224291   1.780   0.179   1.950
 7798SOL     OW24292   2.109   3.603   4.898
 7798SOL    HW124293   2.115   3.670   4.973
 7798SOL    HW224294   2.174   3.628   4.826
 7799SOL     OW24295   1.311   6.420   2.062
 7799SOL    HW124296   1.226   6.417   2.011
 7799SOL    HW224297   1.337   6.328   2.089
 7800SOL     OW24298   1.062   5.574   1.467
 7800SOL    HW124299   1.072   5.477   1.488
 7800SOL    HW224300   0.975   5.590   1.421
 7801SOL     OW24301   2.583   2.029   2.234
 7801SOL    HW124302   2.483   2.031   2.226
 7801SOL    HW224303   2.609   2.047   2.329
 7802SOL     OW24304   5.675   3.120   0.959
 7802SOL    HW124305   5.673   3.023   0.984
 7802SOL    HW224306   5.758   3.139   0.906
 7803SOL     OW24307   4.657   2.220   5.970
 7803SOL    HW124308   4.684   2.218   5.874
 7803SOL    HW224309   4.688   2.305   6.012
 7804SOL     OW24310   4.221   2.039   4.532
 7804SOL    HW124311   4.309   2.053   4.577
 7804SOL    HW224312   4.190   1.946   4.547
 7805SOL     OW24313   5.612   2.626   1.614
 7805SOL    HW124314   5.685   2.566   1.582
 7805SOL    HW224315   5.531   2.614   1.557
 7806SOL     OW24316   6.622   1.957   0.305
 7806SOL    HW124317   6.525   1.980   0.311
 7806SOL    HW224318   6.666   1.969   0.394
 7807SOL     OW24319   0.868   4.955   5.655
 7807SOL    HW124320   0.929   4.876   5.655
 7807SOL    HW224321   0.816   4.957   5.740
 7808SOL     OW24322   6.253   3.751   4.540
 7808SOL    HW124323   6.261   3.822   4.470
 7808SOL    HW224324   6.181   3.686   4.514
 7809SOL     OW24325   2.748   4.845   4.250
 7809SOL    HW124326   2.807   4.875   4.325
 7809SOL    HW224327   2.796   4.854   4.163
 7810SOL     OW24328   3.470   0.456   4.432
 7810SOL    HW124329   3.413   0.439   4.352
 7810SOL    HW224330   3.424   0.423   4.514
 7811SOL     OW24331   2.073   5.619   1.552
 7811SOL    HW124332   2.155   5.592   1.602
 7811SOL    HW224333   2.000   5.553   1.570
 7812SOL     OW24334   6.989   2.132   3.933
 7812SOL    HW124335   0.064   2.163   3.932
 7812SOL    HW224336   6.987   2.032   3.940
 7813SOL     OW24337   4.645   2.740   0.384
 7813SOL    HW124338   4.693   2.663   0.343
 7813SOL    HW224339   4.639   2.727   0.483
 7814SOL     OW24340   0.519   3.795   3.767
 7814SOL    HW124341   0.508   3.889   3.735
 7814SOL    HW224342   0.514   3.792   3.867
 7815SOL     OW24343   5.708   1.320   5.168
 7815SOL    HW124344   5.770   1.257   5.216
 7815SOL    HW224345   5.720   1.310   5.069
 7816SOL     OW24346   1.628   2.388   5.812
 7816SOL    HW124347   1.674   2.434   5.888
 7816SOL    HW224348   1.580   2.456   5.756
 7817SOL     OW24349   4.606   4.568   3.651
 7817SOL    HW124350   4.650   4.520   3.575
 7817SOL    HW224351   4.652   4.655   3.668
 7818SOL     OW24352   4.533   0.788   1.806
 7818SOL    HW124353   4.491   0.789   1.896
 7818SOL    HW224354   4.616   0.731   1.808
 7819SOL     OW24355   6.970   4.144   3.147
 7819SOL    HW124356   6.877   4.134   3.181
 7819SOL    HW224357   7.001   4.058   3.107
 7820SOL     OW24358   0.977   1.592   5.600
 7820SOL    HW124359   0.891   1.574   5.648
 7820SOL    HW224360   1.016   1.679   5.631
 7821SOL     OW24361   5.651   5.523   0.280
 7821SOL    HW124362   5.705   5.541   0.198
 7821SOL    HW224363   5.672   5.432   0.315
 7822SOL     OW24364   1.421   1.632   6.754
 7822SOL    HW124365   1.330   1.595   6.773
 7822SOL    HW224366   1.412   1.713   6.696
 7823SOL     OW24367   2.944   3.911   5.037
 7823SOL    HW124368   2.884   3.910   5.117
 7823SOL    HW224369   3.039   3.900   5.066
 7824SOL     OW24370   5.810   1.037   3.776
 7824SOL    HW124371   5.880   0.965   3.770
 7824SOL    HW224372   5.848   1.123   3.741
 7825SOL     OW24373   1.041   2.826   0.987
 7825SOL    HW124374   1.083   2.751   0.936
 7825SOL    HW224375   0.971   2.869   0.931
 7826SOL     OW24376   6.361   1.534   0.291
 7826SOL    HW124377   6.267   1.526   0.258
 7826SOL    HW224378   6.421   1.555   0.214
 7827SOL     OW24379   3.098   4.797   1.370
 7827SOL    HW124380   3.174   4.732   1.377
 7827SOL    HW224381   3.044   4.795   1.454
 7828SOL     OW24382   0.835   4.944   0.009
 7828SOL    HW124383   0.799   4.994   0.088
 7828SOL    HW224384   0.900   4.874   0.040
 7829SOL     OW24385   1.555   2.963   1.261
 7829SOL    HW124386   1.472   2.987   1.311
 7829SOL    HW224387   1.605   3.046   1.236
 7830SOL     OW24388   2.507   4.370   5.689
 7830SOL    HW124389   2.438   4.425   5.642
 7830SOL    HW224390   2.590   4.367   5.634
 7831SOL     OW24391   1.709   5.821   1.050
 7831SOL    HW124392   1.752   5.881   1.117
 7831SOL    HW224393   1.619   5.792   1.085
 7832SOL     OW24394   4.756   1.032   3.158
 7832SOL    HW124395   4.696   0.953   3.145
 7832SOL    HW224396   4.706   1.105   3.203
 7833SOL     OW24397   0.888   0.759   6.356
 7833SOL    HW124398   0.815   0.696   6.330
 7833SOL    HW224399   0.850   0.850   6.373
 7834SOL     OW24400   6.524   1.220   3.918
 7834SOL    HW124401   6.444   1.175   3.958
 7834SOL    HW224402   6.499   1.313   3.890
 7835SOL     OW24403   2.803   2.041   5.139
 7835SOL    HW124404   2.855   2.093   5.071
 7835SOL    HW224405   2.724   1.998   5.096
 7836SOL     OW24406   3.506   2.869   5.006
 7836SOL    HW124407   3.526   2.904   5.097
 7836SOL    HW224408   3.590   2.832   4.965
 7837SOL     OW24409   6.101   6.073   1.139
 7837SOL    HW124410   6.067   6.108   1.052
 7837SOL    HW224411   6.040   6.000   1.172
 7838SOL     OW24412   4.739   0.043   6.962
 7838SOL    HW124413   4.676   0.000   0.007
 7838SOL    HW224414   4.693   0.117   6.913
 7839SOL     OW24415   5.991   4.326   5.304
 7839SOL    HW124416   6.080   4.351   5.342
 7839SOL    HW224417   5.981   4.366   5.213
 7840SOL     OW24418   6.155   2.995   3.998
 7840SOL    HW124419   6.094   2.996   3.919
 7840SOL    HW224420   6.124   2.926   4.064
 7841SOL     OW24421   3.966   2.008   6.570
 7841SOL    HW124422   4.043   1.965   6.523
 7841SOL    HW224423   3.929   2.082   6.513
 7842SOL     OW24424   1.883   1.990   2.721
 7842SOL    HW124425   1.951   1.942   2.777
 7842SOL    HW224426   1.926   2.070   2.678
 7843SOL     OW24427   5.789   5.442   2.825
 7843SOL    HW124428   5.805   5.522   2.767
 7843SOL    HW224429   5.804   5.467   2.921
 7844SOL     OW24430   3.810   6.156   2.395
 7844SOL    HW124431   3.891   6.208   2.422
 7844SOL    HW224432   3.743   6.219   2.354
 7845SOL     OW24433   5.201   1.875   3.707
 7845SOL    HW124434   5.168   1.787   3.742
 7845SOL    HW224435   5.158   1.949   3.757
 7846SOL     OW24436   0.834   1.345   2.932
 7846SOL    HW124437   0.901   1.367   3.003
 7846SOL    HW224438   0.875   1.356   2.842
 7847SOL     OW24439   0.123   1.592   2.747
 7847SOL    HW124440   0.164   1.506   2.778
 7847SOL    HW224441   0.026   1.579   2.731
 7848SOL     OW24442   3.609   3.314   0.321
 7848SOL    HW124443   3.615   3.411   0.296
 7848SOL    HW224444   3.626   3.258   0.240
 7849SOL     OW24445   5.425   3.963   3.273
 7849SOL    HW124446   5.427   3.863   3.273
 7849SOL    HW224447   5.485   3.997   3.346
 7850SOL     OW24448   0.335   2.128   5.394
 7850SOL    HW124449   0.377   2.194   5.455
 7850SOL    HW224450   0.290   2.176   5.319
 7851SOL     OW24451   6.525   1.153   2.019
 7851SOL    HW124452   6.502   1.176   1.925
 7851SOL    HW224453   6.585   1.073   2.021
 7852SOL     OW24454   2.482   1.478   5.514
 7852SOL    HW124455   2.522   1.400   5.562
 7852SOL    HW224456   2.425   1.445   5.438
 7853SOL     OW24457   4.397   2.238   1.348
 7853SOL    HW124458   4.484   2.287   1.351
 7853SOL    HW224459   4.378   2.211   1.254
 7854SOL     OW24460   3.545   3.745   0.116
 7854SOL    HW124461   3.550   3.839   0.082
 7854SOL    HW224462   3.606   3.687   0.063
 7855SOL     OW24463   4.469   5.112   5.163
 7855SOL    HW124464   4.436   5.118   5.257
 7855SOL    HW224465   4.546   5.175   5.151
 7856SOL     OW24466   6.240   4.447   5.383
 7856SOL    HW124467   6.224   4.545   5.367
 7856SOL    HW224468   6.331   4.422   5.350
 7857SOL     OW24469   5.669   2.156   5.075
 7857SOL    HW124470   5.740   2.226   5.074
 7857SOL    HW224471   5.676   2.103   5.160
 7858SOL     OW24472   5.396   5.880   3.721
 7858SOL    HW124473   5.462   5.913   3.789
 7858SOL    HW224474   5.309   5.928   3.733
 7859SOL     OW24475   5.397   2.410   6.582
 7859SOL    HW124476   5.335   2.419   6.504
 7859SOL    HW224477   5.450   2.494   6.592
 7860SOL     OW24478   4.157   0.271   2.311
 7860SOL    HW124479   4.235   0.283   2.250
 7860SOL    HW224480   4.139   0.357   2.359
 7861SOL     OW24481   3.544   5.011   1.897
 7861SOL    HW124482   3.576   5.037   1.806
 7861SOL    HW224483   3.555   4.913   1.910
 7862SOL     OW24484   2.987   3.531   1.514
 7862SOL    HW124485   3.009   3.628   1.507
 7862SOL    HW224486   2.999   3.501   1.609
 7863SOL     OW24487   0.543   5.519   3.996
 7863SOL    HW124488   0.463   5.546   4.050
 7863SOL    HW224489   0.524   5.434   3.947
 7864SOL     OW24490   0.518   5.526   5.417
 7864SOL    HW124491   0.569   5.610   5.433
 7864SOL    HW224492   0.474   5.531   5.327
 7865SOL     OW24493   5.827   6.704   4.434
 7865SOL    HW124494   5.805   6.731   4.528
 7865SOL    HW224495   5.811   6.780   4.372
 7866SOL     OW24496   1.440   1.798   6.551
 7866SOL    HW124497   1.521   1.774   6.498
 7866SOL    HW224498   1.358   1.782   6.497
 7867SOL     OW24499   5.697   6.681   2.960
 7867SOL    HW124500   5.723   6.593   2.919
 7867SOL    HW224501   5.598   6.685   2.969
 7868SOL     OW24502   5.508   6.637   1.968
 7868SOL    HW124503   5.416   6.667   1.947
 7868SOL    HW224504   5.532   6.559   1.910
 7869SOL     OW24505   6.136   3.677   0.383
 7869SOL    HW124506   6.113   3.713   0.473
 7869SOL    HW224507   6.222   3.717   0.352
 7870SOL     OW24508   3.844   4.863   4.144
 7870SOL    HW124509   3.827   4.801   4.220
 7870SOL    HW224510   3.941   4.860   4.120
 7871SOL     OW24511   4.943   2.839   2.324
 7871SOL    HW124512   4.950   2.916   2.260
 7871SOL    HW224513   5.009   2.851   2.398
 7872SOL     OW24514   2.504   4.575   3.132
 7872SOL    HW124515   2.545   4.566   3.222
 7872SOL    HW224516   2.575   4.595   3.064
 7873SOL     OW24517   5.281   0.671   5.942
 7873SOL    HW124518   5.293   0.706   6.035
 7873SOL    HW224519   5.232   0.584   5.945
 7874SOL     OW24520   5.606   1.679   0.537
 7874SOL    HW124521   5.584   1.771   0.570
 7874SOL    HW224522   5.627   1.682   0.440
 7875SOL     OW24523   5.798   2.306   6.610
 7875SOL    HW124524   5.845   2.221   6.587
 7875SOL    HW224525   5.704   2.286   6.637
 7876SOL     OW24526   0.396   0.100   4.413
 7876SOL    HW124527   0.371   0.073   4.506
 7876SOL    HW224528   0.484   0.059   4.390
 7877SOL     OW24529   0.793   2.412   2.734
 7877SOL    HW124530   0.747   2.347   2.795
 7877SOL    HW224531   0.728   2.444   2.665
 7878SOL     OW24532   5.620   5.119   4.390
 7878SOL    HW124533   5.660   5.081   4.473
 7878SOL    HW224534   5.656   5.211   4.375
 7879SOL     OW24535   4.680   5.364   4.426
 7879SOL    HW124536   4.625   5.288   4.392
 7879SOL    HW224537   4.651   5.387   4.519
 7880SOL     OW24538   1.924   5.079   1.154
 7880SOL    HW124539   1.842   5.118   1.196
 7880SOL    HW224540   1.952   5.135   1.076
 7881SOL     OW24541   5.916   4.509   4.522
 7881SOL    HW124542   5.905   4.455   4.605
 7881SOL    HW224543   5.826   4.530   4.484
 7882SOL     OW24544   0.988   3.171   3.153
 7882SOL    HW124545   1.048   3.091   3.153
 7882SOL    HW224546   0.932   3.171   3.071
 7883SOL     OW24547   0.839   0.217   0.766
 7883SOL    HW124548   0.906   0.260   0.705
 7883SOL    HW224549   0.873   0.219   0.860
 7884SOL     OW24550   1.760   4.030   3.975
 7884SOL    HW124551   1.726   3.940   3.948
 7884SOL    HW224552   1.829   4.060   3.909
 7885SOL     OW24553   5.986   5.632   1.828
 7885SOL    HW124554   6.026   5.579   1.753
 7885SOL    HW224555   5.968   5.725   1.797
 7886SOL     OW24556   3.327   5.485   0.309
 7886SOL    HW124557   3.380   5.403   0.331
 7886SOL    HW224558   3.237   5.478   0.353
 7887SOL     OW24559   3.332   2.668   5.283
 7887SOL    HW124560   3.287   2.583   5.254
 7887SOL    HW224561   3.264   2.737   5.306
 7888SOL     OW24562   6.338   6.773   5.111
 7888SOL    HW124563   6.245   6.807   5.097
 7888SOL    HW224564   6.341   6.721   5.197
 7889SOL     OW24565   1.301   4.890   0.791
 7889SOL    HW124566   1.356   4.958   0.741
 7889SOL    HW224567   1.294   4.807   0.736
 7890SOL     OW24568   0.522   3.615   3.573
 7890SOL    HW124569   0.512   3.695   3.632
 7890SOL    HW224570   0.439   3.603   3.518
 7891SOL     OW24571   2.488   4.435   4.090
 7891SOL    HW124572   2.459   4.418   4.184
 7891SOL    HW224573   2.483   4.350   4.037
 7892SOL     OW24574   1.833   1.172   3.529
 7892SOL    HW124575   1.869   1.248   3.582
 7892SOL    HW224576   1.866   1.178   3.435
 7893SOL     OW24577   6.843   6.399   1.889
 7893SOL    HW124578   6.781   6.365   1.819
 7893SOL    HW224579   6.827   6.496   1.905
 7894SOL     OW24580   3.789   6.183   0.643
 7894SOL    HW124581   3.707   6.179   0.585
 7894SOL    HW224582   3.870   6.164   0.587
 7895SOL     OW24583   5.593   0.788   5.603
 7895SOL    HW124584   5.679   0.764   5.556
 7895SOL    HW224585   5.537   0.843   5.541
 7896SOL     OW24586   4.007   3.424   1.386
 7896SOL    HW124587   4.100   3.451   1.361
 7896SOL    HW224588   3.952   3.506   1.402
 7897SOL     OW24589   3.120   2.744   0.519
 7897SOL    HW124590   3.187   2.716   0.451
 7897SOL    HW224591   3.066   2.820   0.483
 7898SOL     OW24592   4.290   1.788   3.567
 7898SOL    HW124593   4.261   1.780   3.663
 7898SOL    HW224594   4.237   1.724   3.511
 7899SOL     OW24595   5.857   6.854   1.430
 7899SOL    HW124596   5.822   6.897   1.347
 7899SOL    HW224597   5.792   6.785   1.462
 7900SOL     OW24598   1.468   5.227   2.129
 7900SOL    HW124599   1.387   5.279   2.159
 7900SOL    HW224600   1.449   5.184   2.041
 7901SOL     OW24601   4.584   1.283   6.282
 7901SOL    HW124602   4.542   1.194   6.260
 7901SOL    HW224603   4.543   1.318   6.366
 7902SOL     OW24604   6.378   6.800   1.203
 7902SOL    HW124605   6.384   6.888   1.249
 7902SOL    HW224606   6.284   6.766   1.209
 7903SOL     OW24607   5.023   1.402   1.117
 7903SOL    HW124608   5.014   1.363   1.025
 7903SOL    HW224609   4.933   1.426   1.153
 7904SOL     OW24610   5.668   6.963   3.944
 7904SOL    HW124611   5.734   6.901   3.987
 7904SOL    HW224612   5.711   0.031   3.925
 7905SOL     OW24613   5.511   1.851   0.244
 7905SOL    HW124614   5.510   1.940   0.197
 7905SOL    HW224615   5.478   1.863   0.338
 7906SOL     OW24616   0.375   5.625   1.016
 7906SOL    HW124617   0.372   5.544   0.958
 7906SOL    HW224618   0.363   5.707   0.960
 7907SOL     OW24619   5.364   1.996   2.578
 7907SOL    HW124620   5.299   1.933   2.621
 7907SOL    HW224621   5.447   2.002   2.635
 7908SOL     OW24622   1.609   0.927   5.405
 7908SOL    HW124623   1.522   0.963   5.371
 7908SOL    HW224624   1.606   0.919   5.505
 7909SOL     OW24625   5.092   4.555   4.592
 7909SOL    HW124626   5.152   4.591   4.663
 7909SOL    HW224627   5.043   4.630   4.547
 7910SOL     OW24628   2.812   3.692   5.850
 7910SOL    HW124629   2.764   3.757   5.909
 7910SOL    HW224630   2.827   3.607   5.901
 7911SOL     OW24631   2.045   4.117   0.184
 7911SOL    HW124632   2.076   4.087   0.274
 7911SOL    HW224633   2.021   4.214   0.188
 7912SOL     OW24634   6.700   4.922   0.921
 7912SOL    HW124635   6.693   4.833   0.966
 7912SOL    HW224636   6.737   4.989   0.985
 7913SOL     OW24637   1.167   4.569   1.404
 7913SOL    HW124638   1.243   4.575   1.339
 7913SOL    HW224639   1.203   4.562   1.497
 7914SOL     OW24640   0.395   4.365   0.026
 7914SOL    HW124641   0.311   4.312   0.030
 7914SOL    HW224642   0.474   4.303   0.023
 7915SOL     OW24643   4.791   2.660   1.673
 7915SOL    HW124644   4.796   2.759   1.660
 7915SOL    HW224645   4.734   2.639   1.752
 7916SOL     OW24646   1.100   5.105   5.208
 7916SOL    HW124647   1.076   5.009   5.192
 7916SOL    HW224648   1.153   5.113   5.292
 7917SOL     OW24649   3.380   3.267   4.710
 7917SOL    HW124650   3.351   3.245   4.617
 7917SOL    HW224651   3.467   3.316   4.707
 7918SOL     OW24652   0.349   1.329   5.132
 7918SOL    HW124653   0.395   1.241   5.127
 7918SOL    HW224654   0.346   1.370   5.040
 7919SOL     OW24655   2.339   4.424   2.959
 7919SOL    HW124656   2.339   4.328   2.987
 7919SOL    HW224657   2.406   4.474   3.014
 7920SOL     OW24658   7.019   6.532   0.442
 7920SOL    HW124659   6.965   6.485   0.371
 7920SOL    HW224660   0.078   6.576   0.400
 7921SOL     OW24661   5.424   6.190   1.199
 7921SOL    HW124662   5.355   6.119   1.216
 7921SOL    HW224663   5.504   6.149   1.155
 7922SOL     OW24664   0.191   6.294   0.847
 7922SOL    HW124665   0.157   6.388   0.838
 7922SOL    HW224666   0.153   6.238   0.773
 7923SOL     OW24667   3.399   0.171   1.222
 7923SOL    HW124668   3.351   0.118   1.292
 7923SOL    HW224669   3.490   0.195   1.257
 7924SOL     OW24670   4.991   6.703   1.844
 7924SOL    HW124671   5.057   6.667   1.910
 7924SOL    HW224672   4.957   6.791   1.877
 7925SOL     OW24673   1.241   1.490   6.019
 7925SOL    HW124674   1.306   1.522   5.950
 7925SOL    HW224675   1.170   1.435   5.974
 7926SOL     OW24676   4.493   1.640   5.369
 7926SOL    HW124677   4.585   1.619   5.337
 7926SOL    HW224678   4.466   1.574   5.439
 7927SOL     OW24679   4.636   5.611   2.498
 7927SOL    HW124680   4.669   5.702   2.523
 7927SOL    HW224681   4.705   5.565   2.443
 7928SOL     OW24682   1.050   1.909   5.014
 7928SOL    HW124683   0.968   1.853   5.021
 7928SOL    HW224684   1.130   1.850   5.006
 7929SOL     OW24685   4.795   4.325   5.596
 7929SOL    HW124686   4.784   4.277   5.509
 7929SOL    HW224687   4.753   4.272   5.669
 7930SOL     OW24688   4.214   5.546   4.709
 7930SOL    HW124689   4.274   5.481   4.754
 7930SOL    HW224690   4.223   5.636   4.753
 7931SOL     OW24691   2.558   2.914   0.111
 7931SOL    HW124692   2.610   2.922   0.026
 7931SOL    HW224693   2.513   2.825   0.114
 7932SOL     OW24694   1.284   6.299   6.787
 7932SOL    HW124695   1.233   6.290   6.701
 7932SOL    HW224696   1.249   6.235   6.854
 7933SOL     OW24697   0.390   6.063   5.876
 7933SOL    HW124698   0.459   6.129   5.848
 7933SOL    HW224699   0.377   5.995   5.804
 7934SOL     OW24700   1.910   5.026   0.103
 7934SOL    HW124701   1.869   5.026   0.012
 7934SOL    HW224702   2.009   5.018   0.096
 7935SOL     OW24703   5.806   5.915   0.898
 7935SOL    HW124704   5.886   5.958   0.858
 7935SOL    HW224705   5.741   5.890   0.826
 7936SOL     OW24706   3.539   6.026   2.917
 7936SOL    HW124707   3.507   5.996   2.828
 7936SOL    HW224708   3.590   5.953   2.961
 7937SOL     OW24709   6.307   6.272   3.521
 7937SOL    HW124710   6.393   6.282   3.570
 7937SOL    HW224711   6.323   6.223   3.436
 7938SOL     OW24712   6.703   5.270   3.810
 7938SOL    HW124713   6.798   5.275   3.779
 7938SOL    HW224714   6.662   5.361   3.806
 7939SOL     OW24715   1.503   2.655   4.908
 7939SOL    HW124716   1.429   2.678   4.845
 7939SOL    HW224717   1.471   2.588   4.975
 7940SOL     OW24718   1.670   3.542   1.646
 7940SOL    HW124719   1.595   3.585   1.594
 7940SOL    HW224720   1.697   3.457   1.601
 7941SOL     OW24721   5.526   1.017   1.291
 7941SOL    HW124722   5.479   1.085   1.348
 7941SOL    HW224723   5.485   0.927   1.306
 7942SOL     OW24724   6.585   6.061   2.460
 7942SOL    HW124725   6.537   6.133   2.510
 7942SOL    HW224726   6.649   6.014   2.521
 7943SOL     OW24727   6.108   3.435   0.263
 7943SOL    HW124728   6.140   3.522   0.300
 7943SOL    HW224729   6.113   3.438   0.163
 7944SOL     OW24730   0.675   2.186   1.700
 7944SOL    HW124731   0.724   2.226   1.622
 7944SOL    HW224732   0.589   2.146   1.668
 7945SOL     OW24733   5.947   5.166   1.129
 7945SOL    HW124734   5.931   5.255   1.171
 7945SOL    HW224735   6.045   5.151   1.118
 7946SOL     OW24736   2.831   0.331   5.321
 7946SOL    HW124737   2.839   0.232   5.322
 7946SOL    HW224738   2.920   0.372   5.305
 7947SOL     OW24739   3.543   2.050   6.010
 7947SOL    HW124740   3.486   2.046   6.092
 7947SOL    HW224741   3.530   2.139   5.964
 7948SOL     OW24742   0.963   0.003   1.234
 7948SOL    HW124743   0.871   0.043   1.228
 7948SOL    HW224744   1.018   0.036   1.158
 7949SOL     OW24745   4.532   4.528   4.780
 7949SOL    HW124746   4.480   4.572   4.708
 7949SOL    HW224747   4.479   4.528   4.865
 7950SOL     OW24748   5.157   5.310   4.286
 7950SOL    HW124749   5.122   5.382   4.225
 7950SOL    HW224750   5.081   5.266   4.332
 7951SOL     OW24751   2.041   3.976   1.779
 7951SOL    HW124752   2.082   3.936   1.861
 7951SOL    HW224753   2.100   4.047   1.742
 7952SOL     OW24754   0.480   3.515   0.188
 7952SOL    HW124755   0.508   3.471   0.273
 7952SOL    HW224756   0.382   3.503   0.175
 7953SOL     OW24757   2.736   1.990   4.150
 7953SOL    HW124758   2.717   1.988   4.249
 7953SOL    HW224759   2.673   2.055   4.106
 7954SOL     OW24760   3.684   4.068   6.518
 7954SOL    HW124761   3.779   4.096   6.526
 7954SOL    HW224762   3.625   4.146   6.539
 7955SOL     OW24763   1.609   0.100   6.411
 7955SOL    HW124764   1.597   0.186   6.361
 7955SOL    HW224765   1.549   0.099   6.491
 7956SOL     OW24766   3.433   6.407   2.130
 7956SOL    HW124767   3.371   6.365   2.063
 7956SOL    HW224768   3.394   6.398   2.221
 7957SOL     OW24769   1.109   1.269   1.653
 7957SOL    HW124770   1.136   1.173   1.650
 7957SOL    HW224771   1.018   1.280   1.613
 7958SOL     OW24772   3.443   5.235   4.581
 7958SOL    HW124773   3.441   5.147   4.630
 7958SOL    HW224774   3.498   5.225   4.498
 7959SOL     OW24775   4.536   5.697   0.739
 7959SOL    HW124776   4.548   5.715   0.642
 7959SOL    HW224777   4.572   5.774   0.792
 7960SOL     OW24778   2.693   1.001   6.443
 7960SOL    HW124779   2.774   0.945   6.429
 7960SOL    HW224780   2.668   0.999   6.540
 7961SOL     OW24781   0.126   0.926   0.747
 7961SOL    HW124782   0.138   1.017   0.788
 7961SOL    HW224783   0.072   0.934   0.663
 7962SOL     OW24784   1.157   0.859   6.632
 7962SOL    HW124785   1.209   0.927   6.579
 7962SOL    HW224786   1.136   0.780   6.574
 7963SOL     OW24787   6.398   6.302   4.432
 7963SOL    HW124788   6.315   6.273   4.385
 7963SOL    HW224789   6.470   6.233   4.420
 7964SOL     OW24790   0.528   4.825   2.639
 7964SOL    HW124791   0.444   4.770   2.641
 7964SOL    HW224792   0.512   4.911   2.686
 7965SOL     OW24793   3.807   2.254   5.754
 7965SOL    HW124794   3.873   2.328   5.770
 7965SOL    HW224795   3.825   2.212   5.665
 7966SOL     OW24796   1.533   2.632   6.060
 7966SOL    HW124797   1.615   2.575   6.059
 7966SOL    HW224798   1.479   2.612   6.142
 7967SOL     OW24799   2.854   6.539   3.217
 7967SOL    HW124800   2.866   6.482   3.298
 7967SOL    HW224801   2.941   6.551   3.171
 7968SOL     OW24802   1.614   2.693   3.862
 7968SOL    HW124803   1.691   2.632   3.846
 7968SOL    HW224804   1.635   2.754   3.939
 7969SOL     OW24805   4.112   6.341   0.259
 7969SOL    HW124806   4.047   6.413   0.233
 7969SOL    HW224807   4.197   6.384   0.291
 7970SOL     OW24808   6.247   2.994   2.628
 7970SOL    HW124809   6.243   2.934   2.548
 7970SOL    HW224810   6.300   2.950   2.700
 7971SOL     OW24811   3.561   2.166   0.227
 7971SOL    HW124812   3.658   2.149   0.212
 7971SOL    HW224813   3.544   2.186   0.323
 7972SOL     OW24814   1.729   3.083   0.709
 7972SOL    HW124815   1.667   3.134   0.768
 7972SOL    HW224816   1.801   3.145   0.676
 7973SOL     OW24817   4.196   4.803   4.418
 7973SOL    HW124818   4.225   4.870   4.349
 7973SOL    HW224819   4.117   4.840   4.468
 7974SOL     OW24820   5.584   1.411   5.532
 7974SOL    HW124821   5.563   1.469   5.453
 7974SOL    HW224822   5.537   1.323   5.522
 7975SOL     OW24823   6.244   1.613   2.690
 7975SOL    HW124824   6.334   1.580   2.660
 7975SOL    HW224825   6.190   1.536   2.725
 7976SOL     OW24826   0.632   0.139   5.888
 7976SOL    HW124827   0.712   0.112   5.942
 7976SOL    HW224828   0.562   0.176   5.949
 7977SOL     OW24829   4.658   6.101   2.312
 7977SOL    HW124830   4.605   6.183   2.288
 7977SOL    HW224831   4.596   6.028   2.340
 7978SOL     OW24832   6.071   3.567   6.506
 7978SOL    HW124833   6.070   3.473   6.472
 7978SOL    HW224834   6.107   3.568   6.599
 7979SOL     OW24835   4.217   6.056   5.155
 7979SOL    HW124836   4.315   6.053   5.135
 7979SOL    HW224837   4.165   6.052   5.070
 7980SOL     OW24838   2.840   5.446   6.643
 7980SOL    HW124839   2.931   5.415   6.670
 7980SOL    HW224840   2.839   5.546   6.637
 7981SOL     OW24841   0.456   5.490   1.405
 7981SOL    HW124842   0.393   5.495   1.328
 7981SOL    HW224843   0.529   5.425   1.384
 7982SOL     OW24844   0.610   1.311   6.959
 7982SOL    HW124845   0.628   1.378   0.011
 7982SOL    HW224846   0.598   1.221   7.000
 7983SOL     OW24847   6.178   2.123   1.682
 7983SOL    HW124848   6.194   2.212   1.639
 7983SOL    HW224849   6.093   2.125   1.733
 7984SOL     OW24850   1.578   1.218   0.860
 7984SOL    HW124851   1.677   1.217   0.875
 7984SOL    HW224852   1.538   1.135   0.899
 7985SOL     OW24853   3.063   1.029   4.171
 7985SOL    HW124854   3.031   1.037   4.076
 7985SOL    HW224855   3.126   0.952   4.177
 7986SOL     OW24856   2.784   1.616   6.645
 7986SOL    HW124857   2.860   1.666   6.602
 7986SOL    HW224858   2.795   1.518   6.628
 7987SOL     OW24859   1.455   2.759   6.737
 7987SOL    HW124860   1.434   2.767   6.834
 7987SOL    HW224861   1.460   2.850   6.696
 7988SOL     OW24862   0.963   2.171   4.119
 7988SOL    HW124863   0.902   2.123   4.181
 7988SOL    HW224864   1.057   2.140   4.134
 7989SOL     OW24865   3.715   2.893   5.671
 7989SOL    HW124866   3.698   2.955   5.594
 7989SOL    HW224867   3.752   2.945   5.748
 7990SOL     OW24868   0.038   3.567   4.991
 7990SOL    HW124869   7.003   3.540   4.912
 7990SOL    HW224870   0.134   3.548   4.972
 7991SOL     OW24871   5.874   6.846   3.542
 7991SOL    HW124872   5.962   6.823   3.584
 7991SOL    HW224873   5.867   6.946   3.533
 7992SOL     OW24874   1.577   0.262   1.433
 7992SOL    HW124875   1.553   0.206   1.353
 7992SOL    HW224876   1.496   0.311   1.464
 7993SOL     OW24877   0.483   6.779   6.843
 7993SOL    HW124878   0.512   6.856   6.785
 7993SOL    HW224879   0.562   6.720   6.861
 7994SOL     OW24880   4.471   6.782   3.847
 7994SOL    HW124881   4.538   6.733   3.791
 7994SOL    HW224882   4.494   6.879   3.848
 7995SOL     OW24883   4.860   5.772   3.809
 7995SOL    HW124884   4.878   5.691   3.754
 7995SOL    HW224885   4.891   5.853   3.761
 7996SOL     OW24886   3.331   0.363   4.665
 7996SOL    HW124887   3.253   0.397   4.613
 7996SOL    HW224888   3.323   0.264   4.677
 7997SOL     OW24889   0.090   1.343   1.332
 7997SOL    HW124890   0.070   1.258   1.284
 7997SOL    HW224891   0.128   1.321   1.423
 7998SOL     OW24892   3.311   6.061   1.314
 7998SOL    HW124893   3.305   5.986   1.380
 7998SOL    HW224894   3.219   6.096   1.295
 7999SOL     OW24895   0.476   0.293   6.078
 7999SOL    HW124896   0.497   0.280   6.175
 7999SOL    HW224897   0.388   0.340   6.069
 8000SOL     OW24898   4.972   0.155   6.475
 8000SOL    HW124899   5.031   0.201   6.409
 8000SOL    HW224900   4.879   0.189   6.466
 8001SOL     OW24901   4.167   6.428   0.673
 8001SOL    HW124902   4.194   6.332   0.661
 8001SOL    HW224903   4.184   6.456   0.767
 8002SOL     OW24904   0.798   1.941   5.826
 8002SOL    HW124905   0.879   1.996   5.810
 8002SOL    HW224906   0.822   1.860   5.879
 8003SOL     OW24907   3.090   5.218   2.688
 8003SOL    HW124908   3.162   5.284   2.671
 8003SOL    HW224909   3.067   5.218   2.786
 8004SOL     OW24910   2.146   3.502   3.219
 8004SOL    HW124911   2.145   3.532   3.124
 8004SOL    HW224912   2.106   3.411   3.226
 8005SOL     OW24913   3.303   0.839   1.741
 8005SOL    HW124914   3.360   0.764   1.776
 8005SOL    HW224915   3.227   0.801   1.689
 8006SOL     OW24916   1.788   0.741   6.391
 8006SOL    HW124917   1.729   0.674   6.436
 8006SOL    HW224918   1.779   0.733   6.292
 8007SOL     OW24919   6.755   0.566   4.441
 8007SOL    HW124920   6.773   0.513   4.358
 8007SOL    HW224921   6.682   0.631   4.423
 8008SOL     OW24922   4.185   5.612   6.158
 8008SOL    HW124923   4.235   5.537   6.202
 8008SOL    HW224924   4.135   5.664   6.227
 8009SOL     OW24925   5.671   1.200   2.588
 8009SOL    HW124926   5.625   1.211   2.676
 8009SOL    HW224927   5.631   1.263   2.521
 8010SOL     OW24928   0.703   0.955   6.373
 8010SOL    HW124929   0.730   0.984   6.465
 8010SOL    HW224930   0.604   0.960   6.363
 8011SOL     OW24931   3.574   2.672   0.819
 8011SOL    HW124932   3.507   2.734   0.778
 8011SOL    HW224933   3.551   2.656   0.915
 8012SOL     OW24934   1.551   3.938   1.677
 8012SOL    HW124935   1.567   4.025   1.632
 8012SOL    HW224936   1.638   3.890   1.689
 8013SOL     OW24937   1.443   5.470   3.857
 8013SOL    HW124938   1.502   5.390   3.873
 8013SOL    HW224939   1.498   5.546   3.824
 8014SOL     OW24940   1.220   6.721   5.339
 8014SOL    HW124941   1.274   6.779   5.278
 8014SOL    HW224942   1.177   6.648   5.285
 8015SOL     OW24943   2.538   0.805   6.920
 8015SOL    HW124944   2.598   0.728   6.942
 8015SOL    HW224945   2.512   0.852   7.005
 8016SOL     OW24946   5.336   0.230   6.051
 8016SOL    HW124947   5.427   0.252   6.015
 8016SOL    HW224948   5.275   0.308   6.036
 8017SOL     OW24949   5.674   0.146   0.249
 8017SOL    HW124950   5.678   0.227   0.307
 8017SOL    HW224951   5.660   0.065   0.306
 8018SOL     OW24952   3.242   1.722   5.707
 8018SOL    HW124953   3.222   1.792   5.639
 8018SOL    HW224954   3.306   1.757   5.775
 8019SOL     OW24955   2.403   4.750   6.578
 8019SOL    HW124956   2.371   4.665   6.618
 8019SOL    HW224957   2.430   4.734   6.483
 8020SOL     OW24958   5.355   1.016   0.932
 8020SOL    HW124959   5.429   1.080   0.952
 8020SOL    HW224960   5.343   0.955   1.010
 8021SOL     OW24961   1.192   2.709   1.255
 8021SOL    HW124962   1.137   2.791   1.243
 8021SOL    HW224963   1.147   2.631   1.212
 8022SOL     OW24964   5.296   6.783   2.460
 8022SOL    HW124965   5.312   6.717   2.386
 8022SOL    HW224966   5.380   6.798   2.510
 8023SOL     OW24967   5.712   5.793   2.910
 8023SOL    HW124968   5.672   5.805   2.819
 8023SOL    HW224969   5.670   5.714   2.955
 8024SOL     OW24970   2.627   5.063   6.806
 8024SOL    HW124971   2.688   5.139   6.827
 8024SOL    HW224972   2.564   5.090   6.734
 8025SOL     OW24973   1.991   6.649   6.859
 8025SOL    HW124974   2.025   6.728   6.909
 8025SOL    HW224975   1.957   6.678   6.770
 8026SOL     OW24976   0.829   4.293   6.915
 8026SOL    HW124977   0.753   4.345   6.876
 8026SOL    HW224978   0.847   4.214   6.856
 8027SOL     OW24979   4.650   0.704   5.554
 8027SOL    HW124980   4.564   0.726   5.599
 8027SOL    HW224981   4.631   0.652   5.470
 8028SOL     OW24982   2.755   5.265   4.540
 8028SOL    HW124983   2.670   5.259   4.594
 8028SOL    HW224984   2.790   5.173   4.522
 8029SOL     OW24985   5.116   3.224   1.709
 8029SOL    HW124986   5.128   3.126   1.723
 8029SOL    HW224987   5.042   3.257   1.768
 8030SOL     OW24988   4.393   4.458   0.981
 8030SOL    HW124989   4.320   4.523   1.003
 8030SOL    HW224990   4.435   4.484   0.894
 8031SOL     OW24991   5.759   6.469   2.080
 8031SOL    HW124992   5.703   6.540   2.124
 8031SOL    HW224993   5.715   6.380   2.092
 8032SOL     OW24994   0.216   5.260   0.896
 8032SOL    HW124995   0.167   5.269   0.982
 8032SOL    HW224996   0.269   5.343   0.878
 8033SOL     OW24997   4.910   1.689   5.833
 8033SOL    HW124998   4.893   1.671   5.736
 8033SOL    HW224999   4.935   1.785   5.845
 8034SOL     OW25000   5.552   6.651   4.728
 8034SOL    HW125001   5.635   6.663   4.783
 8034SOL    HW225002   5.472   6.676   4.783
 8035SOL     OW25003   5.112   1.742   4.226
 8035SOL    HW125004   5.121   1.822   4.168
 8035SOL    HW225005   5.057   1.765   4.306
 8036SOL     OW25006   0.366   4.033   2.956
 8036SOL    HW125007   0.298   4.063   2.889
 8036SOL    HW225008   0.386   3.936   2.942
 8037SOL     OW25009   1.423   3.310   0.583
 8037SOL    HW125010   1.347   3.369   0.557
 8037SOL    HW225011   1.419   3.226   0.528
 8038SOL     OW25012   3.933   6.856   1.990
 8038SOL    HW125013   4.010   6.830   1.932
 8038SOL    HW225014   3.924   6.955   1.992
 8039SOL     OW25015   0.747   1.741   4.528
 8039SOL    HW125016   0.683   1.758   4.454
 8039SOL    HW225017   0.832   1.790   4.510
 8040SOL     OW25018   1.556   5.978   0.211
 8040SOL    HW125019   1.644   5.990   0.166
 8040SOL    HW225020   1.485   5.963   0.141
 8041SOL     OW25021   2.577   1.595   2.650
 8041SOL    HW125022   2.560   1.559   2.558
 8041SOL    HW225023   2.490   1.609   2.697
 8042SOL     OW25024   2.971   3.696   3.872
 8042SOL    HW125025   2.887   3.641   3.861
 8042SOL    HW225026   2.990   3.745   3.787
 8043SOL     OW25027   3.697   6.730   1.869
 8043SOL    HW125028   3.774   6.761   1.925
 8043SOL    HW225029   3.614   6.730   1.924
 8044SOL     OW25030   3.936   2.534   1.412
 8044SOL    HW125031   3.937   2.480   1.328
 8044SOL    HW225032   3.973   2.479   1.488
 8045SOL     OW25033   5.111   1.250   2.466
 8045SOL    HW125034   5.095   1.345   2.492
 8045SOL    HW225035   5.127   1.245   2.367
 8046SOL     OW25036   0.189   5.122   1.177
 8046SOL    HW125037   0.275   5.077   1.154
 8046SOL    HW225038   0.140   5.067   1.245
 8047SOL     OW25039   4.285   5.909   4.331
 8047SOL    HW125040   4.245   5.897   4.421
 8047SOL    HW225041   4.213   5.928   4.265
 8048SOL     OW25042   4.728   1.067   5.449
 8048SOL    HW125043   4.773   1.053   5.360
 8048SOL    HW225044   4.768   1.146   5.494
 8049SOL     OW25045   1.012   0.250   0.005
 8049SOL    HW125046   1.027   0.167   0.059
 8049SOL    HW225047   0.952   0.228   6.948
 8050SOL     OW25048   1.916   4.293   3.331
 8050SOL    HW125049   1.882   4.284   3.237
 8050SOL    HW225050   1.935   4.202   3.368
 8051SOL     OW25051   4.428   5.562   3.434
 8051SOL    HW125052   4.361   5.624   3.393
 8051SOL    HW225053   4.380   5.482   3.471
 8052SOL     OW25054   4.632   1.559   1.919
 8052SOL    HW125055   4.583   1.565   2.006
 8052SOL    HW225056   4.712   1.620   1.921
 8053SOL     OW25057   2.934   3.709   3.342
 8053SOL    HW125058   2.950   3.775   3.269
 8053SOL    HW225059   2.846   3.664   3.327
 8054SOL     OW25060   5.035   6.842   4.563
 8054SOL    HW125061   4.945   6.826   4.523
 8054SOL    HW225062   5.057   6.940   4.559
 8055SOL     OW25063   0.458   0.330   5.475
 8055SOL    HW125064   0.534   0.359   5.417
 8055SOL    HW225065   0.448   0.394   5.551
 8056SOL     OW25066   2.656   1.344   4.397
 8056SOL    HW125067   2.668   1.428   4.345
 8056SOL    HW225068   2.744   1.297   4.406
 8057SOL     OW25069   2.973   1.622   3.300
 8057SOL    HW125070   2.914   1.657   3.228
 8057SOL    HW225071   3.023   1.697   3.342
 8058SOL     OW25072   4.218   0.211   1.827
 8058SOL    HW125073   4.234   0.301   1.788
 8058SOL    HW225074   4.301   0.178   1.872
 8059SOL     OW25075   3.588   1.728   4.634
 8059SOL    HW125076   3.664   1.683   4.586
 8059SOL    HW225077   3.550   1.665   4.702
 8060SOL     OW25078   6.353   2.467   4.345
 8060SOL    HW125079   6.376   2.562   4.321
 8060SOL    HW225080   6.415   2.435   4.417
 8061SOL     OW25081   0.384   1.204   2.718
 8061SOL    HW125082   0.293   1.217   2.757
 8061SOL    HW225083   0.453   1.244   2.777
 8062SOL     OW25084   3.450   4.902   4.219
 8062SOL    HW125085   3.527   4.958   4.189
 8062SOL    HW225086   3.482   4.831   4.282
 8063SOL     OW25087   0.885   2.511   1.328
 8063SOL    HW125088   0.795   2.469   1.336
 8063SOL    HW225089   0.956   2.442   1.339
 8064SOL     OW25090   0.209   4.054   2.275
 8064SOL    HW125091   0.219   3.978   2.340
 8064SOL    HW225092   0.134   4.035   2.213
 8065SOL     OW25093   2.229   5.857   3.649
 8065SOL    HW125094   2.297   5.902   3.591
 8065SOL    HW225095   2.138   5.873   3.611
 8066SOL     OW25096   0.012   2.230   5.442
 8066SOL    HW125097   6.952   2.283   5.468
 8066SOL    HW225098   7.018   2.134   5.466
 8067SOL     OW25099   4.481   2.831   1.711
 8067SOL    HW125100   4.518   2.914   1.753
 8067SOL    HW225101   4.516   2.751   1.760
 8068SOL     OW25102   7.000   3.936   1.043
 8068SOL    HW125103   0.018   3.851   1.008
 8068SOL    HW225104   6.930   3.970   0.980
 8069SOL     OW25105   1.725   6.883   1.235
 8069SOL    HW125106   1.649   6.874   1.299
 8069SOL    HW225107   1.749   6.792   1.199
 8070SOL     OW25108   3.698   3.146   0.107
 8070SOL    HW125109   3.618   3.100   0.068
 8070SOL    HW225110   3.757   3.077   0.150
 8071SOL     OW25111   2.818   6.122   4.874
 8071SOL    HW125112   2.751   6.188   4.908
 8071SOL    HW225113   2.910   6.161   4.885
 8072SOL     OW25114   3.276   1.038   0.443
 8072SOL    HW125115   3.328   1.118   0.412
 8072SOL    HW225116   3.314   0.956   0.400
 8073SOL     OW25117   3.230   5.347   4.418
 8073SOL    HW125118   3.284   5.328   4.500
 8073SOL    HW225119   3.138   5.375   4.445
 8074SOL     OW25120   3.689   2.480   0.508
 8074SOL    HW125121   3.624   2.554   0.492
 8074SOL    HW225122   3.782   2.513   0.490
 8075SOL     OW25123   0.524   0.423   1.230
 8075SOL    HW125124   0.527   0.424   1.130
 8075SOL    HW225125   0.488   0.335   1.261
 8076SOL     OW25126   6.289   1.782   5.150
 8076SOL    HW125127   6.209   1.768   5.208
 8076SOL    HW225128   6.330   1.871   5.170
 8077SOL     OW25129   2.826   5.952   2.048
 8077SOL    HW125130   2.812   5.857   2.076
 8077SOL    HW225131   2.790   5.965   1.956
 8078SOL     OW25132   0.059   1.312   0.291
 8078SOL    HW125133   0.047   1.411   0.280
 8078SOL    HW225134   0.004   1.264   0.223
 8079SOL     OW25135   4.661   1.650   3.160
 8079SOL    HW125136   4.731   1.604   3.214
 8079SOL    HW225137   4.674   1.749   3.165
 8080SOL     OW25138   0.599   2.572   0.597
 8080SOL    HW125139   0.650   2.636   0.540
 8080SOL    HW225140   0.554   2.621   0.671
 8081SOL     OW25141   5.338   6.403   5.127
 8081SOL    HW125142   5.266   6.371   5.065
 8081SOL    HW225143   5.414   6.338   5.126
 8082SOL     OW25144   4.855   6.485   1.809
 8082SOL    HW125145   4.910   6.566   1.827
 8082SOL    HW225146   4.910   6.403   1.824
 8083SOL     OW25147   5.223   3.657   2.634
 8083SOL    HW125148   5.238   3.598   2.555
 8083SOL    HW225149   5.140   3.710   2.621
 8084SOL     OW25150   4.652   0.132   0.577
 8084SOL    HW125151   4.712   0.165   0.649
 8084SOL    HW225152   4.581   0.074   0.616
 8085SOL     OW25153   6.332   6.229   1.730
 8085SOL    HW125154   6.283   6.295   1.674
 8085SOL    HW225155   6.427   6.259   1.741
 8086SOL     OW25156   5.228   1.349   3.101
 8086SOL    HW125157   5.237   1.328   3.004
 8086SOL    HW225158   5.310   1.318   3.150
 8087SOL     OW25159   2.817   1.406   0.477
 8087SOL    HW125160   2.782   1.371   0.564
 8087SOL    HW225161   2.860   1.495   0.492
 8088SOL     OW25162   4.946   2.172   1.531
 8088SOL    HW125163   4.986   2.179   1.623
 8088SOL    HW225164   4.886   2.250   1.516
 8089SOL     OW25165   5.217   2.322   0.660
 8089SOL    HW125166   5.217   2.284   0.567
 8089SOL    HW225167   5.201   2.248   0.726
 8090SOL     OW25168   4.932   1.504   0.260
 8090SOL    HW125169   5.020   1.507   0.307
 8090SOL    HW225170   4.861   1.543   0.318
 8091SOL     OW25171   2.323   3.572   5.362
 8091SOL    HW125172   2.271   3.550   5.444
 8091SOL    HW225173   2.412   3.526   5.365
 8092SOL     OW25174   6.288   2.345   5.271
 8092SOL    HW125175   6.268   2.443   5.273
 8092SOL    HW225176   6.261   2.308   5.182
 8093SOL     OW25177   3.948   5.259   3.121
 8093SOL    HW125178   3.939   5.163   3.094
 8093SOL    HW225179   3.923   5.318   3.044
 8094SOL     OW25180   1.721   3.601   5.045
 8094SOL    HW125181   1.639   3.577   5.097
 8094SOL    HW225182   1.796   3.622   5.108
 8095SOL     OW25183   6.922   4.515   5.429
 8095SOL    HW125184   6.972   4.601   5.438
 8095SOL    HW225185   6.961   4.460   5.356
 8096SOL     OW25186   2.707   6.496   2.983
 8096SOL    HW125187   2.681   6.402   3.004
 8096SOL    HW225188   2.774   6.528   3.050
 8097SOL     OW25189   4.322   0.101   3.947
 8097SOL    HW125190   4.276   0.091   4.035
 8097SOL    HW225191   4.402   0.160   3.958
 8098SOL     OW25192   1.651   0.381   3.412
 8098SOL    HW125193   1.571   0.413   3.363
 8098SOL    HW225194   1.723   0.450   3.409
 8099SOL     OW25195   3.722   0.478   4.356
 8099SOL    HW125196   3.631   0.460   4.394
 8099SOL    HW225197   3.777   0.528   4.422
 8100SOL     OW25198   5.874   1.014   0.595
 8100SOL    HW125199   5.917   1.103   0.578
 8100SOL    HW225200   5.822   0.987   0.513
 8101SOL     OW25201   1.990   0.339   3.569
 8101SOL    HW125202   2.061   0.356   3.637
 8101SOL    HW225203   1.947   0.425   3.543
 8102SOL     OW25204   0.385   4.609   4.528
 8102SOL    HW125205   0.373   4.647   4.620
 8102SOL    HW225206   0.303   4.559   4.502
 8103SOL     OW25207   4.162   6.801   1.450
 8103SOL    HW125208   4.197   6.800   1.543
 8103SOL    HW225209   4.113   6.716   1.431
 8104SOL     OW25210   2.939   0.157   6.233
 8104SOL    HW125211   2.886   0.076   6.261
 8104SOL    HW225212   2.876   0.231   6.210
 8105SOL     OW25213   0.547   2.432   2.975
 8105SOL    HW125214   0.625   2.378   2.944
 8105SOL    HW225215   0.559   2.528   2.947
 8106SOL     OW25216   2.356   5.812   2.659
 8106SOL    HW125217   2.346   5.772   2.567
 8106SOL    HW225218   2.438   5.869   2.661
 8107SOL     OW25219   0.661   5.197   4.692
 8107SOL    HW125220   0.645   5.100   4.676
 8107SOL    HW225221   0.599   5.251   4.636
 8108SOL     OW25222   6.006   3.137   5.228
 8108SOL    HW125223   6.058   3.052   5.238
 8108SOL    HW225224   5.946   3.150   5.306
 8109SOL     OW25225   1.667   3.736   4.273
 8109SOL    HW125226   1.701   3.690   4.355
 8109SOL    HW225227   1.719   3.821   4.259
 8110SOL     OW25228   3.356   6.264   0.904
 8110SOL    HW125229   3.277   6.318   0.932
 8110SOL    HW225230   3.400   6.225   0.985
 8111SOL     OW25231   4.624   0.185   4.985
 8111SOL    HW125232   4.653   0.099   4.944
 8111SOL    HW225233   4.534   0.174   5.027
 8112SOL     OW25234   2.521   2.575   4.696
 8112SOL    HW125235   2.557   2.596   4.605
 8112SOL    HW225236   2.436   2.625   4.710
 8113SOL     OW25237   3.013   3.276   1.106
 8113SOL    HW125238   2.986   3.244   1.015
 8113SOL    HW225239   3.069   3.358   1.097
 8114SOL     OW25240   2.134   3.806   1.534
 8114SOL    HW125241   2.146   3.714   1.570
 8114SOL    HW225242   2.103   3.866   1.608
 8115SOL     OW25243   3.205   0.169   0.285
 8115SOL    HW125244   3.250   0.258   0.277
 8115SOL    HW225245   3.215   0.135   0.378
 8116SOL     OW25246   4.180   5.547   5.891
 8116SOL    HW125247   4.199   5.576   5.984
 8116SOL    HW225248   4.142   5.623   5.839
 8117SOL     OW25249   1.623   0.785   3.820
 8117SOL    HW125250   1.604   0.687   3.810
 8117SOL    HW225251   1.554   0.826   3.879
 8118SOL     OW25252   5.811   4.105   6.319
 8118SOL    HW125253   5.835   4.158   6.237
 8118SOL    HW225254   5.877   4.125   6.392
 8119SOL     OW25255   6.343   5.990   5.532
 8119SOL    HW125256   6.281   6.063   5.559
 8119SOL    HW225257   6.429   6.030   5.499
 8120SOL     OW25258   2.205   5.378   0.271
 8120SOL    HW125259   2.106   5.381   0.258
 8120SOL    HW225260   2.250   5.434   0.202
 8121SOL     OW25261   0.607   4.406   1.707
 8121SOL    HW125262   0.603   4.409   1.807
 8121SOL    HW225263   0.636   4.495   1.672
 8122SOL     OW25264   1.143   6.000   2.095
 8122SOL    HW125265   1.132   5.906   2.130
 8122SOL    HW225266   1.235   6.032   2.114
 8123SOL     OW25267   6.194   0.784   6.696
 8123SOL    HW125268   6.108   0.780   6.747
 8123SOL    HW225269   6.201   0.871   6.648
 8124SOL     OW25270   6.394   6.370   1.122
 8124SOL    HW125271   6.404   6.460   1.165
 8124SOL    HW225272   6.461   6.307   1.162
 8125SOL     OW25273   1.172   1.040   3.996
 8125SOL    HW125274   1.082   0.997   3.990
 8125SOL    HW225275   1.171   1.126   3.946
 8126SOL     OW25276   5.437   4.642   2.835
 8126SOL    HW125277   5.407   4.567   2.775
 8126SOL    HW225278   5.523   4.679   2.801
 8127SOL     OW25279   3.125   6.099   6.465
 8127SOL    HW125280   3.160   6.082   6.373
 8127SOL    HW225281   3.101   6.013   6.509
 8128SOL     OW25282   2.868   1.624   1.826
 8128SOL    HW125283   2.864   1.543   1.884
 8128SOL    HW225284   2.908   1.700   1.877
 8129SOL     OW25285   4.122   0.723   5.984
 8129SOL    HW125286   4.108   0.780   6.065
 8129SOL    HW225287   4.141   0.781   5.905
 8130SOL     OW25288   0.378   3.684   6.088
 8130SOL    HW125289   0.458   3.651   6.038
 8130SOL    HW225290   0.309   3.611   6.091
 8131SOL     OW25291   3.830   2.008   0.790
 8131SOL    HW125292   3.903   1.941   0.781
 8131SOL    HW225293   3.867   2.100   0.775
 8132SOL     OW25294   5.510   6.264   6.071
 8132SOL    HW125295   5.444   6.195   6.042
 8132SOL    HW225296   5.602   6.224   6.072
 8133SOL     OW25297   2.872   4.768   1.544
 8133SOL    HW125298   2.901   4.684   1.497
 8133SOL    HW225299   2.826   4.744   1.629
 8134SOL     OW25300   0.614   2.657   5.647
 8134SOL    HW125301   0.515   2.669   5.647
 8134SOL    HW225302   0.639   2.580   5.588
 8135SOL     OW25303   2.628   5.856   1.254
 8135SOL    HW125304   2.537   5.815   1.256
 8135SOL    HW225305   2.691   5.795   1.205
 8136SOL     OW25306   4.533   4.994   3.155
 8136SOL    HW125307   4.467   5.055   3.199
 8136SOL    HW225308   4.558   4.921   3.218
 8137SOL     OW25309   3.551   1.461   5.020
 8137SOL    HW125310   3.489   1.462   4.942
 8137SOL    HW225311   3.615   1.538   5.013
 8138SOL     OW25312   6.078   1.720   0.442
 8138SOL    HW125313   6.071   1.635   0.389
 8138SOL    HW225314   6.072   1.798   0.381
 8139SOL     OW25315   1.108   1.532   3.466
 8139SOL    HW125316   1.023   1.493   3.502
 8139SOL    HW225317   1.172   1.459   3.444
 8140SOL     OW25318   4.752   0.264   0.946
 8140SOL    HW125319   4.724   0.291   0.853
 8140SOL    HW225320   4.801   0.177   0.942
 8141SOL     OW25321   4.548   6.417   5.509
 8141SOL    HW125322   4.637   6.373   5.498
 8141SOL    HW225323   4.558   6.516   5.500
 8142SOL     OW25324   1.686   4.969   0.233
 8142SOL    HW125325   1.622   4.965   0.156
 8142SOL    HW225326   1.779   4.980   0.199
 8143SOL     OW25327   0.016   4.572   0.522
 8143SOL    HW125328   0.058   4.644   0.578
 8143SOL    HW225329   0.002   4.490   0.577
 8144SOL     OW25330   0.068   6.208   6.101
 8144SOL    HW125331   0.166   6.227   6.096
 8144SOL    HW225332   0.049   6.118   6.062
 8145SOL     OW25333   5.708   5.795   1.256
 8145SOL    HW125334   5.734   5.885   1.224
 8145SOL    HW225335   5.644   5.753   1.191
 8146SOL     OW25336   4.846   0.761   5.249
 8146SOL    HW125337   4.763   0.713   5.220
 8146SOL    HW225338   4.927   0.707   5.223
 8147SOL     OW25339   6.716   1.347   2.087
 8147SOL    HW125340   6.653   1.274   2.116
 8147SOL    HW225341   6.747   1.330   1.994
 8148SOL     OW25342   5.546   4.409   0.981
 8148SOL    HW125343   5.595   4.353   0.914
 8148SOL    HW225344   5.498   4.349   1.045
 8149SOL     OW25345   2.073   6.177   2.884
 8149SOL    HW125346   2.042   6.159   2.977
 8149SOL    HW225347   2.068   6.093   2.830
 8150SOL     OW25348   1.809   3.718   1.216
 8150SOL    HW125349   1.711   3.699   1.203
 8150SOL    HW225350   1.820   3.813   1.247
 8151SOL     OW25351   5.739   4.908   2.990
 8151SOL    HW125352   5.811   4.841   3.009
 8151SOL    HW225353   5.651   4.871   3.019
 8152SOL     OW25354   5.881   2.091   3.076
 8152SOL    HW125355   5.912   2.064   2.985
 8152SOL    HW225356   5.808   2.030   3.107
 8153SOL     OW25357   1.365   1.993   3.792
 8153SOL    HW125358   1.328   1.908   3.829
 8153SOL    HW225359   1.368   1.987   3.692
 8154SOL     OW25360   3.826   5.868   2.202
 8154SOL    HW125361   3.881   5.934   2.151
 8154SOL    HW225362   3.747   5.914   2.241
 8155SOL     OW25363   1.649   3.095   1.762
 8155SOL    HW125364   1.623   3.111   1.857
 8155SOL    HW225365   1.571   3.060   1.711
 8156SOL     OW25366   4.868   6.313   0.367
 8156SOL    HW125367   4.826   6.241   0.312
 8156SOL    HW225368   4.797   6.373   0.404
 8157SOL     OW25369   6.017   4.958   6.109
 8157SOL    HW125370   6.104   4.985   6.151
 8157SOL    HW225371   5.988   4.870   6.146
 8158SOL     OW25372   4.973   4.425   6.931
 8158SOL    HW125373   4.884   4.381   6.915
 8158SOL    HW225374   4.971   4.472   7.019
 8159SOL     OW25375   2.078   5.575   2.616
 8159SOL    HW125376   2.088   5.553   2.519
 8159SOL    HW225377   2.167   5.571   2.660
 8160SOL     OW25378   5.352   0.657   3.495
 8160SOL    HW125379   5.328   0.601   3.574
 8160SOL    HW225380   5.426   0.720   3.519
 8161SOL     OW25381   6.242   2.254   6.299
 8161SOL    HW125382   6.162   2.302   6.332
 8161SOL    HW225383   6.299   2.316   6.245
 8162SOL     OW25384   6.229   6.527   6.926
 8162SOL    HW125385   6.245   6.442   6.877
 8162SOL    HW225386   6.133   6.554   6.914
 8163SOL     OW25387   2.717   4.311   5.530
 8163SOL    HW125388   2.683   4.254   5.455
 8163SOL    HW225389   2.785   4.375   5.495
 8164SOL     OW25390   4.738   2.441   0.289
 8164SOL    HW125391   4.659   2.494   0.259
 8164SOL    HW225392   4.737   2.352   0.243
 8165SOL     OW25393   0.510   4.143   5.904
 8165SOL    HW125394   0.550   4.101   5.822
 8165SOL    HW225395   0.452   4.076   5.950
 8166SOL     OW25396   1.438   0.522   3.285
 8166SOL    HW125397   1.380   0.550   3.208
 8166SOL    HW225398   1.405   0.565   3.369
 8167SOL     OW25399   0.187   0.110   3.511
 8167SOL    HW125400   0.146   0.075   3.427
 8167SOL    HW225401   0.151   0.202   3.530
 8168SOL     OW25402   2.380   1.596   2.833
 8168SOL    HW125403   2.284   1.578   2.850
 8168SOL    HW225404   2.429   1.604   2.919
 8169SOL     OW25405   4.833   2.116   0.674
 8169SOL    HW125406   4.877   2.160   0.595
 8169SOL    HW225407   4.738   2.145   0.680
 8170SOL     OW25408   1.241   5.364   1.824
 8170SOL    HW125409   1.189   5.341   1.742
 8170SOL    HW225410   1.272   5.459   1.818
 8171SOL     OW25411   1.870   1.783   6.240
 8171SOL    HW125412   1.900   1.782   6.145
 8171SOL    HW225413   1.809   1.861   6.255
 8172SOL     OW25414   0.431   1.976   2.248
 8172SOL    HW125415   0.404   1.964   2.344
 8172SOL    HW225416   0.518   1.928   2.233
 8173SOL     OW25417   5.610   1.692   2.331
 8173SOL    HW125418   5.526   1.711   2.381
 8173SOL    HW225419   5.588   1.668   2.236
 8174SOL     OW25420   6.663   1.050   2.371
 8174SOL    HW125421   6.645   1.147   2.384
 8174SOL    HW225422   6.585   0.997   2.403
 8175SOL     OW25423   0.500   2.998   5.626
 8175SOL    HW125424   0.495   3.072   5.693
 8175SOL    HW225425   0.596   2.978   5.606
 8176SOL     OW25426   1.982   4.745   1.394
 8176SOL    HW125427   1.943   4.653   1.394
 8176SOL    HW225428   2.001   4.773   1.300
 8177SOL     OW25429   3.618   6.391   3.667
 8177SOL    HW125430   3.673   6.434   3.739
 8177SOL    HW225431   3.534   6.354   3.707
 8178SOL     OW25432   2.894   6.227   0.474
 8178SOL    HW125433   2.905   6.235   0.573
 8178SOL    HW225434   2.937   6.305   0.429
 8179SOL     OW25435   4.705   2.174   4.900
 8179SOL    HW125436   4.679   2.091   4.949
 8179SOL    HW225437   4.738   2.242   4.965
 8180SOL     OW25438   6.398   0.686   5.194
 8180SOL    HW125439   6.462   0.640   5.132
 8180SOL    HW225440   6.432   0.679   5.288
 8181SOL     OW25441   1.753   1.027   0.632
 8181SOL    HW125442   1.732   1.125   0.638
 8181SOL    HW225443   1.673   0.974   0.658
 8182SOL     OW25444   3.210   3.868   5.910
 8182SOL    HW125445   3.179   3.776   5.886
 8182SOL    HW225446   3.197   3.930   5.832
 8183SOL     OW25447   6.628   2.321   4.830
 8183SOL    HW125448   6.541   2.272   4.824
 8183SOL    HW225449   6.610   2.417   4.849
 8184SOL     OW25450   6.609   0.813   0.418
 8184SOL    HW125451   6.587   0.821   0.321
 8184SOL    HW225452   6.637   0.903   0.453
 8185SOL     OW25453   2.095   0.447   0.179
 8185SOL    HW125454   2.170   0.460   0.114
 8185SOL    HW225455   2.062   0.353   0.174
 8186SOL     OW25456   3.545   4.839   5.212
 8186SOL    HW125457   3.510   4.860   5.121
 8186SOL    HW225458   3.630   4.891   5.228
 8187SOL     OW25459   1.196   1.756   4.724
 8187SOL    HW125460   1.218   1.852   4.710
 8187SOL    HW225461   1.228   1.727   4.814
 8188SOL     OW25462   5.911   2.680   2.854
 8188SOL    HW125463   5.996   2.674   2.801
 8188SOL    HW225464   5.845   2.737   2.806
 8189SOL     OW25465   4.798   4.458   3.048
 8189SOL    HW125466   4.869   4.388   3.033
 8189SOL    HW225467   4.793   4.518   2.969
 8190SOL     OW25468   4.909   5.216   4.428
 8190SOL    HW125469   4.880   5.139   4.485
 8190SOL    HW225470   4.831   5.277   4.414
 8191SOL     OW25471   3.388   6.356   1.648
 8191SOL    HW125472   3.383   6.408   1.563
 8191SOL    HW225473   3.319   6.283   1.647
 8192SOL     OW25474   3.993   4.675   0.798
 8192SOL    HW125475   3.957   4.767   0.777
 8192SOL    HW225476   3.941   4.607   0.747
 8193SOL     OW25477   6.737   5.779   5.017
 8193SOL    HW125478   6.743   5.851   4.948
 8193SOL    HW225479   6.659   5.797   5.077
 8194SOL     OW25480   5.312   2.361   1.011
 8194SOL    HW125481   5.366   2.342   0.929
 8194SOL    HW225482   5.225   2.313   1.005
 8195SOL     OW25483   1.696   0.459   2.134
 8195SOL    HW125484   1.710   0.473   2.232
 8195SOL    HW225485   1.684   0.361   2.116
 8196SOL     OW25486   3.461   5.963   5.729
 8196SOL    HW125487   3.508   5.963   5.640
 8196SOL    HW225488   3.518   5.918   5.797
 8197SOL     OW25489   4.430   1.945   0.031
 8197SOL    HW125490   4.431   2.041   0.005
 8197SOL    HW225491   4.350   1.900   7.010
 8198SOL     OW25492   3.528   0.089   2.965
 8198SOL    HW125493   3.462   0.133   2.904
 8198SOL    HW225494   3.499   7.016   2.985
 8199SOL     OW25495   6.215   2.807   6.403
 8199SOL    HW125496   6.247   2.831   6.494
 8199SOL    HW225497   6.258   2.722   6.373
 8200SOL     OW25498   5.255   4.612   1.991
 8200SOL    HW125499   5.268   4.552   2.070
 8200SOL    HW225500   5.266   4.708   2.019
 8201SOL     OW25501   5.672   0.310   3.629
 8201SOL    HW125502   5.606   0.346   3.563
 8201SOL    HW225503   5.745   0.262   3.579
 8202SOL     OW25504   0.465   5.718   4.385
 8202SOL    HW125505   0.507   5.759   4.466
 8202SOL    HW225506   0.449   5.621   4.401
 8203SOL     OW25507   3.980   2.715   0.485
 8203SOL    HW125508   3.908   2.762   0.434
 8203SOL    HW225509   4.014   2.775   0.557
 8204SOL     OW25510   2.824   4.975   6.596
 8204SOL    HW125511   2.828   5.069   6.562
 8204SOL    HW225512   2.779   4.974   6.685
 8205SOL     OW25513   0.386   4.668   0.537
 8205SOL    HW125514   0.317   4.716   0.591
 8205SOL    HW225515   0.345   4.588   0.493
 8206SOL     OW25516   5.050   2.728   6.168
 8206SOL    HW125517   5.001   2.745   6.253
 8206SOL    HW225518   5.101   2.810   6.141
 8207SOL     OW25519   3.305   3.997   4.622
 8207SOL    HW125520   3.347   3.920   4.574
 8207SOL    HW225521   3.215   4.016   4.582
 8208SOL     OW25522   2.209   0.165   1.311
 8208SOL    HW125523   2.149   0.088   1.292
 8208SOL    HW225524   2.274   0.141   1.383
 8209SOL     OW25525   0.531   1.228   5.393
 8209SOL    HW125526   0.523   1.327   5.410
 8209SOL    HW225527   0.485   1.205   5.308
 8210SOL     OW25528   2.300   1.380   1.174
 8210SOL    HW125529   2.344   1.444   1.110
 8210SOL    HW225530   2.332   1.399   1.267
 8211SOL     OW25531   3.870   3.883   1.974
 8211SOL    HW125532   3.774   3.896   1.997
 8211SOL    HW225533   3.899   3.953   1.909
 8212SOL     OW25534   2.048   1.924   1.933
 8212SOL    HW125535   2.063   1.951   1.838
 8212SOL    HW225536   2.129   1.876   1.968
 8213SOL     OW25537   6.351   4.414   2.562
 8213SOL    HW125538   6.429   4.477   2.562
 8213SOL    HW225539   6.368   4.340   2.496
 8214SOL     OW25540   6.983   5.361   5.027
 8214SOL    HW125541   6.912   5.431   5.022
 8214SOL    HW225542   6.943   5.272   5.004
 8215SOL     OW25543   2.265   5.748   5.686
 8215SOL    HW125544   2.273   5.777   5.590
 8215SOL    HW225545   2.352   5.762   5.732
 8216SOL     OW25546   4.976   5.177   3.949
 8216SOL    HW125547   5.027   5.155   3.866
 8216SOL    HW225548   5.007   5.118   4.024
 8217SOL     OW25549   2.167   4.046   1.411
 8217SOL    HW125550   2.188   4.093   1.496
 8217SOL    HW225551   2.137   3.952   1.431
 8218SOL     OW25552   0.522   6.372   4.626
 8218SOL    HW125553   0.571   6.459   4.624
 8218SOL    HW225554   0.562   6.313   4.696
 8219SOL     OW25555   3.988   3.245   0.488
 8219SOL    HW125556   3.923   3.320   0.483
 8219SOL    HW225557   4.060   3.258   0.420
 8220SOL     OW25558   3.168   4.096   4.276
 8220SOL    HW125559   3.111   4.096   4.194
 8220SOL    HW225560   3.120   4.050   4.350
 8221SOL     OW25561   5.977   6.217   3.252
 8221SOL    HW125562   6.000   6.129   3.293
 8221SOL    HW225563   6.021   6.224   3.163
 8222SOL     OW25564   5.483   1.221   1.689
 8222SOL    HW125565   5.404   1.266   1.730
 8222SOL    HW225566   5.567   1.259   1.728
 8223SOL     OW25567   1.249   4.626   5.249
 8223SOL    HW125568   1.320   4.694   5.271
 8223SOL    HW225569   1.260   4.596   5.155
 8224SOL     OW25570   5.418   2.594   2.206
 8224SOL    HW125571   5.392   2.662   2.137
 8224SOL    HW225572   5.487   2.632   2.267
 8225SOL     OW25573   3.883   1.765   1.111
 8225SOL    HW125574   3.833   1.843   1.151
 8225SOL    HW225575   3.980   1.774   1.130
 8226SOL     OW25576   3.582   6.168   0.478
 8226SOL    HW125577   3.562   6.076   0.513
 8226SOL    HW225578   3.521   6.234   0.521
 8227SOL     OW25579   0.095   1.324   2.505
 8227SOL    HW125580   0.148   1.406   2.486
 8227SOL    HW225581   0.132   1.247   2.452
 8228SOL     OW25582   6.770   1.537   6.009
 8228SOL    HW125583   6.779   1.583   6.097
 8228SOL    HW225584   6.845   1.566   5.949
 8229SOL     OW25585   4.651   3.556   1.270
 8229SOL    HW125586   4.629   3.634   1.212
 8229SOL    HW225587   4.569   3.526   1.318
 8230SOL     OW25588   3.352   6.878   4.998
 8230SOL    HW125589   3.401   6.851   4.915
 8230SOL    HW225590   3.362   6.976   5.012
 8231SOL     OW25591   3.055   2.853   1.573
 8231SOL    HW125592   2.958   2.874   1.562
 8231SOL    HW225593   3.096   2.834   1.484
 8232SOL     OW25594   5.305   2.151   2.152
 8232SOL    HW125595   5.221   2.170   2.101
 8232SOL    HW225596   5.319   2.052   2.157
 8233SOL     OW25597   1.481   6.925   6.195
 8233SOL    HW125598   1.383   6.949   6.195
 8233SOL    HW225599   1.527   6.978   6.267
 8234SOL     OW25600   2.627   3.862   6.935
 8234SOL    HW125601   2.723   3.885   6.952
 8234SOL    HW225602   2.594   3.800   7.006
 8235SOL     OW25603   0.539   3.204   6.589
 8235SOL    HW125604   0.595   3.123   6.570
 8235SOL    HW225605   0.447   3.191   6.553
 8236SOL     OW25606   0.501   4.911   0.591
 8236SOL    HW125607   0.472   4.815   0.582
 8236SOL    HW225608   0.593   4.921   0.553
 8237SOL     OW25609   4.675   6.035   6.182
 8237SOL    HW125610   4.592   6.012   6.233
 8237SOL    HW225611   4.676   6.134   6.164
 8238SOL     OW25612   0.496   5.527   6.570
 8238SOL    HW125613   0.548   5.511   6.487
 8238SOL    HW225614   0.400   5.506   6.554
 8239SOL     OW25615   0.147   1.188   5.336
 8239SOL    HW125616   0.189   1.265   5.287
 8239SOL    HW225617   0.048   1.190   5.323
 8240SOL     OW25618   3.698   3.959   2.568
 8240SOL    HW125619   3.633   3.915   2.630
 8240SOL    HW225620   3.665   4.050   2.544
 8241SOL     OW25621   3.018   5.769   6.155
 8241SOL    HW125622   2.970   5.839   6.207
 8241SOL    HW225623   3.102   5.743   6.201
 8242SOL     OW25624   0.353   4.220   6.213
 8242SOL    HW125625   0.361   4.149   6.144
 8242SOL    HW225626   0.290   4.190   6.285
 8243SOL     OW25627   6.688   3.126   0.995
 8243SOL    HW125628   6.739   3.042   1.017
 8243SOL    HW225629   6.591   3.104   0.985
 8244SOL     OW25630   6.938   0.859   3.448
 8244SOL    HW125631   6.908   0.953   3.435
 8244SOL    HW225632   6.867   0.808   3.496
 8245SOL     OW25633   3.915   1.842   2.267
 8245SOL    HW125634   3.976   1.811   2.194
 8245SOL    HW225635   3.879   1.933   2.244
 8246SOL     OW25636   0.785   3.812   6.351
 8246SOL    HW125637   0.697   3.805   6.303
 8246SOL    HW225638   0.797   3.732   6.409
 8247SOL     OW25639   2.230   0.602   3.084
 8247SOL    HW125640   2.241   0.655   2.999
 8247SOL    HW225641   2.139   0.617   3.121
 8248SOL     OW25642   6.897   4.602   4.712
 8248SOL    HW125643   6.826   4.669   4.688
 8248SOL    HW225644   6.974   4.649   4.756
 8249SOL     OW25645   1.699   1.773   5.478
 8249SOL    HW125646   1.715   1.716   5.398
 8249SOL    HW225647   1.739   1.864   5.463
 8250SOL     OW25648   2.598   2.205   1.536
 8250SOL    HW125649   2.571   2.182   1.630
 8250SOL    HW225650   2.659   2.284   1.538
 8251SOL     OW25651   4.786   2.978   4.605
 8251SOL    HW125652   4.806   2.959   4.702
 8251SOL    HW225653   4.816   3.071   4.583
 8252SOL     OW25654   3.423   1.830   5.863
 8252SOL    HW125655   3.382   1.880   5.940
 8252SOL    HW225656   3.477   1.893   5.807
 8253SOL     OW25657   3.846   5.370   6.042
 8253SOL    HW125658   3.750   5.342   6.039
 8253SOL    HW225659   3.864   5.419   6.127
 8254SOL     OW25660   4.494   4.582   5.375
 8254SOL    HW125661   4.487   4.665   5.430
 8254SOL    HW225662   4.485   4.502   5.434
 8255SOL     OW25663   2.056   6.186   5.339
 8255SOL    HW125664   2.122   6.204   5.266
 8255SOL    HW225665   2.022   6.093   5.331
 8256SOL     OW25666   6.831   6.576   2.396
 8256SOL    HW125667   6.923   6.612   2.408
 8256SOL    HW225668   6.772   6.646   2.357
 8257SOL     OW25669   5.170   3.688   2.327
 8257SOL    HW125670   5.216   3.776   2.336
 8257SOL    HW225671   5.071   3.700   2.335
 8258SOL     OW25672   5.296   2.207   1.369
 8258SOL    HW125673   5.264   2.222   1.462
 8258SOL    HW225674   5.217   2.197   1.308
 8259SOL     OW25675   3.741   1.664   4.974
 8259SOL    HW125676   3.778   1.747   4.932
 8259SOL    HW225677   3.722   1.681   5.071
 8260SOL     OW25678   2.402   6.952   1.227
 8260SOL    HW125679   2.421   0.007   1.289
 8260SOL    HW225680   2.303   6.936   1.223
 8261SOL     OW25681   5.571   6.603   2.490
 8261SOL    HW125682   5.537   6.511   2.510
 8261SOL    HW225683   5.604   6.607   2.396
 8262SOL     OW25684   1.379   3.285   0.178
 8262SOL    HW125685   1.280   3.272   0.168
 8262SOL    HW225686   1.400   3.383   0.173
 8263SOL     OW25687   0.354   2.392   6.373
 8263SOL    HW125688   0.388   2.461   6.437
 8263SOL    HW225689   0.254   2.394   6.372
 8264SOL     OW25690   2.002   6.370   0.875
 8264SOL    HW125691   1.977   6.304   0.805
 8264SOL    HW225692   2.100   6.366   0.891
 8265SOL     OW25693   6.265   0.310   1.650
 8265SOL    HW125694   6.235   0.311   1.555
 8265SOL    HW225695   6.205   0.369   1.704
 8266SOL     OW25696   2.262   0.860   4.782
 8266SOL    HW125697   2.164   0.843   4.764
 8266SOL    HW225698   2.282   0.957   4.768
 8267SOL     OW25699   1.655   3.928   1.389
 8267SOL    HW125700   1.696   3.887   1.470
 8267SOL    HW225701   1.565   3.886   1.373
 8268SOL     OW25702   2.521   6.682   6.485
 8268SOL    HW125703   2.481   6.772   6.472
 8268SOL    HW225704   2.511   6.654   6.580
 8269SOL     OW25705   4.545   1.915   2.329
 8269SOL    HW125706   4.470   1.881   2.272
 8269SOL    HW225707   4.558   2.013   2.312
 8270SOL     OW25708   2.747   6.420   4.464
 8270SOL    HW125709   2.841   6.455   4.462
 8270SOL    HW225710   2.748   6.321   4.453
 8271SOL     OW25711   0.194   0.214   2.839
 8271SOL    HW125712   0.262   0.141   2.832
 8271SOL    HW225713   0.104   0.175   2.854
 8272SOL     OW25714   6.346   1.941   3.000
 8272SOL    HW125715   6.368   1.895   3.086
 8272SOL    HW225716   6.409   1.910   2.929
 8273SOL     OW25717   2.918   1.582   0.873
 8273SOL    HW125718   2.962   1.493   0.860
 8273SOL    HW225719   2.843   1.573   0.938
 8274SOL     OW25720   3.813   5.623   4.581
 8274SOL    HW125721   3.830   5.539   4.632
 8274SOL    HW225722   3.808   5.700   4.645
 8275SOL     OW25723   5.513   0.325   4.518
 8275SOL    HW125724   5.422   0.357   4.542
 8275SOL    HW225725   5.514   0.292   4.424
 8276SOL     OW25726   0.439   2.060   5.018
 8276SOL    HW125727   0.356   2.010   4.995
 8276SOL    HW225728   0.481   2.019   5.100
 8277SOL     OW25729   1.024   6.231   5.877
 8277SOL    HW125730   1.101   6.289   5.851
 8277SOL    HW225731   1.051   6.135   5.872
 8278SOL     OW25732   3.368   1.918   6.565
 8278SOL    HW125733   3.344   1.989   6.499
 8278SOL    HW225734   3.287   1.891   6.617
 8279SOL     OW25735   0.676   6.498   4.870
 8279SOL    HW125736   0.724   6.548   4.942
 8279SOL    HW225737   0.682   6.549   4.784
 8280SOL     OW25738   2.704   3.027   0.363
 8280SOL    HW125739   2.653   2.982   0.290
 8280SOL    HW225740   2.705   2.968   0.444
 8281SOL     OW25741   2.469   4.711   1.678
 8281SOL    HW125742   2.480   4.712   1.579
 8281SOL    HW225743   2.386   4.760   1.703
 8282SOL     OW25744   4.460   3.755   6.696
 8282SOL    HW125745   4.465   3.671   6.749
 8282SOL    HW225746   4.502   3.740   6.606
 8283SOL     OW25747   1.649   5.079   4.967
 8283SOL    HW125748   1.723   5.106   5.028
 8283SOL    HW225749   1.616   4.989   4.994
 8284SOL     OW25750   1.033   3.685   1.402
 8284SOL    HW125751   1.078   3.657   1.487
 8284SOL    HW225752   1.091   3.750   1.353
 8285SOL     OW25753   3.550   4.147   4.603
 8285SOL    HW125754   3.522   4.223   4.662
 8285SOL    HW225755   3.470   4.100   4.568
 8286SOL     OW25756   4.997   1.837   4.892
 8286SOL    HW125757   5.068   1.901   4.863
 8286SOL    HW225758   4.965   1.862   4.983
 8287SOL     OW25759   0.938   4.805   4.311
 8287SOL    HW125760   0.937   4.734   4.382
 8287SOL    HW225761   0.930   4.895   4.354
 8288SOL     OW25762   2.759   2.298   2.426
 8288SOL    HW125763   2.825   2.317   2.499
 8288SOL    HW225764   2.807   2.270   2.343
 8289SOL     OW25765   0.440   6.548   6.220
 8289SOL    HW125766   0.448   6.610   6.299
 8289SOL    HW225767   0.531   6.530   6.183
 8290SOL     OW25768   5.279   1.806   0.934
 8290SOL    HW125769   5.195   1.756   0.909
 8290SOL    HW225770   5.327   1.755   1.006
 8291SOL     OW25771   4.949   4.791   5.612
 8291SOL    HW125772   5.036   4.774   5.659
 8291SOL    HW225773   4.890   4.712   5.621
 8292SOL     OW25774   3.149   6.363   6.439
 8292SOL    HW125775   3.222   6.377   6.373
 8292SOL    HW225776   3.139   6.265   6.456
 8293SOL     OW25777   2.058   5.723   1.079
 8293SOL    HW125778   2.039   5.629   1.051
 8293SOL    HW225779   2.038   5.785   1.002
 8294SOL     OW25780   5.572   3.713   4.798
 8294SOL    HW125781   5.497   3.714   4.732
 8294SOL    HW225782   5.565   3.792   4.859
 8295SOL     OW25783   4.989   3.787   2.611
 8295SOL    HW125784   4.991   3.813   2.515
 8295SOL    HW225785   4.914   3.834   2.657
 8296SOL     OW25786   2.303   5.005   0.188
 8296SOL    HW125787   2.245   5.072   0.141
 8296SOL    HW225788   2.360   4.957   0.122
 8297SOL     OW25789   0.038   3.243   2.915
 8297SOL    HW125790   0.068   3.178   2.985
 8297SOL    HW225791   6.985   3.201   2.861
 8298SOL     OW25792   0.024   1.518   0.867
 8298SOL    HW125793   0.022   1.465   0.782
 8298SOL    HW225794   0.021   1.615   0.846
 8299SOL     OW25795   0.715   2.906   2.857
 8299SOL    HW125796   0.652   2.972   2.898
 8299SOL    HW225797   0.779   2.953   2.797
 8300SOL     OW25798   0.257   6.060   3.874
 8300SOL    HW125799   0.203   6.007   3.939
 8300SOL    HW225800   0.259   6.156   3.903
 8301SOL     OW25801   4.490   1.073   0.446
 8301SOL    HW125802   4.503   1.077   0.545
 8301SOL    HW225803   4.468   0.980   0.419
 8302SOL     OW25804   5.491   6.599   6.261
 8302SOL    HW125805   5.589   6.587   6.243
 8302SOL    HW225806   5.444   6.620   6.175
 8303SOL     OW25807   6.011   0.163   3.711
 8303SOL    HW125808   6.100   0.209   3.710
 8303SOL    HW225809   6.005   0.105   3.792
 8304SOL     OW25810   5.719   3.817   1.732
 8304SOL    HW125811   5.676   3.841   1.645
 8304SOL    HW225812   5.710   3.718   1.747
 8305SOL     OW25813   4.826   4.483   4.032
 8305SOL    HW125814   4.918   4.450   4.016
 8305SOL    HW225815   4.829   4.575   4.073
 8306SOL     OW25816   6.078   1.260   3.785
 8306SOL    HW125817   6.101   1.163   3.777
 8306SOL    HW225818   6.152   1.315   3.746
 8307SOL     OW25819   3.765   5.490   1.631
 8307SOL    HW125820   3.745   5.399   1.596
 8307SOL    HW225821   3.700   5.513   1.704
 8308SOL     OW25822   2.667   5.875   0.200
 8308SOL    HW125823   2.597   5.804   0.211
 8308SOL    HW225824   2.639   5.937   0.127
 8309SOL     OW25825   6.397   5.943   2.293
 8309SOL    HW125826   6.459   5.988   2.358
 8309SOL    HW225827   6.408   5.984   2.203
 8310SOL     OW25828   0.825   5.719   1.413
 8310SOL    HW125829   0.777   5.646   1.462
 8310SOL    HW225830   0.765   5.756   1.343
 8311SOL     OW25831   6.325   1.811   5.427
 8311SOL    HW125832   6.281   1.805   5.517
 8311SOL    HW225833   6.338   1.907   5.402
 8312SOL     OW25834   4.588   0.588   0.087
 8312SOL    HW125835   4.505   0.643   0.084
 8312SOL    HW225836   4.564   0.491   0.092
 8313SOL     OW25837   5.829   0.024   6.451
 8313SOL    HW125838   5.894   0.080   6.399
 8313SOL    HW225839   5.780   0.083   6.516
 8314SOL     OW25840   5.996   6.638   6.972
 8314SOL    HW125841   5.968   6.732   6.987
 8314SOL    HW225842   5.993   6.588   0.039
 8315SOL     OW25843   3.819   3.078   2.324
 8315SOL    HW125844   3.736   3.107   2.370
 8315SOL    HW225845   3.894   3.072   2.391
 8316SOL     OW25846   1.177   2.915   2.358
 8316SOL    HW125847   1.158   2.819   2.377
 8316SOL    HW225848   1.253   2.946   2.416
 8317SOL     OW25849   1.417   2.610   2.906
 8317SOL    HW125850   1.433   2.564   2.819
 8317SOL    HW225851   1.495   2.595   2.966
 8318SOL     OW25852   3.976   1.973   5.740
 8318SOL    HW125853   3.893   1.918   5.734
 8318SOL    HW225854   4.014   1.967   5.832
 8319SOL     OW25855   0.952   1.493   1.565
 8319SOL    HW125856   0.930   1.514   1.470
 8319SOL    HW225857   1.051   1.480   1.575
 8320SOL     OW25858   2.969   3.749   2.839
 8320SOL    HW125859   3.030   3.695   2.897
 8320SOL    HW225860   3.015   3.833   2.810
 8321SOL     OW25861   6.339   6.797   6.914
 8321SOL    HW125862   6.396   6.778   6.994
 8321SOL    HW225863   6.266   6.729   6.907
 8322SOL     OW25864   6.726   0.437   0.446
 8322SOL    HW125865   6.718   0.451   0.544
 8322SOL    HW225866   6.821   0.452   0.417
 8323SOL     OW25867   4.647   4.623   1.620
 8323SOL    HW125868   4.597   4.673   1.549
 8323SOL    HW225869   4.736   4.593   1.584
 8324SOL     OW25870   6.098   6.986   1.465
 8324SOL    HW125871   6.010   6.949   1.436
 8324SOL    HW225872   6.115   6.962   1.561
 8325SOL     OW25873   1.377   3.268   5.121
 8325SOL    HW125874   1.286   3.294   5.086
 8325SOL    HW225875   1.444   3.337   5.093
 8326SOL     OW25876   4.601   4.100   5.535
 8326SOL    HW125877   4.590   4.053   5.448
 8326SOL    HW225878   4.538   4.178   5.538
 8327SOL     OW25879   0.075   0.148   5.693
 8327SOL    HW125880   0.131   0.160   5.611
 8327SOL    HW225881   0.004   0.080   5.676
 8328SOL     OW25882   2.826   6.022   6.865
 8328SOL    HW125883   2.765   6.075   6.805
 8328SOL    HW225884   2.798   5.926   6.865
 8329SOL     OW25885   1.176   3.062   5.493
 8329SOL    HW125886   1.256   3.094   5.442
 8329SOL    HW225887   1.162   2.965   5.474
 8330SOL     OW25888   2.915   0.853   6.448
 8330SOL    HW125889   2.944   0.771   6.400
 8330SOL    HW225890   2.988   0.921   6.445
 8331SOL     OW25891   3.368   0.640   1.325
 8331SOL    HW125892   3.397   0.572   1.393
 8331SOL    HW225893   3.285   0.608   1.280
 8332SOL     OW25894   5.834   5.596   2.525
 8332SOL    HW125895   5.888   5.673   2.560
 8332SOL    HW225896   5.737   5.615   2.540
 8333SOL     OW25897   0.661   5.441   6.347
 8333SOL    HW125898   0.710   5.391   6.275
 8333SOL    HW225899   0.710   5.525   6.368
 8334SOL     OW25900   3.830   1.831   4.368
 8334SOL    HW125901   3.788   1.918   4.343
 8334SOL    HW225902   3.856   1.834   4.465
 8335SOL     OW25903   4.934   1.093   0.096
 8335SOL    HW125904   4.936   0.993   0.099
 8335SOL    HW225905   4.917   1.129   0.188
 8336SOL     OW25906   0.709   4.644   2.738
 8336SOL    HW125907   0.633   4.708   2.728
 8336SOL    HW225908   0.794   4.690   2.713
 8337SOL     OW25909   0.843   6.300   3.460
 8337SOL    HW125910   0.835   6.229   3.389
 8337SOL    HW225911   0.753   6.343   3.473
 8338SOL     OW25912   3.772   5.103   1.678
 8338SOL    HW125913   3.704   5.148   1.620
 8338SOL    HW225914   3.834   5.172   1.716
 8339SOL     OW25915   6.778   0.485   1.770
 8339SOL    HW125916   6.681   0.506   1.774
 8339SOL    HW225917   6.792   0.387   1.760
 8340SOL     OW25918   4.932   3.969   1.510
 8340SOL    HW125919   4.955   3.972   1.413
 8340SOL    HW225920   4.870   3.893   1.528
 8341SOL     OW25921   2.354   6.915   6.335
 8341SOL    HW125922   2.380   6.964   6.251
 8341SOL    HW225923   2.285   6.846   6.313
 8342SOL     OW25924   4.753   7.003   0.350
 8342SOL    HW125925   4.833   0.037   0.322
 8342SOL    HW225926   4.717   0.018   0.436
 8343SOL     OW25927   0.406   5.739   3.794
 8343SOL    HW125928   0.421   5.832   3.827
 8343SOL    HW225929   0.457   5.674   3.850
 8344SOL     OW25930   6.073   5.660   4.603
 8344SOL    HW125931   5.980   5.654   4.567
 8344SOL    HW225932   6.128   5.720   4.544
 8345SOL     OW25933   4.111   2.164   2.486
 8345SOL    HW125934   4.041   2.175   2.416
 8345SOL    HW225935   4.078   2.201   2.573
 8346SOL     OW25936   3.693   4.921   0.493
 8346SOL    HW125937   3.752   4.988   0.446
 8346SOL    HW225938   3.615   4.898   0.435
 8347SOL     OW25939   3.274   6.707   4.678
 8347SOL    HW125940   3.295   6.609   4.688
 8347SOL    HW225941   3.185   6.717   4.633
 8348SOL     OW25942   1.972   1.193   1.027
 8348SOL    HW125943   2.058   1.213   0.981
 8348SOL    HW225944   1.974   1.232   1.119
 8349SOL     OW25945   0.696   0.347   2.000
 8349SOL    HW125946   0.766   0.338   2.071
 8349SOL    HW225947   0.738   0.377   1.915
 8350SOL     OW25948   3.120   6.072   6.172
 8350SOL    HW125949   3.121   6.012   6.093
 8350SOL    HW225950   3.026   6.102   6.190
 8351SOL     OW25951   5.220   5.550   4.661
 8351SOL    HW125952   5.249   5.560   4.567
 8351SOL    HW225953   5.132   5.503   4.664
 8352SOL     OW25954   0.049   0.012   3.271
 8352SOL    HW125955   6.975   0.030   3.243
 8352SOL    HW225956   0.105   7.013   3.190
 8353SOL     OW25957   0.314   4.034   1.372
 8353SOL    HW125958   0.245   4.081   1.316
 8353SOL    HW225959   0.342   4.094   1.447
 8354SOL     OW25960   3.531   0.131   4.793
 8354SOL    HW125961   3.591   0.059   4.827
 8354SOL    HW225962   3.443   0.126   4.841
 8355SOL     OW25963   2.869   1.133   5.584
 8355SOL    HW125964   2.924   1.202   5.537
 8355SOL    HW225965   2.858   1.158   5.680
 8356SOL     OW25966   0.407   0.183   1.876
 8356SOL    HW125967   0.483   0.204   1.938
 8356SOL    HW225968   0.383   0.264   1.824
 8357SOL     OW25969   3.458   0.024   5.362
 8357SOL    HW125970   3.491   6.951   5.377
 8357SOL    HW225971   3.393   0.049   5.434
 8358SOL     OW25972   1.784   4.089   5.065
 8358SOL    HW125973   1.698   4.106   5.018
 8358SOL    HW225974   1.845   4.037   5.005
 8359SOL     OW25975   3.394   0.549   5.047
 8359SOL    HW125976   3.460   0.480   5.016
 8359SOL    HW225977   3.444   0.626   5.087
 8360SOL     OW25978   3.829   6.842   0.461
 8360SOL    HW125979   3.809   6.914   0.528
 8360SOL    HW225980   3.803   6.873   0.369
 8361SOL     OW25981   3.475   0.500   1.561
 8361SOL    HW125982   3.500   0.565   1.632
 8361SOL    HW225983   3.394   0.448   1.591
 8362SOL     OW25984   4.446   1.260   0.928
 8362SOL    HW125985   4.348   1.241   0.936
 8362SOL    HW225986   4.462   1.357   0.941
 8363SOL     OW25987   5.088   3.031   0.038
 8363SOL    HW125988   5.082   2.933   0.022
 8363SOL    HW225989   5.184   3.057   0.046
 8364SOL     OW25990   0.626   2.265   3.689
 8364SOL    HW125991   0.544   2.238   3.639
 8364SOL    HW225992   0.706   2.223   3.648
 8365SOL     OW25993   1.788   3.141   2.481
 8365SOL    HW125994   1.809   3.102   2.392
 8365SOL    HW225995   1.837   3.089   2.552
 8366SOL     OW25996   2.211   5.520   1.314
 8366SOL    HW125997   2.217   5.491   1.219
 8366SOL    HW225998   2.209   5.440   1.374
 8367SOL     OW25999   4.236   5.738   4.935
 8367SOL    HW126000   4.292   5.713   5.014
 8367SOL    HW226001   4.142   5.709   4.952
 8368SOL     OW26002   0.750   0.127   6.439
 8368SOL    HW126003   0.817   0.060   6.471
 8368SOL    HW226004   0.692   0.085   6.369
 8369SOL     OW26005   0.721   0.577   6.207
 8369SOL    HW126006   0.766   0.517   6.141
 8369SOL    HW226007   0.667   0.645   6.159
 8370SOL     OW26008   2.704   1.575   5.887
 8370SOL    HW126009   2.735   1.670   5.888
 8370SOL    HW226010   2.737   1.531   5.804
 8371SOL     OW26011   1.814   4.414   0.912
 8371SOL    HW126012   1.745   4.341   0.919
 8371SOL    HW226013   1.840   4.425   0.816
 8372SOL     OW26014   1.851   5.449   1.615
 8372SOL    HW126015   1.818   5.435   1.709
 8372SOL    HW226016   1.811   5.380   1.555
 8373SOL     OW26017   2.172   6.800   3.634
 8373SOL    HW126018   2.104   6.748   3.583
 8373SOL    HW226019   2.254   6.744   3.648
 8374SOL     OW26020   0.123   0.456   5.153
 8374SOL    HW126021   0.210   0.423   5.114
 8374SOL    HW226022   0.057   0.468   5.079
 8375SOL     OW26023   3.913   6.382   5.055
 8375SOL    HW126024   3.831   6.396   5.000
 8375SOL    HW226025   3.979   6.329   5.003
 8376SOL     OW26026   0.110   1.454   4.732
 8376SOL    HW126027   0.033   1.435   4.671
 8376SOL    HW226028   0.162   1.533   4.697
 8377SOL     OW26029   5.524   6.241   0.790
 8377SOL    HW126030   5.549   6.156   0.837
 8377SOL    HW226031   5.573   6.247   0.703
 8378SOL     OW26032   4.085   5.057   2.987
 8378SOL    HW126033   4.100   4.965   3.022
 8378SOL    HW226034   4.071   5.054   2.888
 8379SOL     OW26035   5.482   3.162   1.330
 8379SOL    HW126036   5.493   3.064   1.312
 8379SOL    HW226037   5.521   3.184   1.420
 8380SOL     OW26038   0.951   0.359   2.130
 8380SOL    HW126039   0.972   0.418   2.208
 8380SOL    HW226040   0.989   0.399   2.047
 8381SOL     OW26041   0.652   2.556   4.222
 8381SOL    HW126042   0.579   2.563   4.154
 8381SOL    HW226043   0.673   2.648   4.256
 8382SOL     OW26044   2.288   0.070   2.648
 8382SOL    HW126045   2.222   0.089   2.720
 8382SOL    HW226046   2.245   0.014   2.577
 8383SOL     OW26047   3.046   6.995   5.727
 8383SOL    HW126048   3.069   6.937   5.805
 8383SOL    HW226049   2.983   0.047   5.756
 8384SOL     OW26050   6.242   1.412   1.594
 8384SOL    HW126051   6.337   1.396   1.620
 8384SOL    HW226052   6.182   1.390   1.671
 8385SOL     OW26053   4.998   2.462   0.362
 8385SOL    HW126054   5.052   2.540   0.394
 8385SOL    HW226055   4.911   2.494   0.325
 8386SOL     OW26056   1.588   6.339   1.532
 8386SOL    HW126057   1.589   6.239   1.531
 8386SOL    HW226058   1.640   6.374   1.454
 8387SOL     OW26059   1.264   1.500   1.690
 8387SOL    HW126060   1.228   1.407   1.693
 8387SOL    HW226061   1.345   1.507   1.749
 8388SOL     OW26062   2.224   0.267   0.622
 8388SOL    HW126063   2.298   0.260   0.689
 8388SOL    HW226064   2.243   0.342   0.559
 8389SOL     OW26065   6.651   3.698   3.728
 8389SOL    HW126066   6.745   3.715   3.760
 8389SOL    HW226067   6.640   3.601   3.705
 8390SOL     OW26068   4.410   6.756   0.390
 8390SOL    HW126069   4.390   6.688   0.460
 8390SOL    HW226070   4.506   6.750   0.363
 8391SOL     OW26071   6.193   4.874   0.817
 8391SOL    HW126072   6.108   4.823   0.831
 8391SOL    HW226073   6.247   4.874   0.901
 8392SOL     OW26074   6.942   4.798   5.244
 8392SOL    HW126075   6.941   4.739   5.163
 8392SOL    HW226076   6.850   4.806   5.281
 8393SOL     OW26077   0.259   0.301   2.591
 8393SOL    HW126078   0.250   0.276   2.687
 8393SOL    HW226079   0.252   0.219   2.534
 8394SOL     OW26080   6.838   2.610   1.934
 8394SOL    HW126081   6.897   2.544   1.889
 8394SOL    HW226082   6.786   2.661   1.865
 8395SOL     OW26083   2.382   6.501   4.516
 8395SOL    HW126084   2.458   6.489   4.580
 8395SOL    HW226085   2.417   6.499   4.422
 8396SOL     OW26086   4.261   5.212   3.111
 8396SOL    HW126087   4.267   5.184   3.207
 8396SOL    HW226088   4.194   5.155   3.063
 8397SOL     OW26089   2.436   0.331   2.814
 8397SOL    HW126090   2.451   0.411   2.757
 8397SOL    HW226091   2.523   0.297   2.848
 8398SOL     OW26092   4.457   2.658   6.603
 8398SOL    HW126093   4.370   2.707   6.598
 8398SOL    HW226094   4.441   2.560   6.600
 8399SOL     OW26095   6.050   6.053   0.233
 8399SOL    HW126096   6.008   6.141   0.211
 8399SOL    HW226097   5.989   6.002   0.295
 8400SOL     OW26098   1.591   1.361   4.517
 8400SOL    HW126099   1.588   1.344   4.418
 8400SOL    HW226100   1.683   1.389   4.543
 8401SOL     OW26101   3.230   1.525   6.379
 8401SOL    HW126102   3.283   1.444   6.355
 8401SOL    HW226103   3.171   1.551   6.303
 8402SOL     OW26104   3.826   2.137   5.482
 8402SOL    HW126105   3.915   2.184   5.479
 8402SOL    HW226106   3.762   2.184   5.422
 8403SOL     OW26107   1.514   2.263   4.380
 8403SOL    HW126108   1.476   2.313   4.458
 8403SOL    HW226109   1.439   2.221   4.328
 8404SOL     OW26110   4.570   6.617   5.842
 8404SOL    HW126111   4.617   6.694   5.885
 8404SOL    HW226112   4.471   6.628   5.853
 8405SOL     OW26113   2.480   0.174   5.476
 8405SOL    HW126114   2.473   0.273   5.464
 8405SOL    HW226115   2.455   0.150   5.569
 8406SOL     OW26116   6.060   0.146   0.702
 8406SOL    HW126117   5.980   0.097   0.738
 8406SOL    HW226118   6.130   0.151   0.773
 8407SOL     OW26119   3.688   6.186   4.194
 8407SOL    HW126120   3.607   6.215   4.144
 8407SOL    HW226121   3.661   6.136   4.276
 8408SOL     OW26122   5.746   3.677   2.362
 8408SOL    HW126123   5.677   3.661   2.433
 8408SOL    HW226124   5.835   3.643   2.393
 8409SOL     OW26125   5.539   2.550   4.057
 8409SOL    HW126126   5.622   2.584   4.102
 8409SOL    HW226127   5.542   2.450   4.051
 8410SOL     OW26128   5.100   0.972   2.110
 8410SOL    HW126129   5.163   0.976   2.187
 8410SOL    HW226130   5.150   0.989   2.025
 8411SOL     OW26131   0.494   4.864   0.116
 8411SOL    HW126132   0.469   4.774   0.152
 8411SOL    HW226133   0.416   4.904   0.069
 8412SOL     OW26134   3.072   1.658   1.170
 8412SOL    HW126135   3.048   1.645   1.074
 8412SOL    HW226136   3.000   1.711   1.215
 8413SOL     OW26137   4.166   5.611   0.099
 8413SOL    HW126138   4.235   5.549   0.062
 8413SOL    HW226139   4.156   5.596   0.197
 8414SOL     OW26140   3.460   4.947   3.555
 8414SOL    HW126141   3.541   4.956   3.497
 8414SOL    HW226142   3.392   4.890   3.508
 8415SOL     OW26143   6.946   5.894   3.790
 8415SOL    HW126144   6.856   5.863   3.759
 8415SOL    HW226145   7.009   5.898   3.712
 8416SOL     OW26146   5.455   3.722   2.805
 8416SOL    HW126147   5.366   3.765   2.795
 8416SOL    HW226148   5.468   3.692   2.900
 8417SOL     OW26149   1.602   4.170   5.870
 8417SOL    HW126150   1.642   4.110   5.939
 8417SOL    HW226151   1.636   4.143   5.780
 8418SOL     OW26152   5.692   4.568   1.183
 8418SOL    HW126153   5.752   4.495   1.216
 8418SOL    HW226154   5.624   4.529   1.121
 8419SOL     OW26155   5.333   0.028   2.149
 8419SOL    HW126156   5.306   0.061   2.239
 8419SOL    HW226157   5.383   0.100   2.100
 8420SOL     OW26158   4.715   6.535   0.469
 8420SOL    HW126159   4.624   6.513   0.502
 8420SOL    HW226160   4.709   6.605   0.397
 8421SOL     OW26161   1.622   5.540   6.674
 8421SOL    HW126162   1.643   5.620   6.617
 8421SOL    HW226163   1.704   5.516   6.726
 8422SOL     OW26164   3.717   1.125   0.992
 8422SOL    HW126165   3.789   1.180   0.948
 8422SOL    HW226166   3.759   1.062   1.056
 8423SOL     OW26167   3.512   4.755   5.821
 8423SOL    HW126168   3.578   4.706   5.764
 8423SOL    HW226169   3.512   4.716   5.913
 8424SOL     OW26170   2.064   2.495   2.735
 8424SOL    HW126171   1.977   2.461   2.701
 8424SOL    HW226172   2.089   2.444   2.818
 8425SOL     OW26173   4.867   5.162   6.723
 8425SOL    HW126174   4.936   5.105   6.768
 8425SOL    HW226175   4.832   5.114   6.643
 8426SOL     OW26176   3.241   3.337   3.874
 8426SOL    HW126177   3.310   3.381   3.816
 8426SOL    HW226178   3.256   3.363   3.969
 8427SOL     OW26179   3.750   3.748   4.579
 8427SOL    HW126180   3.780   3.708   4.492
 8427SOL    HW226181   3.804   3.708   4.654
 8428SOL     OW26182   0.178   4.635   1.761
 8428SOL    HW126183   0.150   4.579   1.683
 8428SOL    HW226184   0.249   4.699   1.732
 8429SOL     OW26185   1.602   5.846   4.409
 8429SOL    HW126186   1.590   5.944   4.419
 8429SOL    HW226187   1.513   5.803   4.389
 8430SOL     OW26188   3.131   5.217   3.611
 8430SOL    HW126189   3.215   5.271   3.619
 8430SOL    HW226190   3.052   5.278   3.618
 8431SOL     OW26191   3.439   4.855   0.353
 8431SOL    HW126192   3.382   4.933   0.329
 8431SOL    HW226193   3.387   4.770   0.339
 8432SOL     OW26194   5.604   7.005   5.941
 8432SOL    HW126195   5.543   0.041   5.885
 8432SOL    HW226196   5.552   6.934   5.988
 8433SOL     OW26197   5.175   2.581   0.777
 8433SOL    HW126198   5.087   2.582   0.824
 8433SOL    HW226199   5.212   2.488   0.778
 8434SOL     OW26200   2.633   6.528   4.687
 8434SOL    HW126201   2.681   6.467   4.624
 8434SOL    HW226202   2.664   6.511   4.780
 8435SOL     OW26203   6.021   1.186   1.443
 8435SOL    HW126204   5.928   1.187   1.406
 8435SOL    HW226205   6.070   1.106   1.410
 8436SOL     OW26206   4.063   0.057   3.418
 8436SOL    HW126207   4.076   7.011   3.344
 8436SOL    HW226208   3.997   0.127   3.388
 8437SOL     OW26209   2.065   0.457   3.844
 8437SOL    HW126210   2.102   0.539   3.801
 8437SOL    HW226211   2.035   0.478   3.937
 8438SOL     OW26212   2.301   4.580   2.355
 8438SOL    HW126213   2.346   4.655   2.309
 8438SOL    HW226214   2.225   4.615   2.411
 8439SOL     OW26215   6.401   4.954   2.252
 8439SOL    HW126216   6.472   4.882   2.248
 8439SOL    HW226217   6.325   4.922   2.308
 8440SOL     OW26218   0.969   2.571   3.774
 8440SOL    HW126219   0.956   2.484   3.821
 8440SOL    HW226220   0.902   2.580   3.700
 8441SOL     OW26221   5.934   6.916   6.886
 8441SOL    HW126222   5.859   6.956   6.937
 8441SOL    HW226223   5.907   6.904   6.790
 8442SOL     OW26224   3.146   1.498   4.896
 8442SOL    HW126225   3.090   1.517   4.815
 8442SOL    HW226226   3.159   1.399   4.905
 8443SOL     OW26227   2.146   5.295   3.645
 8443SOL    HW126228   2.156   5.222   3.713
 8443SOL    HW226229   2.131   5.382   3.692
 8444SOL     OW26230   2.689   5.965   3.282
 8444SOL    HW126231   2.711   5.868   3.298
 8444SOL    HW226232   2.592   5.974   3.262
 8445SOL     OW26233   3.941   6.611   0.442
 8445SOL    HW126234   3.921   6.555   0.522
 8445SOL    HW226235   3.895   6.699   0.450
 8446SOL     OW26236   4.461   4.504   6.670
 8446SOL    HW126237   4.399   4.427   6.653
 8446SOL    HW226238   4.423   4.561   6.743
 8447SOL     OW26239   4.696   2.123   1.996
 8447SOL    HW126240   4.719   2.207   1.946
 8447SOL    HW226241   4.681   2.048   1.932
 8448SOL     OW26242   4.752   6.180   3.824
 8448SOL    HW126243   4.744   6.280   3.822
 8448SOL    HW226244   4.775   6.150   3.916
 8449SOL     OW26245   6.795   2.927   3.828
 8449SOL    HW126246   6.741   3.006   3.801
 8449SOL    HW226247   6.892   2.951   3.828
 8450SOL     OW26248   0.523   6.549   1.518
 8450SOL    HW126249   0.612   6.595   1.514
 8450SOL    HW226250   0.536   6.453   1.540
 8451SOL     OW26251   3.578   2.203   6.924
 8451SOL    HW126252   3.661   2.206   6.980
 8451SOL    HW226253   3.499   2.185   6.983
 8452SOL     OW26254   6.167   1.303   3.015
 8452SOL    HW126255   6.075   1.276   3.043
 8452SOL    HW226256   6.233   1.275   3.085
 8453SOL     OW26257   0.075   4.664   6.440
 8453SOL    HW126258   0.029   4.666   6.529
 8453SOL    HW226259   0.067   4.572   6.401
 8454SOL     OW26260   0.105   0.185   1.213
 8454SOL    HW126261   0.048   0.262   1.242
 8454SOL    HW226262   0.061   0.138   1.137
 8455SOL     OW26263   6.454   2.826   1.696
 8455SOL    HW126264   6.457   2.891   1.620
 8455SOL    HW226265   6.547   2.801   1.722
 8456SOL     OW26266   4.550   6.217   2.759
 8456SOL    HW126267   4.540   6.314   2.736
 8456SOL    HW226268   4.487   6.194   2.833
 8457SOL     OW26269   6.678   6.538   4.963
 8457SOL    HW126270   6.725   6.583   4.887
 8457SOL    HW226271   6.724   6.452   4.984
 8458SOL     OW26272   3.418   1.579   6.584
 8458SOL    HW126273   3.342   1.557   6.522
 8458SOL    HW226274   3.428   1.678   6.590
 8459SOL     OW26275   2.889   6.243   2.356
 8459SOL    HW126276   2.907   6.329   2.308
 8459SOL    HW226277   2.800   6.207   2.328
 8460SOL     OW26278   4.233   3.600   5.417
 8460SOL    HW126279   4.135   3.615   5.431
 8460SOL    HW226280   4.279   3.688   5.407
 8461SOL     OW26281   0.045   4.492   3.808
 8461SOL    HW126282   0.072   4.397   3.793
 8461SOL    HW226283   0.021   4.505   3.904
 8462SOL     OW26284   3.222   2.651   6.320
 8462SOL    HW126285   3.142   2.609   6.364
 8462SOL    HW226286   3.238   2.608   6.231
 8463SOL     OW26287   6.797   6.856   0.784
 8463SOL    HW126288   6.849   6.772   0.767
 8463SOL    HW226289   6.702   6.833   0.802
 8464SOL     OW26290   5.573   3.474   4.902
 8464SOL    HW126291   5.568   3.566   4.863
 8464SOL    HW226292   5.483   3.430   4.894
 8465SOL     OW26293   1.114   2.492   1.061
 8465SOL    HW126294   1.184   2.423   1.078
 8465SOL    HW226295   1.040   2.453   1.006
 8466SOL     OW26296   0.680   6.644   4.658
 8466SOL    HW126297   0.620   6.677   4.585
 8466SOL    HW226298   0.776   6.659   4.632
 8467SOL     OW26299   4.360   6.701   1.290
 8467SOL    HW126300   4.350   6.647   1.206
 8467SOL    HW226301   4.274   6.748   1.309
 8468SOL     OW26302   3.819   1.916   6.320
 8468SOL    HW126303   3.770   2.000   6.296
 8468SOL    HW226304   3.889   1.936   6.388
 8469SOL     OW26305   3.069   1.573   6.179
 8469SOL    HW126306   2.971   1.574   6.160
 8469SOL    HW226307   3.118   1.532   6.102
 8470SOL     OW26308   1.857   4.082   6.981
 8470SOL    HW126309   1.935   4.095   6.921
 8470SOL    HW226310   1.888   4.076   0.056
 8471SOL     OW26311   3.710   1.196   3.301
 8471SOL    HW126312   3.757   1.110   3.321
 8471SOL    HW226313   3.708   1.210   3.202
 8472SOL     OW26314   6.945   0.833   5.003
 8472SOL    HW126315   6.848   0.842   5.027
 8472SOL    HW226316   6.993   0.786   5.076
 8473SOL     OW26317   6.822   5.846   0.048
 8473SOL    HW126318   6.914   5.885   0.045
 8473SOL    HW226319   6.808   5.788   6.988
 8474SOL     OW26320   3.410   2.927   1.655
 8474SOL    HW126321   3.395   2.983   1.736
 8474SOL    HW226322   3.396   2.831   1.677
 8475SOL     OW26323   6.678   2.687   3.922
 8475SOL    HW126324   6.728   2.623   3.863
 8475SOL    HW226325   6.717   2.778   3.913
 8476SOL     OW26326   6.622   2.341   1.227
 8476SOL    HW126327   6.629   2.376   1.133
 8476SOL    HW226328   6.699   2.376   1.281
 8477SOL     OW26329   5.149   6.886   0.689
 8477SOL    HW126330   5.106   6.948   0.624
 8477SOL    HW226331   5.248   6.902   0.689
 8478SOL     OW26332   1.988   6.995   6.067
 8478SOL    HW126333   1.927   6.993   6.146
 8478SOL    HW226334   2.038   6.909   6.061
 8479SOL     OW26335   1.027   2.936   1.238
 8479SOL    HW126336   1.039   2.947   1.140
 8479SOL    HW226337   0.954   2.870   1.256
 8480SOL     OW26338   4.530   2.085   6.738
 8480SOL    HW126339   4.530   2.121   6.831
 8480SOL    HW226340   4.438   2.052   6.715
 8481SOL     OW26341   4.270   2.328   4.353
 8481SOL    HW126342   4.351   2.269   4.349
 8481SOL    HW226343   4.254   2.356   4.447
 8482SOL     OW26344   4.455   6.133   1.636
 8482SOL    HW126345   4.390   6.209   1.639
 8482SOL    HW226346   4.495   6.127   1.544
 8483SOL     OW26347   4.728   6.116   2.575
 8483SOL    HW126348   4.663   6.161   2.637
 8483SOL    HW226349   4.704   6.137   2.480
 8484SOL     OW26350   0.245   6.045   3.610
 8484SOL    HW126351   0.334   6.036   3.565
 8484SOL    HW226352   0.258   6.065   3.707
 8485SOL     OW26353   3.617   2.686   6.847
 8485SOL    HW126354   3.620   2.735   6.760
 8485SOL    HW226355   3.589   2.592   6.831
 8486SOL     OW26356   3.267   1.509   2.835
 8486SOL    HW126357   3.365   1.498   2.853
 8486SOL    HW226358   3.216   1.438   2.884
 8487SOL     OW26359   6.079   1.502   6.087
 8487SOL    HW126360   6.109   1.447   6.165
 8487SOL    HW226361   6.156   1.519   6.026
 8488SOL     OW26362   5.194   5.737   0.183
 8488SOL    HW126363   5.257   5.787   0.124
 8488SOL    HW226364   5.245   5.674   0.241
 8489SOL     OW26365   6.408   2.048   1.093
 8489SOL    HW126366   6.424   2.104   1.175
 8489SOL    HW226367   6.420   2.105   1.011
 8490SOL     OW26368   4.624   6.626   3.706
 8490SOL    HW126369   4.705   6.683   3.697
 8490SOL    HW226370   4.642   6.551   3.770
 8491SOL     OW26371   2.778   6.037   0.761
 8491SOL    HW126372   2.701   6.072   0.708
 8491SOL    HW226373   2.745   5.965   0.823
 8492SOL     OW26374   4.980   3.971   5.847
 8492SOL    HW126375   4.911   3.925   5.791
 8492SOL    HW226376   4.946   4.061   5.874
 8493SOL     OW26377   2.368   2.920   6.614
 8493SOL    HW126378   2.440   2.986   6.633
 8493SOL    HW226379   2.332   2.885   6.701
 8494SOL     OW26380   3.132   5.182   1.353
 8494SOL    HW126381   3.099   5.113   1.288
 8494SOL    HW226382   3.093   5.165   1.443
 8495SOL     OW26383   6.146   5.287   2.563
 8495SOL    HW126384   6.201   5.212   2.599
 8495SOL    HW226385   6.167   5.300   2.466
 8496SOL     OW26386   1.129   2.649   1.746
 8496SOL    HW126387   1.055   2.628   1.682
 8496SOL    HW226388   1.099   2.627   1.839
 8497SOL     OW26389   6.406   0.881   3.742
 8497SOL    HW126390   6.388   0.902   3.646
 8497SOL    HW226391   6.337   0.817   3.776
 8498SOL     OW26392   6.859   6.297   2.988
 8498SOL    HW126393   6.843   6.271   2.893
 8498SOL    HW226394   6.927   6.236   3.029
 8499SOL     OW26395   2.098   4.833   6.878
 8499SOL    HW126396   2.002   4.822   6.853
 8499SOL    HW226397   2.142   4.744   6.882
 8500SOL     OW26398   1.554   5.990   5.299
 8500SOL    HW126399   1.600   6.022   5.382
 8500SOL    HW226400   1.499   6.064   5.261
 8501SOL     OW26401   0.768   2.118   6.960
 8501SOL    HW126402   0.779   2.210   6.997
 8501SOL    HW226403   0.842   2.060   6.994
 8502SOL     OW26404   1.169   3.842   0.970
 8502SOL    HW126405   1.181   3.859   1.068
 8502SOL    HW226406   1.077   3.870   0.943
 8503SOL     OW26407   1.583   6.299   3.918
 8503SOL    HW126408   1.493   6.277   3.880
 8503SOL    HW226409   1.648   6.311   3.843
 8504SOL     OW26410   2.618   5.052   2.202
 8504SOL    HW126411   2.609   5.006   2.114
 8504SOL    HW226412   2.684   5.003   2.259
 8505SOL     OW26413   4.910   3.422   4.009
 8505SOL    HW126414   4.876   3.470   4.090
 8505SOL    HW226415   4.953   3.336   4.037
 8506SOL     OW26416   6.997   0.637   6.546
 8506SOL    HW126417   7.015   0.552   6.594
 8506SOL    HW226418   6.929   0.621   6.474
 8507SOL     OW26419   3.539   1.108   5.532
 8507SOL    HW126420   3.597   1.179   5.573
 8507SOL    HW226421   3.503   1.049   5.604
 8508SOL     OW26422   5.993   1.592   5.151
 8508SOL    HW126423   5.986   1.688   5.180
 8508SOL    HW226424   5.943   1.534   5.214
 8509SOL     OW26425   4.512   1.451   4.209
 8509SOL    HW126426   4.502   1.475   4.113
 8509SOL    HW226427   4.495   1.353   4.221
 8510SOL     OW26428   5.754   4.248   3.337
 8510SOL    HW126429   5.786   4.159   3.368
 8510SOL    HW226430   5.662   4.239   3.299
 8511SOL     OW26431   6.264   3.508   2.371
 8511SOL    HW126432   6.244   3.502   2.273
 8511SOL    HW226433   6.241   3.421   2.415
 8512SOL     OW26434   3.304   1.851   1.831
 8512SOL    HW126435   3.377   1.878   1.894
 8512SOL    HW226436   3.243   1.928   1.815
 8513SOL     OW26437   5.791   4.351   1.333
 8513SOL    HW126438   5.748   4.276   1.282
 8513SOL    HW226439   5.873   4.317   1.379
 8514SOL     OW26440   2.662   2.460   3.772
 8514SOL    HW126441   2.601   2.518   3.827
 8514SOL    HW226442   2.612   2.425   3.693
 8515SOL     OW26443   5.686   1.874   0.865
 8515SOL    HW126444   5.596   1.889   0.823
 8515SOL    HW226445   5.732   1.799   0.819
 8516SOL     OW26446   6.181   2.381   1.645
 8516SOL    HW126447   6.143   2.410   1.733
 8516SOL    HW226448   6.240   2.453   1.609
 8517SOL     OW26449   1.611   2.741   6.439
 8517SOL    HW126450   1.568   2.668   6.385
 8517SOL    HW226451   1.559   2.755   6.523
 8518SOL     OW26452   4.193   3.862   6.713
 8518SOL    HW126453   4.127   3.796   6.748
 8518SOL    HW226454   4.286   3.829   6.730
 8519SOL     OW26455   1.219   4.144   1.885
 8519SOL    HW126456   1.186   4.079   1.817
 8519SOL    HW226457   1.143   4.202   1.916
 8520SOL     OW26458   3.778   2.421   0.240
 8520SOL    HW126459   3.684   2.449   0.261
 8520SOL    HW226460   3.814   2.479   0.167
 8521SOL     OW26461   2.032   5.153   6.228
 8521SOL    HW126462   2.022   5.243   6.271
 8521SOL    HW226463   2.114   5.109   6.262
 8522SOL     OW26464   1.274   6.460   1.312
 8522SOL    HW126465   1.188   6.415   1.286
 8522SOL    HW226466   1.287   6.451   1.411
 8523SOL     OW26467   2.169   6.660   6.561
 8523SOL    HW126468   2.072   6.639   6.546
 8523SOL    HW226469   2.224   6.579   6.544
 8524SOL     OW26470   0.457   2.436   4.887
 8524SOL    HW126471   0.363   2.405   4.894
 8524SOL    HW226472   0.478   2.460   4.792
 8525SOL     OW26473   6.191   4.083   2.938
 8525SOL    HW126474   6.231   4.042   2.856
 8525SOL    HW226475   6.138   4.013   2.987
 8526SOL     OW26476   3.899   5.621   6.995
 8526SOL    HW126477   3.982   5.648   0.024
 8526SOL    HW226478   3.859   5.701   6.950
 8527SOL     OW26479   2.714   0.633   6.109
 8527SOL    HW126480   2.748   0.621   6.016
 8527SOL    HW226481   2.784   0.676   6.166
 8528SOL     OW26482   3.810   2.335   6.087
 8528SOL    HW126483   3.803   2.306   5.991
 8528SOL    HW226484   3.880   2.406   6.095
 8529SOL     OW26485   0.975   0.546   1.666
 8529SOL    HW126486   0.968   0.642   1.693
 8529SOL    HW226487   0.980   0.540   1.566
 8530SOL     OW26488   3.259   3.663   4.888
 8530SOL    HW126489   3.211   3.591   4.938
 8530SOL    HW226490   3.358   3.647   4.893
 8531SOL     OW26491   6.542   5.051   2.494
 8531SOL    HW126492   6.488   5.042   2.410
 8531SOL    HW226493   6.623   4.993   2.488
 8532SOL     OW26494   3.863   5.162   4.612
 8532SOL    HW126495   3.812   5.175   4.528
 8532SOL    HW226496   3.907   5.248   4.638
 8533SOL     OW26497   1.957   0.259   5.952
 8533SOL    HW126498   2.040   0.301   5.916
 8533SOL    HW226499   1.980   0.202   6.031
 8534SOL     OW26500   6.287   3.249   4.071
 8534SOL    HW126501   6.324   3.318   4.009
 8534SOL    HW226502   6.250   3.173   4.017
 8535SOL     OW26503   6.497   1.571   4.640
 8535SOL    HW126504   6.421   1.564   4.575
 8535SOL    HW226505   6.483   1.649   4.700
 8536SOL     OW26506   6.154   2.462   4.731
 8536SOL    HW126507   6.134   2.491   4.638
 8536SOL    HW226508   6.088   2.393   4.760
 8537SOL     OW26509   5.742   1.698   1.879
 8537SOL    HW126510   5.679   1.759   1.927
 8537SOL    HW226511   5.760   1.735   1.787
 8538SOL     OW26512   0.952   1.188   6.312
 8538SOL    HW126513   0.890   1.109   6.311
 8538SOL    HW226514   1.040   1.161   6.272
 8539SOL     OW26515   5.714   0.925   1.947
 8539SOL    HW126516   5.641   0.944   1.881
 8539SOL    HW226517   5.691   0.844   2.000
 8540SOL     OW26518   4.616   0.675   0.339
 8540SOL    HW126519   4.588   0.768   0.319
 8540SOL    HW226520   4.578   0.613   0.271
 8541SOL     OW26521   2.908   2.269   4.306
 8541SOL    HW126522   2.911   2.333   4.383
 8541SOL    HW226523   2.859   2.186   4.333
 8542SOL     OW26524   3.177   4.894   6.786
 8542SOL    HW126525   3.272   4.869   6.767
 8542SOL    HW226526   3.116   4.843   6.725
 8543SOL     OW26527   3.068   0.845   0.147
 8543SOL    HW126528   3.087   0.905   0.069
 8543SOL    HW226529   3.030   0.900   0.222
 8544SOL     OW26530   5.563   3.149   4.598
 8544SOL    HW126531   5.606   3.083   4.537
 8544SOL    HW226532   5.624   3.167   4.676
 8545SOL     OW26533   5.106   6.596   4.322
 8545SOL    HW126534   5.129   6.594   4.224
 8545SOL    HW226535   5.094   6.691   4.351
 8546SOL     OW26536   0.325   0.582   3.378
 8546SOL    HW126537   0.246   0.586   3.439
 8546SOL    HW226538   0.311   0.510   3.310
 8547SOL     OW26539   1.361   6.562   6.282
 8547SOL    HW126540   1.428   6.636   6.281
 8547SOL    HW226541   1.398   6.483   6.234
 8548SOL     OW26542   6.267   3.426   5.666
 8548SOL    HW126543   6.261   3.370   5.583
 8548SOL    HW226544   6.176   3.456   5.693
 8549SOL     OW26545   1.343   3.006   4.564
 8549SOL    HW126546   1.337   3.067   4.643
 8549SOL    HW226547   1.403   3.046   4.495
 8550SOL     OW26548   1.800   4.782   6.768
 8550SOL    HW126549   1.785   4.684   6.772
 8550SOL    HW226550   1.767   4.817   6.680
 8551SOL     OW26551   2.609   3.504   6.543
 8551SOL    HW126552   2.573   3.507   6.637
 8551SOL    HW226553   2.620   3.597   6.509
 8552SOL     OW26554   2.994   0.547   3.386
 8552SOL    HW126555   3.080   0.555   3.437
 8552SOL    HW226556   2.940   0.472   3.424
 8553SOL     OW26557   3.875   3.802   6.559
 8553SOL    HW126558   3.867   3.845   6.649
 8553SOL    HW226559   3.794   3.822   6.505
 8554SOL     OW26560   0.355   4.913   1.127
 8554SOL    HW126561   0.436   4.896   1.183
 8554SOL    HW226562   0.372   4.882   1.033
 8555SOL     OW26563   2.392   1.162   3.639
 8555SOL    HW126564   2.331   1.129   3.567
 8555SOL    HW226565   2.478   1.192   3.598
 8556SOL     OW26566   1.072   6.058   5.271
 8556SOL    HW126567   1.123   6.144   5.259
 8556SOL    HW226568   0.983   6.066   5.227
 8557SOL     OW26569   6.355   0.101   2.867
 8557SOL    HW126570   6.294   0.052   2.929
 8557SOL    HW226571   6.314   0.189   2.842
 8558SOL     OW26572   1.935   4.553   2.961
 8558SOL    HW126573   2.017   4.590   2.918
 8558SOL    HW226574   1.875   4.628   2.990
 8559SOL     OW26575   1.673   0.734   2.409
 8559SOL    HW126576   1.714   0.819   2.376
 8559SOL    HW226577   1.740   0.660   2.400
 8560SOL     OW26578   6.796   6.741   1.728
 8560SOL    HW126579   6.836   6.723   1.818
 8560SOL    HW226580   6.834   6.826   1.691
 8561SOL     OW26581   3.635   0.289   2.228
 8561SOL    HW126582   3.690   0.368   2.257
 8561SOL    HW226583   3.635   0.284   2.128
 8562SOL     OW26584   4.018   6.193   5.780
 8562SOL    HW126585   3.933   6.153   5.745
 8562SOL    HW226586   4.013   6.203   5.879
 8563SOL     OW26587   1.536   4.273   0.505
 8563SOL    HW126588   1.513   4.364   0.541
 8563SOL    HW226589   1.544   4.208   0.581
 8564SOL     OW26590   3.399   0.820   4.900
 8564SOL    HW126591   3.350   0.820   4.987
 8564SOL    HW226592   3.425   0.727   4.877
 8565SOL     OW26593   3.773   5.355   1.010
 8565SOL    HW126594   3.830   5.351   1.092
 8565SOL    HW226595   3.716   5.437   1.013
 8566SOL     OW26596   1.136   0.299   1.649
 8566SOL    HW126597   1.157   0.204   1.670
 8566SOL    HW226598   1.045   0.322   1.682
 8567SOL     OW26599   0.530   2.653   3.378
 8567SOL    HW126600   0.496   2.697   3.295
 8567SOL    HW226601   0.613   2.699   3.409
 8568SOL     OW26602   5.531   1.109   6.878
 8568SOL    HW126603   5.564   1.018   6.902
 8568SOL    HW226604   5.433   1.105   6.859
 8569SOL     OW26605   4.429   1.178   5.932
 8569SOL    HW126606   4.332   1.189   5.911
 8569SOL    HW226607   4.483   1.242   5.876
 8570SOL     OW26608   1.712   1.708   4.785
 8570SOL    HW126609   1.655   1.629   4.763
 8570SOL    HW226610   1.706   1.775   4.711
 8571SOL     OW26611   1.194   5.499   4.621
 8571SOL    HW126612   1.282   5.456   4.644
 8571SOL    HW226613   1.123   5.462   4.680
 8572SOL     OW26614   3.631   4.911   6.354
 8572SOL    HW126615   3.599   4.979   6.288
 8572SOL    HW226616   3.690   4.845   6.308
 8573SOL     OW26617   3.372   6.675   6.336
 8573SOL    HW126618   3.471   6.691   6.336
 8573SOL    HW226619   3.355   6.578   6.323
 8574SOL     OW26620   0.142   6.136   6.370
 8574SOL    HW126621   0.047   6.155   6.348
 8574SOL    HW226622   0.200   6.160   6.292
 8575SOL     OW26623   2.317   2.760   4.255
 8575SOL    HW126624   2.270   2.808   4.182
 8575SOL    HW226625   2.272   2.779   4.342
 8576SOL     OW26626   1.343   4.568   5.969
 8576SOL    HW126627   1.335   4.518   5.883
 8576SOL    HW226628   1.401   4.517   6.032
 8577SOL     OW26629   0.905   6.242   4.658
 8577SOL    HW126630   0.830   6.241   4.724
 8577SOL    HW226631   0.869   6.265   4.568
 8578SOL     OW26632   5.672   6.451   4.132
 8578SOL    HW126633   5.668   6.454   4.232
 8578SOL    HW226634   5.726   6.372   4.103
 8579SOL     OW26635   2.235   0.356   1.973
 8579SOL    HW126636   2.272   0.275   2.017
 8579SOL    HW226637   2.147   0.380   2.014
 8580SOL     OW26638   2.394   6.012   1.595
 8580SOL    HW126639   2.301   5.984   1.573
 8580SOL    HW226640   2.427   6.076   1.526
 8581SOL     OW26641   3.384   3.778   1.376
 8581SOL    HW126642   3.463   3.780   1.314
 8581SOL    HW226643   3.405   3.830   1.458
 8582SOL     OW26644   4.782   4.143   4.201
 8582SOL    HW126645   4.859   4.170   4.144
 8582SOL    HW226646   4.807   4.062   4.254
 8583SOL     OW26647   5.498   0.571   4.067
 8583SOL    HW126648   5.513   0.551   4.164
 8583SOL    HW226649   5.561   0.643   4.038
 8584SOL     OW26650   0.642   5.027   5.833
 8584SOL    HW126651   0.580   5.101   5.807
 8584SOL    HW226652   0.590   4.942   5.842
 8585SOL     OW26653   0.798   6.374   5.942
 8585SOL    HW126654   0.713   6.365   5.891
 8585SOL    HW226655   0.869   6.316   5.900
 8586SOL     OW26656   3.130   6.598   2.160
 8586SOL    HW126657   3.169   6.690   2.168
 8586SOL    HW226658   3.203   6.533   2.138
 8587SOL     OW26659   0.761   7.001   3.911
 8587SOL    HW126660   0.781   6.979   3.816
 8587SOL    HW226661   0.662   7.009   3.923
 8588SOL     OW26662   2.836   0.915   0.482
 8588SOL    HW126663   2.791   0.975   0.549
 8588SOL    HW226664   2.905   0.967   0.432
 8589SOL     OW26665   5.138   3.040   5.597
 8589SOL    HW126666   5.092   3.047   5.686
 8589SOL    HW226667   5.206   2.967   5.601
 8590SOL     OW26668   6.906   6.068   3.542
 8590SOL    HW126669   6.964   6.149   3.546
 8590SOL    HW226670   6.963   5.987   3.526
 8591SOL     OW26671   0.384   3.775   0.133
 8591SOL    HW126672   0.310   3.784   0.067
 8591SOL    HW226673   0.428   3.686   0.123
 8592SOL     OW26674   6.739   2.913   6.239
 8592SOL    HW126675   6.716   2.960   6.154
 8592SOL    HW226676   6.822   2.953   6.278
 8593SOL     OW26677   1.869   1.526   0.715
 8593SOL    HW126678   1.958   1.529   0.669
 8593SOL    HW226679   1.818   1.609   0.694
 8594SOL     OW26680   4.295   2.371   5.473
 8594SOL    HW126681   4.305   2.284   5.521
 8594SOL    HW226682   4.285   2.445   5.540
 8595SOL     OW26683   0.539   2.388   3.253
 8595SOL    HW126684   0.527   2.469   3.310
 8595SOL    HW226685   0.541   2.414   3.157
 8596SOL     OW26686   1.270   5.188   3.240
 8596SOL    HW126687   1.362   5.190   3.279
 8596SOL    HW226688   1.218   5.266   3.275
 8597SOL     OW26689   4.270   1.760   0.787
 8597SOL    HW126690   4.324   1.814   0.724
 8597SOL    HW226691   4.204   1.818   0.834
 8598SOL     OW26692   6.028   0.337   0.440
 8598SOL    HW126693   6.023   0.326   0.539
 8598SOL    HW226694   6.047   0.249   0.397
 8599SOL     OW26695   1.430   2.493   5.107
 8599SOL    HW126696   1.492   2.425   5.146
 8599SOL    HW226697   1.352   2.507   5.169
 8600SOL     OW26698   5.303   4.664   4.781
 8600SOL    HW126699   5.320   4.597   4.853
 8600SOL    HW226700   5.390   4.705   4.752
 8601SOL     OW26701   1.223   1.225   4.202
 8601SOL    HW126702   1.268   1.306   4.163
 8601SOL    HW226703   1.193   1.165   4.129
 8602SOL     OW26704   2.938   5.487   1.964
 8602SOL    HW126705   2.902   5.396   1.986
 8602SOL    HW226706   3.038   5.486   1.974
 8603SOL     OW26707   4.876   5.994   0.727
 8603SOL    HW126708   4.975   5.987   0.718
 8603SOL    HW226709   4.840   5.909   0.766
 8604SOL     OW26710   0.361   3.116   4.984
 8604SOL    HW126711   0.277   3.136   4.933
 8604SOL    HW226712   0.441   3.133   4.927
 8605SOL     OW26713   2.828   6.158   3.923
 8605SOL    HW126714   2.914   6.119   3.956
 8605SOL    HW226715   2.842   6.256   3.904
 8606SOL     OW26716   1.768   3.362   6.057
 8606SOL    HW126717   1.794   3.444   6.005
 8606SOL    HW226718   1.848   3.327   6.106
 8607SOL     OW26719   3.782   5.986   0.981
 8607SOL    HW126720   3.714   6.030   0.922
 8607SOL    HW226721   3.858   6.050   0.997
 8608SOL     OW26722   3.963   5.067   2.717
 8608SOL    HW126723   3.868   5.040   2.697
 8608SOL    HW226724   3.972   5.166   2.706
 8609SOL     OW26725   5.208   0.515   2.386
 8609SOL    HW126726   5.127   0.552   2.341
 8609SOL    HW226727   5.231   0.571   2.465
 8610SOL     OW26728   1.465   2.218   2.867
 8610SOL    HW126729   1.529   2.141   2.872
 8610SOL    HW226730   1.448   2.253   2.959
 8611SOL     OW26731   3.037   1.509   4.593
 8611SOL    HW126732   3.015   1.427   4.645
 8611SOL    HW226733   3.007   1.498   4.498
 8612SOL     OW26734   2.728   3.678   1.015
 8612SOL    HW126735   2.656   3.747   1.023
 8612SOL    HW226736   2.724   3.635   0.925
 8613SOL     OW26737   2.584   1.941   1.239
 8613SOL    HW126738   2.675   1.908   1.213
 8613SOL    HW226739   2.564   1.911   1.332
 8614SOL     OW26740   1.093   2.893   2.901
 8614SOL    HW126741   1.127   2.928   2.988
 8614SOL    HW226742   1.075   2.795   2.909
 8615SOL     OW26743   4.655   1.153   5.046
 8615SOL    HW126744   4.589   1.109   5.108
 8615SOL    HW226745   4.613   1.163   4.956
 8616SOL     OW26746   3.097   4.590   1.674
 8616SOL    HW126747   3.030   4.533   1.722
 8616SOL    HW226748   3.115   4.673   1.728
 8617SOL     OW26749   6.364   1.677   6.672
 8617SOL    HW126750   6.388   1.585   6.641
 8617SOL    HW226751   6.291   1.714   6.614
 8618SOL     OW26752   6.177   5.298   0.996
 8618SOL    HW126753   6.271   5.273   0.973
 8618SOL    HW226754   6.116   5.272   0.921
 8619SOL     OW26755   3.651   4.904   2.212
 8619SOL    HW126756   3.627   4.888   2.116
 8619SOL    HW226757   3.749   4.921   2.219
 8620SOL     OW26758   1.343   0.395   3.605
 8620SOL    HW126759   1.438   0.364   3.608
 8620SOL    HW226760   1.303   0.389   3.697
 8621SOL     OW26761   5.944   1.694   3.018
 8621SOL    HW126762   5.888   1.763   3.064
 8621SOL    HW226763   6.011   1.740   2.960
 8622SOL     OW26764   5.653   3.364   1.052
 8622SOL    HW126765   5.693   3.407   0.972
 8622SOL    HW226766   5.642   3.266   1.035
 8623SOL     OW26767   1.000   3.623   4.376
 8623SOL    HW126768   0.972   3.710   4.335
 8623SOL    HW226769   1.078   3.586   4.325
 8624SOL     OW26770   1.650   3.853   4.901
 8624SOL    HW126771   1.585   3.915   4.946
 8624SOL    HW226772   1.643   3.762   4.941
 8625SOL     OW26773   4.334   0.650   6.230
 8625SOL    HW126774   4.297   0.709   6.158
 8625SOL    HW226775   4.365   0.564   6.191
 8626SOL     OW26776   3.215   3.152   5.851
 8626SOL    HW126777   3.234   3.171   5.948
 8626SOL    HW226778   3.246   3.060   5.829
 8627SOL     OW26779   1.376   1.887   3.189
 8627SOL    HW126780   1.292   1.930   3.222
 8627SOL    HW226781   1.359   1.790   3.172
 8628SOL     OW26782   6.099   6.402   0.514
 8628SOL    HW126783   6.118   6.498   0.493
 8628SOL    HW226784   6.181   6.358   0.551
 8629SOL     OW26785   1.047   5.342   4.810
 8629SOL    HW126786   0.981   5.274   4.842
 8629SOL    HW226787   1.102   5.374   4.887
 8630SOL     OW26788   5.521   4.261   3.709
 8630SOL    HW126789   5.612   4.303   3.714
 8630SOL    HW226790   5.487   4.244   3.802
 8631SOL     OW26791   0.714   4.983   6.409
 8631SOL    HW126792   0.712   5.010   6.312
 8631SOL    HW226793   0.797   5.020   6.451
 8632SOL     OW26794   3.668   5.177   4.391
 8632SOL    HW126795   3.687   5.130   4.305
 8632SOL    HW226796   3.688   5.274   4.381
 8633SOL     OW26797   5.137   1.676   5.964
 8633SOL    HW126798   5.054   1.676   5.908
 8633SOL    HW226799   5.128   1.606   6.036
 8634SOL     OW26800   4.992   3.328   0.355
 8634SOL    HW126801   5.088   3.305   0.372
 8634SOL    HW226802   4.934   3.259   0.398
 8635SOL     OW26803   5.655   3.544   6.568
 8635SOL    HW126804   5.705   3.506   6.646
 8635SOL    HW226805   5.669   3.487   6.488
 8636SOL     OW26806   5.523   5.679   1.089
 8636SOL    HW126807   5.466   5.599   1.108
 8636SOL    HW226808   5.559   5.672   0.995
 8637SOL     OW26809   2.057   1.077   0.025
 8637SOL    HW126810   2.038   1.157   0.082
 8637SOL    HW226811   1.976   1.055   6.991
 8638SOL     OW26812   3.499   2.521   5.478
 8638SOL    HW126813   3.438   2.449   5.510
 8638SOL    HW226814   3.451   2.578   5.412
 8639SOL     OW26815   5.221   2.613   0.495
 8639SOL    HW126816   5.302   2.567   0.459
 8639SOL    HW226817   5.211   2.592   0.593
 8640SOL     OW26818   4.073   3.584   6.608
 8640SOL    HW126819   4.076   3.679   6.577
 8640SOL    HW226820   4.008   3.533   6.552
 8641SOL     OW26821   4.488   4.933   3.678
 8641SOL    HW126822   4.522   5.014   3.725
 8641SOL    HW226823   4.459   4.865   3.745
 8642SOL     OW26824   1.560   6.134   2.989
 8642SOL    HW126825   1.628   6.196   3.027
 8642SOL    HW226826   1.605   6.050   2.957
 8643SOL     OW26827   2.306   0.201   0.004
 8643SOL    HW126828   2.268   0.268   6.962
 8643SOL    HW226829   2.337   0.121   6.972
 8644SOL     OW26830   5.469   2.732   5.173
 8644SOL    HW126831   5.548   2.786   5.144
 8644SOL    HW226832   5.399   2.735   5.102
 8645SOL     OW26833   4.802   4.248   1.526
 8645SOL    HW126834   4.848   4.313   1.587
 8645SOL    HW226835   4.781   4.164   1.577
 8646SOL     OW26836   6.729   1.942   1.117
 8646SOL    HW126837   6.786   1.941   1.035
 8646SOL    HW226838   6.688   2.033   1.127
 8647SOL     OW26839   2.917   5.504   6.281
 8647SOL    HW126840   2.984   5.435   6.308
 8647SOL    HW226841   2.957   5.565   6.213
 8648SOL     OW26842   6.621   0.569   3.026
 8648SOL    HW126843   6.703   0.616   2.993
 8648SOL    HW226844   6.544   0.632   3.022
 8649SOL     OW26845   5.224   5.362   5.849
 8649SOL    HW126846   5.247   5.457   5.826
 8649SOL    HW226847   5.156   5.361   5.922
 8650SOL     OW26848   2.089   5.353   4.255
 8650SOL    HW126849   2.130   5.422   4.195
 8650SOL    HW226850   2.161   5.309   4.309
 8651SOL     OW26851   4.162   0.057   6.662
 8651SOL    HW126852   4.181   6.979   6.662
 8651SOL    HW226853   4.220   0.103   6.595
 8652SOL     OW26854   1.661   4.580   3.945
 8652SOL    HW126855   1.726   4.635   3.892
 8652SOL    HW226856   1.674   4.597   4.042
 8653SOL     OW26857   5.721   0.438   6.230
 8653SOL    HW126858   5.647   0.401   6.285
 8653SOL    HW226859   5.707   0.536   6.217
 8654SOL     OW26860   1.015   4.728   2.025
 8654SOL    HW126861   1.106   4.768   2.023
 8654SOL    HW226862   0.984   4.719   2.120
 8655SOL     OW26863   0.110   1.554   4.107
 8655SOL    HW126864   0.109   1.640   4.158
 8655SOL    HW226865   0.202   1.536   4.073
 8656SOL     OW26866   6.988   0.069   1.001
 8656SOL    HW126867   6.966   0.166   1.000
 8656SOL    HW226868   6.909   0.017   0.967
 8657SOL     OW26869   5.535   4.515   6.830
 8657SOL    HW126870   5.617   4.459   6.816
 8657SOL    HW226871   5.477   4.509   6.749
 8658SOL     OW26872   5.859   5.941   0.468
 8658SOL    HW126873   5.765   5.910   0.479
 8658SOL    HW226874   5.921   5.863   0.475
 8659SOL     OW26875   4.410   2.086   2.860
 8659SOL    HW126876   4.386   2.069   2.956
 8659SOL    HW226877   4.411   1.999   2.811
 8660SOL     OW26878   6.496   3.981   1.961
 8660SOL    HW126879   6.595   3.973   1.968
 8660SOL    HW226880   6.464   3.934   1.879
 8661SOL     OW26881   6.455   4.288   0.911
 8661SOL    HW126882   6.407   4.343   0.980
 8661SOL    HW226883   6.419   4.309   0.821
 8662SOL     OW26884   4.436   5.485   1.408
 8662SOL    HW126885   4.381   5.559   1.447
 8662SOL    HW226886   4.497   5.522   1.338
 8663SOL     OW26887   2.927   6.117   1.609
 8663SOL    HW126888   2.949   6.140   1.704
 8663SOL    HW226889   2.891   6.024   1.604
 8664SOL     OW26890   1.669   6.239   0.659
 8664SOL    HW126891   1.669   6.290   0.745
 8664SOL    HW226892   1.596   6.170   0.661
 8665SOL     OW26893   5.696   6.168   4.782
 8665SOL    HW126894   5.716   6.082   4.829
 8665SOL    HW226895   5.606   6.201   4.811
 8666SOL     OW26896   5.286   1.339   3.695
 8666SOL    HW126897   5.214   1.340   3.625
 8666SOL    HW226898   5.270   1.411   3.762
 8667SOL     OW26899   4.049   2.023   3.107
 8667SOL    HW126900   4.071   2.019   3.010
 8667SOL    HW226901   3.968   2.081   3.121
 8668SOL     OW26902   4.950   2.922   3.216
 8668SOL    HW126903   4.936   2.967   3.128
 8668SOL    HW226904   4.910   2.978   3.289
 8669SOL     OW26905   1.453   6.386   5.901
 8669SOL    HW126906   1.538   6.333   5.902
 8669SOL    HW226907   1.393   6.354   5.975
 8670SOL     OW26908   3.827   4.649   5.352
 8670SOL    HW126909   3.739   4.606   5.334
 8670SOL    HW226910   3.825   4.744   5.322
 8671SOL     OW26911   5.202   1.831   2.737
 8671SOL    HW126912   5.172   1.739   2.761
 8671SOL    HW226913   5.166   1.896   2.804
 8672SOL     OW26914   1.060   5.486   4.396
 8672SOL    HW126915   1.123   5.486   4.474
 8672SOL    HW226916   0.973   5.528   4.423
 8673SOL     OW26917   5.955   2.793   0.229
 8673SOL    HW126918   6.009   2.715   0.262
 8673SOL    HW226919   6.012   2.874   0.224
 8674SOL     OW26920   5.139   5.842   3.002
 8674SOL    HW126921   5.078   5.921   3.014
 8674SOL    HW226922   5.209   5.843   3.073
 8675SOL     OW26923   3.503   1.954   4.344
 8675SOL    HW126924   3.497   1.965   4.443
 8675SOL    HW226925   3.432   2.009   4.299
 8676SOL     OW26926   4.901   0.184   2.716
 8676SOL    HW126927   4.824   0.184   2.652
 8676SOL    HW226928   4.985   0.202   2.665
 8677SOL     OW26929   2.171   5.160   5.990
 8677SOL    HW126930   2.109   5.146   6.067
 8677SOL    HW226931   2.262   5.183   6.025
 8678SOL     OW26932   0.048   0.343   2.371
 8678SOL    HW126933   0.075   0.355   2.276
 8678SOL    HW226934   0.097   0.264   2.410
 8679SOL     OW26935   0.004   1.936   3.231
 8679SOL    HW126936   0.045   1.852   3.196
 8679SOL    HW226937   0.005   2.006   3.160
 8680SOL     OW26938   0.655   3.592   6.993
 8680SOL    HW126939   0.594   3.546   0.037
 8680SOL    HW226940   0.749   3.587   0.007
 8681SOL     OW26941   5.062   4.854   0.803
 8681SOL    HW126942   5.026   4.930   0.857
 8681SOL    HW226943   5.029   4.860   0.709
 8682SOL     OW26944   5.193   6.460   1.961
 8682SOL    HW126945   5.110   6.429   2.008
 8682SOL    HW226946   5.245   6.520   2.022
 8683SOL     OW26947   2.148   1.683   4.273
 8683SOL    HW126948   2.191   1.642   4.192
 8683SOL    HW226949   2.218   1.723   4.331
 8684SOL     OW26950   6.574   2.944   5.254
 8684SOL    HW126951   6.540   3.038   5.264
 8684SOL    HW226952   6.631   2.921   5.333
 8685SOL     OW26953   0.416   2.300   6.816
 8685SOL    HW126954   0.348   2.371   6.831
 8685SOL    HW226955   0.497   2.339   6.773
 8686SOL     OW26956   0.097   1.293   2.770
 8686SOL    HW126957   0.073   1.201   2.799
 8686SOL    HW226958   0.088   1.301   2.671
 8687SOL     OW26959   5.236   4.701   1.253
 8687SOL    HW126960   5.266   4.606   1.246
 8687SOL    HW226961   5.295   4.751   1.316
 8688SOL     OW26962   1.843   5.229   6.672
 8688SOL    HW126963   1.770   5.239   6.605
 8688SOL    HW226964   1.919   5.179   6.631
 8689SOL     OW26965   3.885   3.661   1.428
 8689SOL    HW126966   3.837   3.740   1.391
 8689SOL    HW226967   3.818   3.592   1.457
 8690SOL     OW26968   1.494   3.840   3.457
 8690SOL    HW126969   1.417   3.805   3.403
 8690SOL    HW226970   1.506   3.784   3.539
 8691SOL     OW26971   2.951   1.935   6.091
 8691SOL    HW126972   2.898   1.909   6.172
 8691SOL    HW226973   2.916   1.886   6.011
 8692SOL     OW26974   2.660   1.134   5.048
 8692SOL    HW126975   2.579   1.168   5.001
 8692SOL    HW226976   2.734   1.121   4.982
 8693SOL     OW26977   5.650   0.874   6.963
 8693SOL    HW126978   5.650   0.847   6.867
 8693SOL    HW226979   5.742   0.866   7.000
 8694SOL     OW26980   4.962   0.519   5.079
 8694SOL    HW126981   5.046   0.487   5.122
 8694SOL    HW226982   4.978   0.533   4.981
 8695SOL     OW26983   4.429   3.518   6.302
 8695SOL    HW126984   4.418   3.442   6.238
 8695SOL    HW226985   4.507   3.574   6.276
 8696SOL     OW26986   1.959   4.900   5.849
 8696SOL    HW126987   1.935   4.862   5.759
 8696SOL    HW226988   2.058   4.895   5.862
 8697SOL     OW26989   0.273   3.257   6.410
 8697SOL    HW126990   0.317   3.346   6.420
 8697SOL    HW226991   0.176   3.270   6.391
 8698SOL     OW26992   5.251   5.674   4.934
 8698SOL    HW126993   5.235   5.610   4.858
 8698SOL    HW226994   5.166   5.686   4.985
 8699SOL     OW26995   1.612   2.256   5.054
 8699SOL    HW126996   1.579   2.190   5.122
 8699SOL    HW226997   1.550   2.257   4.976
 8700SOL     OW26998   1.154   1.570   3.891
 8700SOL    HW126999   1.202   1.600   3.973
 8700SOL    HW227000   1.156   1.643   3.822
 8701SOL     OW27001   1.261   0.937   0.049
 8701SOL    HW127002   1.243   0.853   7.016
 8701SOL    HW227003   1.333   0.920   0.115
 8702SOL     OW27004   5.629   4.791   1.746
 8702SOL    HW127005   5.702   4.852   1.713
 8702SOL    HW227006   5.586   4.746   1.667
 8703SOL     OW27007   2.515   4.512   6.866
 8703SOL    HW127008   2.431   4.493   6.815
 8703SOL    HW227009   2.492   4.554   6.953
 8704SOL     OW27010   0.219   4.245   3.719
 8704SOL    HW127011   0.290   4.183   3.685
 8704SOL    HW227012   0.143   4.247   3.655
 8705SOL     OW27013   5.458   1.068   6.207
 8705SOL    HW127014   5.440   1.161   6.174
 8705SOL    HW227015   5.460   1.005   6.129
 8706SOL     OW27016   4.926   2.318   6.755
 8706SOL    HW127017   4.940   2.416   6.773
 8706SOL    HW227018   4.954   2.296   6.662
 8707SOL     OW27019   6.768   1.416   6.450
 8707SOL    HW127020   6.792   1.337   6.394
 8707SOL    HW227021   6.678   1.401   6.492
 8708SOL     OW27022   4.787   1.787   2.243
 8708SOL    HW127023   4.725   1.831   2.308
 8708SOL    HW227024   4.744   1.781   2.153
 8709SOL     OW27025   0.353   6.526   0.203
 8709SOL    HW127026   0.307   6.614   0.204
 8709SOL    HW227027   0.285   6.453   0.197
 8710SOL     OW27028   2.032   3.125   3.889
 8710SOL    HW127029   2.090   3.044   3.900
 8710SOL    HW227030   2.070   3.183   3.816
 8711SOL     OW27031   2.113   6.755   3.155
 8711SOL    HW127032   2.018   6.738   3.129
 8711SOL    HW227033   2.116   6.828   3.223
 8712SOL     OW27034   3.822   2.155   4.620
 8712SOL    HW127035   3.900   2.192   4.570
 8712SOL    HW227036   3.842   2.155   4.718
 8713SOL     OW27037   6.484   3.176   4.273
 8713SOL    HW127038   6.420   3.151   4.200
 8713SOL    HW227039   6.434   3.185   4.359
 8714SOL     OW27040   0.452   0.543   5.665
 8714SOL    HW127041   0.362   0.580   5.690
 8714SOL    HW227042   0.522   0.611   5.685
 8715SOL     OW27043   4.151   6.648   1.058
 8715SOL    HW127044   4.065   6.671   1.013
 8715SOL    HW227045   4.191   6.567   1.014
 8716SOL     OW27046   6.990   0.356   0.984
 8716SOL    HW127047   0.029   0.431   1.015
 8716SOL    HW227048   6.897   0.370   1.019
 8717SOL     OW27049   2.973   3.270   4.633
 8717SOL    HW127050   2.995   3.172   4.636
 8717SOL    HW227051   3.035   3.321   4.692
 8718SOL     OW27052   1.734   3.340   5.171
 8718SOL    HW127053   1.711   3.431   5.135
 8718SOL    HW227054   1.754   3.278   5.096
 8719SOL     OW27055   3.866   0.181   6.944
 8719SOL    HW127056   3.855   0.123   6.863
 8719SOL    HW227057   3.777   0.217   6.971
 8720SOL     OW27058   6.855   5.197   6.145
 8720SOL    HW127059   6.829   5.185   6.049
 8720SOL    HW227060   6.869   5.295   6.163
 8721SOL     OW27061   6.783   2.733   1.655
 8721SOL    HW127062   6.793   2.831   1.638
 8721SOL    HW227063   6.873   2.689   1.654
 8722SOL     OW27064   3.431   1.293   0.087
 8722SOL    HW127065   3.333   1.277   0.074
 8722SOL    HW227066   3.458   1.377   0.039
 8723SOL     OW27067   5.063   5.912   1.480
 8723SOL    HW127068   5.038   5.818   1.502
 8723SOL    HW227069   4.987   5.973   1.501
 8724SOL     OW27070   4.838   6.705   5.133
 8724SOL    HW127071   4.869   6.721   5.227
 8724SOL    HW227072   4.810   6.791   5.092
 8725SOL     OW27073   1.694   6.240   5.878
 8725SOL    HW127074   1.712   6.143   5.894
 8725SOL    HW227075   1.764   6.278   5.818
 8726SOL     OW27076   6.992   1.684   3.370
 8726SOL    HW127077   0.044   1.754   3.364
 8726SOL    HW227078   6.974   1.664   3.466
 8727SOL     OW27079   6.024   6.882   2.048
 8727SOL    HW127080   6.098   6.818   2.026
 8727SOL    HW227081   5.993   6.866   2.142
 8728SOL     OW27082   6.484   0.617   2.266
 8728SOL    HW127083   6.574   0.602   2.307
 8728SOL    HW227084   6.438   0.528   2.255
 8729SOL     OW27085   3.687   5.657   5.014
 8729SOL    HW127086   3.716   5.617   5.101
 8729SOL    HW227087   3.645   5.586   4.957
 8730SOL     OW27088   6.227   4.643   2.417
 8730SOL    HW127089   6.218   4.616   2.322
 8730SOL    HW227090   6.231   4.561   2.475
 8731SOL     OW27091   1.765   2.754   2.750
 8731SOL    HW127092   1.785   2.743   2.848
 8731SOL    HW227093   1.851   2.766   2.700
 8732SOL     OW27094   5.945   4.712   1.603
 8732SOL    HW127095   5.925   4.808   1.622
 8732SOL    HW227096   5.923   4.657   1.684
 8733SOL     OW27097   2.097   5.247   1.609
 8733SOL    HW127098   2.048   5.162   1.625
 8733SOL    HW227099   2.093   5.271   1.512
 8734SOL     OW27100   0.940   4.453   2.317
 8734SOL    HW127101   0.888   4.531   2.281
 8734SOL    HW227102   0.897   4.368   2.286
 8735SOL     OW27103   0.801   2.370   0.556
 8735SOL    HW127104   0.786   2.420   0.471
 8735SOL    HW227105   0.728   2.392   0.621
 8736SOL     OW27106   0.308   5.667   0.356
 8736SOL    HW127107   0.270   5.576   0.369
 8736SOL    HW227108   0.348   5.675   0.265
 8737SOL     OW27109   1.787   6.500   6.995
 8737SOL    HW127110   1.844   6.562   6.940
 8737SOL    HW227111   1.693   6.532   6.994
 8738SOL     OW27112   2.687   5.472   4.287
 8738SOL    HW127113   2.686   5.373   4.276
 8738SOL    HW227114   2.603   5.502   4.331
 8739SOL     OW27115   6.321   5.803   6.993
 8739SOL    HW127116   6.313   5.765   6.901
 8739SOL    HW227117   6.255   5.758   0.033
 8740SOL     OW27118   4.758   1.308   4.594
 8740SOL    HW127119   4.813   1.316   4.511
 8740SOL    HW227120   4.722   1.215   4.601
 8741SOL     OW27121   2.454   1.119   2.079
 8741SOL    HW127122   2.394   1.054   2.127
 8741SOL    HW227123   2.414   1.210   2.083
 8742SOL     OW27124   4.949   6.290   1.426
 8742SOL    HW127125   4.869   6.339   1.460
 8742SOL    HW227126   5.009   6.268   1.502
 8743SOL     OW27127   2.060   0.068   2.054
 8743SOL    HW127128   2.156   0.092   2.049
 8743SOL    HW227129   2.044   7.001   2.008
 8744SOL     OW27130   4.282   2.837   6.538
 8744SOL    HW127131   4.183   2.837   6.551
 8744SOL    HW227132   4.303   2.842   6.440
 8745SOL     OW27133   6.488   2.357   6.464
 8745SOL    HW127134   6.425   2.284   6.436
 8745SOL    HW227135   6.566   2.316   6.513
 8746SOL     OW27136   4.367   5.525   4.487
 8746SOL    HW127137   4.312   5.530   4.570
 8746SOL    HW227138   4.421   5.441   4.487
 8747SOL     OW27139   0.424   2.727   3.147
 8747SOL    HW127140   0.327   2.730   3.122
 8747SOL    HW227141   0.480   2.726   3.064
 8748SOL     OW27142   6.572   1.327   4.737
 8748SOL    HW127143   6.621   1.329   4.824
 8748SOL    HW227144   6.541   1.420   4.715
 8749SOL     OW27145   2.042   0.045   4.692
 8749SOL    HW127146   2.036   0.016   4.597
 8749SOL    HW227147   2.082   0.137   4.696
 8750SOL     OW27148   3.067   3.880   4.773
 8750SOL    HW127149   3.147   3.823   4.794
 8750SOL    HW227150   3.013   3.891   4.856
 8751SOL     OW27151   5.667   1.474   2.117
 8751SOL    HW127152   5.767   1.474   2.113
 8751SOL    HW227153   5.631   1.526   2.039
 8752SOL     OW27154   3.219   3.229   6.759
 8752SOL    HW127155   3.206   3.326   6.781
 8752SOL    HW227156   3.194   3.174   6.838
 8753SOL     OW27157   3.990   1.839   5.977
 8753SOL    HW127158   3.890   1.843   5.988
 8753SOL    HW227159   4.032   1.905   6.039
 8754SOL     OW27160   2.259   3.598   5.621
 8754SOL    HW127161   2.272   3.512   5.670
 8754SOL    HW227162   2.343   3.652   5.627
 8755SOL     OW27163   2.058   0.939   0.885
 8755SOL    HW127164   2.071   1.003   0.810
 8755SOL    HW227165   2.052   0.989   0.971
 8756SOL     OW27166   0.889   3.172   4.278
 8756SOL    HW127167   0.875   3.073   4.285
 8756SOL    HW227168   0.983   3.195   4.304
 8757SOL     OW27169   3.990   5.879   6.226
 8757SOL    HW127170   3.894   5.908   6.233
 8757SOL    HW227171   4.003   5.795   6.278
 8758SOL     OW27172   4.978   5.822   2.574
 8758SOL    HW127173   5.041   5.749   2.599
 8758SOL    HW227174   4.890   5.806   2.618
 8759SOL     OW27175   5.287   2.793   6.824
 8759SOL    HW127176   5.377   2.750   6.824
 8759SOL    HW227177   5.252   2.797   6.917
 8760SOL     OW27178   2.302   0.680   5.314
 8760SOL    HW127179   2.308   0.590   5.272
 8760SOL    HW227180   2.356   0.745   5.261
 8761SOL     OW27181   6.453   2.138   1.692
 8761SOL    HW127182   6.483   2.149   1.598
 8761SOL    HW227183   6.354   2.125   1.695
 8762SOL     OW27184   1.321   4.019   3.267
 8762SOL    HW127185   1.395   3.953   3.254
 8762SOL    HW227186   1.233   3.974   3.248
 8763SOL     OW27187   6.974   6.345   6.373
 8763SOL    HW127188   7.008   6.389   6.456
 8763SOL    HW227189   0.003   6.382   6.294
 8764SOL     OW27190   5.087   0.030   4.972
 8764SOL    HW127191   5.076   0.091   4.894
 8764SOL    HW227192   5.065   6.956   4.943
 8765SOL     OW27193   4.944   0.080   4.285
 8765SOL    HW127194   4.967   0.079   4.383
 8765SOL    HW227195   4.980   7.017   4.242
 8766SOL     OW27196   4.919   4.726   4.473
 8766SOL    HW127197   4.860   4.797   4.433
 8766SOL    HW227198   4.912   4.643   4.418
 8767SOL     OW27199   4.962   5.253   3.062
 8767SOL    HW127200   4.933   5.307   3.140
 8767SOL    HW227201   4.936   5.157   3.076
 8768SOL     OW27202   1.317   2.467   0.173
 8768SOL    HW127203   1.387   2.501   0.235
 8768SOL    HW227204   1.272   2.387   0.214
 8769SOL     OW27205   6.960   0.653   3.824
 8769SOL    HW127206   6.930   0.571   3.776
 8769SOL    HW227207   6.888   0.722   3.823
 8770SOL     OW27208   4.519   4.533   2.206
 8770SOL    HW127209   4.521   4.461   2.136
 8770SOL    HW227210   4.429   4.576   2.206
 8771SOL     OW27211   1.254   1.754   6.327
 8771SOL    HW127212   1.255   1.654   6.319
 8771SOL    HW227213   1.196   1.792   6.254
 8772SOL     OW27214   5.119   0.571   6.343
 8772SOL    HW127215   5.071   0.505   6.285
 8772SOL    HW227216   5.196   0.609   6.293
 8773SOL     OW27217   5.183   2.235   3.559
 8773SOL    HW127218   5.130   2.315   3.588
 8773SOL    HW227219   5.223   2.253   3.469
 8774SOL     OW27220   1.839   0.875   6.942
 8774SOL    HW127221   1.883   0.823   6.869
 8774SOL    HW227222   1.875   0.845   0.010
 8775SOL     OW27223   5.942   6.623   5.585
 8775SOL    HW127224   5.851   6.647   5.619
 8775SOL    HW227225   6.011   6.650   5.652
 8776SOL     OW27226   3.532   2.760   0.102
 8776SOL    HW127227   3.590   2.709   0.165
 8776SOL    HW227228   3.534   2.717   0.012
 8777SOL     OW27229   6.861   4.221   2.801
 8777SOL    HW127230   6.832   4.314   2.777
 8777SOL    HW227231   6.891   4.219   2.896
 8778SOL     OW27232   5.957   3.299   5.562
 8778SOL    HW127233   5.950   3.353   5.478
 8778SOL    HW227234   5.868   3.292   5.605
 8779SOL     OW27235   2.872   5.186   2.557
 8779SOL    HW127236   2.813   5.148   2.629
 8779SOL    HW227237   2.965   5.199   2.594
 8780SOL     OW27238   0.450   6.187   3.003
 8780SOL    HW127239   0.404   6.108   3.044
 8780SOL    HW227240   0.545   6.191   3.034
 8781SOL     OW27241   5.333   1.044   2.828
 8781SOL    HW127242   5.405   1.067   2.893
 8781SOL    HW227243   5.250   1.018   2.877
 8782SOL     OW27244   6.469   6.576   1.337
 8782SOL    HW127245   6.459   6.665   1.294
 8782SOL    HW227246   6.565   6.549   1.336
 8783SOL     OW27247   6.664   4.550   4.066
 8783SOL    HW127248   6.687   4.460   4.104
 8783SOL    HW227249   6.688   4.621   4.133
 8784SOL     OW27250   6.202   4.112   5.971
 8784SOL    HW127251   6.198   4.106   5.871
 8784SOL    HW227252   6.152   4.036   6.012
 8785SOL     OW27253   5.754   3.717   0.086
 8785SOL    HW127254   5.790   3.656   0.157
 8785SOL    HW227255   5.798   3.806   0.093
 8786SOL     OW27256   2.567   0.761   0.780
 8786SOL    HW127257   2.548   0.719   0.868
 8786SOL    HW227258   2.647   0.719   0.739
 8787SOL     OW27259   3.513   1.470   1.914
 8787SOL    HW127260   3.436   1.470   1.850
 8787SOL    HW227261   3.588   1.416   1.876
 8788SOL     OW27262   6.217   1.000   5.433
 8788SOL    HW127263   6.226   0.974   5.337
 8788SOL    HW227264   6.158   1.080   5.441
 8789SOL     OW27265   6.200   6.590   4.501
 8789SOL    HW127266   6.109   6.582   4.461
 8789SOL    HW227267   6.217   6.512   4.561
 8790SOL     OW27268   0.444   0.230   6.337
 8790SOL    HW127269   0.355   0.252   6.379
 8790SOL    HW227270   0.511   0.300   6.363
 8791SOL     OW27271   5.127   6.325   5.345
 8791SOL    HW127272   5.059   6.359   5.279
 8791SOL    HW227273   5.125   6.383   5.426
 8792SOL     OW27274   2.285   5.736   2.928
 8792SOL    HW127275   2.323   5.655   2.971
 8792SOL    HW227276   2.306   5.736   2.831
 8793SOL     OW27277   1.126   4.565   3.138
 8793SOL    HW127278   1.111   4.469   3.114
 8793SOL    HW227279   1.169   4.570   3.228
 8794SOL     OW27280   4.820   0.188   2.249
 8794SOL    HW127281   4.814   0.092   2.222
 8794SOL    HW227282   4.916   0.218   2.243
 8795SOL     OW27283   1.400   4.739   5.667
 8795SOL    HW127284   1.377   4.812   5.603
 8795SOL    HW227285   1.493   4.754   5.702
 8796SOL     OW27286   3.988   2.179   4.405
 8796SOL    HW127287   4.078   2.139   4.417
 8796SOL    HW227288   3.986   2.236   4.322
 8797SOL     OW27289   6.952   0.303   6.632
 8797SOL    HW127290   6.971   0.218   6.682
 8797SOL    HW227291   6.913   0.281   6.542
 8798SOL     OW27292   5.600   5.702   6.435
 8798SOL    HW127293   5.541   5.721   6.357
 8798SOL    HW227294   5.649   5.616   6.420
 8799SOL     OW27295   2.543   4.514   3.429
 8799SOL    HW127296   2.543   4.534   3.527
 8799SOL    HW227297   2.509   4.421   3.414
 8800SOL     OW27298   6.890   4.181   5.684
 8800SOL    HW127299   6.900   4.280   5.677
 8800SOL    HW227300   6.957   4.145   5.750
 8801SOL     OW27301   6.935   1.090   5.106
 8801SOL    HW127302   6.870   1.137   5.166
 8801SOL    HW227303   6.906   0.996   5.092
 8802SOL     OW27304   2.014   0.188   0.102
 8802SOL    HW127305   2.052   0.208   0.011
 8802SOL    HW227306   2.079   0.132   0.152
 8803SOL     OW27307   6.886   6.133   0.003
 8803SOL    HW127308   6.814   6.064   7.015
 8803SOL    HW227309   6.860   6.201   0.072
 8804SOL     OW27310   2.527   6.832   2.023
 8804SOL    HW127311   2.463   6.854   2.097
 8804SOL    HW227312   2.507   6.890   1.944
 8805SOL     OW27313   2.958   6.188   3.530
 8805SOL    HW127314   2.933   6.112   3.589
 8805SOL    HW227315   2.932   6.167   3.436
 8806SOL     OW27316   3.141   4.877   2.209
 8806SOL    HW127317   3.062   4.816   2.211
 8806SOL    HW227318   3.212   4.839   2.150
 8807SOL     OW27319   4.979   0.386   0.240
 8807SOL    HW127320   4.941   0.437   0.317
 8807SOL    HW227321   4.978   0.443   0.158
 8808SOL     OW27322   6.223   2.458   6.797
 8808SOL    HW127323   6.267   2.374   6.765
 8808SOL    HW227324   6.135   2.436   6.839
 8809SOL     OW27325   4.553   5.363   3.225
 8809SOL    HW127326   4.624   5.420   3.184
 8809SOL    HW227327   4.470   5.417   3.236
 8810SOL     OW27328   6.223   0.550   5.022
 8810SOL    HW127329   6.293   0.579   4.956
 8810SOL    HW227330   6.256   0.570   5.115
 8811SOL     OW27331   3.466   0.678   2.729
 8811SOL    HW127332   3.461   0.731   2.645
 8811SOL    HW227333   3.552   0.697   2.775
 8812SOL     OW27334   1.768   0.719   0.534
 8812SOL    HW127335   1.841   0.713   0.601
 8812SOL    HW227336   1.802   0.765   0.452
 8813SOL     OW27337   2.221   4.872   1.760
 8813SOL    HW127338   2.147   4.933   1.790
 8813SOL    HW227339   2.245   4.810   1.835
 8814SOL     OW27340   6.101   6.939   0.969
 8814SOL    HW127341   6.001   6.942   0.970
 8814SOL    HW227342   6.134   6.877   1.040
 8815SOL     OW27343   5.793   6.914   0.975
 8815SOL    HW127344   5.764   6.987   1.036
 8815SOL    HW227345   5.768   6.825   1.014
 8816SOL     OW27346   1.376   6.610   0.374
 8816SOL    HW127347   1.464   6.584   0.413
 8816SOL    HW227348   1.302   6.566   0.425
 8817SOL     OW27349   0.306   4.942   3.862
 8817SOL    HW127350   0.336   4.857   3.905
 8817SOL    HW227351   0.290   5.011   3.933
 8818SOL     OW27352   0.375   4.744   4.770
 8818SOL    HW127353   0.415   4.667   4.818
 8818SOL    HW227354   0.439   4.821   4.771
 8819SOL     OW27355   5.651   5.507   5.412
 8819SOL    HW127356   5.740   5.467   5.392
 8819SOL    HW227357   5.580   5.438   5.398
 8820SOL     OW27358   2.540   0.143   5.048
 8820SOL    HW127359   2.464   0.083   5.024
 8820SOL    HW227360   2.531   0.230   4.999
 8821SOL     OW27361   1.829   6.078   0.487
 8821SOL    HW127362   1.780   6.134   0.554
 8821SOL    HW227363   1.790   5.986   0.487
 8822SOL     OW27364   0.380   0.321   3.966
 8822SOL    HW127365   0.377   0.302   3.867
 8822SOL    HW227366   0.396   0.418   3.981
 8823SOL     OW27367   2.330   1.010   2.649
 8823SOL    HW127368   2.402   1.074   2.675
 8823SOL    HW227369   2.347   0.975   2.557
 8824SOL     OW27370   1.547   2.163   0.242
 8824SOL    HW127371   1.502   2.137   0.327
 8824SOL    HW227372   1.645   2.148   0.250
 8825SOL     OW27373   2.075   1.095   2.022
 8825SOL    HW127374   1.981   1.064   2.007
 8825SOL    HW227375   2.079   1.146   2.108
 8826SOL     OW27376   0.044   3.862   0.192
 8826SOL    HW127377   0.008   3.913   0.114
 8826SOL    HW227378   0.025   3.914   0.276
 8827SOL     OW27379   4.573   1.577   1.595
 8827SOL    HW127380   4.503   1.625   1.647
 8827SOL    HW227381   4.561   1.598   1.498
 8828SOL     OW27382   3.915   5.821   5.971
 8828SOL    HW127383   3.987   5.824   5.902
 8828SOL    HW227384   3.957   5.817   6.062
 8829SOL     OW27385   5.102   2.869   0.972
 8829SOL    HW127386   5.135   2.846   1.063
 8829SOL    HW227387   5.178   2.869   0.907
 8830SOL     OW27388   1.504   2.226   2.589
 8830SOL    HW127389   1.484   2.229   2.687
 8830SOL    HW227390   1.554   2.143   2.567
 8831SOL     OW27391   4.465   2.537   4.248
 8831SOL    HW127392   4.418   2.463   4.296
 8831SOL    HW227393   4.426   2.548   4.157
 8832SOL     OW27394   0.090   6.983   2.895
 8832SOL    HW127395   0.020   6.932   2.946
 8832SOL    HW227396   0.180   6.947   2.918
 8833SOL     OW27397   2.224   5.158   5.719
 8833SOL    HW127398   2.305   5.215   5.732
 8833SOL    HW227399   2.162   5.170   5.797
 8834SOL     OW27400   5.698   4.168   4.789
 8834SOL    HW127401   5.781   4.112   4.786
 8834SOL    HW227402   5.622   4.114   4.826
 8835SOL     OW27403   4.403   0.765   5.609
 8835SOL    HW127404   4.464   0.837   5.642
 8835SOL    HW227405   4.310   0.786   5.636
 8836SOL     OW27406   4.761   1.922   0.375
 8836SOL    HW127407   4.796   1.880   0.291
 8836SOL    HW227408   4.670   1.960   0.358
 8837SOL     OW27409   6.942   6.296   2.509
 8837SOL    HW127410   6.929   6.386   2.468
 8837SOL    HW227411   0.019   6.271   2.507
 8838SOL     OW27412   2.239   5.511   3.427
 8838SOL    HW127413   2.169   5.572   3.390
 8838SOL    HW227414   2.209   5.475   3.515
 8839SOL     OW27415   5.591   5.584   1.826
 8839SOL    HW127416   5.525   5.527   1.875
 8839SOL    HW227417   5.680   5.538   1.823
 8840SOL     OW27418   0.252   1.808   2.680
 8840SOL    HW127419   0.338   1.805   2.732
 8840SOL    HW227420   0.192   1.734   2.710
 8841SOL     OW27421   0.353   1.083   4.770
 8841SOL    HW127422   0.304   1.039   4.845
 8841SOL    HW227423   0.429   1.026   4.741
 8842SOL     OW27424   3.571   2.871   2.476
 8842SOL    HW127425   3.630   2.903   2.550
 8842SOL    HW227426   3.598   2.779   2.449
 8843SOL     OW27427   2.136   3.342   5.793
 8843SOL    HW127428   2.139   3.354   5.892
 8843SOL    HW227429   2.153   3.246   5.770
 8844SOL     OW27430   0.091   1.365   6.220
 8844SOL    HW127431   0.054   1.458   6.214
 8844SOL    HW227432   0.152   1.359   6.298
 8845SOL     OW27433   3.599   3.839   0.909
 8845SOL    HW127434   3.505   3.843   0.942
 8845SOL    HW227435   3.609   3.762   0.845
 8846SOL     OW27436   3.384   5.418   3.761
 8846SOL    HW127437   3.329   5.394   3.841
 8846SOL    HW227438   3.416   5.512   3.770
 8847SOL     OW27439   2.336   0.959   2.964
 8847SOL    HW127440   2.305   1.003   2.880
 8847SOL    HW227441   2.316   0.861   2.960
 8848SOL     OW27442   3.099   2.089   2.387
 8848SOL    HW127443   3.005   2.107   2.360
 8848SOL    HW227444   3.101   2.053   2.480
 8849SOL     OW27445   3.103   6.339   3.136
 8849SOL    HW127446   3.044   6.295   3.068
 8849SOL    HW227447   3.197   6.307   3.125
 8850SOL     OW27448   1.586   1.787   6.956
 8850SOL    HW127449   1.514   1.762   6.892
 8850SOL    HW227450   1.609   1.708   7.013
 8851SOL     OW27451   1.340   5.705   2.033
 8851SOL    HW127452   1.322   5.620   2.081
 8851SOL    HW227453   1.414   5.755   2.079
 8852SOL     OW27454   5.477   3.161   5.882
 8852SOL    HW127455   5.451   3.198   5.793
 8852SOL    HW227456   5.507   3.066   5.871
 8853SOL     OW27457   3.003   1.595   0.543
 8853SOL    HW127458   2.997   1.671   0.478
 8853SOL    HW227459   3.077   1.611   0.608
 8854SOL     OW27460   3.336   1.573   5.481
 8854SOL    HW127461   3.300   1.613   5.566
 8854SOL    HW227462   3.275   1.597   5.405
 8855SOL     OW27463   0.164   6.192   1.370
 8855SOL    HW127464   0.207   6.190   1.460
 8855SOL    HW227465   0.079   6.140   1.372
 8856SOL     OW27466   0.145   6.489   6.535
 8856SOL    HW127467   0.172   6.563   6.473
 8856SOL    HW227468   0.221   6.426   6.546
 8857SOL     OW27469   6.755   1.859   4.037
 8857SOL    HW127470   6.741   1.892   3.943
 8857SOL    HW227471   6.681   1.892   4.096
 8858SOL     OW27472   0.791   2.884   5.652
 8858SOL    HW127473   0.742   2.798   5.658
 8858SOL    HW227474   0.886   2.867   5.628
 8859SOL     OW27475   0.384   0.635   3.962
 8859SOL    HW127476   0.292   0.611   3.993
 8859SOL    HW227477   0.378   0.678   3.872
 8860SOL     OW27478   0.077   2.897   2.780
 8860SOL    HW127479   0.078   2.982   2.727
 8860SOL    HW227480   7.003   2.875   2.807
 8861SOL     OW27481   4.129   1.406   5.752
 8861SOL    HW127482   4.125   1.373   5.846
 8861SOL    HW227483   4.049   1.463   5.733
 8862SOL     OW27484   5.906   0.582   3.970
 8862SOL    HW127485   5.898   0.656   3.904
 8862SOL    HW227486   5.936   0.618   4.058
 8863SOL     OW27487   1.275   4.888   4.458
 8863SOL    HW127488   1.242   4.933   4.374
 8863SOL    HW227489   1.196   4.863   4.514
 8864SOL     OW27490   3.326   4.806   6.348
 8864SOL    HW127491   3.416   4.828   6.385
 8864SOL    HW227492   3.294   4.881   6.291
 8865SOL     OW27493   3.204   0.472   6.205
 8865SOL    HW127494   3.137   0.449   6.134
 8865SOL    HW227495   3.268   0.540   6.168
 8866SOL     OW27496   5.135   0.474   3.080
 8866SOL    HW127497   5.105   0.379   3.082
 8866SOL    HW227498   5.161   0.499   2.986
 8867SOL     OW27499   5.900   4.482   2.763
 8867SOL    HW127500   5.862   4.393   2.786
 8867SOL    HW227501   5.882   4.502   2.666
 8868SOL     OW27502   6.727   2.495   1.005
 8868SOL    HW127503   6.731   2.537   1.095
 8868SOL    HW227504   6.737   2.565   0.934
 8869SOL     OW27505   4.132   5.799   4.546
 8869SOL    HW127506   4.154   5.703   4.567
 8869SOL    HW227507   4.036   5.806   4.520
 8870SOL     OW27508   3.120   0.815   0.756
 8870SOL    HW127509   3.195   0.881   0.756
 8870SOL    HW227510   3.149   0.731   0.712
 8871SOL     OW27511   2.065   0.938   4.243
 8871SOL    HW127512   2.039   1.023   4.288
 8871SOL    HW227513   2.144   0.953   4.185
 8872SOL     OW27514   1.542   4.180   4.938
 8872SOL    HW127515   1.453   4.183   4.983
 8872SOL    HW227516   1.560   4.268   4.893
 8873SOL     OW27517   1.097   6.945   1.970
 8873SOL    HW127518   1.032   7.004   2.018
 8873SOL    HW227519   1.171   6.920   2.032
 8874SOL     OW27520   1.689   6.139   2.313
 8874SOL    HW127521   1.788   6.130   2.306
 8874SOL    HW227522   1.648   6.137   2.222
 8875SOL     OW27523   0.252   3.786   5.329
 8875SOL    HW127524   0.165   3.793   5.376
 8875SOL    HW227525   0.305   3.869   5.346
 8876SOL     OW27526   2.409   6.472   5.040
 8876SOL    HW127527   2.331   6.515   4.995
 8876SOL    HW227528   2.491   6.526   5.023
 8877SOL     OW27529   3.186   1.572   3.994
 8877SOL    HW127530   3.112   1.509   4.016
 8877SOL    HW227531   3.148   1.661   3.968
 8878SOL     OW27532   6.418   4.580   0.525
 8878SOL    HW127533   6.398   4.528   0.442
 8878SOL    HW227534   6.374   4.669   0.521
 8879SOL     OW27535   5.014   4.848   2.965
 8879SOL    HW127536   4.936   4.804   2.920
 8879SOL    HW227537   5.085   4.780   2.982
 8880SOL     OW27538   5.438   6.199   4.875
 8880SOL    HW127539   5.422   6.105   4.843
 8880SOL    HW227540   5.350   6.245   4.887
 8881SOL     OW27541   5.445   6.585   3.994
 8881SOL    HW127542   5.531   6.563   4.041
 8881SOL    HW227543   5.413   6.504   3.944
 8882SOL     OW27544   5.614   1.142   1.040
 8882SOL    HW127545   5.696   1.128   0.985
 8882SOL    HW227546   5.619   1.084   1.122
 8883SOL     OW27547   1.300   6.319   6.111
 8883SOL    HW127548   1.209   6.353   6.132
 8883SOL    HW227549   1.328   6.253   6.181
 8884SOL     OW27550   6.696   4.054   6.152
 8884SOL    HW127551   6.729   3.990   6.083
 8884SOL    HW227552   6.599   4.040   6.168
 8885SOL     OW27553   6.310   3.422   1.727
 8885SOL    HW127554   6.223   3.464   1.753
 8885SOL    HW227555   6.375   3.430   1.804
 8886SOL     OW27556   2.740   6.807   4.677
 8886SOL    HW127557   2.790   6.797   4.763
 8886SOL    HW227558   2.687   6.725   4.658
 8887SOL     OW27559   3.967   0.376   0.698
 8887SOL    HW127560   3.967   0.289   0.747
 8887SOL    HW227561   4.061   0.408   0.687
 8888SOL     OW27562   1.896   1.769   5.889
 8888SOL    HW127563   1.942   1.855   5.866
 8888SOL    HW227564   1.797   1.781   5.882
 8889SOL     OW27565   6.795   0.511   6.383
 8889SOL    HW127566   6.698   0.533   6.374
 8889SOL    HW227567   6.808   0.412   6.375
 8890SOL     OW27568   6.572   5.878   4.312
 8890SOL    HW127569   6.585   5.957   4.253
 8890SOL    HW227570   6.638   5.881   4.387
 8891SOL     OW27571   4.389   3.428   6.919
 8891SOL    HW127572   4.410   3.388   6.830
 8891SOL    HW227573   4.398   3.358   6.990
 8892SOL     OW27574   3.362   5.391   3.179
 8892SOL    HW127575   3.406   5.339   3.106
 8892SOL    HW227576   3.427   5.405   3.254
 8893SOL     OW27577   0.730   5.674   3.837
 8893SOL    HW127578   0.704   5.672   3.933
 8893SOL    HW227579   0.682   5.749   3.791
 8894SOL     OW27580   3.827   2.355   6.530
 8894SOL    HW127581   3.810   2.453   6.541
 8894SOL    HW227582   3.762   2.303   6.584
 8895SOL     OW27583   6.292   2.873   2.079
 8895SOL    HW127584   6.245   2.898   1.994
 8895SOL    HW227585   6.373   2.819   2.058
 8896SOL     OW27586   2.793   3.355   5.368
 8896SOL    HW127587   2.871   3.337   5.309
 8896SOL    HW227588   2.730   3.277   5.364
 8897SOL     OW27589   2.135   3.098   3.317
 8897SOL    HW127590   2.176   3.120   3.405
 8897SOL    HW227591   2.045   3.057   3.331
 8898SOL     OW27592   5.108   2.777   2.535
 8898SOL    HW127593   5.183   2.719   2.504
 8898SOL    HW227594   5.033   2.720   2.568
 8899SOL     OW27595   1.610   5.606   1.450
 8899SOL    HW127596   1.533   5.543   1.462
 8899SOL    HW227597   1.612   5.671   1.526
 8900SOL     OW27598   5.613   2.793   3.020
 8900SOL    HW127599   5.639   2.777   2.925
 8900SOL    HW227600   5.665   2.733   3.080
 8901SOL     OW27601   1.926   0.735   5.015
 8901SOL    HW127602   1.897   0.762   4.923
 8901SOL    HW227603   1.947   0.638   5.016
 8902SOL     OW27604   2.046   6.641   0.471
 8902SOL    HW127605   2.020   6.716   0.532
 8902SOL    HW227606   1.993   6.648   0.386
 8903SOL     OW27607   0.361   1.615   4.894
 8903SOL    HW127608   0.367   1.708   4.858
 8903SOL    HW227609   0.384   1.549   4.823
 8904SOL     OW27610   6.541   0.077   4.296
 8904SOL    HW127611   6.589   0.033   4.220
 8904SOL    HW227612   6.565   0.175   4.297
 8905SOL     OW27613   1.436   4.074   3.993
 8905SOL    HW127614   1.494   4.096   3.915
 8905SOL    HW227615   1.445   3.976   4.014
 8906SOL     OW27616   0.513   6.406   6.708
 8906SOL    HW127617   0.453   6.362   6.641
 8906SOL    HW227618   0.461   6.426   6.791
 8907SOL     OW27619   2.611   2.459   5.358
 8907SOL    HW127620   2.543   2.510   5.304
 8907SOL    HW227621   2.675   2.414   5.296
 8908SOL     OW27622   1.163   4.865   0.146
 8908SOL    HW127623   1.150   4.960   0.174
 8908SOL    HW227624   1.220   4.861   0.063
 8909SOL     OW27625   2.582   0.980   6.015
 8909SOL    HW127626   2.494   1.005   5.975
 8909SOL    HW227627   2.568   0.941   6.106
 8910SOL     OW27628   6.947   2.538   5.401
 8910SOL    HW127629   6.871   2.474   5.412
 8910SOL    HW227630   6.913   2.624   5.364
 8911SOL     OW27631   4.201   2.250   4.819
 8911SOL    HW127632   4.250   2.285   4.739
 8911SOL    HW227633   4.197   2.321   4.889
 8912SOL     OW27634   3.266   3.527   6.558
 8912SOL    HW127635   3.224   3.528   6.648
 8912SOL    HW227636   3.319   3.611   6.545
 8913SOL     OW27637   4.879   5.035   5.855
 8913SOL    HW127638   4.894   5.009   5.760
 8913SOL    HW227639   4.959   5.009   5.909
 8914SOL     OW27640   4.468   0.516   4.954
 8914SOL    HW127641   4.538   0.453   4.989
 8914SOL    HW227642   4.377   0.480   4.976
 8915SOL     OW27643   0.475   2.972   4.070
 8915SOL    HW127644   0.491   2.914   3.990
 8915SOL    HW227645   0.398   3.033   4.053
 8916SOL     OW27646   6.617   2.844   0.419
 8916SOL    HW127647   6.624   2.785   0.339
 8916SOL    HW227648   6.688   2.914   0.415
 8917SOL     OW27649   6.706   3.291   6.918
 8917SOL    HW127650   6.624   3.235   6.914
 8917SOL    HW227651   6.763   3.262   6.995
 8918SOL     OW27652   6.414   4.011   1.047
 8918SOL    HW127653   6.394   4.044   1.139
 8918SOL    HW227654   6.464   4.080   0.996
 8919SOL     OW27655   4.111   3.898   0.844
 8919SOL    HW127656   4.067   3.814   0.813
 8919SOL    HW227657   4.205   3.878   0.871
 8920SOL     OW27658   0.108   1.069   6.829
 8920SOL    HW127659   0.104   1.162   6.793
 8920SOL    HW227660   0.056   1.063   6.914
 8921SOL     OW27661   2.308   2.030   2.193
 8921SOL    HW127662   2.209   2.035   2.206
 8921SOL    HW227663   2.347   2.121   2.203
 8922SOL     OW27664   4.469   4.843   1.179
 8922SOL    HW127665   4.551   4.797   1.214
 8922SOL    HW227666   4.390   4.781   1.187
 8923SOL     OW27667   1.657   2.227   6.370
 8923SOL    HW127668   1.577   2.272   6.409
 8923SOL    HW227669   1.728   2.295   6.351
 8924SOL     OW27670   3.613   5.332   4.977
 8924SOL    HW127671   3.536   5.268   4.968
 8924SOL    HW227672   3.639   5.366   4.887
 8925SOL     OW27673   0.879   2.135   3.155
 8925SOL    HW127674   0.825   2.088   3.225
 8925SOL    HW227675   0.939   2.070   3.109
 8926SOL     OW27676   6.448   3.166   5.790
 8926SOL    HW127677   6.415   3.259   5.771
 8926SOL    HW227678   6.395   3.101   5.736
 8927SOL     OW27679   6.894   1.237   4.838
 8927SOL    HW127680   6.919   1.192   4.752
 8927SOL    HW227681   6.925   1.181   4.915
 8928SOL     OW27682   0.650   0.059   6.178
 8928SOL    HW127683   0.560   0.098   6.199
 8928SOL    HW227684   0.643   6.979   6.178
 8929SOL     OW27685   5.904   2.444   4.116
 8929SOL    HW127686   5.979   2.379   4.128
 8929SOL    HW227687   5.833   2.403   4.058
 8930SOL     OW27688   1.720   3.383   4.093
 8930SOL    HW127689   1.776   3.466   4.099
 8930SOL    HW227690   1.624   3.406   4.111
 8931SOL     OW27691   2.239   3.412   0.675
 8931SOL    HW127692   2.248   3.422   0.774
 8931SOL    HW227693   2.187   3.490   0.639
 8932SOL     OW27694   6.461   1.441   1.293
 8932SOL    HW127695   6.502   1.352   1.311
 8932SOL    HW227696   6.485   1.471   1.201
 8933SOL     OW27697   2.307   2.799   6.038
 8933SOL    HW127698   2.221   2.754   6.065
 8933SOL    HW227699   2.380   2.771   6.100
 8934SOL     OW27700   3.106   4.878   4.223
 8934SOL    HW127701   3.057   4.799   4.262
 8934SOL    HW227702   3.160   4.922   4.294
 8935SOL     OW27703   0.011   4.348   0.651
 8935SOL    HW127704   0.039   4.277   0.716
 8935SOL    HW227705   6.931   4.350   0.645
 8936SOL     OW27706   1.527   3.072   3.024
 8936SOL    HW127707   1.537   2.975   3.045
 8936SOL    HW227708   1.576   3.093   2.939
 8937SOL     OW27709   0.065   0.240   4.730
 8937SOL    HW127710   0.003   0.208   4.658
 8937SOL    HW227711   0.084   0.337   4.718
 8938SOL     OW27712   0.227   0.138   0.574
 8938SOL    HW127713   0.155   0.207   0.580
 8938SOL    HW227714   0.232   0.088   0.660
 8939SOL     OW27715   6.124   4.415   4.328
 8939SOL    HW127716   6.056   4.488   4.331
 8939SOL    HW227717   6.213   4.451   4.355
 8940SOL     OW27718   6.428   0.886   2.367
 8940SOL    HW127719   6.473   0.814   2.314
 8940SOL    HW227720   6.364   0.936   2.308
 8941SOL     OW27721   5.538   2.486   4.705
 8941SOL    HW127722   5.497   2.577   4.720
 8941SOL    HW227723   5.541   2.467   4.607
 8942SOL     OW27724   6.167   5.440   5.847
 8942SOL    HW127725   6.231   5.468   5.918
 8942SOL    HW227726   6.215   5.432   5.759
 8943SOL     OW27727   3.858   5.284   0.718
 8943SOL    HW127728   3.910   5.204   0.689
 8943SOL    HW227729   3.761   5.259   0.730
 8944SOL     OW27730   5.219   5.350   5.085
 8944SOL    HW127731   5.163   5.346   5.003
 8944SOL    HW227732   5.199   5.434   5.136
 8945SOL     OW27733   1.061   1.103   3.046
 8945SOL    HW127734   1.036   1.071   2.955
 8945SOL    HW227735   1.082   1.024   3.104
 8946SOL     OW27736   2.667   1.693   4.382
 8946SOL    HW127737   2.733   1.648   4.323
 8946SOL    HW227738   2.574   1.665   4.355
 8947SOL     OW27739   2.514   3.456   5.711
 8947SOL    HW127740   2.508   3.555   5.707
 8947SOL    HW227741   2.606   3.427   5.683
 8948SOL     OW27742   6.412   5.759   4.086
 8948SOL    HW127743   6.463   5.736   4.169
 8948SOL    HW227744   6.376   5.852   4.094
 8949SOL     OW27745   3.391   5.698   0.613
 8949SOL    HW127746   3.332   5.631   0.568
 8949SOL    HW227747   3.438   5.655   0.690
 8950SOL     OW27748   4.518   4.156   6.602
 8950SOL    HW127749   4.426   4.177   6.633
 8950SOL    HW227750   4.520   4.154   6.502
 8951SOL     OW27751   1.664   0.658   4.489
 8951SOL    HW127752   1.613   0.714   4.554
 8951SOL    HW227753   1.703   0.716   4.418
 8952SOL     OW27754   0.675   5.736   2.454
 8952SOL    HW127755   0.735   5.788   2.393
 8952SOL    HW227756   0.687   5.638   2.437
 8953SOL     OW27757   1.513   3.723   0.374
 8953SOL    HW127758   1.431   3.723   0.432
 8953SOL    HW227759   1.563   3.808   0.388
 8954SOL     OW27760   6.775   6.855   4.490
 8954SOL    HW127761   6.803   6.814   4.577
 8954SOL    HW227762   6.678   6.879   4.494
 8955SOL     OW27763   6.945   5.846   2.586
 8955SOL    HW127764   6.958   5.811   2.493
 8955SOL    HW227765   0.014   5.853   2.631
 8956SOL     OW27766   2.067   1.397   6.416
 8956SOL    HW127767   2.148   1.341   6.435
 8956SOL    HW227768   2.095   1.485   6.379
 8957SOL     OW27769   1.506   4.299   1.309
 8957SOL    HW127770   1.518   4.395   1.334
 8957SOL    HW227771   1.583   4.269   1.253
 8958SOL     OW27772   0.383   1.840   4.739
 8958SOL    HW127773   0.308   1.906   4.742
 8958SOL    HW227774   0.470   1.889   4.738
 8959SOL     OW27775   1.480   4.114   1.905
 8959SOL    HW127776   1.382   4.132   1.895
 8959SOL    HW227777   1.505   4.034   1.850
 8960SOL     OW27778   4.140   5.745   3.061
 8960SOL    HW127779   4.163   5.651   3.037
 8960SOL    HW227780   4.114   5.796   2.979
 8961SOL     OW27781   3.280   0.924   3.833
 8961SOL    HW127782   3.292   0.968   3.744
 8961SOL    HW227783   3.226   0.841   3.822
 8962SOL     OW27784   6.418   5.633   2.673
 8962SOL    HW127785   6.358   5.566   2.717
 8962SOL    HW227786   6.368   5.718   2.658
 8963SOL     OW27787   4.388   0.025   5.035
 8963SOL    HW127788   4.358   6.959   4.994
 8963SOL    HW227789   4.384   0.018   5.135
 8964SOL     OW27790   5.251   3.708   3.276
 8964SOL    HW127791   5.159   3.702   3.236
 8964SOL    HW227792   5.244   3.727   3.374
 8965SOL     OW27793   2.574   5.323   0.880
 8965SOL    HW127794   2.637   5.319   0.958
 8965SOL    HW227795   2.543   5.417   0.867
 8966SOL     OW27796   6.607   4.114   0.304
 8966SOL    HW127797   6.575   4.089   0.396
 8966SOL    HW227798   6.666   4.042   0.269
 8967SOL     OW27799   3.978   0.411   1.530
 8967SOL    HW127800   4.002   0.327   1.579
 8967SOL    HW227801   3.918   0.389   1.453
 8968SOL     OW27802   4.741   5.492   3.089
 8968SOL    HW127803   4.795   5.565   3.131
 8968SOL    HW227804   4.733   5.509   2.991
 8969SOL     OW27805   6.511   0.701   4.397
 8969SOL    HW127806   6.465   0.789   4.410
 8969SOL    HW227807   6.468   0.632   4.456
 8970SOL     OW27808   2.528   3.142   6.676
 8970SOL    HW127809   2.482   3.191   6.750
 8970SOL    HW227810   2.626   3.162   6.680
 8971SOL     OW27811   6.200   5.210   1.664
 8971SOL    HW127812   6.185   5.131   1.604
 8971SOL    HW227813   6.261   5.184   1.738
 8972SOL     OW27814   5.141   3.229   6.805
 8972SOL    HW127815   5.108   3.177   6.884
 8972SOL    HW227816   5.192   3.309   6.836
 8973SOL     OW27817   0.736   3.731   3.158
 8973SOL    HW127818   0.745   3.831   3.158
 8973SOL    HW227819   0.731   3.698   3.252
 8974SOL     OW27820   0.975   4.516   4.742
 8974SOL    HW127821   1.052   4.545   4.798
 8974SOL    HW227822   0.889   4.543   4.786
 8975SOL     OW27823   1.333   6.247   6.387
 8975SOL    HW127824   1.276   6.283   6.462
 8975SOL    HW227825   1.343   6.148   6.397
 8976SOL     OW27826   0.262   5.822   6.427
 8976SOL    HW127827   0.197   5.824   6.503
 8976SOL    HW227828   0.264   5.911   6.382
 8977SOL     OW27829   0.160   3.292   6.696
 8977SOL    HW127830   0.177   3.267   6.601
 8977SOL    HW227831   0.193   3.219   6.756
 8978SOL     OW27832   5.395   6.453   3.770
 8978SOL    HW127833   5.407   6.354   3.765
 8978SOL    HW227834   5.431   6.495   3.687
 8979SOL     OW27835   1.362   4.174   4.677
 8979SOL    HW127836   1.381   4.111   4.601
 8979SOL    HW227837   1.428   4.159   4.750
 8980SOL     OW27838   4.246   2.952   5.365
 8980SOL    HW127839   4.148   2.963   5.349
 8980SOL    HW227840   4.276   2.861   5.338
 8981SOL     OW27841   4.336   0.910   5.972
 8981SOL    HW127842   4.367   1.005   5.968
 8981SOL    HW227843   4.414   0.848   5.964
 8982SOL     OW27844   1.627   2.142   1.896
 8982SOL    HW127845   1.587   2.232   1.914
 8982SOL    HW227846   1.638   2.093   1.983
 8983SOL     OW27847   1.208   5.701   6.809
 8983SOL    HW127848   1.275   5.659   6.871
 8983SOL    HW227849   1.126   5.724   6.861
 8984SOL     OW27850   6.559   0.003   3.691
 8984SOL    HW127851   6.554   6.935   3.644
 8984SOL    HW227852   6.568   0.076   3.623
 8985SOL     OW27853   2.324   1.763   0.738
 8985SOL    HW127854   2.345   1.860   0.752
 8985SOL    HW227855   2.390   1.725   0.673
 8986SOL     OW27856   3.957   5.260   1.809
 8986SOL    HW127857   3.993   5.200   1.881
 8986SOL    HW227858   3.975   5.355   1.833
 8987SOL     OW27859   5.067   0.035   0.495
 8987SOL    HW127860   5.158   0.057   0.461
 8987SOL    HW227861   5.001   0.041   0.420
 8988SOL     OW27862   1.407   3.811   6.535
 8988SOL    HW127863   1.502   3.788   6.552
 8988SOL    HW227864   1.352   3.727   6.529
 8989SOL     OW27865   5.260   4.458   2.234
 8989SOL    HW127866   5.274   4.359   2.222
 8989SOL    HW227867   5.163   4.475   2.254
 8990SOL     OW27868   2.150   5.722   2.119
 8990SOL    HW127869   2.122   5.673   2.036
 8990SOL    HW227870   2.213   5.796   2.094
 8991SOL     OW27871   2.183   2.130   0.434
 8991SOL    HW127872   2.164   2.071   0.512
 8991SOL    HW227873   2.119   2.207   0.434
 8992SOL     OW27874   6.517   2.135   6.976
 8992SOL    HW127875   6.514   2.176   0.048
 8992SOL    HW227876   6.597   2.076   6.968
 8993SOL     OW27877   4.800   2.434   2.430
 8993SOL    HW127878   4.849   2.347   2.428
 8993SOL    HW227879   4.757   2.451   2.342
 8994SOL     OW27880   0.849   5.158   4.886
 8994SOL    HW127881   0.799   5.163   4.800
 8994SOL    HW227882   0.852   5.063   4.918
 8995SOL     OW27883   1.110   2.497   6.525
 8995SOL    HW127884   1.200   2.509   6.566
 8995SOL    HW227885   1.110   2.531   6.431
 8996SOL     OW27886   6.712   5.446   1.649
 8996SOL    HW127887   6.679   5.465   1.556
 8996SOL    HW227888   6.662   5.367   1.686
 8997SOL     OW27889   4.206   1.347   6.305
 8997SOL    HW127890   4.219   1.301   6.393
 8997SOL    HW227891   4.282   1.410   6.289
 8998SOL     OW27892   6.456   3.452   4.782
 8998SOL    HW127893   6.510   3.445   4.698
 8998SOL    HW227894   6.410   3.540   4.785
 8999SOL     OW27895   5.181   6.832   6.896
 8999SOL    HW127896   5.248   6.893   6.938
 8999SOL    HW227897   5.191   6.834   6.797
 9000SOL     OW27898   2.461   4.541   0.599
 9000SOL    HW127899   2.542   4.578   0.553
 9000SOL    HW227900   2.453   4.443   0.580
 9001SOL     OW27901   1.287   5.701   2.732
 9001SOL    HW127902   1.373   5.750   2.745
 9001SOL    HW227903   1.222   5.760   2.683
 9002SOL     OW27904   6.929   5.095   5.019
 9002SOL    HW127905   6.991   5.024   4.985
 9002SOL    HW227906   6.914   5.083   5.117
 9003SOL     OW27907   5.258   2.850   1.589
 9003SOL    HW127908   5.181   2.908   1.616
 9003SOL    HW227909   5.268   2.775   1.654
 9004SOL     OW27910   4.949   6.434   0.906
 9004SOL    HW127911   4.957   6.455   0.808
 9004SOL    HW227912   4.924   6.517   0.956
 9005SOL     OW27913   5.100   2.401   5.001
 9005SOL    HW127914   5.112   2.493   4.963
 9005SOL    HW227915   5.186   2.350   4.991
 9006SOL     OW27916   3.103   6.454   0.665
 9006SOL    HW127917   3.023   6.513   0.673
 9006SOL    HW227918   3.083   6.365   0.707
 9007SOL     OW27919   4.756   0.544   4.211
 9007SOL    HW127920   4.809   0.608   4.267
 9007SOL    HW227921   4.666   0.529   4.254
 9008SOL     OW27922   0.486   6.057   3.300
 9008SOL    HW127923   0.405   6.034   3.245
 9008SOL    HW227924   0.557   5.989   3.284
 9009SOL     OW27925   2.502   1.253   0.530
 9009SOL    HW127926   2.464   1.161   0.514
 9009SOL    HW227927   2.584   1.265   0.474
 9010SOL     OW27928   0.892   6.958   4.160
 9010SOL    HW127929   0.831   6.961   4.080
 9010SOL    HW227930   0.941   6.871   4.161
 9011SOL     OW27931   4.303   2.519   1.756
 9011SOL    HW127932   4.333   2.464   1.677
 9011SOL    HW227933   4.260   2.603   1.724
 9012SOL     OW27934   3.193   4.283   1.405
 9012SOL    HW127935   3.120   4.343   1.372
 9012SOL    HW227936   3.195   4.200   1.349
 9013SOL     OW27937   0.082   6.326   4.758
 9013SOL    HW127938   0.100   6.423   4.742
 9013SOL    HW227939   0.015   6.294   4.691
 9014SOL     OW27940   0.411   1.240   0.217
 9014SOL    HW127941   0.345   1.251   0.291
 9014SOL    HW227942   0.492   1.193   0.252
 9015SOL     OW27943   5.702   1.484   1.284
 9015SOL    HW127944   5.674   1.446   1.372
 9015SOL    HW227945   5.629   1.471   1.217
 9016SOL     OW27946   0.693   6.611   6.623
 9016SOL    HW127947   0.777   6.568   6.657
 9016SOL    HW227948   0.617   6.547   6.631
 9017SOL     OW27949   4.420   2.023   2.073
 9017SOL    HW127950   4.519   2.025   2.087
 9017SOL    HW227951   4.400   1.998   1.978
 9018SOL     OW27952   4.358   1.561   6.295
 9018SOL    HW127953   4.399   1.580   6.384
 9018SOL    HW227954   4.389   1.629   6.229
 9019SOL     OW27955   0.961   0.808   1.744
 9019SOL    HW127956   0.866   0.840   1.744
 9019SOL    HW227957   1.014   0.863   1.680
 9020SOL     OW27958   1.128   3.518   1.645
 9020SOL    HW127959   1.036   3.480   1.638
 9020SOL    HW227960   1.184   3.458   1.702
 9021SOL     OW27961   6.792   0.019   3.883
 9021SOL    HW127962   6.717   0.031   3.818
 9021SOL    HW227963   6.868   6.992   3.838
 9022SOL     OW27964   2.542   1.684   0.316
 9022SOL    HW127965   2.607   1.754   0.344
 9022SOL    HW227966   2.591   1.610   0.269
 9023SOL     OW27967   3.421   3.807   2.506
 9023SOL    HW127968   3.477   3.839   2.583
 9023SOL    HW227969   3.424   3.707   2.502
 9024SOL     OW27970   0.076   5.124   4.571
 9024SOL    HW127971   0.116   5.070   4.496
 9024SOL    HW227972   0.139   5.125   4.648
 9025SOL     OW27973   1.013   5.389   0.327
 9025SOL    HW127974   1.010   5.290   0.341
 9025SOL    HW227975   0.920   5.424   0.315
 9026SOL     OW27976   3.881   3.381   1.119
 9026SOL    HW127977   3.891   3.374   1.218
 9026SOL    HW227978   3.898   3.475   1.091
 9027SOL     OW27979   1.152   1.945   4.304
 9027SOL    HW127980   1.092   1.909   4.375
 9027SOL    HW227981   1.230   1.884   4.291
 9028SOL     OW27982   2.282   3.904   5.762
 9028SOL    HW127983   2.353   3.942   5.702
 9028SOL    HW227984   2.192   3.938   5.733
 9029SOL     OW27985   2.697   5.731   4.616
 9029SOL    HW127986   2.619   5.771   4.566
 9029SOL    HW227987   2.762   5.693   4.550
 9030SOL     OW27988   2.057   2.272   3.565
 9030SOL    HW127989   1.982   2.262   3.630
 9030SOL    HW227990   2.139   2.302   3.614
 9031SOL     OW27991   4.844   6.070   4.103
 9031SOL    HW127992   4.944   6.064   4.104
 9031SOL    HW227993   4.805   5.979   4.107
 9032SOL     OW27994   3.631   3.199   0.573
 9032SOL    HW127995   3.722   3.195   0.614
 9032SOL    HW227996   3.627   3.276   0.509
 9033SOL     OW27997   1.243   5.017   4.227
 9033SOL    HW127998   1.327   5.070   4.238
 9033SOL    HW227999   1.169   5.077   4.198
 9034SOL     OW28000   2.948   0.416   5.593
 9034SOL    HW128001   2.896   0.381   5.515
 9034SOL    HW228002   2.986   0.506   5.570
 9035SOL     OW28003   1.698   4.585   6.274
 9035SOL    HW128004   1.658   4.642   6.202
 9035SOL    HW228005   1.698   4.489   6.245
 9036SOL     OW28006   2.454   0.842   5.158
 9036SOL    HW128007   2.450   0.796   5.069
 9036SOL    HW228008   2.503   0.929   5.148
 9037SOL     OW28009   1.287   3.683   5.798
 9037SOL    HW128010   1.224   3.756   5.825
 9037SOL    HW228011   1.373   3.693   5.849
 9038SOL     OW28012   4.642   6.198   6.572
 9038SOL    HW128013   4.734   6.203   6.534
 9038SOL    HW228014   4.579   6.163   6.502
 9039SOL     OW28015   2.747   4.999   4.817
 9039SOL    HW128016   2.741   4.907   4.777
 9039SOL    HW228017   2.668   5.053   4.787
 9040SOL     OW28018   3.066   2.180   3.019
 9040SOL    HW128019   3.110   2.201   2.932
 9040SOL    HW228020   2.993   2.113   3.004
 9041SOL     OW28021   1.711   2.434   1.953
 9041SOL    HW128022   1.777   2.486   1.899
 9041SOL    HW228023   1.669   2.493   2.021
 9042SOL     OW28024   2.769   0.080   4.102
 9042SOL    HW128025   2.818   0.147   4.157
 9042SOL    HW228026   2.771   0.109   4.006
 9043SOL     OW28027   2.318   1.871   6.962
 9043SOL    HW128028   2.408   1.892   6.924
 9043SOL    HW228029   2.249   1.929   6.920
 9044SOL     OW28030   5.531   0.954   1.753
 9044SOL    HW128031   5.496   1.046   1.738
 9044SOL    HW228032   5.460   0.898   1.795
 9045SOL     OW28033   2.592   1.030   2.471
 9045SOL    HW128034   2.690   1.015   2.457
 9045SOL    HW228035   2.573   1.128   2.475
 9046SOL     OW28036   3.670   4.146   4.172
 9046SOL    HW128037   3.643   4.197   4.090
 9046SOL    HW228038   3.589   4.124   4.226
 9047SOL     OW28039   1.162   3.427   5.781
 9047SOL    HW128040   1.219   3.504   5.751
 9047SOL    HW228041   1.206   3.341   5.755
 9048SOL     OW28042   5.727   1.803   5.837
 9048SOL    HW128043   5.725   1.754   5.749
 9048SOL    HW228044   5.711   1.900   5.820
 9049SOL     OW28045   3.652   0.192   6.310
 9049SOL    HW128046   3.556   0.221   6.304
 9049SOL    HW228047   3.694   0.231   6.392
 9050SOL     OW28048   0.280   3.483   6.876
 9050SOL    HW128049   0.343   3.535   6.818
 9050SOL    HW228050   0.234   3.413   6.821
 9051SOL     OW28051   4.289   6.465   0.934
 9051SOL    HW128052   4.383   6.498   0.942
 9051SOL    HW228053   4.281   6.377   0.981
 9052SOL     OW28054   1.959   1.955   3.759
 9052SOL    HW128055   2.041   1.936   3.705
 9052SOL    HW228056   1.917   1.869   3.788
 9053SOL     OW28057   1.844   1.620   3.316
 9053SOL    HW128058   1.789   1.559   3.373
 9053SOL    HW228059   1.858   1.707   3.363
 9054SOL     OW28060   1.812   6.737   2.127
 9054SOL    HW128061   1.723   6.781   2.124
 9054SOL    HW228062   1.816   6.664   2.059
 9055SOL     OW28063   6.007   3.135   3.772
 9055SOL    HW128064   6.096   3.145   3.727
 9055SOL    HW228065   5.990   3.039   3.791
 9056SOL     OW28066   0.674   1.249   2.035
 9056SOL    HW128067   0.666   1.324   2.100
 9056SOL    HW228068   0.615   1.173   2.064
 9057SOL     OW28069   5.438   4.945   5.777
 9057SOL    HW128070   5.460   4.962   5.681
 9057SOL    HW228071   5.523   4.934   5.829
 9058SOL     OW28072   2.449   1.725   3.174
 9058SOL    HW128073   2.428   1.804   3.116
 9058SOL    HW228074   2.403   1.736   3.262
 9059SOL     OW28075   1.245   2.037   5.313
 9059SOL    HW128076   1.222   1.940   5.320
 9059SOL    HW228077   1.198   2.077   5.234
 9060SOL     OW28078   6.173   3.258   2.637
 9060SOL    HW128079   6.086   3.258   2.687
 9060SOL    HW228080   6.214   3.167   2.641
 9061SOL     OW28081   2.751   5.671   2.091
 9061SOL    HW128082   2.827   5.621   2.049
 9061SOL    HW228083   2.743   5.645   2.187
 9062SOL     OW28084   1.981   6.081   1.637
 9062SOL    HW128085   1.965   6.180   1.628
 9062SOL    HW228086   2.067   6.057   1.593
 9063SOL     OW28087   2.737   0.609   3.061
 9063SOL    HW128088   2.783   0.673   3.123
 9063SOL    HW228089   2.656   0.571   3.106
 9064SOL     OW28090   6.178   2.312   5.744
 9064SOL    HW128091   6.162   2.215   5.724
 9064SOL    HW228092   6.236   2.351   5.673
 9065SOL     OW28093   3.084   6.393   6.025
 9065SOL    HW128094   3.181   6.412   6.042
 9065SOL    HW228095   3.028   6.444   6.090
 9066SOL     OW28096   5.754   6.153   0.273
 9066SOL    HW128097   5.676   6.211   0.294
 9066SOL    HW228098   5.768   6.087   0.348
 9067SOL     OW28099   5.894   0.571   4.613
 9067SOL    HW128100   5.909   0.668   4.633
 9067SOL    HW228101   5.972   0.535   4.562
 9068SOL     OW28102   2.931   6.603   5.524
 9068SOL    HW128103   2.922   6.666   5.601
 9068SOL    HW228104   2.890   6.644   5.443
 9069SOL     OW28105   2.310   2.533   1.800
 9069SOL    HW128106   2.268   2.519   1.710
 9069SOL    HW228107   2.396   2.481   1.805
 9070SOL     OW28108   1.471   3.904   5.348
 9070SOL    HW128109   1.377   3.931   5.329
 9070SOL    HW228110   1.473   3.843   5.427
 9071SOL     OW28111   5.763   0.569   1.239
 9071SOL    HW128112   5.785   0.485   1.289
 9071SOL    HW228113   5.703   0.546   1.162
 9072SOL     OW28114   6.734   0.966   1.985
 9072SOL    HW128115   6.804   0.994   2.050
 9072SOL    HW228116   6.720   0.867   1.990
 9073SOL     OW28117   2.996   6.749   1.320
 9073SOL    HW128118   3.073   6.809   1.344
 9073SOL    HW228119   2.911   6.798   1.337
 9074SOL     OW28120   2.130   1.717   1.675
 9074SOL    HW128121   2.208   1.730   1.735
 9074SOL    HW228122   2.161   1.683   1.586
 9075SOL     OW28123   1.133   1.263   2.819
 9075SOL    HW128124   1.130   1.300   2.726
 9075SOL    HW228125   1.119   1.164   2.816
 9076SOL     OW28126   5.528   1.971   4.701
 9076SOL    HW128127   5.502   2.034   4.774
 9076SOL    HW228128   5.562   2.023   4.622
 9077SOL     OW28129   5.543   6.740   6.974
 9077SOL    HW128130   5.509   6.776   0.041
 9077SOL    HW228131   5.523   6.804   6.901
 9078SOL     OW28132   4.564   3.752   6.425
 9078SOL    HW128133   4.490   3.687   6.407
 9078SOL    HW228134   4.605   3.780   6.339
 9079SOL     OW28135   3.376   6.843   3.945
 9079SOL    HW128136   3.304   6.891   3.896
 9079SOL    HW228137   3.431   6.789   3.881
 9080SOL     OW28138   5.013   2.847   6.791
 9080SOL    HW128139   5.112   2.857   6.794
 9080SOL    HW228140   4.973   2.925   6.743
 9081SOL     OW28141   4.303   5.781   2.762
 9081SOL    HW128142   4.316   5.691   2.804
 9081SOL    HW228143   4.215   5.783   2.713
 9082SOL     OW28144   2.840   0.053   5.443
 9082SOL    HW128145   2.755   0.001   5.433
 9082SOL    HW228146   2.854   0.075   5.540
 9083SOL     OW28147   3.050   5.542   6.012
 9083SOL    HW128148   3.020   5.635   6.033
 9083SOL    HW228149   3.077   5.537   5.916
 9084SOL     OW28150   2.956   4.149   5.611
 9084SOL    HW128151   2.974   4.220   5.543
 9084SOL    HW228152   2.864   4.161   5.648
 9085SOL     OW28153   2.551   4.304   1.501
 9085SOL    HW128154   2.544   4.230   1.434
 9085SOL    HW228155   2.481   4.373   1.482
 9086SOL     OW28156   1.088   4.865   0.450
 9086SOL    HW128157   1.033   4.808   0.512
 9086SOL    HW228158   1.117   4.810   0.372
 9087SOL     OW28159   4.792   2.933   1.702
 9087SOL    HW128160   4.732   2.927   1.782
 9087SOL    HW228161   4.781   3.023   1.660
 9088SOL     OW28162   5.320   6.184   0.387
 9088SOL    HW128163   5.268   6.232   0.458
 9088SOL    HW228164   5.256   6.134   0.328
 9089SOL     OW28165   5.098   5.817   5.954
 9089SOL    HW128166   5.189   5.831   5.994
 9089SOL    HW228167   5.058   5.905   5.929
 9090SOL     OW28168   6.798   0.358   3.473
 9090SOL    HW128169   6.760   0.273   3.436
 9090SOL    HW228170   6.753   0.436   3.429
 9091SOL     OW28171   3.109   4.928   0.661
 9091SOL    HW128172   3.096   4.912   0.759
 9091SOL    HW228173   3.077   4.848   0.610
 9092SOL     OW28174   0.933   1.206   1.017
 9092SOL    HW128175   0.940   1.151   0.934
 9092SOL    HW228176   0.989   1.164   1.089
 9093SOL     OW28177   1.245   6.895   5.834
 9093SOL    HW128178   1.339   6.903   5.869
 9093SOL    HW228179   1.205   6.987   5.824
 9094SOL     OW28180   6.302   5.075   2.658
 9094SOL    HW128181   6.394   5.041   2.638
 9094SOL    HW228182   6.269   5.035   2.743
 9095SOL     OW28183   5.165   4.508   5.846
 9095SOL    HW128184   5.074   4.527   5.807
 9095SOL    HW228185   5.235   4.550   5.787
 9096SOL     OW28186   5.607   4.216   2.338
 9096SOL    HW128187   5.637   4.294   2.284
 9096SOL    HW228188   5.654   4.133   2.307
 9097SOL     OW28189   1.414   1.628   0.931
 9097SOL    HW128190   1.345   1.577   0.982
 9097SOL    HW228191   1.467   1.565   0.874
 9098SOL     OW28192   3.621   1.545   5.397
 9098SOL    HW128193   3.537   1.539   5.451
 9098SOL    HW228194   3.604   1.598   5.314
 9099SOL     OW28195   3.275   2.095   5.723
 9099SOL    HW128196   3.250   2.086   5.819
 9099SOL    HW228197   3.215   2.038   5.667
 9100SOL     OW28198   0.503   3.696   4.027
 9100SOL    HW128199   0.489   3.599   4.010
 9100SOL    HW228200   0.576   3.709   4.094
 9101SOL     OW28201   2.085   2.350   3.059
 9101SOL    HW128202   2.120   2.442   3.040
 9101SOL    HW228203   2.124   2.317   3.145
 9102SOL     OW28204   2.816   0.142   2.090
 9102SOL    HW128205   2.881   0.070   2.066
 9102SOL    HW228206   2.725   0.119   2.054
 9103SOL     OW28207   6.471   3.111   6.581
 9103SOL    HW128208   6.542   3.041   6.568
 9103SOL    HW228209   6.501   3.197   6.540
 9104SOL     OW28210   0.639   6.374   2.456
 9104SOL    HW128211   0.630   6.282   2.417
 9104SOL    HW228212   0.687   6.434   2.392
 9105SOL     OW28213   1.219   1.466   6.290
 9105SOL    HW128214   1.285   1.417   6.347
 9105SOL    HW228215   1.244   1.457   6.194
 9106SOL     OW28216   0.513   3.015   1.168
 9106SOL    HW128217   0.544   3.013   1.263
 9106SOL    HW228218   0.415   2.992   1.164
 9107SOL     OW28219   3.231   0.836   6.741
 9107SOL    HW128220   3.222   0.874   6.649
 9107SOL    HW228221   3.305   0.768   6.742
 9108SOL     OW28222   5.153   4.281   5.538
 9108SOL    HW128223   5.189   4.256   5.628
 9108SOL    HW228224   5.053   4.277   5.540
 9109SOL     OW28225   6.673   3.395   3.671
 9109SOL    HW128226   6.695   3.323   3.606
 9109SOL    HW228227   6.683   3.360   3.764
 9110SOL     OW28228   1.747   4.894   4.371
 9110SOL    HW128229   1.729   4.901   4.469
 9110SOL    HW228230   1.810   4.819   4.353
 9111SOL     OW28231   5.377   1.910   0.475
 9111SOL    HW128232   5.390   1.901   0.574
 9111SOL    HW228233   5.297   1.856   0.448
 9112SOL     OW28234   0.937   5.054   2.769
 9112SOL    HW128235   0.980   5.102   2.845
 9112SOL    HW228236   0.838   5.059   2.778
 9113SOL     OW28237   4.516   2.526   3.285
 9113SOL    HW128238   4.454   2.486   3.218
 9113SOL    HW228239   4.603   2.548   3.242
 9114SOL     OW28240   0.756   4.851   3.136
 9114SOL    HW128241   0.832   4.856   3.071
 9114SOL    HW228242   0.792   4.841   3.228
 9115SOL     OW28243   6.634   6.180   4.441
 9115SOL    HW128244   6.693   6.206   4.364
 9115SOL    HW228245   6.675   6.103   4.490
 9116SOL     OW28246   0.057   6.944   2.626
 9116SOL    HW128247   0.072   6.943   2.725
 9116SOL    HW228248   0.041   6.850   2.594
 9117SOL     OW28249   4.076   2.597   6.902
 9117SOL    HW128250   4.142   2.670   6.918
 9117SOL    HW228251   4.041   2.603   6.808
 9118SOL     OW28252   0.007   3.155   0.752
 9118SOL    HW128253   0.088   3.213   0.746
 9118SOL    HW228254   0.021   3.085   0.822
 9119SOL     OW28255   4.188   0.797   2.543
 9119SOL    HW128256   4.142   0.810   2.632
 9119SOL    HW228257   4.287   0.807   2.555
 9120SOL     OW28258   6.254   1.447   5.670
 9120SOL    HW128259   6.329   1.452   5.735
 9120SOL    HW228260   6.285   1.477   5.580
 9121SOL     OW28261   4.100   0.055   5.339
 9121SOL    HW128262   4.199   0.039   5.342
 9121SOL    HW228263   4.052   6.993   5.370
 9122SOL     OW28264   2.425   4.428   2.107
 9122SOL    HW128265   2.456   4.403   2.015
 9122SOL    HW228266   2.487   4.497   2.145
 9123SOL     OW28267   1.981   0.796   4.459
 9123SOL    HW128268   2.033   0.770   4.377
 9123SOL    HW228269   2.000   0.892   4.481
 9124SOL     OW28270   4.380   5.272   0.213
 9124SOL    HW128271   4.387   5.190   0.157
 9124SOL    HW228272   4.293   5.272   0.263
 9125SOL     OW28273   4.468   3.963   0.675
 9125SOL    HW128274   4.402   3.927   0.609
 9125SOL    HW228275   4.450   4.060   0.690
 9126SOL     OW28276   5.982   3.205   1.260
 9126SOL    HW128277   5.915   3.278   1.273
 9126SOL    HW228278   5.936   3.122   1.229
 9127SOL     OW28279   6.391   1.257   5.974
 9127SOL    HW128280   6.482   1.248   5.935
 9127SOL    HW228281   6.370   1.176   6.029
 9128SOL     OW28282   5.759   2.483   5.294
 9128SOL    HW128283   5.774   2.447   5.386
 9128SOL    HW228284   5.661   2.482   5.273
 9129SOL     OW28285   0.235   2.568   0.183
 9129SOL    HW128286   0.285   2.514   0.115
 9129SOL    HW228287   0.172   2.509   0.233
 9130SOL     OW28288   1.206   3.637   6.115
 9130SOL    HW128289   1.138   3.709   6.108
 9130SOL    HW228290   1.289   3.664   6.066
 9131SOL     OW28291   5.344   2.887   6.171
 9131SOL    HW128292   5.410   2.962   6.166
 9131SOL    HW228293   5.367   2.826   6.246
 9132SOL     OW28294   0.363   5.860   4.137
 9132SOL    HW128295   0.396   5.827   4.225
 9132SOL    HW228296   0.421   5.936   4.107
 9133SOL     OW28297   3.604   6.243   1.346
 9133SOL    HW128298   3.668   6.305   1.393
 9133SOL    HW228299   3.560   6.184   1.414
 9134SOL     OW28300   3.592   5.283   1.532
 9134SOL    HW128301   3.531   5.207   1.510
 9134SOL    HW228302   3.539   5.368   1.537
 9135SOL     OW28303   0.130   0.509   1.340
 9135SOL    HW128304   0.049   0.464   1.377
 9135SOL    HW228305   0.138   0.602   1.377
 9136SOL     OW28306   4.585   5.415   6.665
 9136SOL    HW128307   4.681   5.429   6.688
 9136SOL    HW228308   4.556   5.324   6.694
 9137SOL     OW28309   4.069   0.847   7.005
 9137SOL    HW128310   4.031   0.933   0.017
 9137SOL    HW228311   4.167   0.843   0.008
 9138SOL     OW28312   0.218   4.994   6.530
 9138SOL    HW128313   0.159   5.030   6.457
 9138SOL    HW228314   0.311   4.983   6.496
 9139SOL     OW28315   1.914   1.564   2.662
 9139SOL    HW128316   1.999   1.617   2.668
 9139SOL    HW228317   1.878   1.549   2.754
 9140SOL     OW28318   6.987   3.899   2.703
 9140SOL    HW128319   0.002   3.810   2.674
 9140SOL    HW228320   0.021   3.971   2.660
 9141SOL     OW28321   5.445   6.615   1.217
 9141SOL    HW128322   5.421   6.607   1.314
 9141SOL    HW228323   5.382   6.560   1.162
 9142SOL     OW28324   0.652   3.966   1.527
 9142SOL    HW128325   0.613   3.924   1.609
 9142SOL    HW228326   0.689   3.895   1.466
 9143SOL     OW28327   6.075   2.546   0.247
 9143SOL    HW128328   6.069   2.506   0.156
 9143SOL    HW228329   6.048   2.478   0.315
 9144SOL     OW28330   2.437   5.566   4.329
 9144SOL    HW128331   2.418   5.520   4.416
 9144SOL    HW228332   2.465   5.660   4.347
 9145SOL     OW28333   0.345   5.973   6.708
 9145SOL    HW128334   0.254   5.933   6.698
 9145SOL    HW228335   0.377   5.959   6.802
 9146SOL     OW28336   5.433   2.821   3.313
 9146SOL    HW128337   5.410   2.751   3.246
 9146SOL    HW228338   5.362   2.891   3.314
 9147SOL     OW28339   5.912   0.410   5.255
 9147SOL    HW128340   5.856   0.408   5.172
 9147SOL    HW228341   6.008   0.425   5.230
 9148SOL     OW28342   5.015   6.209   2.327
 9148SOL    HW128343   5.111   6.209   2.354
 9148SOL    HW228344   4.978   6.117   2.338
 9149SOL     OW28345   5.027   3.378   2.479
 9149SOL    HW128346   4.978   3.397   2.564
 9149SOL    HW228347   5.122   3.406   2.488
 9150SOL     OW28348   3.028   4.976   1.184
 9150SOL    HW128349   2.942   5.023   1.203
 9150SOL    HW228350   3.034   4.893   1.239
 9151SOL     OW28351   1.514   4.365   3.851
 9151SOL    HW128352   1.576   4.431   3.894
 9151SOL    HW228353   1.446   4.336   3.918
 9152SOL     OW28354   2.326   4.254   4.535
 9152SOL    HW128355   2.344   4.301   4.621
 9152SOL    HW228356   2.273   4.171   4.553
 9153SOL     OW28357   0.573   2.984   6.997
 9153SOL    HW128358   0.558   2.925   0.057
 9153SOL    HW228359   0.628   2.935   6.929
 9154SOL     OW28360   5.272   4.495   5.008
 9154SOL    HW128361   5.291   4.526   5.101
 9154SOL    HW228362   5.349   4.441   4.974
 9155SOL     OW28363   1.875   4.549   2.686
 9155SOL    HW128364   1.938   4.531   2.762
 9155SOL    HW228365   1.916   4.616   2.624
 9156SOL     OW28366   6.955   1.932   0.930
 9156SOL    HW128367   0.021   1.880   0.925
 9156SOL    HW228368   6.974   2.029   0.914
 9157SOL     OW28369   2.869   3.904   6.993
 9157SOL    HW128370   2.953   3.854   7.015
 9157SOL    HW228371   2.894   3.994   6.956
 9158SOL     OW28372   6.520   4.021   4.691
 9158SOL    HW128373   6.478   4.049   4.777
 9158SOL    HW228374   6.511   4.094   4.623
 9159SOL     OW28375   1.894   0.604   3.535
 9159SOL    HW128376   1.839   0.682   3.505
 9159SOL    HW228377   1.979   0.636   3.577
 9160SOL     OW28378   0.683   6.425   6.191
 9160SOL    HW128379   0.754   6.481   6.234
 9160SOL    HW228380   0.717   6.391   6.103
 9161SOL     OW28381   6.016   4.812   3.190
 9161SOL    HW128382   5.982   4.902   3.164
 9161SOL    HW228383   5.966   4.742   3.139
 9162SOL     OW28384   4.326   0.387   2.673
 9162SOL    HW128385   4.374   0.424   2.593
 9162SOL    HW228386   4.249   0.447   2.696
 9163SOL     OW28387   0.143   3.472   4.036
 9163SOL    HW128388   0.073   3.542   4.053
 9163SOL    HW228389   0.112   3.412   3.962
 9164SOL     OW28390   2.208   0.730   6.818
 9164SOL    HW128391   2.110   0.714   6.801
 9164SOL    HW228392   2.236   0.815   6.774
 9165SOL     OW28393   5.278   1.915   6.066
 9165SOL    HW128394   5.240   1.831   6.027
 9165SOL    HW228395   5.210   1.958   6.125
 9166SOL     OW28396   4.498   5.178   0.701
 9166SOL    HW128397   4.472   5.269   0.670
 9166SOL    HW228398   4.525   5.182   0.797
 9167SOL     OW28399   1.965   1.995   5.574
 9167SOL    HW128400   1.930   1.969   5.484
 9167SOL    HW228401   1.895   2.044   5.625
 9168SOL     OW28402   6.942   6.047   6.576
 9168SOL    HW128403   6.970   6.028   6.482
 9168SOL    HW228404   6.848   6.082   6.576
 9169SOL     OW28405   0.165   6.692   6.348
 9169SOL    HW128406   0.165   6.745   6.263
 9169SOL    HW228407   0.074   6.695   6.389
 9170SOL     OW28408   1.863   0.280   6.310
 9170SOL    HW128409   1.781   0.294   6.254
 9170SOL    HW228410   1.865   0.346   6.385
 9171SOL     OW28411   3.443   5.815   0.947
 9171SOL    HW128412   3.504   5.753   0.899
 9171SOL    HW228413   3.489   5.903   0.962
 9172SOL     OW28414   4.517   0.947   3.612
 9172SOL    HW128415   4.599   0.920   3.562
 9172SOL    HW228416   4.542   0.977   3.704
 9173SOL     OW28417   6.536   3.736   5.530
 9173SOL    HW128418   6.580   3.651   5.559
 9173SOL    HW228419   6.573   3.764   5.441
 9174SOL     OW28420   0.566   5.725   0.077
 9174SOL    HW128421   0.643   5.669   0.047
 9174SOL    HW228422   0.598   5.797   0.138
 9175SOL     OW28423   1.132   0.185   6.597
 9175SOL    HW128424   1.136   0.112   6.665
 9175SOL    HW228425   1.090   0.150   6.513
 9176SOL     OW28426   2.803   0.771   2.377
 9176SOL    HW128427   2.859   0.853   2.392
 9176SOL    HW228428   2.816   0.738   2.283
 9177SOL     OW28429   1.002   2.747   4.283
 9177SOL    HW128430   0.968   2.692   4.207
 9177SOL    HW228431   0.942   2.826   4.297
 9178SOL     OW28432   2.051   5.635   6.573
 9178SOL    HW128433   1.975   5.616   6.635
 9178SOL    HW228434   2.102   5.551   6.556
 9179SOL     OW28435   1.560   5.550   4.987
 9179SOL    HW128436   1.640   5.530   5.044
 9179SOL    HW228437   1.511   5.465   4.967
 9180SOL     OW28438   6.145   2.560   3.176
 9180SOL    HW128439   6.213   2.593   3.241
 9180SOL    HW228440   6.183   2.564   3.084
 9181SOL     OW28441   5.028   2.455   3.647
 9181SOL    HW128442   4.950   2.485   3.593
 9181SOL    HW228443   5.091   2.531   3.659
 9182SOL     OW28444   2.945   0.210   2.971
 9182SOL    HW128445   3.016   0.205   3.042
 9182SOL    HW228446   2.956   0.133   2.908
 9183SOL     OW28447   4.782   4.531   6.568
 9183SOL    HW128448   4.775   4.580   6.481
 9183SOL    HW228449   4.692   4.495   6.594
 9184SOL     OW28450   3.720   2.371   1.059
 9184SOL    HW128451   3.816   2.351   1.077
 9184SOL    HW228452   3.699   2.351   0.963
 9185SOL     OW28453   6.733   0.217   4.853
 9185SOL    HW128454   6.716   0.299   4.798
 9185SOL    HW228455   6.691   0.138   4.809
 9186SOL     OW28456   5.260   0.523   5.529
 9186SOL    HW128457   5.316   0.573   5.596
 9186SOL    HW228458   5.227   0.586   5.459
 9187SOL     OW28459   4.051   2.148   6.999
 9187SOL    HW128460   4.051   2.053   6.967
 9187SOL    HW228461   4.078   2.151   0.075
 9188SOL     OW28462   2.195   0.459   1.639
 9188SOL    HW128463   2.239   0.542   1.672
 9188SOL    HW228464   2.178   0.467   1.541
 9189SOL     OW28465   3.303   6.284   2.436
 9189SOL    HW128466   3.395   6.314   2.464
 9189SOL    HW228467   3.239   6.302   2.510
 9190SOL     OW28468   1.094   3.557   5.185
 9190SOL    HW128469   1.030   3.510   5.124
 9190SOL    HW228470   1.121   3.495   5.259
 9191SOL     OW28471   5.644   1.052   6.393
 9191SOL    HW128472   5.566   1.064   6.331
 9191SOL    HW228473   5.612   1.054   6.488
 9192SOL     OW28474   6.544   2.795   6.018
 9192SOL    HW128475   6.498   2.883   6.031
 9192SOL    HW228476   6.635   2.800   6.058
 9193SOL     OW28477   4.024   3.925   4.470
 9193SOL    HW128478   4.049   3.954   4.562
 9193SOL    HW228479   3.949   3.981   4.436
 9194SOL     OW28480   3.594   6.352   2.436
 9194SOL    HW128481   3.611   6.426   2.371
 9194SOL    HW228482   3.597   6.389   2.529
 9195SOL     OW28483   1.901   2.984   3.301
 9195SOL    HW128484   1.850   2.921   3.360
 9195SOL    HW228485   1.838   3.052   3.262
 9196SOL     OW28486   5.553   6.903   3.500
 9196SOL    HW128487   5.645   6.867   3.512
 9196SOL    HW228488   5.521   6.884   3.407
 9197SOL     OW28489   3.077   5.210   0.849
 9197SOL    HW128490   3.156   5.200   0.909
 9197SOL    HW228491   3.108   5.216   0.754
 9198SOL     OW28492   6.101   4.552   6.822
 9198SOL    HW128493   6.061   4.587   6.737
 9198SOL    HW228494   6.194   4.520   6.805
 9199SOL     OW28495   0.387   3.144   6.193
 9199SOL    HW128496   0.345   3.144   6.284
 9199SOL    HW228497   0.376   3.234   6.151
 9200SOL     OW28498   2.057   5.569   5.660
 9200SOL    HW128499   1.971   5.619   5.655
 9200SOL    HW228500   2.133   5.634   5.673
 9201SOL     OW28501   0.725   2.923   0.895
 9201SOL    HW128502   0.650   2.943   0.831
 9201SOL    HW228503   0.707   2.835   0.940
 9202SOL     OW28504   0.826   5.856   4.205
 9202SOL    HW128505   0.919   5.870   4.172
 9202SOL    HW228506   0.763   5.854   4.128
 9203SOL     OW28507   5.775   3.020   5.822
 9203SOL    HW128508   5.740   2.942   5.874
 9203SOL    HW228509   5.873   3.008   5.806
 9204SOL     OW28510   4.847   3.581   4.209
 9204SOL    HW128511   4.865   3.606   4.305
 9204SOL    HW228512   4.845   3.664   4.153
 9205SOL     OW28513   4.910   5.683   2.911
 9205SOL    HW128514   4.956   5.600   2.942
 9205SOL    HW228515   4.958   5.763   2.946
 9206SOL     OW28516   3.578   6.904   4.133
 9206SOL    HW128517   3.634   6.826   4.104
 9206SOL    HW228518   3.499   6.914   4.072
 9207SOL     OW28519   3.822   5.171   0.088
 9207SOL    HW128520   3.729   5.170   0.052
 9207SOL    HW228521   3.883   5.210   0.019
 9208SOL     OW28522   5.407   3.882   2.384
 9208SOL    HW128523   5.436   3.818   2.455
 9208SOL    HW228524   5.476   3.954   2.374
 9209SOL     OW28525   4.379   0.446   1.634
 9209SOL    HW128526   4.368   0.535   1.589
 9209SOL    HW228527   4.356   0.455   1.731
 9210SOL     OW28528   0.597   0.652   1.731
 9210SOL    HW128529   0.607   0.657   1.632
 9210SOL    HW228530   0.551   0.567   1.756
 9211SOL     OW28531   5.521   3.192   6.629
 9211SOL    HW128532   5.509   3.094   6.614
 9211SOL    HW228533   5.434   3.239   6.612
 9212SOL     OW28534   5.070   4.139   4.836
 9212SOL    HW128535   4.978   4.156   4.870
 9212SOL    HW228536   5.078   4.043   4.809
 9213SOL     OW28537   4.752   5.639   4.639
 9213SOL    HW128538   4.696   5.703   4.586
 9213SOL    HW228539   4.751   5.666   4.736
 9214SOL     OW28540   0.051   2.787   4.844
 9214SOL    HW128541   0.050   2.874   4.893
 9214SOL    HW228542   6.989   2.779   4.788
 9215SOL     OW28543   1.454   4.797   2.676
 9215SOL    HW128544   1.426   4.733   2.747
 9215SOL    HW228545   1.424   4.889   2.700
 9216SOL     OW28546   2.485   6.779   3.960
 9216SOL    HW128547   2.429   6.726   4.024
 9216SOL    HW228548   2.428   6.848   3.915
 9217SOL     OW28549   5.787   2.145   0.401
 9217SOL    HW128550   5.843   2.226   0.416
 9217SOL    HW228551   5.826   2.067   0.449
 9218SOL     OW28552   3.884   0.599   7.014
 9218SOL    HW128553   3.938   0.682   0.013
 9218SOL    HW228554   3.937   0.519   0.021
 9219SOL     OW28555   4.014   3.748   5.979
 9219SOL    HW128556   4.096   3.730   6.033
 9219SOL    HW228557   3.938   3.692   6.013
 9220SOL     OW28558   1.952   6.735   2.356
 9220SOL    HW128559   2.000   6.649   2.338
 9220SOL    HW228560   1.904   6.764   2.274
 9221SOL     OW28561   2.738   6.867   4.233
 9221SOL    HW128562   2.833   6.837   4.241
 9221SOL    HW228563   2.733   6.951   4.179
 9222SOL     OW28564   2.558   5.274   4.754
 9222SOL    HW128565   2.600   5.285   4.844
 9222SOL    HW228566   2.471   5.226   4.763
 9223SOL     OW28567   0.907   2.578   4.103
 9223SOL    HW128568   0.964   2.524   4.042
 9223SOL    HW228569   0.826   2.524   4.129
 9224SOL     OW28570   1.477   4.573   3.461
 9224SOL    HW128571   1.556   4.513   3.474
 9224SOL    HW228572   1.421   4.572   3.544
 9225SOL     OW28573   3.691   5.587   5.631
 9225SOL    HW128574   3.694   5.488   5.617
 9225SOL    HW228575   3.633   5.629   5.561
 9226SOL     OW28576   0.738   0.149   1.272
 9226SOL    HW128577   0.661   0.114   1.219
 9226SOL    HW228578   0.721   0.135   1.370
 9227SOL     OW28579   1.803   6.174   1.100
 9227SOL    HW128580   1.900   6.195   1.103
 9227SOL    HW228581   1.784   6.093   1.155
 9228SOL     OW28582   2.281   2.372   0.343
 9228SOL    HW128583   2.271   2.285   0.391
 9228SOL    HW228584   2.371   2.376   0.300
 9229SOL     OW28585   1.368   4.924   5.918
 9229SOL    HW128586   1.340   4.865   5.842
 9229SOL    HW228587   1.421   5.001   5.882
 9230SOL     OW28588   5.134   3.463   2.841
 9230SOL    HW128589   5.190   3.380   2.848
 9230SOL    HW228590   5.177   3.526   2.776
 9231SOL     OW28591   0.968   3.354   5.552
 9231SOL    HW128592   0.997   3.403   5.634
 9231SOL    HW228593   0.897   3.288   5.575
 9232SOL     OW28594   2.826   5.102   0.890
 9232SOL    HW128595   2.802   5.182   0.945
 9232SOL    HW228596   2.925   5.093   0.886
 9233SOL     OW28597   0.431   6.676   0.794
 9233SOL    HW128598   0.470   6.731   0.720
 9233SOL    HW228599   0.504   6.625   0.840
 9234SOL     OW28600   2.353   5.735   1.053
 9234SOL    HW128601   2.265   5.738   1.101
 9234SOL    HW228602   2.400   5.650   1.076
 9235SOL     OW28603   2.021   3.274   3.128
 9235SOL    HW128604   2.044   3.254   3.033
 9235SOL    HW228605   2.076   3.217   3.189
 9236SOL     OW28606   2.753   3.855   6.658
 9236SOL    HW128607   2.696   3.820   6.733
 9236SOL    HW228608   2.741   3.796   6.578
 9237SOL     OW28609   0.606   5.818   3.426
 9237SOL    HW128610   0.696   5.798   3.389
 9237SOL    HW228611   0.540   5.749   3.396
 9238SOL     OW28612   2.952   2.381   5.957
 9238SOL    HW128613   2.997   2.464   5.989
 9238SOL    HW228614   2.867   2.368   6.008
 9239SOL     OW28615   6.921   3.989   7.000
 9239SOL    HW128616   6.931   3.941   6.912
 9239SOL    HW228617   6.897   4.084   6.983
 9240SOL     OW28618   5.142   3.008   2.061
 9240SOL    HW128619   5.054   3.025   2.106
 9240SOL    HW228620   5.205   3.082   2.083
 9241SOL     OW28621   0.219   5.562   1.254
 9241SOL    HW128622   0.146   5.629   1.243
 9241SOL    HW228623   0.284   5.572   1.178
 9242SOL     OW28624   1.804   3.809   1.600
 9242SOL    HW128625   1.777   3.717   1.626
 9242SOL    HW228626   1.899   3.825   1.627
 9243SOL     OW28627   7.001   0.811   1.838
 9243SOL    HW128628   6.965   0.749   1.908
 9243SOL    HW228629   6.924   0.853   1.789
 9244SOL     OW28630   2.790   5.713   5.807
 9244SOL    HW128631   2.782   5.773   5.886
 9244SOL    HW228632   2.699   5.688   5.773
 9245SOL     OW28633   0.698   4.641   3.721
 9245SOL    HW128634   0.719   4.739   3.711
 9245SOL    HW228635   0.766   4.599   3.780
 9246SOL     OW28636   5.448   0.216   3.166
 9246SOL    HW128637   5.510   0.143   3.195
 9246SOL    HW228638   5.501   0.293   3.130
 9247SOL     OW28639   2.543   6.028   2.593
 9247SOL    HW128640   2.590   6.002   2.677
 9247SOL    HW228641   2.551   6.126   2.578
 9248SOL     OW28642   3.237   2.050   4.493
 9248SOL    HW128643   3.274   1.961   4.521
 9248SOL    HW228644   3.238   2.112   4.571
 9249SOL     OW28645   4.576   5.119   1.298
 9249SOL    HW128646   4.479   5.095   1.304
 9249SOL    HW228647   4.632   5.041   1.324
 9250SOL     OW28648   6.442   2.972   4.015
 9250SOL    HW128649   6.491   2.888   4.038
 9250SOL    HW228650   6.344   2.953   4.011
 9251SOL     OW28651   3.835   1.601   2.629
 9251SOL    HW128652   3.758   1.546   2.594
 9251SOL    HW228653   3.823   1.696   2.600
 9252SOL     OW28654   5.556   0.247   4.959
 9252SOL    HW128655   5.554   0.234   4.860
 9252SOL    HW228656   5.579   0.342   4.980
 9253SOL     OW28657   5.510   4.669   5.476
 9253SOL    HW128658   5.459   4.629   5.552
 9253SOL    HW228659   5.485   4.765   5.466
 9254SOL     OW28660   4.413   4.906   2.942
 9254SOL    HW128661   4.455   4.815   2.940
 9254SOL    HW228662   4.446   4.956   3.023
 9255SOL     OW28663   5.093   4.076   0.076
 9255SOL    HW128664   5.097   4.038   7.004
 9255SOL    HW228665   5.079   4.002   0.142
 9256SOL     OW28666   2.568   0.652   2.462
 9256SOL    HW128667   2.500   0.725   2.451
 9256SOL    HW228668   2.660   0.691   2.457
 9257SOL     OW28669   6.010   5.261   3.490
 9257SOL    HW128670   5.948   5.187   3.516
 9257SOL    HW228671   6.090   5.222   3.444
 9258SOL     OW28672   4.000   3.014   1.778
 9258SOL    HW128673   4.002   3.098   1.724
 9258SOL    HW228674   3.910   3.004   1.819
 9259SOL     OW28675   1.557   1.480   0.766
 9259SOL    HW128676   1.545   1.492   0.668
 9259SOL    HW228677   1.592   1.388   0.784
 9260SOL     OW28678   6.106   2.094   5.429
 9260SOL    HW128679   6.095   2.194   5.432
 9260SOL    HW228680   6.203   2.071   5.435
 9261SOL     OW28681   4.066   1.642   6.598
 9261SOL    HW128682   3.969   1.649   6.621
 9261SOL    HW228683   4.081   1.683   6.508
 9262SOL     OW28684   0.456   5.958   5.274
 9262SOL    HW128685   0.452   6.052   5.239
 9262SOL    HW228686   0.376   5.907   5.242
 9263SOL     OW28687   2.688   5.894   2.797
 9263SOL    HW128688   2.781   5.913   2.764
 9263SOL    HW228689   2.657   5.807   2.758
 9264SOL     OW28690   4.685   4.130   6.935
 9264SOL    HW128691   4.654   4.225   6.940
 9264SOL    HW228692   4.667   4.094   6.843
 9265SOL     OW28693   3.102   2.541   0.124
 9265SOL    HW128694   3.070   2.500   0.209
 9265SOL    HW228695   3.095   2.474   0.050
 9266SOL     OW28696   1.287   6.177   1.059
 9266SOL    HW128697   1.200   6.210   1.094
 9266SOL    HW228698   1.327   6.245   0.997
 9267SOL     OW28699   0.067   1.994   4.425
 9267SOL    HW128700   6.996   2.035   4.436
 9267SOL    HW228701   0.128   2.058   4.379
 9268SOL     OW28702   1.678   0.331   2.528
 9268SOL    HW128703   1.713   0.244   2.493
 9268SOL    HW228704   1.591   0.353   2.483
 9269SOL     OW28705   3.926   0.390   6.151
 9269SOL    HW128706   3.944   0.397   6.249
 9269SOL    HW228707   3.910   0.295   6.126
 9270SOL     OW28708   4.098   6.719   5.680
 9270SOL    HW128709   4.098   6.624   5.651
 9270SOL    HW228710   4.006   6.746   5.710
 9271SOL     OW28711   6.239   6.992   0.499
 9271SOL    HW128712   6.178   0.023   0.560
 9271SOL    HW228713   6.327   6.976   0.545
 9272SOL     OW28714   1.152   5.520   5.859
 9272SOL    HW128715   1.139   5.434   5.908
 9272SOL    HW228716   1.239   5.519   5.811
 9273SOL     OW28717   6.489   6.211   3.252
 9273SOL    HW128718   6.585   6.212   3.281
 9273SOL    HW228719   6.460   6.304   3.229
 9274SOL     OW28720   0.098   1.567   0.202
 9274SOL    HW128721   0.094   1.557   0.103
 9274SOL    HW228722   0.184   1.610   0.228
 9275SOL     OW28723   6.747   0.982   0.192
 9275SOL    HW128724   6.726   1.049   0.263
 9275SOL    HW228725   6.665   0.927   0.172
 9276SOL     OW28726   1.397   4.547   0.538
 9276SOL    HW128727   1.473   4.578   0.595
 9276SOL    HW228728   1.365   4.623   0.481
 9277SOL     OW28729   4.665   4.466   1.899
 9277SOL    HW128730   4.612   4.399   1.950
 9277SOL    HW228731   4.668   4.441   1.802
 9278SOL     OW28732   1.996   0.577   5.484
 9278SOL    HW128733   2.036   0.647   5.543
 9278SOL    HW228734   2.058   0.499   5.478
 9279SOL     OW28735   3.032   0.204   1.624
 9279SOL    HW128736   3.056   0.185   1.720
 9279SOL    HW228737   3.043   0.302   1.606
 9280SOL     OW28738   2.723   1.073   2.763
 9280SOL    HW128739   2.800   1.080   2.699
 9280SOL    HW228740   2.644   1.121   2.724
 9281SOL     OW28741   3.218   4.233   0.042
 9281SOL    HW128742   3.276   4.314   0.053
 9281SOL    HW228743   3.238   4.189   6.975
 9282SOL     OW28744   4.877   0.763   3.805
 9282SOL    HW128745   4.970   0.748   3.837
 9282SOL    HW228746   4.864   0.860   3.785
 9283SOL     OW28747   5.314   0.471   4.614
 9283SOL    HW128748   5.343   0.562   4.644
 9283SOL    HW228749   5.265   0.426   4.688
 9284SOL     OW28750   3.010   2.521   5.365
 9284SOL    HW128751   3.083   2.476   5.314
 9284SOL    HW228752   2.923   2.475   5.347
 9285SOL     OW28753   5.233   3.681   1.470
 9285SOL    HW128754   5.249   3.750   1.540
 9285SOL    HW228755   5.184   3.604   1.509
 9286SOL     OW28756   5.232   5.021   0.986
 9286SOL    HW128757   5.281   5.029   1.073
 9286SOL    HW228758   5.138   5.054   0.997
 9287SOL     OW28759   3.857   5.111   6.175
 9287SOL    HW128760   3.923   5.040   6.202
 9287SOL    HW228761   3.904   5.199   6.170
 9288SOL     OW28762   4.569   2.193   2.656
 9288SOL    HW128763   4.656   2.232   2.688
 9288SOL    HW228764   4.527   2.142   2.730
 9289SOL     OW28765   5.075   7.002   0.977
 9289SOL    HW128766   5.107   6.948   0.899
 9289SOL    HW228767   4.992   6.962   1.014
 9290SOL     OW28768   5.609   0.890   3.622
 9290SOL    HW128769   5.690   0.928   3.666
 9290SOL    HW228770   5.528   0.942   3.650
 9291SOL     OW28771   1.178   5.256   5.707
 9291SOL    HW128772   1.253   5.321   5.707
 9291SOL    HW228773   1.131   5.259   5.796
 9292SOL     OW28774   2.625   2.419   6.682
 9292SOL    HW128775   2.584   2.457   6.764
 9292SOL    HW228776   2.637   2.320   6.693
 9293SOL     OW28777   6.283   3.742   6.414
 9293SOL    HW128778   6.274   3.835   6.450
 9293SOL    HW228779   6.203   3.689   6.439
 9294SOL     OW28780   5.403   1.243   5.866
 9294SOL    HW128781   5.487   1.242   5.811
 9294SOL    HW228782   5.385   1.151   5.901
 9295SOL     OW28783   5.715   0.492   5.733
 9295SOL    HW128784   5.640   0.559   5.732
 9295SOL    HW228785   5.701   0.426   5.659
 9296SOL     OW28786   1.925   5.321   0.171
 9296SOL    HW128787   1.925   5.375   0.087
 9296SOL    HW228788   1.977   5.237   0.157
 9297SOL     OW28789   1.214   0.055   2.603
 9297SOL    HW128790   1.123   0.084   2.631
 9297SOL    HW228791   1.214   6.977   2.584
 9298SOL     OW28792   1.094   6.543   6.342
 9298SOL    HW128793   1.071   6.469   6.279
 9298SOL    HW228794   1.192   6.562   6.337
 9299SOL     OW28795   1.267   2.216   4.256
 9299SOL    HW128796   1.215   2.300   4.273
 9299SOL    HW228797   1.221   2.139   4.299
 9300SOL     OW28798   0.431   5.030   6.164
 9300SOL    HW128799   0.462   5.116   6.124
 9300SOL    HW228800   0.484   4.954   6.126
 9301SOL     OW28801   5.823   5.334   4.313
 9301SOL    HW128802   5.751   5.315   4.246
 9301SOL    HW228803   5.802   5.419   4.361
 9302SOL     OW28804   2.142   3.337   4.263
 9302SOL    HW128805   2.160   3.349   4.361
 9302SOL    HW228806   2.159   3.241   4.238
 9303SOL     OW28807   3.108   3.410   0.762
 9303SOL    HW128808   3.059   3.337   0.716
 9303SOL    HW228809   3.074   3.499   0.730
 9304SOL     OW28810   4.520   4.565   0.756
 9304SOL    HW128811   4.464   4.602   0.681
 9304SOL    HW228812   4.588   4.632   0.784
 9305SOL     OW28813   3.700   0.308   0.728
 9305SOL    HW128814   3.773   0.373   0.708
 9305SOL    HW228815   3.712   0.271   0.820
 9306SOL     OW28816   1.448   3.720   5.577
 9306SOL    HW128817   1.516   3.775   5.625
 9306SOL    HW228818   1.381   3.686   5.643
 9307SOL     OW28819   0.909   3.846   0.517
 9307SOL    HW128820   0.857   3.877   0.596
 9307SOL    HW228821   0.919   3.921   0.452
 9308SOL     OW28822   1.652   3.572   2.209
 9308SOL    HW128823   1.627   3.663   2.177
 9308SOL    HW228824   1.649   3.508   2.133
 9309SOL     OW28825   3.422   5.676   5.540
 9309SOL    HW128826   3.334   5.699   5.499
 9309SOL    HW228827   3.406   5.622   5.623
 9310SOL     OW28828   5.435   6.497   5.627
 9310SOL    HW128829   5.382   6.440   5.564
 9310SOL    HW228830   5.430   6.457   5.719
 9311SOL     OW28831   5.311   4.432   1.246
 9311SOL    HW128832   5.336   4.461   1.338
 9311SOL    HW228833   5.350   4.342   1.227
 9312SOL     OW28834   2.015   2.436   0.993
 9312SOL    HW128835   2.034   2.378   1.073
 9312SOL    HW228836   1.965   2.518   1.022
 9313SOL     OW28837   0.207   0.625   1.692
 9313SOL    HW128838   0.259   0.657   1.613
 9313SOL    HW228839   0.194   0.701   1.756
 9314SOL     OW28840   6.989   3.489   6.630
 9314SOL    HW128841   6.905   3.446   6.597
 9314SOL    HW228842   0.021   3.422   6.684
 9315SOL     OW28843   6.633   6.857   5.749
 9315SOL    HW128844   6.657   6.760   5.744
 9315SOL    HW228845   6.598   6.887   5.660
 9316SOL     OW28846   6.291   6.535   5.563
 9316SOL    HW128847   6.209   6.495   5.522
 9316SOL    HW228848   6.269   6.570   5.654
 9317SOL     OW28849   4.472   5.720   4.297
 9317SOL    HW128850   4.408   5.795   4.313
 9317SOL    HW228851   4.450   5.644   4.358
 9318SOL     OW28852   6.121   0.312   6.641
 9318SOL    HW128853   6.036   0.336   6.593
 9318SOL    HW228854   6.130   0.369   6.723
 9319SOL     OW28855   2.575   2.799   1.086
 9319SOL    HW128856   2.550   2.890   1.119
 9319SOL    HW228857   2.563   2.732   1.160
 9320SOL     OW28858   4.046   0.329   5.465
 9320SOL    HW128859   3.987   0.406   5.488
 9320SOL    HW228860   3.997   0.243   5.481
 9321SOL     OW28861   0.713   1.108   5.039
 9321SOL    HW128862   0.720   1.020   4.993
 9321SOL    HW228863   0.725   1.182   4.972
 9322SOL     OW28864   0.237   4.292   6.707
 9322SOL    HW128865   0.208   4.371   6.762
 9322SOL    HW228866   0.219   4.208   6.759
 9323SOL     OW28867   1.150   1.035   4.565
 9323SOL    HW128868   1.174   1.027   4.468
 9323SOL    HW228869   1.136   1.131   4.587
 9324SOL     OW28870   1.664   3.894   2.490
 9324SOL    HW128871   1.713   3.808   2.481
 9324SOL    HW228872   1.703   3.946   2.566
 9325SOL     OW28873   6.992   0.367   0.374
 9325SOL    HW128874   6.952   0.276   0.390
 9325SOL    HW228875   0.062   0.372   0.419
 9326SOL     OW28876   2.639   4.993   0.253
 9326SOL    HW128877   2.562   4.942   0.214
 9326SOL    HW228878   2.606   5.078   0.292
 9327SOL     OW28879   4.294   6.993   2.335
 9327SOL    HW128880   4.242   0.041   2.285
 9327SOL    HW228881   4.267   6.901   2.305
 9328SOL     OW28882   1.839   0.368   4.776
 9328SOL    HW128883   1.792   0.280   4.784
 9328SOL    HW228884   1.876   0.378   4.684
 9329SOL     OW28885   6.421   4.613   0.817
 9329SOL    HW128886   6.512   4.585   0.848
 9329SOL    HW228887   6.424   4.630   0.718
 9330SOL     OW28888   6.840   0.012   5.608
 9330SOL    HW128889   6.890   6.945   5.601
 9330SOL    HW228890   6.751   7.016   5.652
 9331SOL     OW28891   2.328   1.568   6.096
 9331SOL    HW128892   2.238   1.605   6.116
 9331SOL    HW228893   2.397   1.640   6.105
 9332SOL     OW28894   3.704   5.367   0.459
 9332SOL    HW128895   3.702   5.406   0.551
 9332SOL    HW228896   3.613   5.332   0.436
 9333SOL     OW28897   3.842   5.455   6.344
 9333SOL    HW128898   3.753   5.500   6.346
 9333SOL    HW228899   3.832   5.361   6.378
 9334SOL     OW28900   4.961   6.186   4.951
 9334SOL    HW128901   4.944   6.211   4.856
 9334SOL    HW228902   4.912   6.101   4.972
 9335SOL     OW28903   1.832   1.474   0.009
 9335SOL    HW128904   1.822   1.377   0.032
 9335SOL    HW228905   1.800   1.489   6.935
 9336SOL     OW28906   4.793   6.793   4.414
 9336SOL    HW128907   4.716   6.855   4.403
 9336SOL    HW228908   4.809   6.743   4.328
 9337SOL     OW28909   4.939   1.420   5.790
 9337SOL    HW128910   5.035   1.402   5.809
 9337SOL    HW228911   4.915   1.511   5.823
 9338SOL     OW28912   6.002   6.597   0.948
 9338SOL    HW128913   5.908   6.575   0.920
 9338SOL    HW228914   6.035   6.527   1.011
 9339SOL     OW28915   6.080   5.674   0.092
 9339SOL    HW128916   6.053   5.759   0.136
 9339SOL    HW228917   6.035   5.597   0.137
 9340SOL     OW28918   3.427   4.927   2.876
 9340SOL    HW128919   3.453   4.901   2.783
 9340SOL    HW228920   3.339   4.885   2.899
 9341SOL     OW28921   5.986   4.572   1.132
 9341SOL    HW128922   5.929   4.624   1.195
 9341SOL    HW228923   6.069   4.623   1.112
 9342SOL     OW28924   2.185   0.226   4.528
 9342SOL    HW128925   2.208   0.303   4.469
 9342SOL    HW228926   2.197   0.140   4.478
 9343SOL     OW28927   4.812   4.113   2.361
 9343SOL    HW128928   4.911   4.109   2.377
 9343SOL    HW228929   4.794   4.168   2.279
 9344SOL     OW28930   5.124   5.985   0.642
 9344SOL    HW128931   5.105   6.072   0.597
 9344SOL    HW228932   5.214   5.952   0.614
 9345SOL     OW28933   6.346   4.546   1.975
 9345SOL    HW128934   6.297   4.565   1.890
 9345SOL    HW228935   6.280   4.535   2.050
 9346SOL     OW28936   4.624   0.193   1.785
 9346SOL    HW128937   4.670   0.278   1.810
 9346SOL    HW228938   4.572   0.160   1.864
 9347SOL     OW28939   3.134   5.994   0.477
 9347SOL    HW128940   3.192   5.932   0.424
 9347SOL    HW228941   3.038   5.969   0.464
 9348SOL     OW28942   2.698   5.686   2.638
 9348SOL    HW128943   2.680   5.696   2.540
 9348SOL    HW228944   2.713   5.590   2.660
 9349SOL     OW28945   6.435   5.492   2.353
 9349SOL    HW128946   6.459   5.559   2.423
 9349SOL    HW228947   6.502   5.418   2.354
 9350SOL     OW28948   6.429   1.781   4.303
 9350SOL    HW128949   6.401   1.755   4.395
 9350SOL    HW228950   6.526   1.803   4.302
 9351SOL     OW28951   3.393   0.289   6.308
 9351SOL    HW128952   3.370   0.205   6.357
 9351SOL    HW228953   3.309   0.341   6.290
 9352SOL     OW28954   3.498   2.792   6.104
 9352SOL    HW128955   3.550   2.795   6.189
 9352SOL    HW228956   3.516   2.706   6.057
 9353SOL     OW28957   1.504   4.316   0.975
 9353SOL    HW128958   1.466   4.224   0.984
 9353SOL    HW228959   1.433   4.377   0.940
 9354SOL     OW28960   7.004   2.059   6.276
 9354SOL    HW128961   6.912   2.088   6.303
 9354SOL    HW228962   0.031   2.018   6.355
 9355SOL     OW28963   6.842   1.572   4.491
 9355SOL    HW128964   6.820   1.573   4.589
 9355SOL    HW228965   6.896   1.490   4.470
 9356SOL     OW28966   4.723   5.713   1.863
 9356SOL    HW128967   4.632   5.717   1.823
 9356SOL    HW228968   4.718   5.670   1.953
 9357SOL     OW28969   3.377   3.135   6.290
 9357SOL    HW128970   3.339   3.066   6.352
 9357SOL    HW228971   3.324   3.219   6.298
 9358SOL     OW28972   6.720   3.386   2.726
 9358SOL    HW128973   6.721   3.414   2.630
 9358SOL    HW228974   6.769   3.453   2.781
 9359SOL     OW28975   1.127   4.075   5.598
 9359SOL    HW128976   1.189   4.141   5.640
 9359SOL    HW228977   1.057   4.049   5.663
 9360SOL     OW28978   1.582   6.365   6.322
 9360SOL    HW128979   1.624   6.296   6.263
 9360SOL    HW228980   1.500   6.328   6.365
 9361SOL     OW28981   1.217   6.364   3.046
 9361SOL    HW128982   1.259   6.300   2.982
 9361SOL    HW228983   1.257   6.455   3.034
 9362SOL     OW28984   2.088   2.628   2.330
 9362SOL    HW128985   2.180   2.667   2.319
 9362SOL    HW228986   2.026   2.672   2.265
 9363SOL     OW28987   3.578   6.158   1.701
 9363SOL    HW128988   3.535   6.070   1.678
 9363SOL    HW228989   3.508   6.228   1.711
 9364SOL     OW28990   3.665   3.137   5.823
 9364SOL    HW128991   3.664   3.209   5.753
 9364SOL    HW228992   3.578   3.087   5.821
 9365SOL     OW28993   2.441   2.335   5.040
 9365SOL    HW128994   2.526   2.368   5.000
 9365SOL    HW228995   2.397   2.409   5.090
 9366SOL     OW28996   3.455   6.860   0.013
 9366SOL    HW128997   3.528   6.903   6.980
 9366SOL    HW228998   3.394   6.930   0.050
 9367SOL     OW28999   6.809   6.191   2.742
 9367SOL    HW129000   6.854   6.230   2.661
 9367SOL    HW229001   6.790   6.094   2.726
 9368SOL     OW29002   2.787   1.434   3.717
 9368SOL    HW129003   2.714   1.399   3.658
 9368SOL    HW229004   2.876   1.417   3.675
 9369SOL     OW29005   6.957   6.900   4.954
 9369SOL    HW129006   6.967   6.896   4.855
 9369SOL    HW229007   6.947   6.995   4.983
 9370SOL     OW29008   5.049   0.235   1.938
 9370SOL    HW129009   4.983   0.198   1.873
 9370SOL    HW229010   5.132   0.262   1.890
 9371SOL     OW29011   1.992   4.976   0.533
 9371SOL    HW129012   1.931   4.934   0.600
 9371SOL    HW229013   2.033   5.058   0.572
 9372SOL     OW29014   5.292   6.249   2.692
 9372SOL    HW129015   5.370   6.300   2.654
 9372SOL    HW229016   5.220   6.313   2.719
 9373SOL     OW29017   4.691   1.934   1.787
 9373SOL    HW129018   4.603   1.889   1.784
 9373SOL    HW229019   4.764   1.866   1.795
 9374SOL     OW29020   0.851   3.421   0.604
 9374SOL    HW129021   0.786   3.452   0.673
 9374SOL    HW229022   0.916   3.358   0.645
 9375SOL     OW29023   6.511   1.337   3.186
 9375SOL    HW129024   6.548   1.373   3.271
 9375SOL    HW229025   6.443   1.267   3.206
 9376SOL     OW29026   3.465   4.512   1.130
 9376SOL    HW129027   3.419   4.567   1.060
 9376SOL    HW229028   3.420   4.526   1.218
 9377SOL     OW29029   1.979   5.510   3.963
 9377SOL    HW129030   1.984   5.560   4.049
 9377SOL    HW229031   1.915   5.433   3.972
 9378SOL     OW29032   1.601   1.457   5.175
 9378SOL    HW129033   1.592   1.400   5.093
 9378SOL    HW229034   1.567   1.407   5.254
 9379SOL     OW29035   3.751   5.575   5.261
 9379SOL    HW129036   3.813   5.498   5.278
 9379SOL    HW229037   3.775   5.651   5.322
 9380SOL     OW29038   5.681   5.201   4.916
 9380SOL    HW129039   5.683   5.107   4.950
 9380SOL    HW229040   5.585   5.230   4.906
 9381SOL     OW29041   3.850   2.578   5.905
 9381SOL    HW129042   3.920   2.567   5.835
 9381SOL    HW229043   3.870   2.659   5.960
 9382SOL     OW29044   3.639   0.920   3.141
 9382SOL    HW129045   3.723   0.896   3.190
 9382SOL    HW229046   3.629   0.861   3.061
 9383SOL     OW29047   1.350   5.679   4.431
 9383SOL    HW129048   1.287   5.625   4.487
 9383SOL    HW229049   1.302   5.709   4.348
 9384SOL     OW29050   3.566   0.027   1.888
 9384SOL    HW129051   3.546   0.122   1.913
 9384SOL    HW229052   3.628   0.026   1.810
 9385SOL     OW29053   4.080   0.345   3.316
 9385SOL    HW129054   4.145   0.271   3.300
 9385SOL    HW229055   4.122   0.413   3.377
 9386SOL     OW29056   1.768   6.310   4.924
 9386SOL    HW129057   1.775   6.384   4.992
 9386SOL    HW229058   1.852   6.256   4.926
 9387SOL     OW29059   2.507   1.634   6.983
 9387SOL    HW129060   2.564   1.608   0.041
 9387SOL    HW229061   2.421   1.672   7.016
 9388SOL     OW29062   2.328   5.504   2.726
 9388SOL    HW129063   2.312   5.446   2.806
 9388SOL    HW229064   2.401   5.569   2.745
 9389SOL     OW29065   1.494   6.932   3.973
 9389SOL    HW129066   1.553   6.862   3.933
 9389SOL    HW229067   1.486   7.009   3.910
 9390SOL     OW29068   4.338   4.795   4.843
 9390SOL    HW129069   4.379   4.764   4.757
 9390SOL    HW229070   4.349   4.725   4.913
 9391SOL     OW29071   2.149   1.441   4.886
 9391SOL    HW129072   2.194   1.467   4.971
 9391SOL    HW229073   2.132   1.523   4.831
 9392SOL     OW29074   6.561   0.602   6.079
 9392SOL    HW129075   6.580   0.661   6.001
 9392SOL    HW229076   6.479   0.548   6.061
 9393SOL     OW29077   3.344   6.859   6.100
 9393SOL    HW129078   3.362   6.778   6.155
 9393SOL    HW229079   3.275   6.916   6.146
 9394SOL     OW29080   0.469   1.690   2.219
 9394SOL    HW129081   0.458   1.692   2.318
 9394SOL    HW229082   0.549   1.745   2.193
 9395SOL     OW29083   2.840   1.967   1.097
 9395SOL    HW129084   2.866   1.918   1.014
 9395SOL    HW229085   2.895   2.050   1.105
 9396SOL     OW29086   1.886   4.954   4.010
 9396SOL    HW129087   1.929   5.040   3.983
 9396SOL    HW229088   1.787   4.965   4.016
 9397SOL     OW29089   4.333   0.152   6.455
 9397SOL    HW129090   4.394   0.142   6.376
 9397SOL    HW229091   4.329   0.248   6.483
 9398SOL     OW29092   6.997   0.527   4.929
 9398SOL    HW129093   0.038   0.527   4.849
 9398SOL    HW229094   6.910   0.570   4.904
 9399SOL     OW29095   0.256   1.887   5.512
 9399SOL    HW129096   0.272   1.981   5.481
 9399SOL    HW229097   0.332   1.829   5.483
 9400SOL     OW29098   4.023   1.308   2.160
 9400SOL    HW129099   4.095   1.269   2.218
 9400SOL    HW229100   4.023   1.407   2.169
 9401SOL     OW29101   5.791   0.576   3.224
 9401SOL    HW129102   5.867   0.514   3.242
 9401SOL    HW229103   5.805   0.621   3.136
 9402SOL     OW29104   1.428   4.818   3.748
 9402SOL    HW129105   1.524   4.811   3.721
 9402SOL    HW229106   1.420   4.813   3.847
 9403SOL     OW29107   6.188   1.572   3.070
 9403SOL    HW129108   6.093   1.604   3.074
 9403SOL    HW229109   6.189   1.477   3.042
 9404SOL     OW29110   1.352   3.580   6.723
 9404SOL    HW129111   1.441   3.559   6.763
 9404SOL    HW229112   1.353   3.556   6.626
 9405SOL     OW29113   1.471   5.357   2.802
 9405SOL    HW129114   1.423   5.294   2.741
 9405SOL    HW229115   1.557   5.386   2.759
 9406SOL     OW29116   6.682   3.247   5.861
 9406SOL    HW129117   6.743   3.204   5.794
 9406SOL    HW229118   6.588   3.218   5.843
 9407SOL     OW29119   2.729   5.433   2.745
 9407SOL    HW129120   2.718   5.341   2.708
 9407SOL    HW229121   2.766   5.427   2.837
 9408SOL     OW29122   5.519   1.982   6.211
 9408SOL    HW129123   5.436   1.956   6.161
 9408SOL    HW229124   5.497   2.055   6.275
 9409SOL     OW29125   6.014   5.438   0.269
 9409SOL    HW129126   5.997   5.381   0.350
 9409SOL    HW229127   6.021   5.380   0.188
 9410SOL     OW29128   3.114   0.414   2.011
 9410SOL    HW129129   3.114   0.388   2.107
 9410SOL    HW229130   3.027   0.389   1.969
 9411SOL     OW29131   3.053   3.175   2.218
 9411SOL    HW129132   2.957   3.149   2.213
 9411SOL    HW229133   3.082   3.212   2.130
 9412SOL     OW29134   6.870   2.346   2.593
 9412SOL    HW129135   6.889   2.251   2.619
 9412SOL    HW229136   6.772   2.364   2.602
 9413SOL     OW29137   3.405   6.157   3.432
 9413SOL    HW129138   3.498   6.137   3.402
 9413SOL    HW229139   3.348   6.076   3.419
 9414SOL     OW29140   3.216   0.592   3.537
 9414SOL    HW129141   3.187   0.605   3.632
 9414SOL    HW229142   3.284   0.662   3.513
 9415SOL     OW29143   2.989   6.943   1.607
 9415SOL    HW129144   3.017   0.013   1.641
 9415SOL    HW229145   3.037   6.871   1.658
 9416SOL     OW29146   0.442   2.678   0.788
 9416SOL    HW129147   0.399   2.765   0.764
 9416SOL    HW229148   0.387   2.631   0.857
 9417SOL     OW29149   4.151   0.571   6.599
 9417SOL    HW129150   4.136   0.659   6.644
 9417SOL    HW229151   4.156   0.499   6.668
 9418SOL     OW29152   3.531   6.644   1.011
 9418SOL    HW129153   3.603   6.711   0.994
 9418SOL    HW229154   3.448   6.670   0.961
 9419SOL     OW29155   3.826   5.174   5.635
 9419SOL    HW129156   3.885   5.230   5.692
 9419SOL    HW229157   3.785   5.101   5.690
 9420SOL     OW29158   6.796   3.874   5.981
 9420SOL    HW129159   6.747   3.792   6.010
 9420SOL    HW229160   6.885   3.848   5.943
 9421SOL     OW29161   1.980   6.725   4.183
 9421SOL    HW129162   2.061   6.747   4.237
 9421SOL    HW229163   1.902   6.710   4.243
 9422SOL     OW29164   3.561   5.747   3.303
 9422SOL    HW129165   3.562   5.791   3.393
 9422SOL    HW229166   3.502   5.666   3.307
 9423SOL     OW29167   3.232   0.162   4.007
 9423SOL    HW129168   3.321   0.142   4.047
 9423SOL    HW229169   3.219   0.108   3.924
 9424SOL     OW29170   5.268   0.995   4.448
 9424SOL    HW129171   5.301   1.065   4.385
 9424SOL    HW229172   5.287   1.024   4.542
 9425SOL     OW29173   6.778   2.915   6.951
 9425SOL    HW129174   6.727   2.855   6.889
 9425SOL    HW229175   6.874   2.916   6.924
 9426SOL     OW29176   3.562   1.627   6.193
 9426SOL    HW129177   3.538   1.605   6.098
 9426SOL    HW229178   3.485   1.674   6.236
 9427SOL     OW29179   2.566   4.915   3.288
 9427SOL    HW129180   2.487   4.960   3.328
 9427SOL    HW229181   2.586   4.831   3.339
 9428SOL     OW29182   6.338   0.603   0.887
 9428SOL    HW129183   6.287   0.686   0.910
 9428SOL    HW229184   6.391   0.619   0.804
 9429SOL     OW29185   2.073   3.639   2.502
 9429SOL    HW129186   1.974   3.627   2.500
 9429SOL    HW229187   2.114   3.596   2.421
 9430SOL     OW29188   0.562   4.269   2.932
 9430SOL    HW129189   0.471   4.228   2.944
 9430SOL    HW229190   0.584   4.325   3.012
 9431SOL     OW29191   6.420   3.673   1.284
 9431SOL    HW129192   6.329   3.703   1.314
 9431SOL    HW229193   6.415   3.579   1.253
 9432SOL     OW29194   4.879   0.377   2.910
 9432SOL    HW129195   4.907   0.319   2.834
 9432SOL    HW229196   4.913   0.339   2.996
 9433SOL     OW29197   2.981   5.562   2.536
 9433SOL    HW129198   2.940   5.471   2.544
 9433SOL    HW229199   2.908   5.630   2.521
 9434SOL     OW29200   5.440   4.818   3.061
 9434SOL    HW129201   5.449   4.891   2.993
 9434SOL    HW229202   5.384   4.744   3.024
 9435SOL     OW29203   0.200   2.446   4.415
 9435SOL    HW129204   0.105   2.466   4.437
 9435SOL    HW229205   0.235   2.516   4.352
 9436SOL     OW29206   1.545   2.502   1.287
 9436SOL    HW129207   1.482   2.527   1.361
 9436SOL    HW229208   1.529   2.561   1.208
 9437SOL     OW29209   1.582   5.680   3.354
 9437SOL    HW129210   1.571   5.712   3.260
 9437SOL    HW229211   1.529   5.738   3.415
 9438SOL     OW29212   6.900   0.336   1.388
 9438SOL    HW129213   6.846   0.318   1.470
 9438SOL    HW229214   6.839   0.351   1.310
 9439SOL     OW29215   1.189   3.440   1.075
 9439SOL    HW129216   1.118   3.500   1.039
 9439SOL    HW229217   1.164   3.409   1.167
 9440SOL     OW29218   3.970   4.918   3.440
 9440SOL    HW129219   3.983   4.965   3.353
 9440SOL    HW229220   4.041   4.850   3.453
 9441SOL     OW29221   0.328   3.237   5.240
 9441SOL    HW129222   0.382   3.207   5.161
 9441SOL    HW229223   0.243   3.280   5.208
 9442SOL     OW29224   4.796   2.827   0.709
 9442SOL    HW129225   4.820   2.748   0.765
 9442SOL    HW229226   4.863   2.836   0.634
 9443SOL     OW29227   2.199   5.445   0.578
 9443SOL    HW129228   2.105   5.439   0.544
 9443SOL    HW229229   2.232   5.353   0.602
 9444SOL     OW29230   1.476   3.547   0.172
 9444SOL    HW129231   1.552   3.561   0.109
 9444SOL    HW229232   1.454   3.634   0.217
 9445SOL     OW29233   5.870   3.382   3.638
 9445SOL    HW129234   5.916   3.301   3.674
 9445SOL    HW229235   5.777   3.386   3.674
 9446SOL     OW29236   6.501   5.484   4.015
 9446SOL    HW129237   6.571   5.469   4.085
 9446SOL    HW229238   6.458   5.573   4.029
 9447SOL     OW29239   5.807   3.802   4.299
 9447SOL    HW129240   5.715   3.823   4.267
 9447SOL    HW229241   5.872   3.810   4.222
 9448SOL     OW29242   0.288   0.263   6.931
 9448SOL    HW129243   0.273   0.353   6.971
 9448SOL    HW229244   0.361   0.268   6.864
 9449SOL     OW29245   6.533   5.999   0.327
 9449SOL    HW129246   6.439   6.017   0.356
 9449SOL    HW229247   6.533   5.932   0.253
 9450SOL     OW29248   2.406   5.744   4.768
 9450SOL    HW129249   2.434   5.777   4.858
 9450SOL    HW229250   2.482   5.696   4.724
 9451SOL     OW29251   4.299   6.691   5.892
 9451SOL    HW129252   4.224   6.696   5.826
 9451SOL    HW229253   4.271   6.735   5.977
 9452SOL     OW29254   1.872   4.161   0.464
 9452SOL    HW129255   1.849   4.227   0.393
 9452SOL    HW229256   1.970   4.142   0.463
 9453SOL     OW29257   1.777   5.084   3.576
 9453SOL    HW129258   1.773   5.139   3.659
 9453SOL    HW229259   1.780   5.144   3.496
 9454SOL     OW29260   3.847   2.859   6.629
 9454SOL    HW129261   3.799   2.942   6.658
 9454SOL    HW229262   3.922   2.883   6.569
 9455SOL     OW29263   3.080   1.886   3.221
 9455SOL    HW129264   3.110   1.982   3.218
 9455SOL    HW229265   3.006   1.872   3.156
 9456SOL     OW29266   0.775   3.369   1.117
 9456SOL    HW129267   0.768   3.271   1.136
 9456SOL    HW229268   0.833   3.412   1.187
 9457SOL     OW29269   2.183   3.762   5.224
 9457SOL    HW129270   2.243   3.683   5.233
 9457SOL    HW229271   2.232   3.836   5.178
 9458SOL     OW29272   1.234   3.269   6.799
 9458SOL    HW129273   1.211   3.205   6.726
 9458SOL    HW229274   1.152   3.318   6.828
 9459SOL     OW29275   5.151   4.717   3.708
 9459SOL    HW129276   5.247   4.698   3.725
 9459SOL    HW229277   5.096   4.635   3.728
 9460SOL     OW29278   0.643   3.189   4.156
 9460SOL    HW129279   0.578   3.114   4.148
 9460SOL    HW229280   0.723   3.159   4.208
 9461SOL     OW29281   6.934   1.942   1.761
 9461SOL    HW129282   6.963   2.026   1.806
 9461SOL    HW229283   6.862   1.898   1.815
 9462SOL     OW29284   2.109   3.960   3.258
 9462SOL    HW129285   2.065   3.871   3.268
 9462SOL    HW229286   2.170   3.958   3.178
 9463SOL     OW29287   6.537   0.539   1.939
 9463SOL    HW129288   6.471   0.605   1.904
 9463SOL    HW229289   6.503   0.499   2.024
 9464SOL     OW29290   6.175   0.393   0.858
 9464SOL    HW129291   6.208   0.308   0.898
 9464SOL    HW229292   6.236   0.468   0.884
 9465SOL     OW29293   1.577   4.591   2.863
 9465SOL    HW129294   1.645   4.587   2.790
 9465SOL    HW229295   1.591   4.514   2.926
 9466SOL     OW29296   4.325   4.743   6.073
 9466SOL    HW129297   4.395   4.680   6.108
 9466SOL    HW229298   4.319   4.734   5.974
 9467SOL     OW29299   1.537   2.567   2.136
 9467SOL    HW129300   1.464   2.532   2.078
 9467SOL    HW229301   1.503   2.579   2.229
 9468SOL     OW29302   5.844   3.074   6.268
 9468SOL    HW129303   5.797   3.102   6.352
 9468SOL    HW229304   5.937   3.045   6.291
 9469SOL     OW29305   6.540   5.909   1.877
 9469SOL    HW129306   6.508   5.950   1.791
 9469SOL    HW229307   6.623   5.856   1.860
 9470SOL     OW29308   4.934   3.123   5.425
 9470SOL    HW129309   5.004   3.054   5.443
 9470SOL    HW229310   4.908   3.168   5.510
 9471SOL     OW29311   6.797   1.600   4.782
 9471SOL    HW129312   6.719   1.653   4.814
 9471SOL    HW229313   6.807   1.518   4.839
 9472SOL     OW29314   6.427   3.544   5.187
 9472SOL    HW129315   6.435   3.456   5.141
 9472SOL    HW229316   6.357   3.538   5.258
 9473SOL     OW29317   2.595   5.086   6.379
 9473SOL    HW129318   2.634   5.177   6.394
 9473SOL    HW229319   2.639   5.043   6.300
 9474SOL     OW29320   0.615   2.647   6.946
 9474SOL    HW129321   0.601   2.608   0.017
 9474SOL    HW229322   0.634   2.573   6.881
 9475SOL     OW29323   3.172   3.582   6.195
 9475SOL    HW129324   3.190   3.491   6.231
 9475SOL    HW229325   3.164   3.577   6.095
 9476SOL     OW29326   3.743   3.992   4.723
 9476SOL    HW129327   3.666   4.048   4.693
 9476SOL    HW229328   3.750   3.911   4.665
 9477SOL     OW29329   0.545   3.579   1.344
 9477SOL    HW129330   0.534   3.498   1.401
 9477SOL    HW229331   0.630   3.625   1.367
 9478SOL     OW29332   4.828   3.135   0.055
 9478SOL    HW129333   4.909   3.077   0.049
 9478SOL    HW229334   4.848   3.216   0.110
 9479SOL     OW29335   3.775   6.223   6.744
 9479SOL    HW129336   3.807   6.151   6.805
 9479SOL    HW229337   3.783   6.312   6.790
 9480SOL     OW29338   4.951   3.708   0.775
 9480SOL    HW129339   4.868   3.762   0.760
 9480SOL    HW229340   4.952   3.630   0.713
 9481SOL     OW29341   4.826   3.163   2.441
 9481SOL    HW129342   4.910   3.207   2.474
 9481SOL    HW229343   4.752   3.177   2.507
 9482SOL     OW29344   0.261   1.435   3.568
 9482SOL    HW129345   0.311   1.366   3.515
 9482SOL    HW229346   0.308   1.523   3.559
 9483SOL     OW29347   1.528   1.955   1.746
 9483SOL    HW129348   1.558   1.988   1.656
 9483SOL    HW229349   1.544   2.026   1.814
 9484SOL     OW29350   4.019   0.908   3.626
 9484SOL    HW129351   4.098   0.961   3.656
 9484SOL    HW229352   3.976   0.864   3.706
 9485SOL     OW29353   0.271   0.432   0.449
 9485SOL    HW129354   0.296   0.337   0.468
 9485SOL    HW229355   0.336   0.494   0.493
 9486SOL     OW29356   3.376   6.557   0.711
 9486SOL    HW129357   3.365   6.628   0.780
 9486SOL    HW229358   3.287   6.517   0.690
 9487SOL     OW29359   3.717   3.647   4.026
 9487SOL    HW129360   3.743   3.739   3.998
 9487SOL    HW229361   3.789   3.583   4.002
 9488SOL     OW29362   2.097   6.889   1.017
 9488SOL    HW129363   2.040   6.816   0.979
 9488SOL    HW229364   2.124   6.865   1.110
 9489SOL     OW29365   4.425   4.405   1.628
 9489SOL    HW129366   4.444   4.355   1.543
 9489SOL    HW229367   4.438   4.345   1.706
 9490SOL     OW29368   6.876   5.065   1.893
 9490SOL    HW129369   6.870   5.012   1.977
 9490SOL    HW229370   6.971   5.095   1.878
 9491SOL     OW29371   6.451   4.909   3.980
 9491SOL    HW129372   6.414   4.919   3.888
 9491SOL    HW229373   6.492   4.995   4.009
 9492SOL     OW29374   3.524   2.890   3.500
 9492SOL    HW129375   3.564   2.982   3.498
 9492SOL    HW229376   3.494   2.869   3.593
 9493SOL     OW29377   2.922   5.379   3.634
 9493SOL    HW129378   2.953   5.473   3.623
 9493SOL    HW229379   2.856   5.374   3.709
 9494SOL     OW29380   4.765   3.933   1.919
 9494SOL    HW129381   4.765   4.030   1.898
 9494SOL    HW229382   4.827   3.915   1.996
 9495SOL     OW29383   6.361   2.137   3.553
 9495SOL    HW129384   6.347   2.039   3.565
 9495SOL    HW229385   6.392   2.177   3.639
 9496SOL     OW29386   6.342   4.080   1.598
 9496SOL    HW129387   6.438   4.088   1.570
 9496SOL    HW229388   6.330   4.123   1.687
 9497SOL     OW29389   5.464   6.135   6.507
 9497SOL    HW129390   5.464   6.235   6.507
 9497SOL    HW229391   5.553   6.101   6.537
 9498SOL     OW29392   4.371   6.740   4.324
 9498SOL    HW129393   4.402   6.709   4.234
 9498SOL    HW229394   4.373   6.663   4.388
 9499SOL     OW29395   2.001   5.364   6.411
 9499SOL    HW129396   1.910   5.399   6.391
 9499SOL    HW229397   1.994   5.276   6.457
 9500SOL     OW29398   5.226   0.512   0.598
 9500SOL    HW129399   5.201   0.590   0.656
 9500SOL    HW229400   5.210   0.427   0.648
 9501SOL     OW29401   2.985   1.265   4.421
 9501SOL    HW129402   3.032   1.276   4.333
 9501SOL    HW229403   3.050   1.229   4.489
 9502SOL     OW29404   5.426   2.472   5.223
 9502SOL    HW129405   5.416   2.422   5.137
 9502SOL    HW229406   5.432   2.570   5.204
 9503SOL     OW29407   0.309   1.768   1.485
 9503SOL    HW129408   0.375   1.706   1.528
 9503SOL    HW229409   0.227   1.717   1.460
 9504SOL     OW29410   0.515   2.390   1.019
 9504SOL    HW129411   0.493   2.473   1.071
 9504SOL    HW229412   0.470   2.311   1.060
 9505SOL     OW29413   4.785   4.641   3.282
 9505SOL    HW129414   4.776   4.596   3.193
 9505SOL    HW229415   4.882   4.653   3.303
 9506SOL     OW29416   0.519   2.132   6.338
 9506SOL    HW129417   0.539   2.181   6.422
 9506SOL    HW229418   0.541   2.035   6.350
 9507SOL     OW29419   0.818   2.621   3.453
 9507SOL    HW129420   0.877   2.548   3.417
 9507SOL    HW229421   0.849   2.709   3.418
 9508SOL     OW29422   6.192   2.527   0.601
 9508SOL    HW129423   6.146   2.490   0.681
 9508SOL    HW229424   6.273   2.473   0.581
 9509SOL     OW29425   1.177   1.291   3.899
 9509SOL    HW129426   1.239   1.260   3.826
 9509SOL    HW229427   1.167   1.390   3.893
 9510SOL     OW29428   1.378   3.295   2.963
 9510SOL    HW129429   1.284   3.303   2.996
 9510SOL    HW229430   1.423   3.218   3.008
 9511SOL     OW29431   0.863   0.628   0.614
 9511SOL    HW129432   0.945   0.685   0.618
 9511SOL    HW229433   0.889   0.531   0.614
 9512SOL     OW29434   5.801   1.879   1.136
 9512SOL    HW129435   5.767   1.874   1.042
 9512SOL    HW229436   5.856   1.798   1.156
 9513SOL     OW29437   2.084   3.810   6.215
 9513SOL    HW129438   2.169   3.758   6.227
 9513SOL    HW229439   2.025   3.764   6.148
 9514SOL     OW29440   2.455   4.983   6.129
 9514SOL    HW129441   2.457   4.922   6.050
 9514SOL    HW229442   2.537   5.041   6.128
 9515SOL     OW29443   1.821   5.546   1.014
 9515SOL    HW129444   1.797   5.496   1.097
 9515SOL    HW229445   1.792   5.641   1.023
 9516SOL     OW29446   5.215   4.205   5.053
 9516SOL    HW129447   5.174   4.162   4.972
 9516SOL    HW229448   5.220   4.304   5.038
 9517SOL     OW29449   1.491   5.251   1.016
 9517SOL    HW129450   1.456   5.176   1.071
 9517SOL    HW229451   1.477   5.337   1.063
 9518SOL     OW29452   2.159   2.571   0.195
 9518SOL    HW129453   2.215   2.651   0.176
 9518SOL    HW229454   2.205   2.513   0.262
 9519SOL     OW29455   4.154   3.549   4.643
 9519SOL    HW129456   4.076   3.494   4.614
 9519SOL    HW229457   4.180   3.525   4.736
 9520SOL     OW29458   1.261   1.265   3.410
 9520SOL    HW129459   1.330   1.335   3.397
 9520SOL    HW229460   1.302   1.175   3.396
 9521SOL     OW29461   4.964   5.125   1.206
 9521SOL    HW129462   4.981   5.203   1.267
 9521SOL    HW229463   4.958   5.041   1.260
 9522SOL     OW29464   3.789   5.281   1.342
 9522SOL    HW129465   3.807   5.186   1.319
 9522SOL    HW229466   3.721   5.285   1.415
 9523SOL     OW29467   2.595   4.805   4.950
 9523SOL    HW129468   2.515   4.763   4.908
 9523SOL    HW229469   2.662   4.735   4.974
 9524SOL     OW29470   3.590   3.444   0.941
 9524SOL    HW129471   3.491   3.461   0.948
 9524SOL    HW229472   3.623   3.408   1.028
 9525SOL     OW29473   2.319   2.451   5.548
 9525SOL    HW129474   2.289   2.363   5.510
 9525SOL    HW229475   2.413   2.443   5.581
 9526SOL     OW29476   6.732   4.903   1.695
 9526SOL    HW129477   6.796   4.941   1.762
 9526SOL    HW229478   6.754   4.807   1.678
 9527SOL     OW29479   0.095   0.658   4.310
 9527SOL    HW129480   0.052   0.692   4.394
 9527SOL    HW229481   0.169   0.595   4.333
 9528SOL     OW29482   7.017   1.298   0.639
 9528SOL    HW129483   0.058   1.262   0.568
 9528SOL    HW229484   6.931   1.329   0.598
 9529SOL     OW29485   6.314   3.350   6.437
 9529SOL    HW129486   6.217   3.329   6.453
 9529SOL    HW229487   6.357   3.271   6.393
 9530SOL     OW29488   2.124   3.453   2.714
 9530SOL    HW129489   2.085   3.521   2.653
 9530SOL    HW229490   2.132   3.492   2.806
 9531SOL     OW29491   4.525   5.299   2.625
 9531SOL    HW129492   4.575   5.383   2.647
 9531SOL    HW229493   4.514   5.243   2.707
 9532SOL     OW29494   6.539   6.276   1.337
 9532SOL    HW129495   6.504   6.358   1.381
 9532SOL    HW229496   6.473   6.201   1.347
 9533SOL     OW29497   6.979   5.896   5.536
 9533SOL    HW129498   0.058   5.902   5.527
 9533SOL    HW229499   6.936   5.982   5.508
 9534SOL     OW29500   0.458   4.020   4.903
 9534SOL    HW129501   0.426   4.110   4.872
 9534SOL    HW229502   0.461   4.018   5.003
 9535SOL     OW29503   2.303   1.235   6.437
 9535SOL    HW129504   2.384   1.178   6.426
 9535SOL    HW229505   2.305   1.278   6.527
 9536SOL     OW29506   2.486   3.996   5.586
 9536SOL    HW129507   2.472   3.929   5.513
 9536SOL    HW229508   2.524   4.080   5.548
 9537SOL     OW29509   2.865   6.705   3.528
 9537SOL    HW129510   2.892   6.749   3.614
 9537SOL    HW229511   2.864   6.606   3.540
 9538SOL     OW29512   5.731   1.814   3.474
 9538SOL    HW129513   5.646   1.866   3.469
 9538SOL    HW229514   5.731   1.757   3.556
 9539SOL     OW29515   3.312   3.668   5.233
 9539SOL    HW129516   3.286   3.597   5.167
 9539SOL    HW229517   3.357   3.743   5.185
 9540SOL     OW29518   5.846   4.317   4.330
 9540SOL    HW129519   5.840   4.382   4.254
 9540SOL    HW229520   5.894   4.359   4.406
 9541SOL     OW29521   3.899   0.618   5.469
 9541SOL    HW129522   3.816   0.575   5.504
 9541SOL    HW229523   3.896   0.619   5.369
 9542SOL     OW29524   4.963   4.413   4.812
 9542SOL    HW129525   4.965   4.491   4.875
 9542SOL    HW229526   4.986   4.444   4.720
 9543SOL     OW29527   3.569   0.671   5.789
 9543SOL    HW129528   3.617   0.703   5.707
 9543SOL    HW229529   3.606   0.716   5.870
 9544SOL     OW29530   6.876   2.241   3.489
 9544SOL    HW129531   6.849   2.167   3.428
 9544SOL    HW229532   6.831   2.229   3.578
 9545SOL     OW29533   6.177   5.583   4.103
 9545SOL    HW129534   6.248   5.643   4.067
 9545SOL    HW229535   6.097   5.637   4.127
 9546SOL     OW29536   3.672   2.328   5.322
 9546SOL    HW129537   3.696   2.423   5.344
 9546SOL    HW229538   3.577   2.311   5.348
 9547SOL     OW29539   1.899   6.458   4.458
 9547SOL    HW129540   1.842   6.409   4.523
 9547SOL    HW229541   1.847   6.534   4.418
 9548SOL     OW29542   6.018   5.532   6.229
 9548SOL    HW129543   5.968   5.509   6.146
 9548SOL    HW229544   6.116   5.523   6.213
 9549SOL     OW29545   2.567   2.637   1.311
 9549SOL    HW129546   2.537   2.663   1.403
 9549SOL    HW229547   2.604   2.545   1.313
 9550SOL     OW29548   0.614   1.809   0.330
 9550SOL    HW129549   0.633   1.841   0.237
 9550SOL    HW229550   0.700   1.783   0.374
 9551SOL     OW29551   5.281   1.155   4.676
 9551SOL    HW129552   5.214   1.182   4.745
 9551SOL    HW229553   5.276   1.217   4.598
 9552SOL     OW29554   1.287   6.917   3.620
 9552SOL    HW129555   1.351   6.978   3.666
 9552SOL    HW229556   1.230   6.969   3.556
 9553SOL     OW29557   6.318   3.772   6.093
 9553SOL    HW129558   6.221   3.762   6.117
 9553SOL    HW229559   6.375   3.728   6.162
 9554SOL     OW29560   1.432   6.790   1.135
 9554SOL    HW129561   1.445   6.853   1.212
 9554SOL    HW229562   1.344   6.744   1.143
 9555SOL     OW29563   1.305   0.626   3.069
 9555SOL    HW129564   1.226   0.626   3.131
 9555SOL    HW229565   1.302   0.707   3.011
 9556SOL     OW29566   1.329   3.079   1.901
 9556SOL    HW129567   1.286   3.040   1.982
 9556SOL    HW229568   1.420   3.113   1.924
 9557SOL     OW29569   0.924   0.100   2.666
 9557SOL    HW129570   0.853   0.045   2.708
 9557SOL    HW229571   0.882   0.166   2.603
 9558SOL     OW29572   6.280   6.534   4.863
 9558SOL    HW129573   6.373   6.566   4.877
 9558SOL    HW229574   6.275   6.479   4.779
 9559SOL     OW29575   0.173   4.589   0.875
 9559SOL    HW129576   0.135   4.497   0.872
 9559SOL    HW229577   0.263   4.587   0.919
 9560SOL     OW29578   1.609   1.858   3.442
 9560SOL    HW129579   1.610   1.890   3.347
 9560SOL    HW229580   1.703   1.849   3.475
 9561SOL     OW29581   1.539   6.613   6.973
 9561SOL    HW129582   1.529   6.698   6.921
 9561SOL    HW229583   1.556   6.635   0.049
 9562SOL     OW29584   3.175   0.389   5.781
 9562SOL    HW129585   3.114   0.376   5.859
 9562SOL    HW229586   3.121   0.397   5.697
 9563SOL     OW29587   5.777   6.475   0.858
 9563SOL    HW129588   5.798   6.416   0.780
 9563SOL    HW229589   5.680   6.498   0.857
 9564SOL     OW29590   2.945   0.031   6.989
 9564SOL    HW129591   2.942   6.957   6.956
 9564SOL    HW229592   2.943   0.094   6.911
 9565SOL     OW29593   4.136   6.968   4.750
 9565SOL    HW129594   4.192   6.888   4.772
 9565SOL    HW229595   4.180   0.000   4.677
 9566SOL     OW29596   1.952   5.376   6.931
 9566SOL    HW129597   2.022   5.308   6.910
 9566SOL    HW229598   1.962   5.454   6.869
 9567SOL     OW29599   5.245   4.875   6.978
 9567SOL    HW129600   5.343   4.882   6.962
 9567SOL    HW229601   5.228   4.815   0.037
 9568SOL     OW29602   4.793   2.536   6.359
 9568SOL    HW129603   4.844   2.605   6.410
 9568SOL    HW229604   4.699   2.566   6.347
 9569SOL     OW29605   0.736   1.738   3.146
 9569SOL    HW129606   0.733   1.685   3.231
 9569SOL    HW229607   0.807   1.808   3.152
 9570SOL     OW29608   1.071   3.548   2.352
 9570SOL    HW129609   1.156   3.599   2.347
 9570SOL    HW229610   0.996   3.609   2.379
 9571SOL     OW29611   3.133   3.966   6.863
 9571SOL    HW129612   3.126   3.904   6.784
 9571SOL    HW229613   3.167   4.055   6.832
 9572SOL     OW29614   1.740   5.447   1.868
 9572SOL    HW129615   1.773   5.487   1.954
 9572SOL    HW229616   1.719   5.350   1.882
 9573SOL     OW29617   1.110   1.268   6.774
 9573SOL    HW129618   1.100   1.234   6.868
 9573SOL    HW229619   1.023   1.255   6.725
 9574SOL     OW29620   4.114   3.450   4.225
 9574SOL    HW129621   4.108   3.355   4.257
 9574SOL    HW229622   4.133   3.511   4.302
 9575SOL     OW29623   6.588   1.191   1.340
 9575SOL    HW129624   6.632   1.158   1.256
 9575SOL    HW229625   6.527   1.120   1.375
 9576SOL     OW29626   2.363   0.684   1.983
 9576SOL    HW129627   2.269   0.704   2.008
 9576SOL    HW229628   2.386   0.590   2.008
 9577SOL     OW29629   1.577   0.777   5.158
 9577SOL    HW129630   1.619   0.822   5.236
 9577SOL    HW229631   1.647   0.734   5.102
 9578SOL     OW29632   0.978   3.682   3.541
 9578SOL    HW129633   0.910   3.747   3.573
 9578SOL    HW229634   1.030   3.723   3.466
 9579SOL     OW29635   1.929   5.253   2.924
 9579SOL    HW129636   1.916   5.160   2.960
 9579SOL    HW229637   1.878   5.318   2.980
 9580SOL     OW29638   3.819   3.126   1.015
 9580SOL    HW129639   3.720   3.117   1.001
 9580SOL    HW229640   3.840   3.219   1.045
 9581SOL     OW29641   0.600   5.295   6.684
 9581SOL    HW129642   0.683   5.269   6.635
 9581SOL    HW229643   0.556   5.373   6.638
 9582SOL     OW29644   4.954   5.059   5.281
 9582SOL    HW129645   4.857   5.076   5.301
 9582SOL    HW229646   5.007   5.142   5.295
 9583SOL     OW29647   4.304   4.409   1.234
 9583SOL    HW129648   4.338   4.425   1.141
 9583SOL    HW229649   4.225   4.348   1.230
 9584SOL     OW29650   6.500   6.337   6.593
 9584SOL    HW129651   6.418   6.281   6.584
 9584SOL    HW229652   6.487   6.405   6.665
 9585SOL     OW29653   6.084   0.013   4.403
 9585SOL    HW129654   6.043   0.040   4.316
 9585SOL    HW229655   6.135   6.948   4.392
 9586SOL     OW29656   6.120   4.303   2.518
 9586SOL    HW129657   6.197   4.363   2.540
 9586SOL    HW229658   6.069   4.282   2.601
 9587SOL     OW29659   0.160   1.361   2.146
 9587SOL    HW129660   0.195   1.322   2.231
 9587SOL    HW229661   0.061   1.372   2.153
 9588SOL     OW29662   0.678   1.885   2.284
 9588SOL    HW129663   0.759   1.942   2.282
 9588SOL    HW229664   0.669   1.842   2.374
 9589SOL     OW29665   2.331   5.460   5.780
 9589SOL    HW129666   2.389   5.472   5.700
 9589SOL    HW229667   2.235   5.472   5.754
 9590SOL     OW29668   0.451   3.678   2.168
 9590SOL    HW129669   0.361   3.660   2.207
 9590SOL    HW229670   0.453   3.648   2.073
 9591SOL     OW29671   3.195   6.233   6.699
 9591SOL    HW129672   3.185   6.332   6.696
 9591SOL    HW229673   3.162   6.193   6.613
 9592SOL     OW29674   3.509   4.212   1.190
 9592SOL    HW129675   3.487   4.160   1.107
 9592SOL    HW229676   3.530   4.307   1.165
 9593SOL     OW29677   6.603   0.015   4.772
 9593SOL    HW129678   6.539   0.051   4.705
 9593SOL    HW229679   6.560   6.962   4.825
 9594SOL     OW29680   1.438   6.691   2.685
 9594SOL    HW129681   1.522   6.652   2.647
 9594SOL    HW229682   1.457   6.781   2.723
 9595SOL     OW29683   2.119   4.546   5.335
 9595SOL    HW129684   2.106   4.528   5.238
 9595SOL    HW229685   2.208   4.510   5.363
 9596SOL     OW29686   0.473   5.974   0.428
 9596SOL    HW129687   0.515   6.012   0.511
 9596SOL    HW229688   0.376   5.959   0.443
 9597SOL     OW29689   0.488   4.900   0.886
 9597SOL    HW129690   0.479   4.922   0.789
 9597SOL    HW229691   0.584   4.898   0.911
 9598SOL     OW29692   1.240   3.720   4.628
 9598SOL    HW129693   1.160   3.668   4.655
 9598SOL    HW229694   1.227   3.756   4.536
 9599SOL     OW29695   3.687   0.486   5.569
 9599SOL    HW129696   3.587   0.474   5.569
 9599SOL    HW229697   3.724   0.454   5.657
 9600SOL     OW29698   2.341   0.257   0.264
 9600SOL    HW129699   2.268   0.194   0.291
 9600SOL    HW229700   2.355   0.251   0.166
 9601SOL     OW29701   6.518   4.039   0.558
 9601SOL    HW129702   6.431   4.089   0.568
 9601SOL    HW229703   6.503   3.943   0.582
 9602SOL     OW29704   6.771   4.558   6.536
 9602SOL    HW129705   6.742   4.506   6.616
 9602SOL    HW229706   6.808   4.646   6.564
 9603SOL     OW29707   3.324   1.351   5.212
 9603SOL    HW129708   3.380   1.392   5.139
 9603SOL    HW229709   3.313   1.417   5.286
 9604SOL     OW29710   4.210   0.257   0.500
 9604SOL    HW129711   4.122   0.221   0.469
 9604SOL    HW229712   4.284   0.201   0.463
 9605SOL     OW29713   0.457   4.835   4.394
 9605SOL    HW129714   0.502   4.804   4.310
 9605SOL    HW229715   0.430   4.756   4.449
 9606SOL     OW29716   1.147   5.987   5.800
 9606SOL    HW129717   1.247   5.990   5.802
 9606SOL    HW229718   1.117   5.943   5.715
 9607SOL     OW29719   1.273   1.897   1.788
 9607SOL    HW129720   1.264   1.824   1.720
 9607SOL    HW229721   1.367   1.930   1.789
 9608SOL     OW29722   6.452   6.707   2.122
 9608SOL    HW129723   6.488   6.671   2.036
 9608SOL    HW229724   6.526   6.715   2.188
 9609SOL     OW29725   2.142   3.304   6.514
 9609SOL    HW129726   2.093   3.217   6.511
 9609SOL    HW229727   2.236   3.291   6.482
 9610SOL     OW29728   1.604   4.893   4.020
 9610SOL    HW129729   1.505   4.889   4.006
 9610SOL    HW229730   1.638   4.801   4.039
 9611SOL     OW29731   0.065   0.200   0.162
 9611SOL    HW129732   0.066   0.286   0.212
 9611SOL    HW229733   0.020   0.129   0.218
 9612SOL     OW29734   0.069   3.640   1.879
 9612SOL    HW129735   0.115   3.596   1.802
 9612SOL    HW229736   0.007   3.575   1.923
 9613SOL     OW29737   4.003   6.508   3.078
 9613SOL    HW129738   4.031   6.444   3.149
 9613SOL    HW229739   3.948   6.581   3.119
 9614SOL     OW29740   3.911   2.965   0.835
 9614SOL    HW129741   3.869   3.033   0.896
 9614SOL    HW229742   4.007   2.989   0.820
 9615SOL     OW29743   0.664   6.962   2.153
 9615SOL    HW129744   0.591   6.967   2.085
 9615SOL    HW229745   0.626   6.980   2.244
 9616SOL     OW29746   4.544   3.308   1.171
 9616SOL    HW129747   4.560   3.268   1.080
 9616SOL    HW229748   4.591   3.396   1.177
 9617SOL     OW29749   1.246   3.891   4.143
 9617SOL    HW129750   1.328   3.857   4.097
 9617SOL    HW229751   1.190   3.943   4.077
 9618SOL     OW29752   4.123   0.034   6.160
 9618SOL    HW129753   4.181   0.107   6.197
 9618SOL    HW229754   4.027   0.056   6.177
 9619SOL     OW29755   0.912   0.099   0.262
 9619SOL    HW129756   0.934   0.091   0.359
 9619SOL    HW229757   0.871   0.189   0.244
 9620SOL     OW29758   5.583   1.880   6.805
 9620SOL    HW129759   5.629   1.802   6.763
 9620SOL    HW229760   5.613   1.965   6.761
 9621SOL     OW29761   1.137   1.437   3.033
 9621SOL    HW129762   1.080   1.404   3.108
 9621SOL    HW229763   1.150   1.365   2.965
 9622SOL     OW29764   5.521   0.857   0.173
 9622SOL    HW129765   5.564   0.857   0.083
 9622SOL    HW229766   5.422   0.853   0.163
 9623SOL     OW29767   4.096   5.269   5.271
 9623SOL    HW129768   4.188   5.280   5.233
 9623SOL    HW229769   4.068   5.355   5.314
 9624SOL     OW29770   5.891   4.195   3.708
 9624SOL    HW129771   5.846   4.284   3.715
 9624SOL    HW229772   5.902   4.157   3.800
 9625SOL     OW29773   5.269   5.324   6.771
 9625SOL    HW129774   5.267   5.374   6.685
 9625SOL    HW229775   5.195   5.356   6.831
 9626SOL     OW29776   2.284   6.121   6.630
 9626SOL    HW129777   2.292   6.155   6.723
 9626SOL    HW229778   2.369   6.076   6.603
 9627SOL     OW29779   6.939   4.066   4.585
 9627SOL    HW129780   6.892   4.039   4.501
 9627SOL    HW229781   6.871   4.090   4.655
 9628SOL     OW29782   6.362   4.347   0.350
 9628SOL    HW129783   6.338   4.252   0.365
 9628SOL    HW229784   6.461   4.358   0.361
 9629SOL     OW29785   6.632   6.501   2.833
 9629SOL    HW129786   6.602   6.408   2.856
 9629SOL    HW229787   6.655   6.505   2.736
 9630SOL     OW29788   6.589   6.260   5.370
 9630SOL    HW129789   6.628   6.351   5.354
 9630SOL    HW229790   6.594   6.238   5.467
 9631SOL     OW29791   5.159   1.526   0.412
 9631SOL    HW129792   5.118   1.510   0.502
 9631SOL    HW229793   5.217   1.449   0.387
 9632SOL     OW29794   2.380   5.395   1.980
 9632SOL    HW129795   2.293   5.375   1.935
 9632SOL    HW229796   2.392   5.493   1.989
 9633SOL     OW29797   3.815   4.354   0.182
 9633SOL    HW129798   3.766   4.317   0.261
 9633SOL    HW229799   3.766   4.434   0.147
 9634SOL     OW29800   6.829   6.742   3.933
 9634SOL    HW129801   6.829   6.818   3.868
 9634SOL    HW229802   6.905   6.680   3.912
 9635SOL     OW29803   2.642   4.680   5.513
 9635SOL    HW129804   2.648   4.670   5.414
 9635SOL    HW229805   2.733   4.692   5.552
 9636SOL     OW29806   4.727   2.059   6.571
 9636SOL    HW129807   4.690   2.054   6.478
 9636SOL    HW229808   4.652   2.064   6.637
 9637SOL     OW29809   3.369   2.116   0.037
 9637SOL    HW129810   3.273   2.125   0.063
 9637SOL    HW229811   3.427   2.138   0.116
 9638SOL     OW29812   0.258   3.504   5.743
 9638SOL    HW129813   0.178   3.522   5.686
 9638SOL    HW229814   0.272   3.405   5.750
 9639SOL     OW29815   4.342   1.766   2.176
 9639SOL    HW129816   4.362   1.852   2.128
 9639SOL    HW229817   4.252   1.733   2.149
 9640SOL     OW29818   3.182   0.678   2.770
 9640SOL    HW129819   3.279   0.668   2.750
 9640SOL    HW229820   3.149   0.597   2.818
 9641SOL     OW29821   5.603   5.549   1.393
 9641SOL    HW129822   5.509   5.518   1.403
 9641SOL    HW229823   5.605   5.639   1.352
 9642SOL     OW29824   2.088   5.461   4.624
 9642SOL    HW129825   2.031   5.452   4.543
 9642SOL    HW229826   2.068   5.386   4.687
 9643SOL     OW29827   5.414   4.668   3.732
 9643SOL    HW129828   5.498   4.641   3.687
 9643SOL    HW229829   5.423   4.653   3.831
 9644SOL     OW29830   0.700   5.243   5.269
 9644SOL    HW129831   0.699   5.332   5.314
 9644SOL    HW229832   0.650   5.248   5.183
 9645SOL     OW29833   2.658   4.634   3.989
 9645SOL    HW129834   2.705   4.690   4.057
 9645SOL    HW229835   2.599   4.568   4.035
 9646SOL     OW29836   2.315   4.847   2.238
 9646SOL    HW129837   2.267   4.841   2.325
 9646SOL    HW229838   2.362   4.935   2.232
 9647SOL     OW29839   0.373   5.918   2.846
 9647SOL    HW129840   0.472   5.917   2.862
 9647SOL    HW229841   0.351   5.989   2.779
 9648SOL     OW29842   3.398   1.847   7.003
 9648SOL    HW129843   3.452   1.807   6.929
 9648SOL    HW229844   3.403   1.946   6.999
 9649SOL     OW29845   2.159   4.582   6.860
 9649SOL    HW129846   2.198   4.540   6.779
 9649SOL    HW229847   2.075   4.533   6.886
 9650SOL     OW29848   4.504   4.655   2.913
 9650SOL    HW129849   4.495   4.573   2.856
 9650SOL    HW229850   4.451   4.643   2.997
 9651SOL     OW29851   5.768   1.431   0.839
 9651SOL    HW129852   5.725   1.428   0.929
 9651SOL    HW229853   5.836   1.358   0.832
 9652SOL     OW29854   1.423   4.829   1.264
 9652SOL    HW129855   1.413   4.810   1.362
 9652SOL    HW229856   1.482   4.759   1.223
 9653SOL     OW29857   4.911   5.439   5.226
 9653SOL    HW129858   4.890   5.457   5.322
 9653SOL    HW229859   4.985   5.499   5.196
 9654SOL     OW29860   3.465   3.147   2.852
 9654SOL    HW129861   3.487   3.059   2.894
 9654SOL    HW229862   3.549   3.192   2.823
 9655SOL     OW29863   0.488   1.568   0.465
 9655SOL    HW129864   0.488   1.469   0.473
 9655SOL    HW229865   0.578   1.600   0.437
 9656SOL     OW29866   4.129   2.048   0.759
 9656SOL    HW129867   4.224   2.054   0.729
 9656SOL    HW229868   4.126   2.037   0.859
 9657SOL     OW29869   5.912   2.973   3.208
 9657SOL    HW129870   5.837   2.974   3.274
 9657SOL    HW229871   5.922   2.881   3.169
 9658SOL     OW29872   5.619   2.159   2.061
 9658SOL    HW129873   5.548   2.109   2.110
 9658SOL    HW229874   5.698   2.171   2.121
 9659SOL     OW29875   0.036   3.095   0.380
 9659SOL    HW129876   0.107   3.150   0.335
 9659SOL    HW229877   0.055   2.998   0.364
 9660SOL     OW29878   0.447   0.076   2.727
 9660SOL    HW129879   0.476   0.164   2.765
 9660SOL    HW229880   0.504   0.052   2.649
 9661SOL     OW29881   3.293   5.761   1.167
 9661SOL    HW129882   3.281   5.845   1.221
 9661SOL    HW229883   3.320   5.785   1.074
 9662SOL     OW29884   4.048   3.049   5.697
 9662SOL    HW129885   3.980   3.064   5.625
 9662SOL    HW229886   4.010   3.076   5.785
 9663SOL     OW29887   6.470   6.692   2.529
 9663SOL    HW129888   6.375   6.685   2.500
 9663SOL    HW229889   6.474   6.728   2.622
 9664SOL     OW29890   5.713   5.525   4.591
 9664SOL    HW129891   5.791   5.477   4.631
 9664SOL    HW229892   5.637   5.524   4.655
 9665SOL     OW29893   5.704   6.190   6.685
 9665SOL    HW129894   5.711   6.090   6.689
 9665SOL    HW229895   5.787   6.231   6.724
 9666SOL     OW29896   6.755   3.620   2.201
 9666SOL    HW129897   6.664   3.584   2.218
 9666SOL    HW229898   6.805   3.626   2.287
 9667SOL     OW29899   4.371   3.442   6.564
 9667SOL    HW129900   4.272   3.439   6.579
 9667SOL    HW229901   4.389   3.478   6.472
 9668SOL     OW29902   6.812   0.439   6.044
 9668SOL    HW129903   6.892   0.493   6.018
 9668SOL    HW229904   6.736   0.500   6.064
 9669SOL     OW29905   2.173   6.740   1.997
 9669SOL    HW129906   2.221   6.814   2.044
 9669SOL    HW229907   2.150   6.770   1.904
 9670SOL     OW29908   6.569   4.754   6.058
 9670SOL    HW129909   6.515   4.674   6.084
 9670SOL    HW229910   6.635   4.774   6.131
 9671SOL     OW29911   6.659   4.172   7.010
 9671SOL    HW129912   6.707   4.192   6.924
 9671SOL    HW229913   6.709   4.213   0.066
 9672SOL     OW29914   1.643   5.623   3.682
 9672SOL    HW129915   1.688   5.548   3.634
 9672SOL    HW229916   1.712   5.684   3.722
 9673SOL     OW29917   4.956   3.563   1.024
 9673SOL    HW129918   4.965   3.653   0.983
 9673SOL    HW229919   4.911   3.572   1.114
 9674SOL     OW29920   3.285   6.741   3.159
 9674SOL    HW129921   3.355   6.695   3.214
 9674SOL    HW229922   3.211   6.771   3.218
 9675SOL     OW29923   5.151   2.725   0.044
 9675SOL    HW129924   5.068   2.713   0.100
 9675SOL    HW229925   5.230   2.688   0.093
 9676SOL     OW29926   1.830   3.627   5.619
 9676SOL    HW129927   1.792   3.572   5.544
 9676SOL    HW229928   1.773   3.708   5.633
 9677SOL     OW29929   6.755   5.665   4.689
 9677SOL    HW129930   6.691   5.597   4.655
 9677SOL    HW229931   6.835   5.620   4.728
 9678SOL     OW29932   2.984   3.816   3.578
 9678SOL    HW129933   3.013   3.911   3.571
 9678SOL    HW229934   2.970   3.778   3.486
 9679SOL     OW29935   3.454   0.997   2.832
 9679SOL    HW129936   3.386   0.924   2.833
 9679SOL    HW229937   3.491   1.006   2.739
 9680SOL     OW29938   4.539   1.273   2.910
 9680SOL    HW129939   4.630   1.314   2.908
 9680SOL    HW229940   4.542   1.183   2.867
 9681SOL     OW29941   2.729   1.781   0.675
 9681SOL    HW129942   2.646   1.734   0.643
 9681SOL    HW229943   2.780   1.722   0.737
 9682SOL     OW29944   4.699   4.357   3.820
 9682SOL    HW129945   4.721   4.349   3.917
 9682SOL    HW229946   4.668   4.450   3.800
 9683SOL     OW29947   3.064   5.697   1.313
 9683SOL    HW129948   3.148   5.690   1.260
 9683SOL    HW229949   3.003   5.766   1.273
 9684SOL     OW29950   0.720   3.146   6.268
 9684SOL    HW129951   0.644   3.212   6.265
 9684SOL    HW229952   0.705   3.076   6.198
 9685SOL     OW29953   3.709   4.627   1.102
 9685SOL    HW129954   3.750   4.539   1.078
 9685SOL    HW229955   3.613   4.614   1.123
 9686SOL     OW29956   0.175   2.189   0.218
 9686SOL    HW129957   0.140   2.102   0.252
 9686SOL    HW229958   0.100   2.241   0.178
 9687SOL     OW29959   1.509   0.808   4.207
 9687SOL    HW129960   1.600   0.800   4.247
 9687SOL    HW229961   1.481   0.718   4.171
 9688SOL     OW29962   0.986   3.604   2.089
 9688SOL    HW129963   1.055   3.637   2.153
 9688SOL    HW229964   0.999   3.647   2.000
 9689SOL     OW29965   0.974   4.730   5.861
 9689SOL    HW129966   0.885   4.736   5.815
 9689SOL    HW229967   0.967   4.666   5.938
 9690SOL     OW29968   6.231   5.139   6.890
 9690SOL    HW129969   6.190   5.047   6.886
 9690SOL    HW229970   6.183   5.194   6.958
 9691SOL     OW29971   3.279   5.195   1.053
 9691SOL    HW129972   3.367   5.188   1.099
 9691SOL    HW229973   3.223   5.115   1.076
 9692SOL     OW29974   3.514   6.070   2.335
 9692SOL    HW129975   3.530   6.070   2.237
 9692SOL    HW229976   3.490   6.162   2.366
 9693SOL     OW29977   5.740   4.455   2.236
 9693SOL    HW129978   5.768   4.547   2.263
 9693SOL    HW229979   5.820   4.395   2.233
 9694SOL     OW29980   2.378   0.994   0.763
 9694SOL    HW129981   2.424   0.906   0.761
 9694SOL    HW229982   2.349   1.020   0.671
 9695SOL     OW29983   6.886   3.401   3.177
 9695SOL    HW129984   6.796   3.436   3.149
 9695SOL    HW229985   6.875   3.345   3.260
 9696SOL     OW29986   5.438   3.482   1.172
 9696SOL    HW129987   5.489   3.413   1.120
 9696SOL    HW229988   5.347   3.492   1.134
 9697SOL     OW29989   0.289   5.012   0.020
 9697SOL    HW129990   0.338   5.065   6.971
 9697SOL    HW229991   0.202   5.057   0.040
 9698SOL     OW29992   4.733   1.801   6.215
 9698SOL    HW129993   4.683   1.714   6.214
 9698SOL    HW229994   4.806   1.797   6.283
 9699SOL     OW29995   6.365   5.321   0.081
 9699SOL    HW129996   6.279   5.271   0.069
 9699SOL    HW229997   6.441   5.256   0.078
 9700SOL     OW29998   5.033   5.439   4.876
 9700SOL    HW129999   4.976   5.505   4.925
 9700SOL    HW230000   5.004   5.435   4.781
 9701SOL     OW30001   4.662   4.923   5.965
 9701SOL    HW130002   4.749   4.971   5.962
 9701SOL    HW230003   4.675   4.830   6.001
 9702SOL     OW30004   4.691   0.265   6.557
 9702SOL    HW130005   4.696   0.327   6.635
 9702SOL    HW230006   4.661   0.175   6.588
 9703SOL     OW30007   4.925   3.667   3.843
 9703SOL    HW130008   4.884   3.713   3.922
 9703SOL    HW230009   4.935   3.570   3.862
 9704SOL     OW30010   3.554   0.309   1.966
 9704SOL    HW130011   3.623   0.348   1.905
 9704SOL    HW230012   3.501   0.382   2.007
 9705SOL     OW30013   5.340   4.517   5.633
 9705SOL    HW130014   5.427   4.473   5.612
 9705SOL    HW230015   5.265   4.454   5.614
 9706SOL     OW30016   1.759   3.565   0.461
 9706SOL    HW130017   1.672   3.606   0.432
 9706SOL    HW230018   1.746   3.467   0.475
 9707SOL     OW30019   6.565   4.553   2.181
 9707SOL    HW130020   6.603   4.646   2.184
 9707SOL    HW230021   6.486   4.552   2.120
 9708SOL     OW30022   1.545   1.662   4.358
 9708SOL    HW130023   1.538   1.566   4.383
 9708SOL    HW230024   1.635   1.679   4.318
 9709SOL     OW30025   5.264   6.854   3.086
 9709SOL    HW130026   5.295   6.873   2.993
 9709SOL    HW230027   5.168   6.827   3.085
 9710SOL     OW30028   7.002   1.671   1.211
 9710SOL    HW130029   6.964   1.631   1.295
 9710SOL    HW230030   6.948   1.641   1.132
 9711SOL     OW30031   3.137   5.532   5.766
 9711SOL    HW130032   3.098   5.611   5.718
 9711SOL    HW230033   3.193   5.479   5.703
 9712SOL     OW30034   5.536   3.819   6.797
 9712SOL    HW130035   5.516   3.807   6.700
 9712SOL    HW230036   5.635   3.809   6.811
 9713SOL     OW30037   1.312   4.805   3.262
 9713SOL    HW130038   1.219   4.805   3.297
 9713SOL    HW230039   1.375   4.835   3.334
 9714SOL     OW30040   4.470   6.081   6.367
 9714SOL    HW130041   4.462   6.171   6.323
 9714SOL    HW230042   4.380   6.038   6.372
 9715SOL     OW30043   5.924   3.760   6.364
 9715SOL    HW130044   5.983   3.705   6.423
 9715SOL    HW230045   5.852   3.702   6.325
 9716SOL     OW30046   3.751   4.462   6.814
 9716SOL    HW130047   3.719   4.508   6.731
 9716SOL    HW230048   3.730   4.518   6.894
 9717SOL     OW30049   5.359   5.823   6.008
 9717SOL    HW130050   5.400   5.836   6.098
 9717SOL    HW230051   5.426   5.781   5.946
 9718SOL     OW30052   4.561   3.045   0.005
 9718SOL    HW130053   4.652   3.085   0.011
 9718SOL    HW230054   4.497   3.101   0.058
 9719SOL     OW30055   6.081   1.219   5.527
 9719SOL    HW130056   6.150   1.291   5.527
 9719SOL    HW230057   6.045   1.208   5.620
 9720SOL     OW30058   0.132   5.149   1.902
 9720SOL    HW130059   0.217   5.097   1.909
 9720SOL    HW230060   0.152   5.243   1.875
 9721SOL     OW30061   0.221   1.722   0.681
 9721SOL    HW130062   0.267   1.638   0.651
 9721SOL    HW230063   0.244   1.796   0.619
 9722SOL     OW30064   5.717   0.823   4.162
 9722SOL    HW130065   5.716   0.915   4.122
 9722SOL    HW230066   5.810   0.787   4.160
 9723SOL     OW30067   2.730   6.977   2.706
 9723SOL    HW130068   2.723   6.883   2.673
 9723SOL    HW230069   2.650   0.008   2.676
 9724SOL     OW30070   1.697   4.410   0.290
 9724SOL    HW130071   1.654   4.365   0.369
 9724SOL    HW230072   1.665   4.366   0.206
 9725SOL     OW30073   4.446   4.656   6.429
 9725SOL    HW130074   4.464   4.620   6.520
 9725SOL    HW230075   4.478   4.751   6.425
 9726SOL     OW30076   5.248   1.186   4.085
 9726SOL    HW130077   5.308   1.267   4.083
 9726SOL    HW230078   5.298   1.107   4.049
 9727SOL     OW30079   1.090   2.874   6.483
 9727SOL    HW130080   1.010   2.933   6.480
 9727SOL    HW230081   1.108   2.846   6.577
 9728SOL     OW30082   0.802   1.036   5.597
 9728SOL    HW130083   0.714   1.037   5.645
 9728SOL    HW230084   0.789   1.066   5.502
 9729SOL     OW30085   0.867   4.043   3.396
 9729SOL    HW130086   0.893   4.135   3.367
 9729SOL    HW230087   0.811   4.048   3.478
 9730SOL     OW30088   0.934   3.922   3.948
 9730SOL    HW130089   0.842   3.959   3.935
 9730SOL    HW230090   0.999   3.998   3.955
 9731SOL     OW30091   4.914   4.424   0.786
 9731SOL    HW130092   4.949   4.340   0.829
 9731SOL    HW230093   4.817   4.413   0.766
 9732SOL     OW30094   6.725   5.400   3.064
 9732SOL    HW130095   6.679   5.481   3.027
 9732SOL    HW230096   6.657   5.332   3.091
 9733SOL     OW30097   5.850   5.040   0.457
 9733SOL    HW130098   5.905   5.042   0.540
 9733SOL    HW230099   5.867   4.954   0.408
 9734SOL     OW30100   6.769   1.703   1.576
 9734SOL    HW130101   6.788   1.795   1.544
 9734SOL    HW230102   6.760   1.641   1.498
 9735SOL     OW30103   2.088   3.655   4.154
 9735SOL    HW130104   2.141   3.597   4.216
 9735SOL    HW230105   2.131   3.745   4.146
 9736SOL     OW30106   6.578   1.807   6.832
 9736SOL    HW130107   6.583   1.808   6.932
 9736SOL    HW230108   6.514   1.736   6.803
 9737SOL     OW30109   5.208   2.970   3.343
 9737SOL    HW130110   5.183   3.064   3.369
 9737SOL    HW230111   5.125   2.920   3.316
 9738SOL     OW30112   1.598   0.263   0.851
 9738SOL    HW130113   1.667   0.313   0.903
 9738SOL    HW230114   1.573   0.180   0.901
 9739SOL     OW30115   5.853   5.120   1.881
 9739SOL    HW130116   5.941   5.084   1.911
 9739SOL    HW230117   5.784   5.102   1.951
 9740SOL     OW30118   6.594   1.826   3.392
 9740SOL    HW130119   6.582   1.798   3.296
 9740SOL    HW230120   6.506   1.855   3.430
 9741SOL     OW30121   3.968   1.352   2.671
 9741SOL    HW130122   4.017   1.429   2.713
 9741SOL    HW230123   3.923   1.383   2.587
 9742SOL     OW30124   4.208   0.497   0.865
 9742SOL    HW130125   4.296   0.464   0.901
 9742SOL    HW230126   4.143   0.507   0.940
 9743SOL     OW30127   0.231   2.691   4.649
 9743SOL    HW130128   0.145   2.741   4.659
 9743SOL    HW230129   0.287   2.736   4.579
 9744SOL     OW30130   1.704   6.589   2.603
 9744SOL    HW130131   1.696   6.491   2.584
 9744SOL    HW230132   1.800   6.612   2.620
 9745SOL     OW30133   5.288   3.200   6.276
 9745SOL    HW130134   5.249   3.216   6.367
 9745SOL    HW230135   5.379   3.159   6.286
 9746SOL     OW30136   6.588   0.086   5.975
 9746SOL    HW130137   6.503   0.112   6.021
 9746SOL    HW230138   6.569   0.012   5.910
 9747SOL     OW30139   2.822   0.979   1.869
 9747SOL    HW130140   2.904   0.972   1.926
 9747SOL    HW230141   2.745   0.937   1.917
 9748SOL     OW30142   0.097   1.287   3.339
 9748SOL    HW130143   0.168   1.349   3.373
 9748SOL    HW230144   0.026   1.340   3.294
 9749SOL     OW30145   2.659   0.156   4.402
 9749SOL    HW130146   2.596   0.085   4.369
 9749SOL    HW230147   2.633   0.244   4.364
 9750SOL     OW30148   5.469   4.101   3.013
 9750SOL    HW130149   5.493   4.024   2.954
 9750SOL    HW230150   5.446   4.067   3.105
 9751SOL     OW30151   1.455   0.490   0.738
 9751SOL    HW130152   1.479   0.515   0.645
 9751SOL    HW230153   1.445   0.390   0.744
 9752SOL     OW30154   4.512   2.173   5.374
 9752SOL    HW130155   4.584   2.150   5.308
 9752SOL    HW230156   4.434   2.113   5.360
 9753SOL     OW30157   5.942   5.575   6.486
 9753SOL    HW130158   5.951   5.675   6.489
 9753SOL    HW230159   5.982   5.541   6.401
 9754SOL     OW30160   1.576   1.382   6.882
 9754SOL    HW130161   1.618   1.320   6.816
 9754SOL    HW230162   1.541   1.462   6.835
 9755SOL     OW30163   3.155   3.459   4.438
 9755SOL    HW130164   3.151   3.524   4.514
 9755SOL    HW230165   3.063   3.437   4.408
 9756SOL     OW30166   6.540   3.788   0.618
 9756SOL    HW130167   6.584   3.716   0.564
 9756SOL    HW230168   6.594   3.807   0.700
 9757SOL     OW30169   5.642   3.834   3.877
 9757SOL    HW130170   5.631   3.752   3.933
 9757SOL    HW230171   5.566   3.841   3.813
 9758SOL     OW30172   2.623   0.102   6.974
 9758SOL    HW130173   2.653   0.088   0.048
 9758SOL    HW230174   2.692   0.066   6.911
 9759SOL     OW30175   1.322   0.276   0.040
 9759SOL    HW130176   1.242   0.325   0.004
 9759SOL    HW230177   1.360   0.327   0.117
 9760SOL     OW30178   4.666   2.671   4.983
 9760SOL    HW130179   4.597   2.610   4.945
 9760SOL    HW230180   4.625   2.727   5.055
 9761SOL     OW30181   6.405   1.370   2.648
 9761SOL    HW130182   6.454   1.327   2.724
 9761SOL    HW230183   6.306   1.364   2.665
 9762SOL     OW30184   3.349   1.189   4.561
 9762SOL    HW130185   3.325   1.284   4.539
 9762SOL    HW230186   3.444   1.185   4.592
 9763SOL     OW30187   5.496   1.794   1.984
 9763SOL    HW130188   5.426   1.824   2.049
 9763SOL    HW230189   5.484   1.844   1.898
 9764SOL     OW30190   0.176   2.762   3.021
 9764SOL    HW130191   0.103   2.696   3.036
 9764SOL    HW230192   0.156   2.815   2.938
 9765SOL     OW30193   6.626   0.591   3.807
 9765SOL    HW130194   6.533   0.555   3.812
 9765SOL    HW230195   6.626   0.687   3.837
 9766SOL     OW30196   3.243   6.852   2.189
 9766SOL    HW130197   3.273   6.939   2.151
 9766SOL    HW230198   3.298   6.831   2.270
 9767SOL     OW30199   4.897   0.498   4.789
 9767SOL    HW130200   4.900   0.582   4.734
 9767SOL    HW230201   4.833   0.434   4.748
 9768SOL     OW30202   6.161   1.295   2.726
 9768SOL    HW130203   6.075   1.274   2.680
 9768SOL    HW230204   6.157   1.262   2.820
 9769SOL     OW30205   4.042   1.115   3.055
 9769SOL    HW130206   4.018   1.198   3.006
 9769SOL    HW230207   4.068   1.138   3.149
 9770SOL     OW30208   5.260   1.073   6.420
 9770SOL    HW130209   5.331   1.078   6.350
 9770SOL    HW230210   5.208   0.989   6.410
 9771SOL     OW30211   2.877   5.955   0.382
 9771SOL    HW130212   2.828   5.906   0.310
 9771SOL    HW230213   2.897   6.048   0.350
 9772SOL     OW30214   2.076   6.494   2.076
 9772SOL    HW130215   2.114   6.580   2.042
 9772SOL    HW230216   1.978   6.491   2.057
 9773SOL     OW30217   5.355   5.281   4.083
 9773SOL    HW130218   5.283   5.302   4.150
 9773SOL    HW230219   5.345   5.341   4.004
 9774SOL     OW30220   0.149   4.993   2.304
 9774SOL    HW130221   0.112   5.070   2.252
 9774SOL    HW230222   0.121   4.907   2.262
 9775SOL     OW30223   2.754   0.335   3.264
 9775SOL    HW130224   2.758   0.240   3.233
 9775SOL    HW230225   2.764   0.396   3.185
 9776SOL     OW30226   1.889   4.290   4.755
 9776SOL    HW130227   1.932   4.217   4.701
 9776SOL    HW230228   1.956   4.327   4.820
 9777SOL     OW30229   6.683   5.905   6.755
 9777SOL    HW130230   6.639   5.942   6.836
 9777SOL    HW230231   6.714   5.980   6.696
 9778SOL     OW30232   0.252   1.059   3.822
 9778SOL    HW130233   0.205   1.000   3.887
 9778SOL    HW230234   0.195   1.069   3.740
 9779SOL     OW30235   1.554   1.493   4.771
 9779SOL    HW130236   1.570   1.436   4.851
 9779SOL    HW230237   1.572   1.441   4.688
 9780SOL     OW30238   2.752   1.650   1.423
 9780SOL    HW130239   2.830   1.712   1.413
 9780SOL    HW230240   2.738   1.600   1.338
 9781SOL     OW30241   2.148   4.046   4.567
 9781SOL    HW130242   2.054   4.044   4.534
 9781SOL    HW230243   2.157   3.987   4.647
 9782SOL     OW30244   6.849   1.480   1.070
 9782SOL    HW130245   6.899   1.482   0.983
 9782SOL    HW230246   6.773   1.415   1.063
 9783SOL     OW30247   4.372   2.397   3.100
 9783SOL    HW130248   4.344   2.323   3.161
 9783SOL    HW230249   4.319   2.392   3.015
 9784SOL     OW30250   3.904   1.057   4.512
 9784SOL    HW130251   3.857   1.049   4.424
 9784SOL    HW230252   3.995   1.016   4.505
 9785SOL     OW30253   0.755   3.294   5.892
 9785SOL    HW130254   0.788   3.355   5.820
 9785SOL    HW230255   0.770   3.336   5.981
 9786SOL     OW30256   2.174   4.585   0.273
 9786SOL    HW130257   2.204   4.575   0.178
 9786SOL    HW230258   2.116   4.666   0.282
 9787SOL     OW30259   4.770   4.188   1.831
 9787SOL    HW130260   4.817   4.273   1.854
 9787SOL    HW230261   4.674   4.195   1.861
 9788SOL     OW30262   0.416   0.830   3.777
 9788SOL    HW130263   0.378   0.922   3.768
 9788SOL    HW230264   0.515   0.836   3.794
 9789SOL     OW30265   1.006   5.597   1.072
 9789SOL    HW130266   0.916   5.600   1.030
 9789SOL    HW230267   1.025   5.685   1.116
 9790SOL     OW30268   5.943   4.718   6.631
 9790SOL    HW130269   5.939   4.777   6.711
 9790SOL    HW230270   5.991   4.765   6.557
 9791SOL     OW30271   0.885   1.553   2.315
 9791SOL    HW130272   0.975   1.560   2.357
 9791SOL    HW230273   0.889   1.590   2.222
 9792SOL     OW30274   4.314   4.841   0.840
 9792SOL    HW130275   4.390   4.831   0.905
 9792SOL    HW230276   4.265   4.926   0.858
 9793SOL     OW30277   4.694   6.348   3.204
 9793SOL    HW130278   4.747   6.367   3.122
 9793SOL    HW230279   4.745   6.283   3.262
 9794SOL     OW30280   0.522   4.541   0.766
 9794SOL    HW130281   0.484   4.605   0.699
 9794SOL    HW230282   0.463   4.539   0.847
 9795SOL     OW30283   2.317   1.814   4.452
 9795SOL    HW130284   2.371   1.762   4.518
 9795SOL    HW230285   2.251   1.871   4.500
 9796SOL     OW30286   3.632   2.285   1.317
 9796SOL    HW130287   3.646   2.312   1.222
 9796SOL    HW230288   3.575   2.202   1.320
 9797SOL     OW30289   2.391   5.490   6.442
 9797SOL    HW130290   2.488   5.470   6.431
 9797SOL    HW230291   2.362   5.466   6.535
 9798SOL     OW30292   3.508   0.625   1.798
 9798SOL    HW130293   3.442   0.567   1.846
 9798SOL    HW230294   3.592   0.632   1.852
 9799SOL     OW30295   4.054   3.675   4.416
 9799SOL    HW130296   4.021   3.766   4.439
 9799SOL    HW230297   4.114   3.641   4.488
 9800SOL     OW30298   3.997   6.298   4.548
 9800SOL    HW130299   3.943   6.216   4.568
 9800SOL    HW230300   3.944   6.380   4.573
 9801SOL     OW30301   4.759   3.876   6.813
 9801SOL    HW130302   4.855   3.898   6.830
 9801SOL    HW230303   4.738   3.893   6.716
 9802SOL     OW30304   6.970   3.415   1.388
 9802SOL    HW130305   6.974   3.380   1.294
 9802SOL    HW230306   0.027   3.476   1.404
 9803SOL     OW30307   0.856   1.944   0.141
 9803SOL    HW130308   0.835   2.023   0.198
 9803SOL    HW230309   0.955   1.934   0.133
 9804SOL     OW30310   1.738   6.912   2.596
 9804SOL    HW130311   1.648   6.950   2.615
 9804SOL    HW230312   1.741   6.816   2.626
 9805SOL     OW30313   1.140   0.607   4.916
 9805SOL    HW130314   1.210   0.589   4.985
 9805SOL    HW230315   1.123   0.523   4.864
 9806SOL     OW30316   1.320   0.779   0.410
 9806SOL    HW130317   1.374   0.836   0.349
 9806SOL    HW230318   1.323   0.817   0.503
 9807SOL     OW30319   2.761   4.037   0.413
 9807SOL    HW130320   2.761   3.941   0.388
 9807SOL    HW230321   2.707   4.090   0.348
 9808SOL     OW30322   4.386   0.263   5.386
 9808SOL    HW130323   4.416   0.280   5.480
 9808SOL    HW230324   4.409   0.170   5.360
 9809SOL     OW30325   0.646   2.408   6.752
 9809SOL    HW130326   0.639   2.369   6.660
 9809SOL    HW230327   0.743   2.418   6.775
 9810SOL     OW30328   2.171   3.063   3.596
 9810SOL    HW130329   2.154   3.158   3.621
 9810SOL    HW230330   2.093   3.006   3.623
 9811SOL     OW30331   5.685   4.701   3.681
 9811SOL    HW130332   5.673   4.741   3.590
 9811SOL    HW230333   5.703   4.774   3.747
 9812SOL     OW30334   3.552   2.284   5.858
 9812SOL    HW130335   3.650   2.265   5.845
 9812SOL    HW230336   3.506   2.287   5.769
 9813SOL     OW30337   5.496   1.124   0.359
 9813SOL    HW130338   5.473   1.083   0.271
 9813SOL    HW230339   5.573   1.074   0.400
 9814SOL     OW30340   0.383   0.520   0.228
 9814SOL    HW130341   0.389   0.620   0.232
 9814SOL    HW230342   0.326   0.488   0.304
 9815SOL     OW30343   5.839   3.905   3.237
 9815SOL    HW130344   5.795   3.877   3.322
 9815SOL    HW230345   5.897   3.984   3.253
 9816SOL     OW30346   6.841   1.207   6.248
 9816SOL    HW130347   6.876   1.227   6.156
 9816SOL    HW230348   6.915   1.170   6.304
 9817SOL     OW30349   3.045   6.663   2.744
 9817SOL    HW130350   2.954   6.622   2.740
 9817SOL    HW230351   3.083   6.651   2.836
 9818SOL     OW30352   1.250   1.206   5.066
 9818SOL    HW130353   1.203   1.284   5.108
 9818SOL    HW230354   1.193   1.125   5.071
 9819SOL     OW30355   4.628   2.688   3.955
 9819SOL    HW130356   4.711   2.695   4.011
 9819SOL    HW230357   4.641   2.741   3.871
 9820SOL     OW30358   4.291   3.295   6.221
 9820SOL    HW130359   4.227   3.369   6.242
 9820SOL    HW230360   4.253   3.208   6.253
 9821SOL     OW30361   5.376   0.505   0.098
 9821SOL    HW130362   5.325   0.573   0.045
 9821SOL    HW230363   5.334   0.495   0.188
 9822SOL     OW30364   2.602   6.074   3.799
 9822SOL    HW130365   2.680   6.118   3.844
 9822SOL    HW230366   2.582   6.121   3.713
 9823SOL     OW30367   2.545   0.415   0.558
 9823SOL    HW130368   2.529   0.377   0.649
 9823SOL    HW230369   2.628   0.375   0.519
 9824SOL     OW30370   2.030   5.205   4.009
 9824SOL    HW130371   2.114   5.167   3.971
 9824SOL    HW230372   2.052   5.258   4.091
 9825SOL     OW30373   5.539   6.128   4.177
 9825SOL    HW130374   5.477   6.124   4.255
 9825SOL    HW230375   5.630   6.156   4.208
 9826SOL     OW30376   3.955   5.579   5.651
 9826SOL    HW130377   3.966   5.498   5.708
 9826SOL    HW230378   3.857   5.600   5.642
 9827SOL     OW30379   1.838   3.953   4.228
 9827SOL    HW130380   1.788   4.001   4.156
 9827SOL    HW230381   1.929   3.994   4.238
 9828SOL     OW30382   3.083   2.296   5.595
 9828SOL    HW130383   3.052   2.275   5.502
 9828SOL    HW230384   3.133   2.217   5.632
 9829SOL     OW30385   4.415   5.190   6.244
 9829SOL    HW130386   4.397   5.115   6.180
 9829SOL    HW230387   4.338   5.197   6.308
 9830SOL     OW30388   5.309   1.488   2.225
 9830SOL    HW130389   5.230   1.549   2.223
 9830SOL    HW230390   5.277   1.393   2.221
 9831SOL     OW30391   1.081   5.074   2.259
 9831SOL    HW130392   1.172   5.038   2.279
 9831SOL    HW230393   1.059   5.059   2.163
 9832SOL     OW30394   5.305   5.175   2.641
 9832SOL    HW130395   5.256   5.259   2.615
 9832SOL    HW230396   5.403   5.194   2.644
 9833SOL     OW30397   3.389   3.290   4.404
 9833SOL    HW130398   3.482   3.324   4.391
 9833SOL    HW230399   3.328   3.368   4.420
 9834SOL     OW30400   2.341   4.361   5.207
 9834SOL    HW130401   2.418   4.336   5.266
 9834SOL    HW230402   2.284   4.281   5.190
 9835SOL     OW30403   3.436   3.581   4.636
 9835SOL    HW130404   3.514   3.603   4.694
 9835SOL    HW230405   3.409   3.663   4.583
 9836SOL     OW30406   0.115   4.074   3.939
 9836SOL    HW130407   0.172   3.992   3.931
 9836SOL    HW230408   0.141   4.139   3.868
 9837SOL     OW30409   4.130   0.716   2.264
 9837SOL    HW130410   4.135   0.756   2.355
 9837SOL    HW230411   4.091   0.782   2.200
 9838SOL     OW30412   1.621   6.558   0.481
 9838SOL    HW130413   1.661   6.467   0.469
 9838SOL    HW230414   1.672   6.624   0.425
 9839SOL     OW30415   5.748   6.690   3.734
 9839SOL    HW130416   5.798   6.750   3.673
 9839SOL    HW230417   5.745   6.729   3.826
 9840SOL     OW30418   6.098   1.508   0.682
 9840SOL    HW130419   6.082   1.590   0.626
 9840SOL    HW230420   6.105   1.534   0.778
 9841SOL     OW30421   1.304   4.254   5.019
 9841SOL    HW130422   1.252   4.250   5.105
 9841SOL    HW230423   1.313   4.349   4.991
 9842SOL     OW30424   3.511   3.162   1.225
 9842SOL    HW130425   3.485   3.068   1.250
 9842SOL    HW230426   3.460   3.227   1.282
 9843SOL     OW30427   0.070   0.629   2.798
 9843SOL    HW130428   0.063   0.696   2.724
 9843SOL    HW230429   0.077   0.675   2.886
 9844SOL     OW30430   6.272   1.236   3.278
 9844SOL    HW130431   6.194   1.175   3.293
 9844SOL    HW230432   6.289   1.290   3.360
 9845SOL     OW30433   2.187   2.566   3.617
 9845SOL    HW130434   2.248   2.615   3.680
 9845SOL    HW230435   2.101   2.545   3.664
 9846SOL     OW30436   3.529   2.466   1.478
 9846SOL    HW130437   3.589   2.470   1.557
 9846SOL    HW230438   3.560   2.393   1.416
 9847SOL     OW30439   3.810   2.939   2.962
 9847SOL    HW130440   3.712   2.916   2.956
 9847SOL    HW230441   3.836   2.948   3.058
 9848SOL     OW30442   4.067   3.949   5.175
 9848SOL    HW130443   4.062   4.023   5.242
 9848SOL    HW230444   4.150   3.896   5.191
 9849SOL     OW30445   0.849   0.374   6.111
 9849SOL    HW130446   0.868   0.299   6.175
 9849SOL    HW230447   0.817   0.336   6.024
 9850SOL     OW30448   6.441   0.396   4.218
 9850SOL    HW130449   6.349   0.361   4.204
 9850SOL    HW230450   6.449   0.486   4.175
 9851SOL     OW30451   0.758   0.178   4.184
 9851SOL    HW130452   0.830   0.109   4.192
 9851SOL    HW230453   0.671   0.137   4.211
 9852SOL     OW30454   2.791   1.519   4.208
 9852SOL    HW130455   2.862   1.450   4.193
 9852SOL    HW230456   2.828   1.610   4.190
 9853SOL     OW30457   5.576   3.078   5.053
 9853SOL    HW130458   5.480   3.102   5.064
 9853SOL    HW230459   5.613   3.123   4.972
 9854SOL     OW30460   0.070   6.541   4.154
 9854SOL    HW130461   6.999   6.526   4.114
 9854SOL    HW230462   0.061   6.548   4.253
 9855SOL     OW30463   1.731   3.287   1.572
 9855SOL    HW130464   1.814   3.234   1.552
 9855SOL    HW230465   1.679   3.241   1.644
 9856SOL     OW30466   4.621   4.351   4.370
 9856SOL    HW130467   4.549   4.312   4.427
 9856SOL    HW230468   4.671   4.278   4.324
 9857SOL     OW30469   4.887   2.620   2.638
 9857SOL    HW130470   4.868   2.570   2.553
 9857SOL    HW230471   4.822   2.695   2.648
 9858SOL     OW30472   6.775   6.933   1.301
 9858SOL    HW130473   6.696   6.981   1.338
 9858SOL    HW230474   6.855   6.949   1.360
 9859SOL     OW30475   6.217   5.983   2.667
 9859SOL    HW130476   6.183   5.894   2.697
 9859SOL    HW230477   6.247   5.977   2.572
 9860SOL     OW30478   2.204   2.322   4.296
 9860SOL    HW130479   2.156   2.271   4.224
 9860SOL    HW230480   2.254   2.258   4.354
 9861SOL     OW30481   2.900   0.562   2.661
 9861SOL    HW130482   2.929   0.658   2.667
 9861SOL    HW230483   2.967   0.504   2.708
 9862SOL     OW30484   2.651   3.412   0.179
 9862SOL    HW130485   2.690   3.383   0.091
 9862SOL    HW230486   2.705   3.374   0.254
 9863SOL     OW30487   3.285   6.042   1.895
 9863SOL    HW130488   3.197   6.011   1.932
 9863SOL    HW230489   3.359   5.992   1.937
 9864SOL     OW30490   3.358   0.367   3.873
 9864SOL    HW130491   3.382   0.322   3.787
 9864SOL    HW230492   3.347   0.298   3.944
 9865SOL     OW30493   1.208   6.995   4.757
 9865SOL    HW130494   1.239   0.064   4.722
 9865SOL    HW230495   1.254   6.922   4.707
 9866SOL     OW30496   5.641   5.122   6.049
 9866SOL    HW130497   5.682   5.038   6.014
 9866SOL    HW230498   5.648   5.123   6.149
 9867SOL     OW30499   6.637   1.932   1.379
 9867SOL    HW130500   6.652   1.897   1.286
 9867SOL    HW230501   6.555   1.890   1.418
 9868SOL     OW30502   0.689   2.971   4.708
 9868SOL    HW130503   0.660   2.923   4.791
 9868SOL    HW230504   0.609   2.992   4.652
 9869SOL     OW30505   0.433   2.080   1.611
 9869SOL    HW130506   0.358   2.081   1.678
 9869SOL    HW230507   0.406   2.133   1.530
 9870SOL     OW30508   4.050   5.756   2.653
 9870SOL    HW130509   4.008   5.749   2.563
 9870SOL    HW230510   3.988   5.717   2.721
 9871SOL     OW30511   6.277   4.964   6.191
 9871SOL    HW130512   6.353   5.014   6.233
 9871SOL    HW230513   6.312   4.905   6.118
 9872SOL     OW30514   3.471   5.832   5.008
 9872SOL    HW130515   3.474   5.897   5.084
 9872SOL    HW230516   3.538   5.760   5.022
 9873SOL     OW30517   2.147   2.774   0.708
 9873SOL    HW130518   2.215   2.846   0.699
 9873SOL    HW230519   2.070   2.806   0.763
 9874SOL     OW30520   6.711   2.910   5.486
 9874SOL    HW130521   6.662   2.853   5.551
 9874SOL    HW230522   6.809   2.906   5.505
 9875SOL     OW30523   6.138   5.891   2.272
 9875SOL    HW130524   6.112   5.829   2.198
 9875SOL    HW230525   6.237   5.900   2.274
 9876SOL     OW30526   5.373   6.776   4.228
 9876SOL    HW130527   5.384   6.714   4.151
 9876SOL    HW230528   5.396   6.729   4.314
 9877SOL     OW30529   0.060   4.817   4.073
 9877SOL    HW130530   0.044   4.912   4.044
 9877SOL    HW230531   0.158   4.799   4.076
 9878SOL     OW30532   3.137   3.208   6.115
 9878SOL    HW130533   3.149   3.237   6.210
 9878SOL    HW230534   3.182   3.119   6.101
 9879SOL     OW30535   5.225   5.117   5.611
 9879SOL    HW130536   5.142   5.065   5.630
 9879SOL    HW230537   5.248   5.173   5.691
 9880SOL     OW30538   3.181   1.087   0.958
 9880SOL    HW130539   3.153   1.008   1.013
 9880SOL    HW230540   3.191   1.059   0.863
 9881SOL     OW30541   6.724   1.361   4.987
 9881SOL    HW130542   6.794   1.324   4.927
 9881SOL    HW230543   6.765   1.426   5.051
 9882SOL     OW30544   2.502   3.726   5.705
 9882SOL    HW130545   2.580   3.777   5.670
 9882SOL    HW230546   2.429   3.789   5.731
 9883SOL     OW30547   0.786   6.427   0.784
 9883SOL    HW130548   0.696   6.406   0.822
 9883SOL    HW230549   0.776   6.459   0.690
 9884SOL     OW30550   4.342   1.474   0.609
 9884SOL    HW130551   4.330   1.515   0.699
 9884SOL    HW230552   4.440   1.459   0.592
 9885SOL     OW30553   0.415   3.063   4.590
 9885SOL    HW130554   0.364   3.036   4.508
 9885SOL    HW230555   0.474   3.141   4.568
 9886SOL     OW30556   0.774   6.066   1.273
 9886SOL    HW130557   0.835   6.069   1.193
 9886SOL    HW230558   0.818   6.013   1.346
 9887SOL     OW30559   3.999   6.790   6.997
 9887SOL    HW130560   4.023   6.722   0.047
 9887SOL    HW230561   3.994   6.880   0.019
 9888SOL     OW30562   5.719   5.071   3.266
 9888SOL    HW130563   5.674   5.160   3.257
 9888SOL    HW230564   5.789   5.062   3.196
 9889SOL     OW30565   6.854   4.011   2.169
 9889SOL    HW130566   6.843   3.919   2.132
 9889SOL    HW230567   6.830   4.011   2.266
 9890SOL     OW30568   0.696   2.073   1.342
 9890SOL    HW130569   0.673   1.994   1.398
 9890SOL    HW230570   0.793   2.094   1.351
 9891SOL     OW30571   6.187   3.777   1.380
 9891SOL    HW130572   6.168   3.759   1.476
 9891SOL    HW230573   6.101   3.792   1.331
 9892SOL     OW30574   1.475   5.424   3.365
 9892SOL    HW130575   1.465   5.376   3.452
 9892SOL    HW230576   1.490   5.522   3.383
 9893SOL     OW30577   6.579   0.292   2.177
 9893SOL    HW130578   6.571   0.217   2.242
 9893SOL    HW230579   6.514   0.278   2.102
 9894SOL     OW30580   2.660   2.086   6.343
 9894SOL    HW130581   2.712   2.000   6.351
 9894SOL    HW230582   2.591   2.090   6.415
 9895SOL     OW30583   5.713   3.297   5.710
 9895SOL    HW130584   5.615   3.317   5.700
 9895SOL    HW230585   5.725   3.209   5.756
 9896SOL     OW30586   5.173   1.794   0.375
 9896SOL    HW130587   5.112   1.850   0.430
 9896SOL    HW230588   5.170   1.699   0.408
 9897SOL     OW30589   4.863   0.040   2.955
 9897SOL    HW130590   4.851   0.085   2.867
 9897SOL    HW230591   4.779   7.014   2.981
 9898SOL     OW30592   0.463   4.793   5.705
 9898SOL    HW130593   0.371   4.789   5.745
 9898SOL    HW230594   0.518   4.717   5.739
 9899SOL     OW30595   0.317   5.749   2.567
 9899SOL    HW130596   0.284   5.699   2.647
 9899SOL    HW230597   0.417   5.761   2.574
 9900SOL     OW30598   2.026   2.949   3.057
 9900SOL    HW130599   2.021   3.036   3.008
 9900SOL    HW230600   1.989   2.959   3.149
 9901SOL     OW30601   2.485   0.888   0.168
 9901SOL    HW130602   2.535   0.881   0.254
 9901SOL    HW230603   2.397   0.841   0.176
 9902SOL     OW30604   4.523   3.712   1.111
 9902SOL    HW130605   4.457   3.741   1.180
 9902SOL    HW230606   4.475   3.670   1.035
 9903SOL     OW30607   5.289   0.302   1.455
 9903SOL    HW130608   5.321   0.362   1.528
 9903SOL    HW230609   5.282   0.209   1.489
 9904SOL     OW30610   0.376   3.952   6.053
 9904SOL    HW130611   0.279   3.967   6.036
 9904SOL    HW230612   0.396   3.854   6.052
 9905SOL     OW30613   1.580   0.322   6.265
 9905SOL    HW130614   1.520   0.385   6.313
 9905SOL    HW230615   1.559   0.322   6.167
 9906SOL     OW30616   2.124   3.906   0.007
 9906SOL    HW130617   2.060   3.833   0.032
 9906SOL    HW230618   2.099   3.990   0.055
 9907SOL     OW30619   1.365   0.856   2.923
 9907SOL    HW130620   1.356   0.955   2.937
 9907SOL    HW230621   1.461   0.830   2.933
 9908SOL     OW30622   0.906   3.498   5.796
 9908SOL    HW130623   1.005   3.501   5.813
 9908SOL    HW230624   0.883   3.564   5.724
 9909SOL     OW30625   4.010   0.854   2.884
 9909SOL    HW130626   3.963   0.863   2.796
 9909SOL    HW230627   3.978   0.925   2.947
 9910SOL     OW30628   1.040   5.275   1.571
 9910SOL    HW130629   0.942   5.295   1.582
 9910SOL    HW230630   1.052   5.176   1.565
 9911SOL     OW30631   4.030   5.831   1.946
 9911SOL    HW130632   4.105   5.856   1.885
 9911SOL    HW230633   4.002   5.912   1.998
 9912SOL     OW30634   4.381   1.233   1.653
 9912SOL    HW130635   4.401   1.319   1.606
 9912SOL    HW230636   4.283   1.213   1.646
 9913SOL     OW30637   6.469   3.401   1.226
 9913SOL    HW130638   6.513   3.319   1.188
 9913SOL    HW230639   6.444   3.385   1.321
 9914SOL     OW30640   0.380   6.898   4.939
 9914SOL    HW130641   0.379   6.967   4.866
 9914SOL    HW230642   0.287   6.864   4.953
 9915SOL     OW30643   5.503   2.427   3.806
 9915SOL    HW130644   5.594   2.444   3.769
 9915SOL    HW230645   5.460   2.513   3.832
 9916SOL     OW30646   1.959   2.080   3.407
 9916SOL    HW130647   1.864   2.108   3.395
 9916SOL    HW230648   2.006   2.144   3.468
 9917SOL     OW30649   3.824   3.394   4.858
 9917SOL    HW130650   3.864   3.483   4.881
 9917SOL    HW230651   3.773   3.402   4.772
 9918SOL     OW30652   1.027   2.364   1.790
 9918SOL    HW130653   0.953   2.385   1.727
 9918SOL    HW230654   1.011   2.410   1.878
 9919SOL     OW30655   2.616   6.015   1.868
 9919SOL    HW130656   2.638   5.953   1.792
 9919SOL    HW230657   2.526   6.055   1.852
 9920SOL     OW30658   3.967   6.668   2.207
 9920SOL    HW130659   4.065   6.680   2.222
 9920SOL    HW230660   3.930   6.749   2.162
 9921SOL     OW30661   4.481   6.896   4.695
 9921SOL    HW130662   4.439   6.869   4.781
 9921SOL    HW230663   4.538   6.821   4.660
 9922SOL     OW30664   4.703   4.433   1.047
 9922SOL    HW130665   4.630   4.425   0.979
 9922SOL    HW230666   4.753   4.347   1.052
 9923SOL     OW30667   6.590   2.965   0.132
 9923SOL    HW130668   6.651   2.964   0.053
 9923SOL    HW230669   6.579   2.872   0.167
 9924SOL     OW30670   4.722   1.912   3.244
 9924SOL    HW130671   4.722   1.923   3.344
 9924SOL    HW230672   4.645   1.963   3.205
 9925SOL     OW30673   1.328   4.556   3.735
 9925SOL    HW130674   1.387   4.490   3.782
 9925SOL    HW230675   1.360   4.649   3.754
 9926SOL     OW30676   3.359   2.486   0.741
 9926SOL    HW130677   3.447   2.531   0.753
 9926SOL    HW230678   3.286   2.547   0.771
 9927SOL     OW30679   1.248   1.726   1.273
 9927SOL    HW130680   1.152   1.719   1.244
 9927SOL    HW230681   1.291   1.802   1.226
 9928SOL     OW30682   5.205   3.840   2.869
 9928SOL    HW130683   5.236   3.931   2.842
 9928SOL    HW230684   5.157   3.798   2.792
 9929SOL     OW30685   3.120   4.143   4.924
 9929SOL    HW130686   3.111   4.061   4.868
 9929SOL    HW230687   3.071   4.218   4.882
 9930SOL     OW30688   0.659   0.391   6.417
 9930SOL    HW130689   0.685   0.452   6.342
 9930SOL    HW230690   0.728   0.319   6.427
 9931SOL     OW30691   6.898   5.407   4.132
 9931SOL    HW130692   6.830   5.452   4.190
 9931SOL    HW230693   6.971   5.369   4.190
 9932SOL     OW30694   2.471   2.034   6.571
 9932SOL    HW130695   2.502   2.091   6.647
 9932SOL    HW230696   2.474   1.938   6.597
 9933SOL     OW30697   1.770   0.791   4.248
 9933SOL    HW130698   1.823   0.843   4.315
 9933SOL    HW230699   1.828   0.720   4.208
 9934SOL     OW30700   6.361   2.015   0.269
 9934SOL    HW130701   6.332   2.012   0.174
 9934SOL    HW230702   6.292   1.968   0.326
 9935SOL     OW30703   2.924   0.640   0.962
 9935SOL    HW130704   3.022   0.661   0.966
 9935SOL    HW230705   2.912   0.542   0.949
 9936SOL     OW30706   0.105   5.067   0.389
 9936SOL    HW130707   0.016   5.064   0.434
 9936SOL    HW230708   0.121   4.980   0.341
 9937SOL     OW30709   1.464   1.311   2.692
 9937SOL    HW130710   1.446   1.216   2.666
 9937SOL    HW230711   1.453   1.370   2.613
 9938SOL     OW30712   5.964   6.463   4.422
 9938SOL    HW130713   5.905   6.543   4.413
 9938SOL    HW230714   5.911   6.387   4.460
 9939SOL     OW30715   2.598   2.899   0.809
 9939SOL    HW130716   2.537   2.821   0.792
 9939SOL    HW230717   2.614   2.909   0.907
 9940SOL     OW30718   1.288   0.318   2.649
 9940SOL    HW130719   1.227   0.372   2.706
 9940SOL    HW230720   1.267   0.221   2.660
 9941SOL     OW30721   2.680   5.696   5.494
 9941SOL    HW130722   2.686   5.651   5.405
 9941SOL    HW230723   2.671   5.626   5.565
 9942SOL     OW30724   4.702   5.493   2.136
 9942SOL    HW130725   4.607   5.496   2.105
 9942SOL    HW230726   4.727   5.398   2.155
 9943SOL     OW30727   1.104   4.135   6.707
 9943SOL    HW130728   1.013   4.099   6.726
 9943SOL    HW230729   1.114   4.150   6.609
 9944SOL     OW30730   0.454   4.914   6.419
 9944SOL    HW130731   0.551   4.923   6.441
 9944SOL    HW230732   0.437   4.947   6.327
 9945SOL     OW30733   5.725   4.068   6.736
 9945SOL    HW130734   5.636   4.066   6.690
 9945SOL    HW230735   5.756   3.974   6.752
 9946SOL     OW30736   6.002   0.352   3.220
 9946SOL    HW130737   6.100   0.331   3.223
 9946SOL    HW230738   5.956   0.305   3.295
 9947SOL     OW30739   3.329   1.785   4.551
 9947SOL    HW130740   3.416   1.739   4.566
 9947SOL    HW230741   3.282   1.744   4.473
 9948SOL     OW30742   6.993   5.720   5.269
 9948SOL    HW130743   6.962   5.807   5.230
 9948SOL    HW230744   6.914   5.661   5.283
 9949SOL     OW30745   6.970   5.254   3.764
 9949SOL    HW130746   0.043   5.288   3.780
 9949SOL    HW230747   6.965   5.158   3.789
 9950SOL     OW30748   0.041   5.803   6.074
 9950SOL    HW130749   0.140   5.811   6.074
 9950SOL    HW230750   0.012   5.750   5.994
 9951SOL     OW30751   1.698   2.368   3.202
 9951SOL    HW130752   1.746   2.354   3.116
 9951SOL    HW230753   1.694   2.282   3.252
 9952SOL     OW30754   1.578   3.583   0.773
 9952SOL    HW130755   1.662   3.628   0.743
 9952SOL    HW230756   1.595   3.484   0.782
 9953SOL     OW30757   5.769   2.826   4.181
 9953SOL    HW130758   5.754   2.924   4.186
 9953SOL    HW230759   5.787   2.800   4.086
 9954SOL     OW30760   1.158   0.219   4.560
 9954SOL    HW130761   1.199   0.310   4.553
 9954SOL    HW230762   1.183   0.164   4.480
 9955SOL     OW30763   3.481   3.455   6.834
 9955SOL    HW130764   3.394   3.427   6.792
 9955SOL    HW230765   3.512   3.385   6.898
 9956SOL     OW30766   0.632   3.840   2.910
 9956SOL    HW130767   0.652   3.810   3.004
 9956SOL    HW230768   0.679   3.926   2.892
 9957SOL     OW30769   5.898   0.196   2.545
 9957SOL    HW130770   5.877   0.284   2.586
 9957SOL    HW230771   5.990   0.168   2.571
 9958SOL     OW30772   2.830   5.960   6.300
 9958SOL    HW130773   2.842   6.057   6.323
 9958SOL    HW230774   2.733   5.941   6.283
 9959SOL     OW30775   4.098   3.636   3.133
 9959SOL    HW130776   4.039   3.703   3.088
 9959SOL    HW230777   4.139   3.576   3.065
 9960SOL     OW30778   0.584   6.588   2.039
 9960SOL    HW130779   0.509   6.654   2.038
 9960SOL    HW230780   0.560   6.509   1.983
 9961SOL     OW30781   1.585   5.020   3.243
 9961SOL    HW130782   1.597   4.986   3.150
 9961SOL    HW230783   1.536   4.952   3.297
 9962SOL     OW30784   4.690   0.672   2.225
 9962SOL    HW130785   4.744   0.745   2.183
 9962SOL    HW230786   4.687   0.685   2.324
 9963SOL     OW30787   2.570   2.405   5.686
 9963SOL    HW130788   2.606   2.497   5.673
 9963SOL    HW230789   2.641   2.345   5.721
 9964SOL     OW30790   4.307   5.118   5.872
 9964SOL    HW130791   4.385   5.084   5.925
 9964SOL    HW230792   4.222   5.081   5.910
 9965SOL     OW30793   3.481   4.922   4.968
 9965SOL    HW130794   3.546   4.968   4.907
 9965SOL    HW230795   3.388   4.934   4.931
 9966SOL     OW30796   2.129   5.362   1.867
 9966SOL    HW130797   2.072   5.439   1.897
 9966SOL    HW230798   2.145   5.369   1.769
 9967SOL     OW30799   5.154   5.131   1.911
 9967SOL    HW130800   5.231   5.183   1.873
 9967SOL    HW230801   5.114   5.182   1.987
 9968SOL     OW30802   3.187   5.654   6.319
 9968SOL    HW130803   3.203   5.559   6.344
 9968SOL    HW230804   3.251   5.713   6.367
 9969SOL     OW30805   1.186   2.845   4.090
 9969SOL    HW130806   1.170   2.784   4.167
 9969SOL    HW230807   1.103   2.849   4.033
 9970SOL     OW30808   6.773   4.408   2.414
 9970SOL    HW130809   6.820   4.496   2.405
 9970SOL    HW230810   6.748   4.393   2.509
 9971SOL     OW30811   2.184   4.430   0.505
 9971SOL    HW130812   2.247   4.485   0.561
 9971SOL    HW230813   2.168   4.476   0.418
 9972SOL     OW30814   3.741   4.367   0.807
 9972SOL    HW130815   3.786   4.390   0.894
 9972SOL    HW230816   3.648   4.405   0.807
 9973SOL     OW30817   4.093   1.685   4.841
 9973SOL    HW130818   4.170   1.730   4.887
 9973SOL    HW230819   4.127   1.636   4.761
 9974SOL     OW30820   6.720   3.859   3.069
 9974SOL    HW130821   6.701   3.932   3.134
 9974SOL    HW230822   6.815   3.865   3.039
 9975SOL     OW30823   6.956   4.470   6.896
 9975SOL    HW130824   0.034   4.484   6.910
 9975SOL    HW230825   6.914   4.557   6.870
 9976SOL     OW30826   6.505   4.689   5.419
 9976SOL    HW130827   6.416   4.697   5.376
 9976SOL    HW230828   6.497   4.633   5.502
 9977SOL     OW30829   6.539   4.935   5.842
 9977SOL    HW130830   6.549   4.869   5.917
 9977SOL    HW230831   6.449   4.979   5.848
 9978SOL     OW30832   5.979   1.225   4.642
 9978SOL    HW130833   6.001   1.289   4.568
 9978SOL    HW230834   5.906   1.264   4.699
 9979SOL     OW30835   6.393   4.593   6.151
 9979SOL    HW130836   6.372   4.533   6.074
 9979SOL    HW230837   6.448   4.542   6.218
 9980SOL     OW30838   1.640   0.681   0.209
 9980SOL    HW130839   1.710   0.665   0.139
 9980SOL    HW230840   1.661   0.627   0.291
 9981SOL     OW30841   2.394   2.047   0.775
 9981SOL    HW130842   2.353   2.138   0.784
 9981SOL    HW230843   2.490   2.056   0.749
 9982SOL     OW30844   1.315   1.590   3.155
 9982SOL    HW130845   1.234   1.551   3.110
 9982SOL    HW230846   1.388   1.601   3.088
 9983SOL     OW30847   1.333   1.079   1.538
 9983SOL    HW130848   1.248   1.027   1.538
 9983SOL    HW230849   1.404   1.026   1.491
 9984SOL     OW30850   0.494   0.155   0.462
 9984SOL    HW130851   0.399   0.130   0.478
 9984SOL    HW230852   0.540   0.083   0.410
 9985SOL     OW30853   3.937   6.941   1.554
 9985SOL    HW130854   3.903   6.854   1.589
 9985SOL    HW230855   4.030   6.929   1.521
 9986SOL     OW30856   4.998   4.071   6.526
 9986SOL    HW130857   5.061   4.007   6.483
 9986SOL    HW230858   4.904   4.035   6.521
 9987SOL     OW30859   5.802   2.186   2.289
 9987SOL    HW130860   5.711   2.192   2.332
 9987SOL    HW230861   5.872   2.195   2.360
 9988SOL     OW30862   6.887   5.301   4.636
 9988SOL    HW130863   6.980   5.265   4.633
 9988SOL    HW230864   6.829   5.242   4.693
 9989SOL     OW30865   5.723   3.502   3.103
 9989SOL    HW130866   5.744   3.404   3.101
 9989SOL    HW230867   5.803   3.553   3.136
 9990SOL     OW30868   2.330   0.005   3.428
 9990SOL    HW130869   2.238   6.984   3.431
 9990SOL    HW230870   2.326   0.097   3.468
 9991SOL     OW30871   1.287   2.764   4.765
 9991SOL    HW130872   1.303   2.824   4.686
 9991SOL    HW230873   1.201   2.789   4.809
 9992SOL     OW30874   4.230   3.420   0.637
 9992SOL    HW130875   4.137   3.396   0.608
 9992SOL    HW230876   4.237   3.410   0.737
 9993SOL     OW30877   3.944   6.229   2.736
 9993SOL    HW130878   3.906   6.240   2.827
 9993SOL    HW230879   4.043   6.244   2.739
 9994SOL     OW30880   6.723   4.316   4.151
 9994SOL    HW130881   6.792   4.283   4.087
 9994SOL    HW230882   6.756   4.306   4.244
 9995SOL     OW30883   3.206   0.153   3.127
 9995SOL    HW130884   3.254   0.241   3.128
 9995SOL    HW230885   3.256   0.089   3.069
 9996SOL     OW30886   2.690   2.592   0.921
 9996SOL    HW130887   2.684   2.666   0.988
 9996SOL    HW230888   2.675   2.504   0.967
 9997SOL     OW30889   4.751   1.549   1.186
 9997SOL    HW130890   4.752   1.601   1.101
 9997SOL    HW230891   4.705   1.461   1.171
 9998SOL     OW30892   5.732   3.811   2.995
 9998SOL    HW130893   5.745   3.857   3.083
 9998SOL    HW230894   5.644   3.764   2.994
 9999SOL     OW30895   6.378   5.704   4.803
 9999SOL    HW130896   6.334   5.794   4.808
 9999SOL    HW230897   6.411   5.688   4.710
10000SOL     OW30898   6.283   1.883   0.024
10000SOL    HW130899   6.267   1.950   6.971
10000SOL    HW230900   6.237   1.797   0.001
10001SOL     OW30901   4.628   0.447   1.463
10001SOL    HW130902   4.611   0.546   1.470
10001SOL    HW230903   4.550   0.398   1.501
10002SOL     OW30904   1.304   1.281   1.341
10002SOL    HW130905   1.320   1.223   1.421
10002SOL    HW230906   1.375   1.351   1.335
10003SOL     OW30907   3.850   2.187   2.799
10003SOL    HW130908   3.799   2.252   2.743
10003SOL    HW230909   3.932   2.231   2.835
10004SOL     OW30910   5.687   2.805   4.736
10004SOL    HW130911   5.588   2.791   4.734
10004SOL    HW230912   5.708   2.893   4.693
10005SOL     OW30913   4.636   5.511   2.794
10005SOL    HW130914   4.538   5.528   2.806
10005SOL    HW230915   4.672   5.576   2.727
10006SOL     OW30916   5.041   1.467   5.014
10006SOL    HW130917   4.970   1.529   4.980
10006SOL    HW230918   5.105   1.446   4.940
10007SOL     OW30919   0.939   3.960   5.125
10007SOL    HW130920   1.031   3.938   5.092
10007SOL    HW230921   0.919   4.056   5.107
10008SOL     OW30922   4.172   1.179   3.278
10008SOL    HW130923   4.233   1.230   3.218
10008SOL    HW230924   4.227   1.129   3.346
10009SOL     OW30925   1.922   3.689   2.089
10009SOL    HW130926   1.871   3.664   2.006
10009SOL    HW230927   1.980   3.768   2.070
10010SOL     OW30928   2.290   6.656   0.146
10010SOL    HW130929   2.225   6.700   0.083
10010SOL    HW230930   2.362   6.611   0.093
10011SOL     OW30931   0.804   3.487   6.138
10011SOL    HW130932   0.826   3.500   6.235
10011SOL    HW230933   0.888   3.473   6.086
10012SOL     OW30934   4.814   6.909   2.620
10012SOL    HW130935   4.731   6.964   2.606
10012SOL    HW230936   4.789   6.812   2.626
10013SOL     OW30937   2.220   1.913   4.682
10013SOL    HW130938   2.125   1.936   4.657
10013SOL    HW230939   2.258   1.986   4.739
10014SOL     OW30940   0.024   1.952   1.293
10014SOL    HW130941   0.096   1.962   1.224
10014SOL    HW230942   7.019   1.855   1.301
10015SOL     OW30943   3.500   4.551   0.753
10015SOL    HW130944   3.538   4.596   0.672
10015SOL    HW230945   3.462   4.620   0.815
10016SOL     OW30946   1.953   6.885   5.083
10016SOL    HW130947   1.862   6.917   5.056
10016SOL    HW230948   1.945   6.832   5.167
10017SOL     OW30949   2.281   1.677   2.481
10017SOL    HW130950   2.298   1.581   2.501
10017SOL    HW230951   2.363   1.731   2.505
10018SOL     OW30952   5.985   5.219   5.844
10018SOL    HW130953   6.068   5.275   5.851
10018SOL    HW230954   5.914   5.257   5.903
10019SOL     OW30955   0.532   2.112   3.354
10019SOL    HW130956   0.615   2.056   3.354
10019SOL    HW230957   0.540   2.183   3.283
10020SOL     OW30958   0.401   1.285   1.169
10020SOL    HW130959   0.333   1.327   1.109
10020SOL    HW230960   0.491   1.288   1.126
10021SOL     OW30961   1.326   2.616   2.369
10021SOL    HW130962   1.245   2.558   2.371
10021SOL    HW230963   1.309   2.695   2.309
10022SOL     OW30964   3.816   6.910   1.183
10022SOL    HW130965   3.916   6.906   1.178
10022SOL    HW230966   3.777   6.875   1.098
10023SOL     OW30967   2.034   5.677   5.394
10023SOL    HW130968   2.054   5.643   5.302
10023SOL    HW230969   2.042   5.601   5.459
10024SOL     OW30970   2.377   6.579   1.712
10024SOL    HW130971   2.284   6.543   1.715
10024SOL    HW230972   2.375   6.678   1.723
10025SOL     OW30973   1.674   1.896   1.320
10025SOL    HW130974   1.584   1.900   1.365
10025SOL    HW230975   1.679   1.814   1.263
10026SOL     OW30976   4.142   6.161   3.595
10026SOL    HW130977   4.216   6.225   3.579
10026SOL    HW230978   4.054   6.210   3.594
10027SOL     OW30979   1.284   4.862   4.904
10027SOL    HW130980   1.324   4.816   4.826
10027SOL    HW230981   1.193   4.825   4.922
10028SOL     OW30982   1.344   1.941   2.133
10028SOL    HW130983   1.396   1.987   2.060
10028SOL    HW230984   1.407   1.899   2.198
10029SOL     OW30985   2.907   1.786   4.167
10029SOL    HW130986   2.847   1.862   4.140
10029SOL    HW230987   2.989   1.823   4.212
10030SOL     OW30988   2.306   6.980   4.508
10030SOL    HW130989   2.346   6.948   4.594
10030SOL    HW230990   2.377   6.985   4.438
10031SOL     OW30991   6.010   4.693   3.939
10031SOL    HW130992   6.046   4.718   4.029
10031SOL    HW230993   5.972   4.601   3.943
10032SOL     OW30994   3.851   0.651   5.202
10032SOL    HW130995   3.788   0.724   5.175
10032SOL    HW230996   3.945   0.679   5.182
10033SOL     OW30997   4.666   2.032   4.024
10033SOL    HW130998   4.700   1.968   3.955
10033SOL    HW230999   4.616   2.106   3.980
10034SOL     OW31000   3.776   0.219   3.969
10034SOL    HW131001   3.832   0.248   4.047
10034SOL    HW231002   3.778   0.289   3.899
10035SOL     OW31003   0.330   4.666   2.349
10035SOL    HW131004   0.347   4.759   2.315
10035SOL    HW231005   0.296   4.672   2.443
10036SOL     OW31006   5.888   1.220   0.956
10036SOL    HW131007   5.908   1.294   1.020
10036SOL    HW231008   5.930   1.135   0.988
10037SOL     OW31009   6.323   1.764   1.153
10037SOL    HW131010   6.413   1.737   1.186
10037SOL    HW231011   6.318   1.864   1.148
10038SOL     OW31012   4.217   1.199   6.604
10038SOL    HW131013   4.139   1.137   6.597
10038SOL    HW231014   4.276   1.169   6.680
10039SOL     OW31015   3.787   0.504   4.637
10039SOL    HW131016   3.833   0.590   4.618
10039SOL    HW231017   3.799   0.480   4.733
10040SOL     OW31018   4.425   5.858   6.110
10040SOL    HW131019   4.416   5.758   6.101
10040SOL    HW231020   4.511   5.887   6.067
10041SOL     OW31021   4.067   5.915   6.680
10041SOL    HW131022   4.077   5.822   6.647
10041SOL    HW231023   4.122   5.977   6.624
10042SOL     OW31024   0.912   1.717   4.213
10042SOL    HW131025   0.959   1.657   4.278
10042SOL    HW231026   0.833   1.669   4.174
10043SOL     OW31027   6.274   2.223   4.514
10043SOL    HW131028   6.357   2.249   4.564
10043SOL    HW231029   6.221   2.306   4.494
10044SOL     OW31030   3.257   1.225   4.830
10044SOL    HW131031   3.311   1.234   4.746
10044SOL    HW231032   3.177   1.168   4.812
10045SOL     OW31033   4.488   0.073   3.691
10045SOL    HW131034   4.419   0.084   3.762
10045SOL    HW231035   4.541   0.158   3.684
10046SOL     OW31036   2.181   3.625   1.341
10046SOL    HW131037   2.093   3.578   1.339
10046SOL    HW231038   2.176   3.701   1.406
10047SOL     OW31039   6.750   3.606   5.382
10047SOL    HW131040   6.806   3.678   5.422
10047SOL    HW231041   6.691   3.645   5.311
10048SOL     OW31042   6.398   0.735   2.974
10048SOL    HW131043   6.392   0.685   2.888
10048SOL    HW231044   6.326   0.704   3.036
10049SOL     OW31045   0.290   0.497   6.400
10049SOL    HW131046   0.264   0.427   6.466
10049SOL    HW231047   0.302   0.585   6.447
10050SOL     OW31048   5.342   3.510   5.341
10050SOL    HW131049   5.318   3.415   5.362
10050SOL    HW231050   5.324   3.528   5.244
10051SOL     OW31051   5.774   2.991   5.521
10051SOL    HW131052   5.708   3.005   5.447
10051SOL    HW231053   5.760   3.061   5.591
10052SOL     OW31054   2.036   1.728   3.048
10052SOL    HW131055   2.042   1.817   3.001
10052SOL    HW231056   1.945   1.717   3.088
10053SOL     OW31057   3.812   5.687   2.814
10053SOL    HW131058   3.754   5.731   2.746
10053SOL    HW231059   3.790   5.722   2.905
10054SOL     OW31060   5.451   5.664   6.675
10054SOL    HW131061   5.513   5.671   6.754
10054SOL    HW231062   5.503   5.681   6.591
10055SOL     OW31063   5.556   1.677   4.939
10055SOL    HW131064   5.540   1.725   4.853
10055SOL    HW231065   5.504   1.592   4.940
10056SOL     OW31066   5.336   4.370   3.534
10056SOL    HW131067   5.416   4.384   3.593
10056SOL    HW231068   5.357   4.401   3.441
10057SOL     OW31069   4.334   2.231   5.770
10057SOL    HW131070   4.318   2.288   5.851
10057SOL    HW231071   4.394   2.155   5.794
10058SOL     OW31072   0.123   3.421   5.203
10058SOL    HW131073   0.060   3.401   5.278
10058SOL    HW231074   0.073   3.465   5.129
10059SOL     OW31075   6.923   0.636   0.848
10059SOL    HW131076   6.978   0.607   0.770
10059SOL    HW231077   6.978   0.633   0.931
10060SOL     OW31078   2.030   2.537   1.908
10060SOL    HW131079   2.066   2.444   1.916
10060SOL    HW231080   2.085   2.588   1.842
10061SOL     OW31081   4.442   0.777   4.103
10061SOL    HW131082   4.378   0.817   4.038
10061SOL    HW231083   4.513   0.727   4.054
10062SOL     OW31084   5.886   0.347   4.095
10062SOL    HW131085   5.847   0.357   4.186
10062SOL    HW231086   5.889   0.437   4.051
10063SOL     OW31087   2.667   0.874   4.009
10063SOL    HW131088   2.599   0.941   3.978
10063SOL    HW231089   2.658   0.861   4.108
10064SOL     OW31090   5.013   0.061   6.962
10064SOL    HW131091   4.916   0.083   6.974
10064SOL    HW231092   5.030   0.036   6.867
10065SOL     OW31093   3.397   0.305   2.445
10065SOL    HW131094   3.407   0.313   2.545
10065SOL    HW231095   3.487   0.301   2.403
10066SOL     OW31096   0.402   2.521   4.044
10066SOL    HW131097   0.378   2.564   3.957
10066SOL    HW231098   0.420   2.424   4.029
10067SOL     OW31099   0.203   4.164   5.226
10067SOL    HW131100   0.297   4.128   5.225
10067SOL    HW231101   0.139   4.088   5.217
10068SOL     OW31102   0.202   3.521   3.567
10068SOL    HW131103   0.191   3.478   3.478
10068SOL    HW231104   0.160   3.464   3.637
10069SOL     OW31105   2.705   5.329   2.413
10069SOL    HW131106   2.757   5.253   2.452
10069SOL    HW231107   2.684   5.308   2.317
10070SOL     OW31108   0.084   6.365   5.661
10070SOL    HW131109   0.000   6.312   5.674
10070SOL    HW231110   0.127   6.338   5.574
10071SOL     OW31111   6.265   5.952   4.868
10071SOL    HW131112   6.185   5.967   4.925
10071SOL    HW231113   6.345   5.992   4.912
10072SOL     OW31114   6.589   6.827   4.103
10072SOL    HW131115   6.597   6.752   4.169
10072SOL    HW231116   6.655   6.813   4.029
10073SOL     OW31117   6.368   4.695   4.910
10073SOL    HW131118   6.294   4.755   4.879
10073SOL    HW231119   6.329   4.621   4.964
10074SOL     OW31120   2.002   0.150   5.058
10074SOL    HW131121   2.083   0.180   5.006
10074SOL    HW231122   2.016   0.057   5.091
10075SOL     OW31123   1.658   2.623   2.548
10075SOL    HW131124   1.688   2.658   2.637
10075SOL    HW231125   1.656   2.698   2.482
10076SOL     OW31126   6.302   6.357   3.912
10076SOL    HW131127   6.301   6.374   4.010
10076SOL    HW231128   6.249   6.428   3.865
10077SOL     OW31129   4.419   2.980   6.734
10077SOL    HW131130   4.380   2.954   6.823
10077SOL    HW231131   4.361   2.944   6.661
10078SOL     OW31132   0.283   5.577   3.560
10078SOL    HW131133   0.341   5.623   3.627
10078SOL    HW231134   0.187   5.587   3.586
10079SOL     OW31135   5.539   2.976   3.688
10079SOL    HW131136   5.535   2.877   3.678
10079SOL    HW231137   5.470   3.006   3.754
10080SOL     OW31138   4.004   0.641   5.698
10080SOL    HW131139   4.088   0.693   5.711
10080SOL    HW231140   3.978   0.644   5.602
10081SOL     OW31141   0.003   0.972   0.505
10081SOL    HW131142   0.006   0.898   0.439
10081SOL    HW231143   6.939   1.025   0.494
10082SOL     OW31144   6.861   5.315   1.401
10082SOL    HW131145   6.847   5.240   1.466
10082SOL    HW231146   6.958   5.337   1.396
10083SOL     OW31147   3.835   0.219   3.338
10083SOL    HW131148   3.909   0.285   3.326
10083SOL    HW231149   3.802   0.189   3.248
10084SOL     OW31150   2.044   0.856   6.224
10084SOL    HW131151   2.086   0.812   6.303
10084SOL    HW231152   2.089   0.825   6.141
10085SOL     OW31153   2.654   5.604   1.077
10085SOL    HW131154   2.568   5.553   1.085
10085SOL    HW231155   2.723   5.561   1.135
10086SOL     OW31156   4.888   5.919   2.314
10086SOL    HW131157   4.801   5.968   2.323
10086SOL    HW231158   4.919   5.890   2.404
10087SOL     OW31159   6.798   6.529   4.106
10087SOL    HW131160   6.779   6.562   4.199
10087SOL    HW231161   6.801   6.607   4.043
10088SOL     OW31162   6.689   0.502   2.399
10088SOL    HW131163   6.716   0.409   2.372
10088SOL    HW231164   6.661   0.502   2.495
10089SOL     OW31165   2.659   1.868   3.296
10089SOL    HW131166   2.594   1.831   3.229
10089SOL    HW231167   2.662   1.808   3.376
10090SOL     OW31168   0.433   4.910   2.288
10090SOL    HW131169   0.523   4.934   2.324
10090SOL    HW231170   0.363   4.964   2.335
10091SOL     OW31171   6.926   4.724   6.701
10091SOL    HW131172   6.914   4.818   6.668
10091SOL    HW231173   6.956   4.726   6.796
10092SOL     OW31174   2.296   2.750   5.737
10092SOL    HW131175   2.308   2.657   5.705
10092SOL    HW231176   2.297   2.751   5.837
10093SOL     OW31177   4.814   3.277   5.593
10093SOL    HW131178   4.729   3.290   5.643
10093SOL    HW231179   4.868   3.361   5.597
10094SOL     OW31180   3.466   5.383   1.201
10094SOL    HW131181   3.539   5.438   1.243
10094SOL    HW231182   3.503   5.331   1.124
10095SOL     OW31183   5.656   1.620   4.199
10095SOL    HW131184   5.712   1.575   4.270
10095SOL    HW231185   5.639   1.555   4.125
10096SOL     OW31186   4.158   5.469   3.064
10096SOL    HW131187   4.194   5.377   3.081
10096SOL    HW231188   4.061   5.471   3.084
10097SOL     OW31189   1.118   1.896   0.109
10097SOL    HW131190   1.178   1.975   0.096
10097SOL    HW231191   1.106   1.880   0.207
10098SOL     OW31192   3.082   0.406   5.249
10098SOL    HW131193   3.117   0.432   5.158
10098SOL    HW231194   3.155   0.417   5.316
10099SOL     OW31195   0.583   4.958   1.264
10099SOL    HW131196   0.599   4.861   1.283
10099SOL    HW231197   0.527   4.998   1.336
10100SOL     OW31198   4.564   5.984   5.851
10100SOL    HW131199   4.617   6.043   5.790
10100SOL    HW231200   4.504   6.040   5.908
10101SOL     OW31201   6.617   3.109   1.737
10101SOL    HW131202   6.551   3.131   1.666
10101SOL    HW231203   6.640   3.192   1.788
10102SOL     OW31204   6.934   1.095   2.118
10102SOL    HW131205   6.915   1.189   2.146
10102SOL    HW231206   6.972   1.044   2.195
10103SOL     OW31207   3.274   0.440   5.447
10103SOL    HW131208   3.293   0.446   5.545
10103SOL    HW231209   3.286   0.530   5.405
10104SOL     OW31210   1.062   2.145   5.127
10104SOL    HW131211   1.005   2.214   5.083
10104SOL    HW231212   1.077   2.069   5.064
10105SOL     OW31213   1.926   0.733   6.721
10105SOL    HW131214   1.917   0.649   6.666
10105SOL    HW231215   1.928   0.812   6.660
10106SOL     OW31216   3.894   6.443   0.648
10106SOL    HW131217   3.994   6.441   0.648
10106SOL    HW231218   3.859   6.349   0.642
10107SOL     OW31219   5.167   1.551   5.492
10107SOL    HW131220   5.188   1.643   5.461
10107SOL    HW231221   5.190   1.542   5.589
10108SOL     OW31222   0.378   0.964   0.413
10108SOL    HW131223   0.332   0.917   0.338
10108SOL    HW231224   0.320   1.038   0.447
10109SOL     OW31225   6.471   1.548   0.035
10109SOL    HW131226   6.464   1.472   6.989
10109SOL    HW231227   6.567   1.573   0.046
10110SOL     OW31228   5.028   4.975   4.151
10110SOL    HW131229   4.949   5.012   4.200
10110SOL    HW231230   5.110   4.984   4.207
10111SOL     OW31231   5.951   3.678   3.979
10111SOL    HW131232   5.860   3.637   3.985
10111SOL    HW231233   5.984   3.673   3.885
10112SOL     OW31234   6.023   3.817   3.558
10112SOL    HW131235   6.074   3.804   3.473
10112SOL    HW231236   6.033   3.737   3.616
10113SOL     OW31237   4.115   6.790   6.747
10113SOL    HW131238   4.194   6.732   6.733
10113SOL    HW231239   4.081   6.780   6.840
10114SOL     OW31240   4.121   1.748   2.008
10114SOL    HW131241   4.033   1.705   1.991
10114SOL    HW231242   4.133   1.825   1.946
10115SOL     OW31243   3.979   1.316   5.425
10115SOL    HW131244   4.044   1.390   5.444
10115SOL    HW231245   3.952   1.319   5.329
10116SOL     OW31246   1.161   0.582   0.136
10116SOL    HW131247   1.253   0.592   0.172
10116SOL    HW231248   1.165   0.565   0.038
10117SOL     OW31249   6.773   6.201   6.232
10117SOL    HW131250   6.821   6.237   6.311
10117SOL    HW231251   6.674   6.202   6.250
10118SOL     OW31252   2.133   4.443   3.214
10118SOL    HW131253   2.047   4.402   3.241
10118SOL    HW231254   2.127   4.473   3.119
10119SOL     OW31255   6.750   5.092   4.801
10119SOL    HW131256   6.661   5.048   4.800
10119SOL    HW231257   6.786   5.094   4.895
10120SOL     OW31258   2.183   3.018   4.462
10120SOL    HW131259   2.234   2.932   4.473
10120SOL    HW231260   2.201   3.078   4.539
10121SOL     OW31261   6.008   4.297   6.911
10121SOL    HW131262   6.045   4.389   6.902
10121SOL    HW231263   6.083   4.231   6.918
10122SOL     OW31264   5.494   3.095   3.047
10122SOL    HW131265   5.537   3.013   3.084
10122SOL    HW231266   5.394   3.087   3.054
10123SOL     OW31267   5.476   5.916   0.909
10123SOL    HW131268   5.422   5.871   0.980
10123SOL    HW231269   5.552   5.965   0.952
10124SOL     OW31270   1.554   5.402   0.493
10124SOL    HW131271   1.536   5.381   0.589
10124SOL    HW231272   1.609   5.329   0.453
10125SOL     OW31273   1.988   1.411   1.226
10125SOL    HW131274   2.088   1.408   1.219
10125SOL    HW231275   1.962   1.463   1.307
10126SOL     OW31276   6.873   0.132   0.410
10126SOL    HW131277   6.774   0.129   0.418
10126SOL    HW231278   6.914   0.105   0.497
10127SOL     OW31279   2.580   4.118   0.230
10127SOL    HW131280   2.642   4.067   0.171
10127SOL    HW231281   2.503   4.153   0.177
10128SOL     OW31282   2.963   0.876   6.775
10128SOL    HW131283   2.913   0.865   6.689
10128SOL    HW231284   3.061   0.877   6.756
10129SOL     OW31285   6.435   1.537   2.996
10129SOL    HW131286   6.460   1.450   3.040
10129SOL    HW231287   6.347   1.568   3.031
10130SOL     OW31288   1.110   3.221   1.272
10130SOL    HW131289   1.097   3.198   1.369
10130SOL    HW231290   1.069   3.150   1.215
10131SOL     OW31291   1.776   6.989   3.836
10131SOL    HW131292   1.747   0.065   3.845
10131SOL    HW231293   1.860   6.975   3.887
10132SOL     OW31294   2.718   0.133   3.598
10132SOL    HW131295   2.683   0.045   3.629
10132SOL    HW231296   2.739   0.129   3.501
10133SOL     OW31297   4.771   6.229   0.628
10133SOL    HW131298   4.799   6.158   0.692
10133SOL    HW231299   4.834   6.231   0.550
10134SOL     OW31300   6.335   0.925   2.647
10134SOL    HW131301   6.246   0.884   2.667
10134SOL    HW231302   6.357   0.912   2.550
10135SOL     OW31303   5.089   3.103   3.744
10135SOL    HW131304   5.158   3.146   3.802
10135SOL    HW231305   4.998   3.135   3.772
10136SOL     OW31306   5.302   1.873   2.155
10136SOL    HW131307   5.333   1.837   2.243
10136SOL    HW231308   5.210   1.840   2.136
10137SOL     OW31309   0.184   4.100   4.621
10137SOL    HW131310   0.089   4.072   4.611
10137SOL    HW231311   0.234   4.082   4.537
10138SOL     OW31312   5.770   3.445   0.605
10138SOL    HW131313   5.857   3.396   0.609
10138SOL    HW231314   5.718   3.413   0.526
10139SOL     OW31315   3.218   3.067   3.787
10139SOL    HW131316   3.190   3.155   3.826
10139SOL    HW231317   3.221   3.074   3.687
10140SOL     OW31318   0.073   6.090   6.839
10140SOL    HW131319   0.031   6.055   6.755
10140SOL    HW231320   0.002   6.105   6.908
10141SOL     OW31321   4.185   0.844   5.737
10141SOL    HW131322   4.235   0.905   5.799
10141SOL    HW231323   4.145   0.898   5.663
10142SOL     OW31324   5.861   6.404   5.947
10142SOL    HW131325   5.878   6.501   5.932
10142SOL    HW231326   5.890   6.378   6.039
10143SOL     OW31327   5.828   1.668   0.720
10143SOL    HW131328   5.793   1.660   0.627
10143SOL    HW231329   5.820   1.579   0.766
10144SOL     OW31330   3.866   0.112   6.142
10144SOL    HW131331   3.781   0.103   6.194
10144SOL    HW231332   3.858   0.058   6.058
10145SOL     OW31333   3.223   5.683   3.214
10145SOL    HW131334   3.280   5.602   3.199
10145SOL    HW231335   3.135   5.655   3.252
10146SOL     OW31336   5.285   4.425   4.419
10146SOL    HW131337   5.214   4.456   4.483
10146SOL    HW231338   5.368   4.402   4.470
10147SOL     OW31339   5.040   3.849   6.350
10147SOL    HW131340   5.106   3.810   6.286
10147SOL    HW231341   4.972   3.903   6.300
10148SOL     OW31342   5.374   5.068   6.669
10148SOL    HW131343   5.349   5.006   6.594
10148SOL    HW231344   5.291   5.099   6.715
10149SOL     OW31345   5.461   3.459   1.851
10149SOL    HW131346   5.428   3.365   1.843
10149SOL    HW231347   5.388   3.522   1.824
10150SOL     OW31348   3.518   2.950   1.412
10150SOL    HW131349   3.607   2.908   1.394
10150SOL    HW231350   3.488   2.925   1.504
10151SOL     OW31351   0.948   6.507   6.934
10151SOL    HW131352   0.975   6.413   6.953
10151SOL    HW231353   1.023   6.569   6.959
10152SOL     OW31354   0.050   6.334   3.825
10152SOL    HW131355   0.076   6.283   3.907
10152SOL    HW231356   0.041   6.431   3.847
10153SOL     OW31357   4.071   6.007   3.372
10153SOL    HW131358   4.125   6.038   3.449
10153SOL    HW231359   3.977   5.988   3.402
10154SOL     OW31360   3.582   6.401   4.549
10154SOL    HW131361   3.671   6.428   4.587
10154SOL    HW231362   3.573   6.301   4.554
10155SOL     OW31363   5.049   1.981   6.610
10155SOL    HW131364   4.976   2.015   6.670
10155SOL    HW231365   5.137   2.018   6.640
10156SOL     OW31366   5.485   0.545   2.154
10156SOL    HW131367   5.437   0.629   2.182
10156SOL    HW231368   5.439   0.466   2.193
10157SOL     OW31369   0.178   2.243   0.504
10157SOL    HW131370   0.256   2.304   0.488
10157SOL    HW231371   0.133   2.224   0.417
10158SOL     OW31372   6.825   5.944   1.148
10158SOL    HW131373   6.859   5.953   1.242
10158SOL    HW231374   6.862   6.018   1.092
10159SOL     OW31375   3.376   2.190   1.543
10159SOL    HW131376   3.420   2.148   1.622
10159SOL    HW231377   3.384   2.289   1.549
10160SOL     OW31378   1.229   2.960   3.118
10160SOL    HW131379   1.272   3.035   3.168
10160SOL    HW231380   1.286   2.878   3.123
10161SOL     OW31381   3.348   4.140   0.452
10161SOL    HW131382   3.393   4.051   0.444
10161SOL    HW231383   3.287   4.140   0.531
10162SOL     OW31384   3.053   5.060   0.432
10162SOL    HW131385   3.007   5.146   0.451
10162SOL    HW231386   3.076   5.014   0.518
10163SOL     OW31387   0.091   3.640   6.955
10163SOL    HW131388   0.083   3.644   0.035
10163SOL    HW231389   0.165   3.577   6.930
10164SOL     OW31390   6.615   3.905   5.010
10164SOL    HW131391   6.659   3.860   4.932
10164SOL    HW231392   6.563   3.984   4.979
10165SOL     OW31393   6.782   2.029   3.323
10165SOL    HW131394   6.866   1.979   3.303
10165SOL    HW231395   6.714   1.964   3.359
10166SOL     OW31396   2.633   1.698   1.669
10166SOL    HW131397   2.716   1.692   1.724
10166SOL    HW231398   2.656   1.689   1.572
10167SOL     OW31399   0.737   5.451   0.282
10167SOL    HW131400   0.726   5.487   0.189
10167SOL    HW231401   0.672   5.377   0.297
10168SOL     OW31402   6.557   2.034   6.191
10168SOL    HW131403   6.459   2.037   6.208
10168SOL    HW231404   6.575   2.045   6.094
10169SOL     OW31405   0.411   4.341   3.962
10169SOL    HW131406   0.380   4.247   3.950
10169SOL    HW231407   0.456   4.372   3.878
10170SOL     OW31408   6.483   5.094   6.323
10170SOL    HW131409   6.574   5.058   6.340
10170SOL    HW231410   6.437   5.111   6.411
10171SOL     OW31411   0.966   2.882   5.253
10171SOL    HW131412   0.956   2.850   5.347
10171SOL    HW231413   0.984   2.805   5.193
10172SOL     OW31414   0.722   5.842   4.454
10172SOL    HW131415   0.754   5.852   4.360
10172SOL    HW231416   0.788   5.886   4.516
10173SOL     OW31417   1.787   2.120   0.664
10173SOL    HW131418   1.876   2.083   0.639
10173SOL    HW231419   1.795   2.173   0.749
10174SOL     OW31420   5.069   4.738   3.305
10174SOL    HW131421   5.160   4.697   3.309
10174SOL    HW231422   5.056   4.782   3.216
10175SOL     OW31423   5.019   2.658   3.209
10175SOL    HW131424   4.992   2.754   3.213
10175SOL    HW231425   4.939   2.601   3.191
10176SOL     OW31426   0.310   2.931   5.179
10176SOL    HW131427   0.296   2.853   5.119
10176SOL    HW231428   0.318   3.014   5.124
10177SOL     OW31429   1.638   0.561   0.964
10177SOL    HW131430   1.593   0.544   0.876
10177SOL    HW231431   1.687   0.648   0.959
10178SOL     OW31432   0.524   0.738   0.111
10178SOL    HW131433   0.529   0.669   0.038
10178SOL    HW231434   0.482   0.821   0.074
10179SOL     OW31435   0.394   2.866   6.672
10179SOL    HW131436   0.357   2.782   6.634
10179SOL    HW231437   0.478   2.890   6.625
10180SOL     OW31438   4.229   0.598   0.314
10180SOL    HW131439   4.224   0.554   0.404
10180SOL    HW231440   4.268   0.533   0.248
10181SOL     OW31441   0.123   2.409   1.427
10181SOL    HW131442   0.206   2.462   1.441
10181SOL    HW231443   0.142   2.312   1.443
10182SOL     OW31444   4.745   0.732   0.769
10182SOL    HW131445   4.801   0.667   0.822
10182SOL    HW231446   4.660   0.687   0.741
10183SOL     OW31447   5.812   2.395   5.571
10183SOL    HW131448   5.769   2.351   5.650
10183SOL    HW231449   5.837   2.489   5.596
10184SOL     OW31450   4.442   2.369   6.544
10184SOL    HW131451   4.479   2.306   6.477
10184SOL    HW231452   4.366   2.326   6.592
10185SOL     OW31453   6.230   6.346   2.474
10185SOL    HW131454   6.286   6.366   2.394
10185SOL    HW231455   6.198   6.432   2.514
10186SOL     OW31456   5.118   4.165   4.320
10186SOL    HW131457   5.100   4.169   4.221
10186SOL    HW231458   5.185   4.234   4.344
10187SOL     OW31459   1.036   4.241   6.394
10187SOL    HW131460   0.965   4.270   6.330
10187SOL    HW231461   1.099   4.317   6.410
10188SOL     OW31462   3.231   5.028   7.016
10188SOL    HW131463   3.188   5.118   7.013
10188SOL    HW231464   3.214   4.980   6.930
10189SOL     OW31465   0.444   1.019   6.296
10189SOL    HW131466   0.372   0.956   6.264
10189SOL    HW231467   0.402   1.104   6.326
10190SOL     OW31468   3.906   2.784   1.614
10190SOL    HW131469   3.821   2.786   1.665
10190SOL    HW231470   3.980   2.821   1.670
10191SOL     OW31471   4.579   4.941   6.343
10191SOL    HW131472   4.595   5.027   6.295
10191SOL    HW231473   4.554   4.961   6.438
10192SOL     OW31474   4.048   0.978   5.226
10192SOL    HW131475   4.028   1.060   5.173
10192SOL    HW231476   4.118   0.924   5.179
10193SOL     OW31477   3.345   3.394   2.676
10193SOL    HW131478   3.444   3.384   2.673
10193SOL    HW231479   3.308   3.335   2.748
10194SOL     OW31480   5.031   0.208   4.777
10194SOL    HW131481   5.098   0.276   4.807
10194SOL    HW231482   4.947   0.254   4.750
10195SOL     OW31483   6.494   6.520   0.354
10195SOL    HW131484   6.510   6.614   0.385
10195SOL    HW231485   6.569   6.491   0.295
10196SOL     OW31486   3.886   2.110   4.040
10196SOL    HW131487   3.833   2.091   4.123
10196SOL    HW231488   3.981   2.127   4.065
10197SOL     OW31489   5.149   1.972   4.083
10197SOL    HW131490   5.249   1.981   4.089
10197SOL    HW231491   5.116   2.021   4.002
10198SOL     OW31492   4.070   6.625   1.910
10198SOL    HW131493   4.132   6.700   1.930
10198SOL    HW231494   4.087   6.550   1.974
10199SOL     OW31495   0.833   1.742   0.715
10199SOL    HW131496   0.743   1.699   0.723
10199SOL    HW231497   0.822   1.838   0.690
10200SOL     OW31498   4.762   3.216   5.225
10200SOL    HW131499   4.846   3.193   5.274
10200SOL    HW231500   4.701   3.267   5.286
10201SOL     OW31501   0.830   6.168   0.446
10201SOL    HW131502   0.886   6.248   0.467
10201SOL    HW231503   0.841   6.143   0.350
10202SOL     OW31504   2.339   4.648   0.041
10202SOL    HW131505   2.306   4.647   6.967
10202SOL    HW231506   2.375   4.738   0.063
10203SOL     OW31507   6.893   2.676   2.361
10203SOL    HW131508   6.819   2.647   2.423
10203SOL    HW231509   6.961   2.603   2.354
10204SOL     OW31510   4.157   5.661   6.634
10204SOL    HW131511   4.256   5.672   6.641
10204SOL    HW231512   4.123   5.606   6.711
10205SOL     OW31513   3.091   1.106   2.233
10205SOL    HW131514   3.178   1.132   2.274
10205SOL    HW231515   3.079   1.154   2.146
10206SOL     OW31516   6.496   6.639   6.470
10206SOL    HW131517   6.592   6.617   6.456
10206SOL    HW231518   6.489   6.732   6.507
10207SOL     OW31519   1.602   1.698   0.307
10207SOL    HW131520   1.557   1.633   0.246
10207SOL    HW231521   1.701   1.687   0.301
10208SOL     OW31522   6.668   5.129   3.369
10208SOL    HW131523   6.742   5.141   3.435
10208SOL    HW231524   6.647   5.032   3.360
10209SOL     OW31525   0.064   0.010   6.500
10209SOL    HW131526   0.040   0.033   6.405
10209SOL    HW231527   0.152   0.051   6.523
10210SOL     OW31528   5.153   6.243   0.899
10210SOL    HW131529   5.083   6.315   0.894
10210SOL    HW231530   5.171   6.208   0.808
10211SOL     OW31531   4.100   6.229   4.865
10211SOL    HW131532   4.050   6.151   4.901
10211SOL    HW231533   4.197   6.221   4.890
10212SOL     OW31534   6.710   0.103   5.217
10212SOL    HW131535   6.780   0.116   5.286
10212SOL    HW231536   6.695   0.188   5.168
10213SOL     OW31537   5.426   2.967   2.649
10213SOL    HW131538   5.442   3.051   2.703
10213SOL    HW231539   5.329   2.959   2.629
10214SOL     OW31540   0.715   1.527   1.716
10214SOL    HW131541   0.675   1.436   1.727
10214SOL    HW231542   0.804   1.520   1.671
10215SOL     OW31543   3.264   3.024   3.514
10215SOL    HW131544   3.229   3.020   3.420
10215SOL    HW231545   3.337   2.956   3.524
10216SOL     OW31546   0.877   0.849   1.098
10216SOL    HW131547   0.869   0.751   1.076
10216SOL    HW231548   0.788   0.892   1.090
10217SOL     OW31549   1.980   2.650   3.177
10217SOL    HW131550   1.942   2.587   3.245
10217SOL    HW231551   1.913   2.720   3.155
10218SOL     OW31552   1.777   0.898   1.603
10218SOL    HW131553   1.774   0.942   1.692
10218SOL    HW231554   1.852   0.937   1.549
10219SOL     OW31555   0.490   2.947   2.531
10219SOL    HW131556   0.449   2.922   2.618
10219SOL    HW231557   0.586   2.971   2.544
10220SOL     OW31558   3.564   1.157   0.773
10220SOL    HW131559   3.637   1.141   0.840
10220SOL    HW231560   3.602   1.203   0.693
10221SOL     OW31561   2.147   3.697   4.556
10221SOL    HW131562   2.181   3.739   4.472
10221SOL    HW231563   2.163   3.759   4.633
10222SOL     OW31564   2.362   3.268   5.565
10222SOL    HW131565   2.404   3.347   5.608
10222SOL    HW231566   2.316   3.213   5.634
10223SOL     OW31567   2.029   5.914   6.831
10223SOL    HW131568   2.057   5.963   6.914
10223SOL    HW231569   2.110   5.880   6.784
10224SOL     OW31570   6.656   2.135   5.311
10224SOL    HW131571   6.700   2.069   5.373
10224SOL    HW231572   6.717   2.153   5.233
10225SOL     OW31573   1.949   6.315   6.084
10225SOL    HW131574   2.002   6.270   6.013
10225SOL    HW231575   1.933   6.411   6.059
10226SOL     OW31576   2.358   0.906   6.535
10226SOL    HW131577   2.294   0.956   6.594
10226SOL    HW231578   2.307   0.857   6.464
10227SOL     OW31579   5.090   4.092   0.676
10227SOL    HW131580   5.097   4.062   0.581
10227SOL    HW231581   5.098   4.191   0.681
10228SOL     OW31582   0.977   6.207   1.600
10228SOL    HW131583   1.017   6.186   1.689
10228SOL    HW231584   1.023   6.287   1.560
10229SOL     OW31585   1.286   1.660   4.140
10229SOL    HW131586   1.344   1.740   4.146
10229SOL    HW231587   1.341   1.577   4.149
10230SOL     OW31588   6.448   6.664   2.938
10230SOL    HW131589   6.469   6.750   2.892
10230SOL    HW231590   6.518   6.596   2.916
10231SOL     OW31591   6.325   5.289   5.643
10231SOL    HW131592   6.231   5.304   5.612
10231SOL    HW231593   6.336   5.194   5.673
10232SOL     OW31594   2.428   0.983   4.295
10232SOL    HW131595   2.368   0.976   4.215
10232SOL    HW231596   2.423   1.076   4.333
10233SOL     OW31597   4.609   3.393   5.331
10233SOL    HW131598   4.510   3.396   5.333
10233SOL    HW231599   4.644   3.461   5.267
10234SOL     OW31600   5.744   7.011   0.029
10234SOL    HW131601   5.745   6.920   0.072
10234SOL    HW231602   5.681   0.051   0.078
10235SOL     OW31603   3.251   2.287   0.512
10235SOL    HW131604   3.190   2.271   0.589
10235SOL    HW231605   3.252   2.384   0.489
10236SOL     OW31606   1.996   0.988   1.471
10236SOL    HW131607   2.043   0.916   1.420
10236SOL    HW231608   2.060   1.031   1.534
10237SOL     OW31609   6.832   4.383   0.094
10237SOL    HW131610   6.866   4.416   0.006
10237SOL    HW231611   6.797   4.460   0.147
10238SOL     OW31612   3.543   4.137   2.423
10238SOL    HW131613   3.487   4.219   2.436
10238SOL    HW231614   3.504   4.082   2.349
10239SOL     OW31615   2.028   4.502   5.647
10239SOL    HW131616   2.062   4.480   5.739
10239SOL    HW231617   2.062   4.592   5.620
10240SOL     OW31618   1.556   4.331   2.403
10240SOL    HW131619   1.631   4.388   2.371
10240SOL    HW231620   1.469   4.371   2.373
10241SOL     OW31621   6.481   6.879   2.748
10241SOL    HW131622   6.433   6.963   2.773
10241SOL    HW231623   6.576   6.901   2.724
10242SOL     OW31624   6.865   1.568   1.813
10242SOL    HW131625   6.854   1.626   1.732
10242SOL    HW231626   6.954   1.586   1.855
10243SOL     OW31627   1.265   4.862   2.013
10243SOL    HW131628   1.261   4.930   2.087
10243SOL    HW231629   1.360   4.845   1.989
10244SOL     OW31630   1.555   4.097   0.719
10244SOL    HW131631   1.596   4.117   0.808
10244SOL    HW231632   1.477   4.036   0.731
10245SOL     OW31633   2.841   4.812   0.302
10245SOL    HW131634   2.772   4.883   0.294
10245SOL    HW231635   2.896   4.828   0.384
10246SOL     OW31636   3.255   3.963   3.330
10246SOL    HW131637   3.280   3.869   3.352
10246SOL    HW231638   3.219   4.008   3.412
10247SOL     OW31639   6.667   4.951   5.592
10247SOL    HW131640   6.627   4.936   5.683
10247SOL    HW231641   6.651   4.871   5.535
10248SOL     OW31642   1.818   6.903   2.882
10248SOL    HW131643   1.827   6.997   2.915
10248SOL    HW231644   1.800   6.904   2.784
10249SOL     OW31645   3.012   0.015   6.692
10249SOL    HW131646   3.046   0.052   6.606
10249SOL    HW231647   3.060   6.949   6.712
10250SOL     OW31648   6.461   2.987   1.484
10250SOL    HW131649   6.530   3.024   1.422
10250SOL    HW231650   6.370   2.996   1.443
10251SOL     OW31651   2.985   1.290   4.723
10251SOL    HW131652   2.885   1.295   4.723
10251SOL    HW231653   3.014   1.197   4.749
10252SOL     OW31654   4.090   4.481   0.129
10252SOL    HW131655   4.018   4.432   0.178
10252SOL    HW231656   4.179   4.441   0.154
10253SOL     OW31657   2.544   5.736   0.620
10253SOL    HW131658   2.641   5.729   0.597
10253SOL    HW231659   2.489   5.696   0.547
10254SOL     OW31660   5.002   0.685   4.611
10254SOL    HW131661   5.005   0.764   4.550
10254SOL    HW231662   5.090   0.676   4.658
10255SOL     OW31663   1.775   6.638   1.127
10255SOL    HW131664   1.704   6.570   1.106
10255SOL    HW231665   1.806   6.681   1.042
10256SOL     OW31666   6.399   1.151   1.774
10256SOL    HW131667   6.450   1.206   1.708
10256SOL    HW231668   6.301   1.162   1.757
10257SOL     OW31669   2.318   4.952   4.856
10257SOL    HW131670   2.230   4.976   4.815
10257SOL    HW231671   2.389   4.952   4.785
10258SOL     OW31672   3.141   1.279   4.190
10258SOL    HW131673   3.127   1.180   4.179
10258SOL    HW231674   3.103   1.327   4.112
10259SOL     OW31675   0.822   4.238   3.065
10259SOL    HW131676   0.916   4.239   3.099
10259SOL    HW231677   0.795   4.330   3.039
10260SOL     OW31678   0.792   1.120   3.516
10260SOL    HW131679   0.889   1.102   3.531
10260SOL    HW231680   0.755   1.053   3.451
10261SOL     OW31681   6.851   5.749   3.381
10261SOL    HW131682   6.876   5.701   3.297
10261SOL    HW231683   6.933   5.794   3.418
10262SOL     OW31684   1.414   6.516   5.113
10262SOL    HW131685   1.473   6.585   5.155
10262SOL    HW231686   1.440   6.504   5.017
10263SOL     OW31687   5.347   0.971   5.945
10263SOL    HW131688   5.302   0.971   5.856
10263SOL    HW231689   5.281   0.950   6.016
10264SOL     OW31690   5.906   1.604   6.339
10264SOL    HW131691   5.833   1.672   6.340
10264SOL    HW231692   5.894   1.542   6.261
10265SOL     OW31693   2.606   2.345   2.689
10265SOL    HW131694   2.691   2.362   2.638
10265SOL    HW231695   2.626   2.290   2.770
10266SOL     OW31696   3.428   2.855   4.119
10266SOL    HW131697   3.428   2.846   4.218
10266SOL    HW231698   3.515   2.820   4.083
10267SOL     OW31699   6.702   2.209   6.613
10267SOL    HW131700   6.666   2.118   6.633
10267SOL    HW231701   6.744   2.247   6.695
10268SOL     OW31702   5.868   5.337   2.499
10268SOL    HW131703   5.959   5.315   2.536
10268SOL    HW231704   5.856   5.436   2.496
10269SOL     OW31705   0.838   3.359   6.914
10269SOL    HW131706   0.758   3.419   6.913
10269SOL    HW231707   0.919   3.411   6.943
10270SOL     OW31708   2.903   4.806   3.033
10270SOL    HW131709   2.944   4.817   3.123
10270SOL    HW231710   2.806   4.829   3.037
10271SOL     OW31711   3.338   2.327   6.586
10271SOL    HW131712   3.317   2.402   6.649
10271SOL    HW231713   3.436   2.309   6.588
10272SOL     OW31714   0.702   0.867   4.899
10272SOL    HW131715   0.791   0.835   4.868
10272SOL    HW231716   0.630   0.814   4.853
10273SOL     OW31717   3.504   5.665   2.720
10273SOL    HW131718   3.449   5.711   2.789
10273SOL    HW231719   3.511   5.568   2.743
10274SOL     OW31720   6.786   5.149   4.415
10274SOL    HW131721   6.857   5.079   4.402
10274SOL    HW231722   6.816   5.215   4.484
10275SOL     OW31723   0.897   0.086   2.063
10275SOL    HW131724   0.816   0.041   2.099
10275SOL    HW231725   0.912   0.173   2.111
10276SOL     OW31726   6.060   5.327   5.540
10276SOL    HW131727   5.970   5.306   5.576
10276SOL    HW231728   6.064   5.303   5.443
10277SOL     OW31729   2.190   5.545   3.729
10277SOL    HW131730   2.130   5.580   3.801
10277SOL    HW231731   2.237   5.622   3.685
10278SOL     OW31732   6.992   1.360   4.517
10278SOL    HW131733   7.012   1.357   4.419
10278SOL    HW231734   6.984   1.267   4.553
10279SOL     OW31735   2.858   5.108   3.909
10279SOL    HW131736   2.821   5.199   3.891
10279SOL    HW231737   2.948   5.117   3.953
10280SOL     OW31738   0.410   3.663   0.677
10280SOL    HW131739   0.346   3.712   0.736
10280SOL    HW231740   0.412   3.707   0.587
10281SOL     OW31741   5.974   1.133   2.277
10281SOL    HW131742   6.039   1.070   2.320
10281SOL    HW231743   5.936   1.194   2.346
10282SOL     OW31744   5.540   4.787   4.357
10282SOL    HW131745   5.609   4.853   4.325
10282SOL    HW231746   5.458   4.835   4.386
10283SOL     OW31747   0.826   3.949   0.768
10283SOL    HW131748   0.804   3.863   0.813
10283SOL    HW231749   0.875   4.009   0.831
10284SOL     OW31750   5.056   2.936   5.184
10284SOL    HW131751   4.959   2.943   5.158
10284SOL    HW231752   5.063   2.910   5.280
10285SOL     OW31753   5.300   0.734   2.163
10285SOL    HW131754   5.278   0.824   2.200
10285SOL    HW231755   5.231   0.708   2.095
10286SOL     OW31756   2.965   1.791   3.656
10286SOL    HW131757   3.034   1.800   3.584
10286SOL    HW231758   2.879   1.759   3.617
10287SOL     OW31759   2.502   6.987   1.002
10287SOL    HW131760   2.554   6.907   0.971
10287SOL    HW231761   2.499   6.989   1.102
10288SOL     OW31762   4.505   5.903   3.161
10288SOL    HW131763   4.463   5.950   3.238
10288SOL    HW231764   4.434   5.866   3.101
10289SOL     OW31765   1.732   6.924   1.795
10289SOL    HW131766   1.681   6.902   1.712
10289SOL    HW231767   1.668   6.935   1.872
10290SOL     OW31768   2.974   3.574   2.322
10290SOL    HW131769   2.969   3.639   2.398
10290SOL    HW231770   2.892   3.518   2.320
10291SOL     OW31771   3.561   1.490   3.146
10291SOL    HW131772   3.632   1.551   3.180
10291SOL    HW231773   3.509   1.452   3.223
10292SOL     OW31774   1.368   0.533   5.075
10292SOL    HW131775   1.380   0.442   5.038
10292SOL    HW231776   1.458   0.576   5.088
10293SOL     OW31777   1.686   4.399   3.417
10293SOL    HW131778   1.779   4.368   3.398
10293SOL    HW231779   1.634   4.325   3.460
10294SOL     OW31780   5.725   3.472   2.733
10294SOL    HW131781   5.625   3.470   2.736
10294SOL    HW231782   5.761   3.397   2.788
10295SOL     OW31783   5.596   4.639   5.921
10295SOL    HW131784   5.658   4.581   5.869
10295SOL    HW231785   5.532   4.581   5.972
10296SOL     OW31786   5.024   2.792   0.427
10296SOL    HW131787   5.100   2.734   0.456
10296SOL    HW231788   5.057   2.861   0.364
10297SOL     OW31789   2.407   7.018   6.586
10297SOL    HW131790   2.495   0.041   6.604
10297SOL    HW231791   2.403   6.990   6.490
10298SOL     OW31792   3.471   4.798   1.645
10298SOL    HW131793   3.459   4.723   1.710
10298SOL    HW231794   3.566   4.800   1.613
10299SOL     OW31795   4.826   5.021   3.119
10299SOL    HW131796   4.868   4.937   3.082
10299SOL    HW231797   4.727   5.017   3.106
10300SOL     OW31798   0.991   3.866   2.999
10300SOL    HW131799   0.914   3.909   2.954
10300SOL    HW231800   0.998   3.770   2.971
10301SOL     OW31801   5.697   2.147   4.223
10301SOL    HW131802   5.689   2.138   4.322
10301SOL    HW231803   5.793   2.154   4.197
10302SOL     OW31804   1.655   6.745   3.862
10302SOL    HW131805   1.701   6.833   3.850
10302SOL    HW231806   1.618   6.715   3.774
10303SOL     OW31807   1.680   5.816   2.517
10303SOL    HW131808   1.628   5.887   2.565
10303SOL    HW231809   1.777   5.825   2.539
10304SOL     OW31810   4.826   0.409   1.647
10304SOL    HW131811   4.736   0.409   1.604
10304SOL    HW231812   4.850   0.503   1.673
10305SOL     OW31813   0.876   4.352   0.167
10305SOL    HW131814   0.846   4.339   0.073
10305SOL    HW231815   0.975   4.340   0.172
10306SOL     OW31816   4.429   6.356   6.328
10306SOL    HW131817   4.512   6.409   6.312
10306SOL    HW231818   4.381   6.391   6.408
10307SOL     OW31819   2.500   1.959   5.313
10307SOL    HW131820   2.509   1.862   5.338
10307SOL    HW231821   2.565   2.013   5.367
10308SOL     OW31822   2.249   4.702   3.610
10308SOL    HW131823   2.265   4.650   3.694
10308SOL    HW231824   2.261   4.643   3.531
10309SOL     OW31825   5.744   1.508   4.626
10309SOL    HW131826   5.802   1.502   4.707
10309SOL    HW231827   5.680   1.584   4.636
10310SOL     OW31828   3.038   3.540   1.784
10310SOL    HW131829   3.119   3.591   1.813
10310SOL    HW231830   2.957   3.579   1.828
10311SOL     OW31831   1.081   6.361   0.241
10311SOL    HW131832   1.104   6.267   0.264
10311SOL    HW231833   1.156   6.402   0.187
10312SOL     OW31834   2.612   6.479   1.559
10312SOL    HW131835   2.688   6.503   1.620
10312SOL    HW231836   2.526   6.489   1.609
10313SOL     OW31837   5.043   0.094   1.320
10313SOL    HW131838   5.017   0.191   1.321
10313SOL    HW231839   4.984   0.044   1.257
10314SOL     OW31840   6.487   0.046   2.320
10314SOL    HW131841   6.488   0.039   2.220
10314SOL    HW231842   6.410   7.013   2.356
10315SOL     OW31843   6.102   6.060   4.672
10315SOL    HW131844   6.086   5.973   4.625
10315SOL    HW231845   6.180   6.051   4.734
10316SOL     OW31846   6.289   2.596   5.011
10316SOL    HW131847   6.360   2.610   5.080
10316SOL    HW231848   6.283   2.677   4.953
10317SOL     OW31849   2.992   5.738   5.644
10317SOL    HW131850   2.971   5.781   5.557
10317SOL    HW231851   2.911   5.740   5.703
10318SOL     OW31852   5.908   5.347   6.675
10318SOL    HW131853   5.913   5.437   6.632
10318SOL    HW231854   5.862   5.355   6.764
10319SOL     OW31855   1.265   2.367   5.477
10319SOL    HW131856   1.269   2.420   5.392
10319SOL    HW231857   1.170   2.342   5.495
10320SOL     OW31858   0.774   0.496   2.881
10320SOL    HW131859   0.864   0.473   2.842
10320SOL    HW231860   0.777   0.484   2.980
10321SOL     OW31861   4.949   0.570   2.685
10321SOL    HW131862   4.909   0.528   2.603
10321SOL    HW231863   4.909   0.528   2.767
10322SOL     OW31864   6.571   5.434   6.715
10322SOL    HW131865   6.599   5.344   6.682
10322SOL    HW231866   6.531   5.486   6.640
10323SOL     OW31867   6.629   3.670   6.041
10323SOL    HW131868   6.557   3.604   6.019
10323SOL    HW231869   6.662   3.653   6.133
10324SOL     OW31870   3.530   2.904   2.967
10324SOL    HW131871   3.443   2.880   2.925
10324SOL    HW231872   3.521   2.898   3.067
10325SOL     OW31873   0.352   3.688   3.241
10325SOL    HW131874   0.409   3.621   3.193
10325SOL    HW231875   0.400   3.776   3.243
10326SOL     OW31876   3.942   3.425   0.722
10326SOL    HW131877   3.877   3.406   0.796
10326SOL    HW231878   3.891   3.456   0.641
10327SOL     OW31879   2.574   2.376   2.021
10327SOL    HW131880   2.672   2.384   2.040
10327SOL    HW231881   2.531   2.323   2.094
10328SOL     OW31882   6.488   2.409   1.635
10328SOL    HW131883   6.433   2.408   1.551
10328SOL    HW231884   6.471   2.324   1.685
10329SOL     OW31885   3.755   0.630   2.605
10329SOL    HW131886   3.788   0.563   2.671
10329SOL    HW231887   3.805   0.716   2.617
10330SOL     OW31888   3.945   6.070   2.047
10330SOL    HW131889   3.853   6.071   2.007
10330SOL    HW231890   3.980   6.163   2.051
10331SOL     OW31891   6.914   1.112   4.599
10331SOL    HW131892   6.900   1.023   4.644
10331SOL    HW231893   6.852   1.119   4.521
10332SOL     OW31894   6.466   0.963   0.998
10332SOL    HW131895   6.395   0.972   1.068
10332SOL    HW231896   6.549   0.925   1.040
10333SOL     OW31897   6.587   4.721   4.622
10333SOL    HW131898   6.613   4.666   4.542
10333SOL    HW231899   6.639   4.807   4.622
10334SOL     OW31900   3.067   6.378   4.172
10334SOL    HW131901   3.129   6.424   4.108
10334SOL    HW231902   3.121   6.329   4.241
10335SOL     OW31903   2.757   4.592   6.827
10335SOL    HW131904   2.757   4.691   6.842
10335SOL    HW231905   2.664   4.557   6.833
10336SOL     OW31906   5.794   0.129   2.902
10336SOL    HW131907   5.721   0.197   2.895
10336SOL    HW231908   5.882   0.172   2.884
10337SOL     OW31909   6.734   6.607   5.641
10337SOL    HW131910   6.741   6.650   5.551
10337SOL    HW231911   6.826   6.583   5.673
10338SOL     OW31912   2.192   6.601   1.115
10338SOL    HW131913   2.154   6.598   1.022
10338SOL    HW231914   2.286   6.635   1.111
10339SOL     OW31915   2.302   5.450   0.024
10339SOL    HW131916   2.399   5.444   0.044
10339SOL    HW231917   2.278   5.544   7.018
10340SOL     OW31918   0.895   5.857   0.659
10340SOL    HW131919   0.891   5.860   0.559
10340SOL    HW231920   0.968   5.794   0.687
10341SOL     OW31921   2.049   3.297   1.918
10341SOL    HW131922   2.093   3.346   1.992
10341SOL    HW231923   2.117   3.274   1.848
10342SOL     OW31924   1.012   6.702   4.870
10342SOL    HW131925   1.033   6.612   4.833
10342SOL    HW231926   1.096   6.756   4.877
10343SOL     OW31927   1.750   4.627   0.558
10343SOL    HW131928   1.846   4.606   0.542
10343SOL    HW231929   1.707   4.654   0.471
10344SOL     OW31930   4.227   3.696   1.698
10344SOL    HW131931   4.187   3.733   1.615
10344SOL    HW231932   4.324   3.721   1.702
10345SOL     OW31933   1.731   1.343   6.390
10345SOL    HW131934   1.787   1.416   6.428
10345SOL    HW231935   1.738   1.343   6.290
10346SOL     OW31936   6.097   0.330   1.274
10346SOL    HW131937   6.031   0.294   1.340
10346SOL    HW231938   6.076   0.296   1.183
10347SOL     OW31939   5.289   2.607   2.435
10347SOL    HW131940   5.356   2.541   2.468
10347SOL    HW231941   5.280   2.599   2.336
10348SOL     OW31942   6.571   1.444   0.740
10348SOL    HW131943   6.597   1.523   0.797
10348SOL    HW231944   6.531   1.477   0.655
10349SOL     OW31945   6.610   1.698   1.196
10349SOL    HW131946   6.676   1.633   1.234
10349SOL    HW231947   6.656   1.783   1.172
10350SOL     OW31948   1.947   5.927   5.384
10350SOL    HW131949   1.921   5.944   5.480
10350SOL    HW231950   1.967   5.830   5.371
10351SOL     OW31951   5.102   4.908   6.367
10351SOL    HW131952   5.139   4.844   6.435
10351SOL    HW231953   5.177   4.949   6.315
10352SOL     OW31954   5.041   2.206   7.002
10352SOL    HW131955   5.004   2.253   6.922
10352SOL    HW231956   5.122   2.254   0.016
10353SOL     OW31957   6.118   2.609   5.390
10353SOL    HW131958   6.176   2.679   5.432
10353SOL    HW231959   6.058   2.651   5.323
10354SOL     OW31960   6.556   2.166   1.939
10354SOL    HW131961   6.630   2.232   1.927
10354SOL    HW231962   6.525   2.134   1.850
10355SOL     OW31963   1.833   0.184   1.510
10355SOL    HW131964   1.836   0.173   1.610
10355SOL    HW231965   1.738   0.198   1.482
10356SOL     OW31966   0.124   4.028   5.970
10356SOL    HW131967   0.136   4.083   5.887
10356SOL    HW231968   0.081   4.084   6.041
10357SOL     OW31969   3.604   2.920   6.408
10357SOL    HW131970   3.632   2.953   6.499
10357SOL    HW231971   3.669   2.953   6.340
10358SOL     OW31972   6.440   3.440   3.921
10358SOL    HW131973   6.393   3.520   3.958
10358SOL    HW231974   6.538   3.446   3.941
10359SOL     OW31975   6.005   2.031   2.071
10359SOL    HW131976   5.979   2.096   2.142
10359SOL    HW231977   5.980   1.938   2.099
10360SOL     OW31978   4.511   5.592   1.793
10360SOL    HW131979   4.450   5.529   1.841
10360SOL    HW231980   4.465   5.629   1.712
10361SOL     OW31981   2.961   1.329   2.820
10361SOL    HW131982   3.003   1.257   2.765
10361SOL    HW231983   2.926   1.401   2.760
10362SOL     OW31984   0.491   5.269   3.165
10362SOL    HW131985   0.524   5.317   3.245
10362SOL    HW231986   0.417   5.207   3.191
10363SOL     OW31987   4.640   2.631   1.138
10363SOL    HW131988   4.701   2.647   1.060
10363SOL    HW231989   4.667   2.689   1.214
10364SOL     OW31990   3.924   4.117   1.455
10364SOL    HW131991   3.899   4.170   1.536
10364SOL    HW231992   4.020   4.091   1.460
10365SOL     OW31993   4.929   4.229   5.946
10365SOL    HW131994   4.884   4.309   5.987
10365SOL    HW231995   5.016   4.258   5.905
10366SOL     OW31996   3.751   7.017   4.326
10366SOL    HW131997   3.683   6.965   4.274
10366SOL    HW231998   3.706   0.047   4.400
10367SOL     OW31999   0.159   2.463   2.075
10367SOL    HW132000   0.105   2.383   2.100
10367SOL    HW232001   0.158   2.475   1.976
10368SOL     OW32002   2.494   1.240   2.681
10368SOL    HW132003   2.481   1.259   2.779
10368SOL    HW232004   2.455   1.316   2.628
10369SOL     OW32005   2.466   0.437   5.403
10369SOL    HW132006   2.469   0.418   5.305
10369SOL    HW232007   2.545   0.492   5.429
10370SOL     OW32008   5.910   1.141   5.269
10370SOL    HW132009   5.928   1.085   5.188
10370SOL    HW232010   5.996   1.184   5.299
10371SOL     OW32011   1.790   6.301   4.632
10371SOL    HW132012   1.769   6.304   4.730
10371SOL    HW232013   1.825   6.211   4.608
10372SOL     OW32014   2.082   1.661   6.768
10372SOL    HW132015   2.109   1.756   6.752
10372SOL    HW232016   2.151   1.600   6.729
10373SOL     OW32017   1.739   6.464   5.162
10373SOL    HW132018   1.745   6.559   5.132
10373SOL    HW232019   1.685   6.460   5.246
10374SOL     OW32020   3.278   0.848   4.124
10374SOL    HW132021   3.314   0.837   4.032
10374SOL    HW232022   3.354   0.852   4.189
10375SOL     OW32023   2.184   2.045   5.994
10375SOL    HW132024   2.243   2.115   5.953
10375SOL    HW232025   2.158   1.979   5.924
10376SOL     OW32026   1.014   5.710   3.864
10376SOL    HW132027   1.061   5.628   3.895
10376SOL    HW232028   0.918   5.688   3.845
10377SOL     OW32029   0.035   0.833   2.632
10377SOL    HW132030   6.965   0.808   2.596
10377SOL    HW232031   0.029   0.921   2.679
10378SOL     OW32032   5.765   5.867   5.690
10378SOL    HW132033   5.739   5.933   5.760
10378SOL    HW232034   5.833   5.908   5.629
10379SOL     OW32035   3.220   6.535   4.003
10379SOL    HW132036   3.164   6.586   3.939
10379SOL    HW232037   3.289   6.596   4.043
10380SOL     OW32038   0.681   2.602   4.980
10380SOL    HW132039   0.618   2.526   4.961
10380SOL    HW232040   0.725   2.630   4.895
10381SOL     OW32041   4.370   4.165   0.970
10381SOL    HW132042   4.384   4.261   0.992
10381SOL    HW232043   4.358   4.154   0.872
10382SOL     OW32044   1.606   5.107   1.706
10382SOL    HW132045   1.665   5.147   1.635
10382SOL    HW232046   1.637   5.138   1.796
10383SOL     OW32047   1.127   4.009   1.453
10383SOL    HW132048   1.032   4.038   1.460
10383SOL    HW232049   1.183   4.085   1.418
10384SOL     OW32050   6.734   0.378   1.097
10384SOL    HW132051   6.667   0.313   1.060
10384SOL    HW232052   6.694   0.469   1.100
10385SOL     OW32053   4.242   5.923   6.300
10385SOL    HW132054   4.151   5.908   6.261
10385SOL    HW232055   4.310   5.913   6.228
10386SOL     OW32056   6.749   1.954   5.502
10386SOL    HW132057   6.692   1.901   5.564
10386SOL    HW232058   6.822   1.999   5.553
10387SOL     OW32059   4.593   1.842   2.598
10387SOL    HW132060   4.560   1.834   2.504
10387SOL    HW232061   4.520   1.817   2.662
10388SOL     OW32062   1.895   5.812   1.690
10388SOL    HW132063   1.919   5.756   1.611
10388SOL    HW232064   1.918   5.908   1.671
10389SOL     OW32065   6.270   5.690   1.152
10389SOL    HW132066   6.327   5.611   1.175
10389SOL    HW232067   6.320   5.749   1.088
10390SOL     OW32068   1.812   2.409   1.338
10390SOL    HW132069   1.712   2.413   1.347
10390SOL    HW232070   1.845   2.491   1.292
10391SOL     OW32071   7.013   6.528   3.441
10391SOL    HW132072   7.012   6.439   3.486
10391SOL    HW232073   0.018   6.517   3.345
10392SOL     OW32074   6.132   4.622   5.839
10392SOL    HW132075   6.215   4.570   5.864
10392SOL    HW232076   6.154   4.719   5.833
10393SOL     OW32077   2.222   2.283   3.299
10393SOL    HW132078   2.264   2.372   3.314
10393SOL    HW232079   2.182   2.250   3.385
10394SOL     OW32080   2.150   5.857   4.865
10394SOL    HW132081   2.243   5.828   4.841
10394SOL    HW232082   2.154   5.929   4.935
10395SOL     OW32083   0.051   0.794   3.028
10395SOL    HW132084   0.141   0.833   3.046
10395SOL    HW232085   0.020   0.742   3.108
10396SOL     OW32086   3.614   1.371   3.489
10396SOL    HW132087   3.619   1.335   3.582
10396SOL    HW232088   3.662   1.309   3.427
10397SOL     OW32089   2.420   1.252   4.355
10397SOL    HW132090   2.368   1.260   4.440
10397SOL    HW232091   2.514   1.281   4.370
10398SOL     OW32092   4.875   2.429   0.648
10398SOL    HW132093   4.849   2.352   0.590
10398SOL    HW232094   4.961   2.469   0.615
10399SOL     OW32095   4.725   2.119   4.531
10399SOL    HW132096   4.702   2.084   4.440
10399SOL    HW232097   4.825   2.116   4.543
10400SOL     OW32098   4.389   5.559   6.900
10400SOL    HW132099   4.423   5.636   6.846
10400SOL    HW232100   4.466   5.505   6.933
10401SOL     OW32101   0.091   7.016   2.210
10401SOL    HW132102   0.020   6.966   2.160
10401SOL    HW232103   0.130   0.067   2.151
10402SOL     OW32104   6.537   2.017   5.057
10402SOL    HW132105   6.578   1.989   4.970
10402SOL    HW232106   6.610   2.042   5.121
10403SOL     OW32107   4.327   1.605   2.604
10403SOL    HW132108   4.374   1.614   2.517
10403SOL    HW232109   4.314   1.508   2.626
10404SOL     OW32110   6.277   6.428   4.161
10404SOL    HW132111   6.225   6.366   4.220
10404SOL    HW232112   6.340   6.481   4.217
10405SOL     OW32113   0.937   5.969   4.588
10405SOL    HW132114   0.970   5.899   4.652
10405SOL    HW232115   0.961   6.060   4.624
10406SOL     OW32116   2.209   3.098   5.342
10406SOL    HW132117   2.277   3.069   5.274
10406SOL    HW232118   2.198   3.026   5.411
10407SOL     OW32119   2.548   0.362   6.952
10407SOL    HW132120   2.562   0.268   6.983
10407SOL    HW232121   2.545   0.364   6.852
10408SOL     OW32122   4.148   6.578   1.672
10408SOL    HW132123   4.247   6.566   1.678
10408SOL    HW232124   4.111   6.601   1.763
10409SOL     OW32125   0.101   4.172   0.293
10409SOL    HW132126   0.181   4.117   0.269
10409SOL    HW232127   0.042   4.120   0.354
10410SOL     OW32128   5.981   2.824   1.930
10410SOL    HW132129   6.072   2.848   1.897
10410SOL    HW232130   5.917   2.823   1.853
10411SOL     OW32131   3.223   6.240   4.371
10411SOL    HW132132   3.230   6.150   4.416
10411SOL    HW232133   3.315   6.278   4.360
10412SOL     OW32134   6.962   1.370   6.823
10412SOL    HW132135   7.016   1.444   6.863
10412SOL    HW232136   6.926   1.399   6.734
10413SOL     OW32137   6.396   2.506   1.863
10413SOL    HW132138   6.421   2.479   1.770
10413SOL    HW232139   6.297   2.520   1.869
10414SOL     OW32140   3.686   5.775   5.837
10414SOL    HW132141   3.692   5.707   5.764
10414SOL    HW232142   3.766   5.767   5.897
10415SOL     OW32143   1.873   4.276   4.377
10415SOL    HW132144   1.788   4.226   4.392
10415SOL    HW232145   1.868   4.364   4.423
10416SOL     OW32146   6.061   6.429   5.434
10416SOL    HW132147   6.007   6.499   5.480
10416SOL    HW232148   6.010   6.395   5.354
10417SOL     OW32149   4.467   5.295   4.604
10417SOL    HW132150   4.484   5.198   4.584
10417SOL    HW232151   4.461   5.307   4.703
10418SOL     OW32152   0.052   4.410   6.219
10418SOL    HW132153   0.013   4.473   6.152
10418SOL    HW232154   0.152   4.409   6.209
10419SOL     OW32155   3.100   0.018   6.037
10419SOL    HW132156   3.055   0.091   6.088
10419SOL    HW232157   3.188   0.051   6.001
10420SOL     OW32158   6.634   4.527   4.424
10420SOL    HW132159   6.665   4.578   4.343
10420SOL    HW232160   6.696   4.451   4.441
10421SOL     OW32161   1.825   3.646   4.077
10421SOL    HW132162   1.918   3.679   4.097
10421SOL    HW232163   1.761   3.682   4.145
10422SOL     OW32164   6.823   3.195   5.647
10422SOL    HW132165   6.900   3.243   5.689
10422SOL    HW232166   6.764   3.261   5.600
10423SOL     OW32167   5.221   5.517   5.526
10423SOL    HW132168   5.318   5.541   5.518
10423SOL    HW232169   5.177   5.577   5.593
10424SOL     OW32170   3.866   2.998   0.552
10424SOL    HW132171   3.884   2.976   0.648
10424SOL    HW232172   3.917   3.080   0.526
10425SOL     OW32173   0.776   6.076   2.842
10425SOL    HW132174   0.852   6.134   2.869
10425SOL    HW232175   0.808   6.009   2.774
10426SOL     OW32176   5.241   4.797   6.562
10426SOL    HW132177   5.326   4.755   6.527
10426SOL    HW232178   5.223   4.764   6.654
10427SOL     OW32179   4.860   0.665   0.056
10427SOL    HW132180   4.762   0.644   0.055
10427SOL    HW232181   4.908   0.603   7.013
10428SOL     OW32182   3.339   1.583   3.755
10428SOL    HW132183   3.282   1.627   3.823
10428SOL    HW232184   3.324   1.484   3.757
10429SOL     OW32185   0.285   4.233   2.763
10429SOL    HW132186   0.199   4.205   2.721
10429SOL    HW232187   0.361   4.184   2.721
10430SOL     OW32188   3.674   6.469   4.945
10430SOL    HW132189   3.594   6.519   4.977
10430SOL    HW232190   3.675   6.470   4.845
10431SOL     OW32191   2.242   6.389   3.983
10431SOL    HW132192   2.224   6.296   4.015
10431SOL    HW232193   2.275   6.445   4.060
10432SOL     OW32194   6.366   0.727   4.835
10432SOL    HW132195   6.319   0.797   4.888
10432SOL    HW232196   6.463   0.750   4.829
10433SOL     OW32197   0.833   6.728   2.633
10433SOL    HW132198   0.794   6.640   2.658
10433SOL    HW232199   0.903   6.716   2.562
10434SOL     OW32200   3.296   6.404   3.349
10434SOL    HW132201   3.357   6.334   3.386
10434SOL    HW232202   3.206   6.364   3.330
10435SOL     OW32203   1.582   1.860   5.000
10435SOL    HW132204   1.673   1.886   5.030
10435SOL    HW232205   1.589   1.783   4.936
10436SOL     OW32206   6.131   4.356   4.892
10436SOL    HW132207   6.049   4.376   4.839
10436SOL    HW232208   6.210   4.352   4.831
10437SOL     OW32209   5.728   4.462   6.209
10437SOL    HW132210   5.681   4.499   6.129
10437SOL    HW232211   5.802   4.401   6.179
10438SOL     OW32212   0.639   5.909   6.035
10438SOL    HW132213   0.717   5.938   6.090
10438SOL    HW232214   0.624   5.972   5.960
10439SOL     OW32215   4.487   1.248   4.836
10439SOL    HW132216   4.395   1.242   4.875
10439SOL    HW232217   4.489   1.318   4.765
10440SOL     OW32218   0.543   6.601   0.398
10440SOL    HW132219   0.571   6.697   0.399
10440SOL    HW232220   0.484   6.584   0.319
10441SOL     OW32221   3.431   1.660   0.913
10441SOL    HW132222   3.527   1.672   0.889
10441SOL    HW232223   3.424   1.593   0.987
10442SOL     OW32224   4.424   6.429   5.249
10442SOL    HW132225   4.475   6.409   5.333
10442SOL    HW232226   4.333   6.463   5.272
10443SOL     OW32227   5.300   2.593   3.191
10443SOL    HW132228   5.201   2.589   3.209
10443SOL    HW232229   5.315   2.633   3.101
10444SOL     OW32230   4.361   5.533   2.842
10444SOL    HW132231   4.330   5.478   2.764
10444SOL    HW232232   4.294   5.528   2.915
10445SOL     OW32233   0.412   4.645   3.333
10445SOL    HW132234   0.419   4.721   3.397
10445SOL    HW232235   0.319   4.607   3.336
10446SOL     OW32236   1.828   2.883   6.310
10446SOL    HW132237   1.749   2.857   6.365
10446SOL    HW232238   1.798   2.903   6.216
10447SOL     OW32239   0.435   1.128   3.052
10447SOL    HW132240   0.469   1.214   3.012
10447SOL    HW232241   0.405   1.146   3.146
10448SOL     OW32242   4.682   0.722   2.499
10448SOL    HW132243   4.608   0.702   2.564
10448SOL    HW232244   4.749   0.648   2.501
10449SOL     OW32245   1.660   5.716   6.071
10449SOL    HW132246   1.750   5.672   6.065
10449SOL    HW232247   1.602   5.684   5.995
10450SOL     OW32248   0.617   1.331   6.684
10450SOL    HW132249   0.609   1.345   6.783
10450SOL    HW232250   0.698   1.275   6.665
10451SOL     OW32251   2.083   5.921   2.779
10451SOL    HW132252   2.072   5.859   2.856
10451SOL    HW232253   2.167   5.898   2.729
10452SOL     OW32254   5.907   3.225   3.085
10452SOL    HW132255   5.994   3.273   3.093
10452SOL    HW232256   5.917   3.131   3.117
10453SOL     OW32257   6.062   6.601   1.647
10453SOL    HW132258   6.007   6.661   1.705
10453SOL    HW232259   6.012   6.580   1.563
10454SOL     OW32260   5.263   2.904   0.369
10454SOL    HW132261   5.308   2.974   0.314
10454SOL    HW232262   5.269   2.816   0.322
10455SOL     OW32263   0.052   6.298   3.570
10455SOL    HW132264   0.051   6.313   3.668
10455SOL    HW232265   0.126   6.234   3.547
10456SOL     OW32266   1.352   5.818   0.830
10456SOL    HW132267   1.377   5.730   0.789
10456SOL    HW232268   1.366   5.892   0.764
10457SOL     OW32269   3.448   3.009   0.504
10457SOL    HW132270   3.500   3.088   0.534
10457SOL    HW232271   3.359   3.039   0.469
10458SOL     OW32272   6.340   0.031   6.254
10458SOL    HW132273   6.276   6.986   6.212
10458SOL    HW232274   6.298   0.122   6.255
10459SOL     OW32275   4.467   5.913   1.131
10459SOL    HW132276   4.372   5.890   1.108
10459SOL    HW232277   4.507   5.966   1.056
10460SOL     OW32278   1.241   4.180   1.285
10460SOL    HW132279   1.159   4.233   1.264
10460SOL    HW232280   1.322   4.237   1.270
10461SOL     OW32281   5.949   5.225   5.099
10461SOL    HW132282   5.912   5.132   5.104
10461SOL    HW232283   5.990   5.240   5.009
10462SOL     OW32284   5.120   2.298   3.039
10462SOL    HW132285   5.092   2.390   3.013
10462SOL    HW232286   5.186   2.262   2.972
10463SOL     OW32287   4.369   2.201   6.083
10463SOL    HW132288   4.310   2.265   6.035
10463SOL    HW232289   4.457   2.193   6.034
10464SOL     OW32290   6.540   6.664   1.858
10464SOL    HW132291   6.614   6.730   1.842
10464SOL    HW232292   6.464   6.684   1.796
10465SOL     OW32293   6.378   5.441   1.222
10465SOL    HW132294   6.401   5.353   1.265
10465SOL    HW232295   6.457   5.473   1.169
10466SOL     OW32296   4.413   4.822   5.499
10466SOL    HW132297   4.319   4.852   5.483
10466SOL    HW232298   4.443   4.851   5.589
10467SOL     OW32299   2.317   2.045   0.191
10467SOL    HW132300   2.242   2.049   0.124
10467SOL    HW232301   2.279   2.050   0.283
10468SOL     OW32302   3.713   5.262   3.430
10468SOL    HW132303   3.727   5.163   3.432
10468SOL    HW232304   3.615   5.282   3.439
10469SOL     OW32305   3.976   4.090   5.741
10469SOL    HW132306   4.039   4.164   5.718
10469SOL    HW232307   3.898   4.091   5.678
10470SOL     OW32308   2.109   2.267   4.011
10470SOL    HW132309   2.201   2.296   3.985
10470SOL    HW232310   2.105   2.167   4.011
10471SOL     OW32311   2.831   0.731   0.701
10471SOL    HW132312   2.859   0.769   0.613
10471SOL    HW232313   2.894   0.761   0.773
10472SOL     OW32314   3.569   5.498   0.743
10472SOL    HW132315   3.558   5.402   0.771
10472SOL    HW232316   3.662   5.528   0.765
10473SOL     OW32317   6.414   0.333   6.998
10473SOL    HW132318   6.319   0.345   0.007
10473SOL    HW232319   6.415   0.286   6.909
10474SOL     OW32320   4.545   1.052   3.857
10474SOL    HW132321   4.608   1.108   3.803
10474SOL    HW232322   4.593   1.015   3.936
10475SOL     OW32323   4.652   6.705   1.343
10475SOL    HW132324   4.562   6.746   1.354
10475SOL    HW232325   4.696   6.698   1.432
10476SOL     OW32326   6.978   6.697   6.973
10476SOL    HW132327   0.022   6.646   6.915
10476SOL    HW232328   6.955   6.784   6.930
10477SOL     OW32329   6.515   1.058   4.405
10477SOL    HW132330   6.515   1.054   4.505
10477SOL    HW232331   6.597   1.106   4.374
10478SOL     OW32332   6.519   0.725   0.678
10478SOL    HW132333   6.582   0.651   0.701
10478SOL    HW232334   6.523   0.744   0.580
10479SOL     OW32335   6.860   1.573   2.690
10479SOL    HW132336   6.856   1.613   2.598
10479SOL    HW232337   6.772   1.587   2.736
10480SOL     OW32338   0.711   0.906   1.763
10480SOL    HW132339   0.664   0.817   1.759
10480SOL    HW232340   0.656   0.974   1.714
10481SOL     OW32341   1.758   6.689   4.351
10481SOL    HW132342   1.689   6.759   4.371
10481SOL    HW232343   1.755   6.667   4.253
10482SOL     OW32344   6.342   4.869   4.306
10482SOL    HW132345   6.375   4.892   4.215
10482SOL    HW232346   6.250   4.906   4.319
10483SOL     OW32347   6.702   4.865   0.411
10483SOL    HW132348   6.786   4.884   0.361
10483SOL    HW232349   6.724   4.836   0.505
10484SOL     OW32350   5.931   1.583   1.423
10484SOL    HW132351   5.923   1.494   1.470
10484SOL    HW232352   5.839   1.619   1.407
10485SOL     OW32353   3.297   3.687   0.525
10485SOL    HW132354   3.296   3.755   0.452
10485SOL    HW232355   3.305   3.733   0.614
10486SOL     OW32356   0.395   0.950   7.004
10486SOL    HW132357   0.325   1.020   7.019
10486SOL    HW232358   0.369   0.894   6.925
10487SOL     OW32359   4.641   1.078   1.021
10487SOL    HW132360   4.578   1.146   0.982
10487SOL    HW232361   4.693   1.035   0.948
10488SOL     OW32362   3.083   0.919   5.778
10488SOL    HW132363   3.149   0.994   5.775
10488SOL    HW232364   2.996   0.953   5.816
10489SOL     OW32365   0.554   6.940   5.342
10489SOL    HW132366   0.608   7.000   5.401
10489SOL    HW232367   0.464   6.981   5.327
10490SOL     OW32368   5.960   1.394   1.131
10490SOL    HW132369   6.047   1.386   1.179
10490SOL    HW232370   5.886   1.405   1.198
10491SOL     OW32371   2.006   2.624   6.987
10491SOL    HW132372   2.046   2.596   0.054
10491SOL    HW232373   2.047   2.710   6.957
10492SOL     OW32374   5.818   5.086   6.653
10492SOL    HW132375   5.733   5.071   6.704
10492SOL    HW232376   5.843   5.183   6.658
10493SOL     OW32377   3.530   0.618   2.427
10493SOL    HW132378   3.608   0.599   2.487
10493SOL    HW232379   3.561   0.626   2.333
10494SOL     OW32380   5.195   4.248   5.821
10494SOL    HW132381   5.287   4.209   5.820
10494SOL    HW232382   5.201   4.345   5.842
10495SOL     OW32383   1.705   6.952   0.655
10495SOL    HW132384   1.637   6.916   0.719
10495SOL    HW232385   1.692   0.030   0.645
10496SOL     OW32386   0.014   3.804   5.856
10496SOL    HW132387   0.051   3.716   5.887
10496SOL    HW232388   0.085   3.874   5.864
10497SOL     OW32389   1.949   6.058   2.355
10497SOL    HW132390   1.942   5.979   2.415
10497SOL    HW232391   2.010   6.126   2.395
10498SOL     OW32392   4.694   5.454   0.811
10498SOL    HW132393   4.649   5.426   0.896
10498SOL    HW232394   4.660   5.543   0.783
10499SOL     OW32395   3.897   6.690   1.647
10499SOL    HW132396   3.995   6.672   1.650
10499SOL    HW232397   3.855   6.659   1.732
10500SOL     OW32398   6.196   1.384   6.297
10500SOL    HW132399   6.279   1.434   6.323
10500SOL    HW232400   6.196   1.294   6.341
10501SOL     OW32401   2.490   5.745   2.248
10501SOL    HW132402   2.473   5.751   2.149
10501SOL    HW232403   2.483   5.836   2.288
10502SOL     OW32404   3.015   0.761   1.791
10502SOL    HW132405   2.959   0.821   1.734
10502SOL    HW232406   2.989   0.666   1.774
10503SOL     OW32407   4.202   2.402   1.006
10503SOL    HW132408   4.123   2.412   0.945
10503SOL    HW232409   4.225   2.491   1.046
10504SOL     OW32410   0.708   2.162   5.549
10504SOL    HW132411   0.751   2.108   5.621
10504SOL    HW232412   0.747   2.136   5.460
10505SOL     OW32413   5.360   5.043   0.742
10505SOL    HW132414   5.289   5.014   0.805
10505SOL    HW232415   5.357   5.142   0.730
10506SOL     OW32416   6.930   5.012   0.652
10506SOL    HW132417   0.002   5.011   0.691
10506SOL    HW232418   6.892   4.919   0.652
10507SOL     OW32419   2.182   0.040   0.259
10507SOL    HW132420   2.254   6.991   0.258
10507SOL    HW232421   2.143   0.046   0.350
10508SOL     OW32422   6.482   6.108   4.915
10508SOL    HW132423   6.553   6.112   4.986
10508SOL    HW232424   6.420   6.185   4.925
10509SOL     OW32425   0.385   5.472   4.424
10509SOL    HW132426   0.350   5.432   4.339
10509SOL    HW232427   0.309   5.492   4.486
10510SOL     OW32428   4.319   5.440   6.523
10510SOL    HW132429   4.316   5.529   6.479
10510SOL    HW232430   4.412   5.422   6.556
10511SOL     OW32431   3.724   0.905   2.273
10511SOL    HW132432   3.676   0.989   2.247
10511SOL    HW232433   3.750   0.909   2.369
10512SOL     OW32434   4.047   0.310   6.728
10512SOL    HW132435   4.071   0.218   6.696
10512SOL    HW232436   3.964   0.306   6.784
10513SOL     OW32437   5.812   2.376   4.538
10513SOL    HW132438   5.818   2.376   4.637
10513SOL    HW232439   5.754   2.451   4.508
10514SOL     OW32440   0.614   3.573   1.087
10514SOL    HW132441   0.589   3.585   1.183
10514SOL    HW232442   0.681   3.499   1.079
10515SOL     OW32443   0.751   3.581   3.419
10515SOL    HW132444   0.834   3.586   3.474
10515SOL    HW232445   0.672   3.604   3.476
10516SOL     OW32446   3.984   1.391   0.572
10516SOL    HW132447   3.966   1.451   0.494
10516SOL    HW232448   3.958   1.297   0.548
10517SOL     OW32449   0.954   3.333   2.242
10517SOL    HW132450   1.010   3.413   2.260
10517SOL    HW232451   0.972   3.263   2.310
10518SOL     OW32452   0.708   5.919   6.831
10518SOL    HW132453   0.651   5.837   6.820
10518SOL    HW232454   0.649   5.999   6.841
10519SOL     OW32455   2.732   3.779   0.342
10519SOL    HW132456   2.773   3.708   0.284
10519SOL    HW232457   2.648   3.743   0.383
10520SOL     OW32458   0.357   2.472   6.015
10520SOL    HW132459   0.389   2.566   6.008
10520SOL    HW232460   0.326   2.439   5.926
10521SOL     OW32461   5.863   5.900   1.842
10521SOL    HW132462   5.936   5.955   1.800
10521SOL    HW232463   5.807   5.958   1.900
10522SOL     OW32464   0.707   1.021   5.342
10522SOL    HW132465   0.645   1.090   5.378
10522SOL    HW232466   0.732   1.044   5.248
10523SOL     OW32467   0.919   4.716   3.306
10523SOL    HW132468   0.989   4.741   3.373
10523SOL    HW232469   0.962   4.676   3.225
10524SOL     OW32470   1.663   0.253   4.543
10524SOL    HW132471   1.712   0.332   4.505
10524SOL    HW232472   1.728   0.182   4.567
10525SOL     OW32473   3.835   6.554   6.456
10525SOL    HW132474   3.879   6.642   6.475
10525SOL    HW232475   3.875   6.483   6.515
10526SOL     OW32476   1.999   0.001   3.681
10526SOL    HW132477   2.063   6.949   3.655
10526SOL    HW232478   1.905   6.987   3.672
10527SOL     OW32479   0.476   1.742   5.453
10527SOL    HW132480   0.471   1.649   5.415
10527SOL    HW232481   0.535   1.742   5.534
10528SOL     OW32482   1.745   2.921   6.049
10528SOL    HW132483   1.766   2.980   5.971
10528SOL    HW232484   1.652   2.886   6.040
10529SOL     OW32485   3.237   5.729   3.958
10529SOL    HW132486   3.156   5.670   3.957
10529SOL    HW232487   3.220   5.809   4.015
10530SOL     OW32488   2.011   0.220   6.815
10530SOL    HW132489   2.078   0.294   6.810
10530SOL    HW232490   2.002   0.177   6.725
10531SOL     OW32491   1.302   2.584   4.555
10531SOL    HW132492   1.265   2.643   4.482
10531SOL    HW232493   1.308   2.637   4.639
10532SOL     OW32494   1.012   6.367   6.167
10532SOL    HW132495   0.946   6.373   6.092
10532SOL    HW232496   1.021   6.272   6.197
10533SOL     OW32497   3.073   7.000   4.175
10533SOL    HW132498   3.052   0.024   4.262
10533SOL    HW232499   3.113   0.048   4.113
10534SOL     OW32500   6.330   6.068   1.306
10534SOL    HW132501   6.250   6.078   1.246
10534SOL    HW232502   6.368   5.976   1.295
10535SOL     OW32503   1.543   2.293   1.579
10535SOL    HW132504   1.451   2.298   1.541
10535SOL    HW232505   1.598   2.230   1.525
10536SOL     OW32506   4.397   0.524   3.836
10536SOL    HW132507   4.310   0.496   3.795
10536SOL    HW232508   4.385   0.535   3.935
10537SOL     OW32509   3.881   5.888   4.006
10537SOL    HW132510   3.923   5.931   3.926
10537SOL    HW232511   3.782   5.882   3.992
10538SOL     OW32512   5.579   2.386   1.072
10538SOL    HW132513   5.483   2.366   1.050
10538SOL    HW232514   5.625   2.303   1.101
10539SOL     OW32515   0.719   4.670   0.107
10539SOL    HW132516   0.643   4.605   0.103
10539SOL    HW232517   0.696   4.752   0.056
10540SOL     OW32518   1.787   1.626   5.260
10540SOL    HW132519   1.730   1.555   5.217
10540SOL    HW232520   1.870   1.638   5.207
10541SOL     OW32521   3.449   4.126   2.023
10541SOL    HW132522   3.364   4.151   1.978
10541SOL    HW232523   3.431   4.105   2.119
10542SOL     OW32524   6.894   0.154   5.404
10542SOL    HW132525   6.857   0.096   5.476
10542SOL    HW232526   6.894   0.250   5.434
10543SOL     OW32527   0.517   1.145   3.917
10543SOL    HW132528   0.564   1.092   3.987
10543SOL    HW232529   0.445   1.089   3.875
10544SOL     OW32530   2.732   6.959   1.705
10544SOL    HW132531   2.808   6.998   1.652
10544SOL    HW232532   2.767   6.887   1.765
10545SOL     OW32533   6.987   2.176   1.890
10545SOL    HW132534   6.990   2.205   1.986
10545SOL    HW232535   6.921   2.232   1.840
10546SOL     OW32536   2.281   0.738   0.269
10546SOL    HW132537   2.223   0.697   0.339
10546SOL    HW232538   2.359   0.677   0.250
10547SOL     OW32539   5.639   2.750   2.753
10547SOL    HW132540   5.567   2.818   2.739
10547SOL    HW232541   5.647   2.692   2.672
10548SOL     OW32542   5.464   4.628   4.004
10548SOL    HW132543   5.383   4.604   4.058
10548SOL    HW232544   5.530   4.674   4.063
10549SOL     OW32545   0.951   6.895   2.296
10549SOL    HW132546   0.975   6.985   2.333
10549SOL    HW232547   0.879   6.904   2.228
10550SOL     OW32548   4.546   6.231   3.628
10550SOL    HW132549   4.526   6.195   3.537
10550SOL    HW232550   4.639   6.204   3.655
10551SOL     OW32551   1.347   2.510   6.672
10551SOL    HW132552   1.307   2.474   6.757
10551SOL    HW232553   1.400   2.592   6.693
10552SOL     OW32554   3.387   0.651   6.055
10552SOL    HW132555   3.319   0.722   6.036
10552SOL    HW232556   3.475   0.694   6.073
10553SOL     OW32557   0.556   4.371   1.987
10553SOL    HW132558   0.475   4.312   1.997
10553SOL    HW232559   0.584   4.405   2.076
10554SOL     OW32560   5.546   4.794   6.965
10554SOL    HW132561   5.534   4.813   0.042
10554SOL    HW232562   5.522   4.698   6.946
10555SOL     OW32563   1.491   2.755   0.381
10555SOL    HW132564   1.547   2.816   0.436
10555SOL    HW232565   1.480   2.792   0.289
10556SOL     OW32566   2.167   1.865   5.758
10556SOL    HW132567   2.220   1.797   5.708
10556SOL    HW232568   2.114   1.920   5.693
10557SOL     OW32569   2.303   2.835   3.240
10557SOL    HW132570   2.243   2.801   3.167
10557SOL    HW232571   2.280   2.929   3.261
10558SOL     OW32572   3.925   1.003   3.346
10558SOL    HW132573   3.991   0.955   3.288
10558SOL    HW232574   3.944   0.984   3.442
10559SOL     OW32575   4.965   0.803   1.276
10559SOL    HW132576   4.999   0.879   1.221
10559SOL    HW232577   5.030   0.728   1.275
10560SOL     OW32578   3.909   6.267   3.005
10560SOL    HW132579   3.991   6.210   3.004
10560SOL    HW232580   3.935   6.362   3.020
10561SOL     OW32581   3.141   3.837   1.486
10561SOL    HW132582   3.231   3.824   1.445
10561SOL    HW232583   3.107   3.928   1.461
10562SOL     OW32584   4.903   5.155   0.260
10562SOL    HW132585   4.806   5.169   0.241
10562SOL    HW232586   4.956   5.170   0.177
10563SOL     OW32587   0.395   2.129   3.573
10563SOL    HW132588   0.437   2.120   3.483
10563SOL    HW232589   0.298   2.107   3.566
10564SOL     OW32590   5.645   5.964   2.386
10564SOL    HW132591   5.580   5.888   2.383
10564SOL    HW232592   5.725   5.941   2.330
10565SOL     OW32593   0.622   0.127   5.575
10565SOL    HW132594   0.583   0.107   5.665
10565SOL    HW232595   0.574   0.205   5.535
10566SOL     OW32596   3.359   1.771   6.330
10566SOL    HW132597   3.419   1.820   6.392
10566SOL    HW232598   3.300   1.709   6.382
10567SOL     OW32599   3.284   2.137   4.776
10567SOL    HW132600   3.346   2.197   4.726
10567SOL    HW232601   3.240   2.188   4.850
10568SOL     OW32602   6.228   2.945   1.824
10568SOL    HW132603   6.300   2.899   1.772
10568SOL    HW232604   6.205   3.031   1.779
10569SOL     OW32605   5.851   1.888   1.669
10569SOL    HW132606   5.924   1.820   1.664
10569SOL    HW232607   5.880   1.964   1.727
10570SOL     OW32608   0.892   5.558   3.632
10570SOL    HW132609   0.841   5.633   3.675
10570SOL    HW232610   0.990   5.579   3.634
10571SOL     OW32611   0.007   4.632   6.024
10571SOL    HW132612   0.057   4.610   5.940
10571SOL    HW232613   0.012   4.730   6.041
10572SOL     OW32614   6.601   4.134   3.892
10572SOL    HW132615   6.551   4.155   3.976
10572SOL    HW232616   6.671   4.065   3.912
10573SOL     OW32617   4.712   0.432   5.092
10573SOL    HW132618   4.804   0.469   5.082
10573SOL    HW232619   4.708   0.340   5.054
10574SOL     OW32620   1.817   1.457   4.604
10574SOL    HW132621   1.850   1.544   4.642
10574SOL    HW232622   1.840   1.383   4.667
10575SOL     OW32623   0.017   1.550   3.634
10575SOL    HW132624   0.096   1.505   3.594
10575SOL    HW232625   0.048   1.621   3.697
10576SOL     OW32626   6.885   6.251   4.642
10576SOL    HW132627   6.940   6.176   4.605
10576SOL    HW232628   6.804   6.263   4.586
10577SOL     OW32629   1.975   4.401   0.238
10577SOL    HW132630   1.876   4.400   0.252
10577SOL    HW232631   2.010   4.494   0.252
10578SOL     OW32632   4.785   1.386   2.888
10578SOL    HW132633   4.868   1.439   2.909
10578SOL    HW232634   4.725   1.440   2.828
10579SOL     OW32635   4.173   2.792   1.697
10579SOL    HW132636   4.129   2.881   1.682
10579SOL    HW232637   4.272   2.803   1.691
10580SOL     OW32638   6.739   0.209   6.924
10580SOL    HW132639   6.674   0.160   6.867
10580SOL    HW232640   6.732   0.176   7.018
10581SOL     OW32641   6.608   0.111   3.042
10581SOL    HW132642   6.517   0.133   3.007
10581SOL    HW232643   6.615   0.013   3.057
10582SOL     OW32644   5.687   4.895   5.889
10582SOL    HW132645   5.773   4.906   5.839
10582SOL    HW232646   5.662   4.798   5.891
10583SOL     OW32647   4.186   1.141   4.138
10583SOL    HW132648   4.172   1.058   4.193
10583SOL    HW232649   4.108   1.154   4.077
10584SOL     OW32650   6.687   7.013   1.041
10584SOL    HW132651   6.684   6.921   1.002
10584SOL    HW232652   6.748   7.014   1.120
10585SOL     OW32653   1.821   2.068   5.065
10585SOL    HW132654   1.890   2.073   4.993
10585SOL    HW232655   1.749   2.136   5.047
10586SOL     OW32656   6.387   5.548   5.055
10586SOL    HW132657   6.443   5.465   5.050
10586SOL    HW232658   6.411   5.609   4.979
10587SOL     OW32659   6.480   4.538   0.119
10587SOL    HW132660   6.461   4.443   0.096
10587SOL    HW232661   6.402   4.577   0.168
10588SOL     OW32662   1.164   3.191   4.328
10588SOL    HW132663   1.254   3.190   4.371
10588SOL    HW232664   1.163   3.258   4.254
10589SOL     OW32665   5.969   1.055   4.273
10589SOL    HW132666   5.918   1.058   4.359
10589SOL    HW232667   6.005   0.963   4.259
10590SOL     OW32668   1.089   0.527   1.944
10590SOL    HW132669   1.084   0.532   1.845
10590SOL    HW232670   1.174   0.481   1.970
10591SOL     OW32671   1.863   2.274   6.680
10591SOL    HW132672   1.823   2.212   6.613
10591SOL    HW232673   1.794   2.298   6.748
10592SOL     OW32674   5.440   3.460   2.724
10592SOL    HW132675   5.392   3.473   2.638
10592SOL    HW232676   5.424   3.538   2.784
10593SOL     OW32677   2.634   6.140   0.382
10593SOL    HW132678   2.716   6.173   0.429
10593SOL    HW232679   2.660   6.069   0.315
10594SOL     OW32680   5.073   0.653   2.008
10594SOL    HW132681   5.108   0.661   1.914
10594SOL    HW232682   4.986   0.702   2.016
10595SOL     OW32683   4.672   6.017   6.781
10595SOL    HW132684   4.685   6.092   6.716
10595SOL    HW232685   4.698   5.931   6.738
10596SOL     OW32686   4.115   6.686   0.228
10596SOL    HW132687   4.180   6.723   0.293
10596SOL    HW232688   4.032   6.657   0.275
10597SOL     OW32689   3.361   0.678   5.319
10597SOL    HW132690   3.339   0.751   5.254
10597SOL    HW232691   3.431   0.711   5.383
10598SOL     OW32692   2.955   2.820   0.021
10598SOL    HW132693   2.919   2.727   0.024
10598SOL    HW232694   2.992   2.839   6.950
10599SOL     OW32695   5.042   2.928   5.881
10599SOL    HW132696   5.098   2.941   5.963
10599SOL    HW232697   4.992   3.012   5.861
10600SOL     OW32698   2.269   3.199   0.519
10600SOL    HW132699   2.238   3.275   0.576
10600SOL    HW232700   2.360   3.220   0.483
10601SOL     OW32701   2.074   4.614   5.024
10601SOL    HW132702   2.137   4.686   4.996
10601SOL    HW232703   1.988   4.655   5.055
10602SOL     OW32704   3.398   1.187   2.332
10602SOL    HW132705   3.430   1.136   2.252
10602SOL    HW232706   3.419   1.284   2.319
10603SOL     OW32707   3.710   6.266   3.271
10603SOL    HW132708   3.667   6.176   3.279
10603SOL    HW232709   3.800   6.257   3.228
10604SOL     OW32710   6.059   5.610   5.510
10604SOL    HW132711   6.062   5.510   5.515
10604SOL    HW232712   6.124   5.641   5.440
10605SOL     OW32713   1.619   6.260   0.315
10605SOL    HW132714   1.709   6.278   0.356
10605SOL    HW232715   1.610   6.162   0.297
10606SOL     OW32716   0.091   0.615   2.387
10606SOL    HW132717   0.038   0.532   2.400
10606SOL    HW232718   0.182   0.604   2.428
10607SOL     OW32719   3.840   4.924   5.278
10607SOL    HW132720   3.894   4.979   5.341
10607SOL    HW232721   3.863   4.947   5.184
10608SOL     OW32722   5.225   2.563   5.619
10608SOL    HW132723   5.321   2.542   5.606
10608SOL    HW232724   5.169   2.484   5.593
10609SOL     OW32725   2.688   6.625   6.981
10609SOL    HW132726   2.636   6.579   0.033
10609SOL    HW232727   2.782   6.591   6.981
10610SOL     OW32728   0.813   2.478   5.258
10610SOL    HW132729   0.844   2.409   5.193
10610SOL    HW232730   0.731   2.523   5.222
10611SOL     OW32731   3.131   3.844   6.566
10611SOL    HW132732   3.227   3.859   6.539
10611SOL    HW232733   3.077   3.824   6.484
10612SOL     OW32734   3.628   1.145   4.696
10612SOL    HW132735   3.616   1.091   4.779
10612SOL    HW232736   3.713   1.198   4.702
10613SOL     OW32737   5.730   6.722   5.157
10613SOL    HW132738   5.819   6.726   5.203
10613SOL    HW232739   5.676   6.647   5.197
10614SOL     OW32740   5.864   2.030   4.441
10614SOL    HW132741   5.870   1.930   4.444
10614SOL    HW232742   5.948   2.066   4.401
10615SOL     OW32743   3.898   6.922   5.483
10615SOL    HW132744   3.906   6.886   5.576
10615SOL    HW232745   3.936   6.856   5.418
10616SOL     OW32746   3.063   6.310   1.006
10616SOL    HW132747   2.985   6.373   1.018
10616SOL    HW232748   3.053   6.261   0.919
10617SOL     OW32749   2.741   3.121   1.450
10617SOL    HW132750   2.780   3.204   1.409
10617SOL    HW232751   2.693   3.144   1.534
10618SOL     OW32752   0.623   3.614   5.994
10618SOL    HW132753   0.699   3.586   6.052
10618SOL    HW232754   0.659   3.656   5.910
10619SOL     OW32755   0.188   4.366   2.045
10619SOL    HW132756   0.265   4.371   1.982
10619SOL    HW232757   0.156   4.272   2.052
10620SOL     OW32758   1.390   5.338   4.923
10620SOL    HW132759   1.307   5.385   4.954
10620SOL    HW232760   1.383   5.241   4.946
10621SOL     OW32761   0.787   5.835   1.781
10621SOL    HW132762   0.784   5.880   1.692
10621SOL    HW232763   0.864   5.772   1.784
10622SOL     OW32764   5.415   1.858   1.370
10622SOL    HW132765   5.415   1.952   1.336
10622SOL    HW232766   5.415   1.795   1.293
10623SOL     OW32767   6.903   4.525   5.017
10623SOL    HW132768   6.884   4.548   4.921
10623SOL    HW232769   6.842   4.452   5.047
10624SOL     OW32770   0.875   2.838   4.582
10624SOL    HW132771   0.881   2.746   4.621
10624SOL    HW232772   0.824   2.898   4.644
10625SOL     OW32773   0.265   4.435   0.447
10625SOL    HW132774   0.259   4.335   0.443
10625SOL    HW232775   0.178   4.472   0.481
10626SOL     OW32776   2.552   3.263   0.427
10626SOL    HW132777   2.579   3.224   0.515
10626SOL    HW232778   2.584   3.204   0.353
10627SOL     OW32779   5.308   0.101   0.393
10627SOL    HW132780   5.364   0.018   0.389
10627SOL    HW232781   5.345   0.168   0.329
10628SOL     OW32782   5.154   6.015   0.257
10628SOL    HW132783   5.062   6.012   0.218
10628SOL    HW232784   5.211   5.947   0.211
10629SOL     OW32785   2.269   4.820   5.121
10629SOL    HW132786   2.332   4.743   5.125
10629SOL    HW232787   2.274   4.862   5.030
10630SOL     OW32788   6.336   1.440   3.459
10630SOL    HW132789   6.424   1.482   3.437
10630SOL    HW232790   6.351   1.364   3.522
10631SOL     OW32791   2.482   4.940   4.624
10631SOL    HW132792   2.511   4.846   4.606
10631SOL    HW232793   2.522   5.001   4.555
10632SOL     OW32794   6.074   1.896   3.866
10632SOL    HW132795   6.000   1.839   3.901
10632SOL    HW232796   6.064   1.905   3.766
10633SOL     OW32797   2.920   2.882   1.134
10633SOL    HW132798   2.882   2.850   1.221
10633SOL    HW232799   2.874   2.967   1.107
10634SOL     OW32800   3.252   5.278   0.654
10634SOL    HW132801   3.297   5.190   0.640
10634SOL    HW232802   3.322   5.348   0.671
10635SOL     OW32803   2.620   2.355   1.040
10635SOL    HW132804   2.527   2.369   1.006
10635SOL    HW232805   2.616   2.327   1.136
10636SOL     OW32806   1.179   2.036   1.549
10636SOL    HW132807   1.243   1.959   1.548
10636SOL    HW232808   1.116   2.025   1.627
10637SOL     OW32809   2.475   4.778   5.895
10637SOL    HW132810   2.523   4.845   5.837
10637SOL    HW232811   2.522   4.690   5.890
10638SOL     OW32812   6.624   5.591   2.904
10638SOL    HW132813   6.580   5.657   2.964
10638SOL    HW232814   6.590   5.602   2.811
10639SOL     OW32815   1.025   3.128   3.655
10639SOL    HW132816   0.990   3.090   3.741
10639SOL    HW232817   1.122   3.150   3.666
10640SOL     OW32818   3.803   0.374   5.239
10640SOL    HW132819   3.898   0.345   5.227
10640SOL    HW232820   3.799   0.474   5.243
10641SOL     OW32821   2.422   1.800   1.809
10641SOL    HW132822   2.509   1.762   1.776
10641SOL    HW232823   2.431   1.900   1.818
10642SOL     OW32824   6.914   3.474   1.996
10642SOL    HW132825   6.872   3.540   2.058
10642SOL    HW232826   6.863   3.388   1.999
10643SOL     OW32827   1.839   4.979   5.503
10643SOL    HW132828   1.937   5.000   5.503
10643SOL    HW232829   1.824   4.888   5.463
10644SOL     OW32830   5.351   2.548   3.453
10644SOL    HW132831   5.285   2.608   3.500
10644SOL    HW232832   5.357   2.574   3.357
10645SOL     OW32833   1.826   2.207   4.650
10645SOL    HW132834   1.743   2.183   4.700
10645SOL    HW232835   1.845   2.305   4.661
10646SOL     OW32836   6.659   0.764   6.587
10646SOL    HW132837   6.608   0.702   6.527
10646SOL    HW232838   6.682   0.847   6.537
10647SOL     OW32839   2.662   5.555   4.816
10647SOL    HW132840   2.629   5.469   4.777
10647SOL    HW232841   2.672   5.623   4.743
10648SOL     OW32842   5.461   4.412   6.304
10648SOL    HW132843   5.476   4.320   6.341
10648SOL    HW232844   5.548   4.448   6.270
10649SOL     OW32845   0.293   4.678   2.640
10649SOL    HW132846   0.334   4.590   2.666
10649SOL    HW232847   0.282   4.735   2.721
10650SOL     OW32848   0.552   6.627   3.629
10650SOL    HW132849   0.501   6.621   3.715
10650SOL    HW232850   0.583   6.535   3.603
10651SOL     OW32851   5.126   6.219   6.453
10651SOL    HW132852   5.190   6.286   6.490
10651SOL    HW232853   5.144   6.207   6.355
10652SOL     OW32854   3.604   6.775   5.696
10652SOL    HW132855   3.545   6.697   5.678
10652SOL    HW232856   3.582   6.813   5.786
10653SOL     OW32857   4.595   4.668   4.328
10653SOL    HW132858   4.583   4.571   4.345
10653SOL    HW232859   4.582   4.687   4.231
10654SOL     OW32860   4.787   1.003   0.803
10654SOL    HW132861   4.750   0.911   0.791
10654SOL    HW232862   4.885   1.003   0.782
10655SOL     OW32863   2.625   5.443   0.347
10655SOL    HW132864   2.640   5.493   0.433
10655SOL    HW232865   2.545   5.384   0.356
10656SOL     OW32866   6.451   2.401   2.153
10656SOL    HW132867   6.516   2.345   2.204
10656SOL    HW232868   6.440   2.363   2.061
10657SOL     OW32869   6.522   6.874   6.153
10657SOL    HW132870   6.452   6.945   6.163
10657SOL    HW232871   6.579   6.872   6.235
10658SOL     OW32872   5.726   4.592   5.350
10658SOL    HW132873   5.725   4.492   5.355
10658SOL    HW232874   5.635   4.628   5.371
10659SOL     OW32875   6.484   5.681   1.473
10659SOL    HW132876   6.521   5.614   1.409
10659SOL    HW232877   6.551   5.754   1.488
10660SOL     OW32878   5.506   4.028   6.954
10660SOL    HW132879   5.591   4.049   7.000
10660SOL    HW232880   5.514   3.939   6.907
10661SOL     OW32881   1.413   0.361   2.422
10661SOL    HW132882   1.403   0.454   2.386
10661SOL    HW232883   1.341   0.343   2.489
10662SOL     OW32884   5.347   0.596   3.245
10662SOL    HW132885   5.262   0.556   3.211
10662SOL    HW232886   5.330   0.641   3.333
10663SOL     OW32887   0.883   1.189   1.505
10663SOL    HW132888   0.848   1.127   1.436
10663SOL    HW232889   0.848   1.281   1.488
10664SOL     OW32890   0.462   4.946   5.459
10664SOL    HW132891   0.456   4.887   5.539
10664SOL    HW232892   0.474   5.041   5.488
10665SOL     OW32893   1.080   0.821   0.601
10665SOL    HW132894   1.175   0.852   0.610
10665SOL    HW232895   1.033   0.831   0.689
10666SOL     OW32896   3.234   4.046   1.284
10666SOL    HW132897   3.319   4.003   1.316
10666SOL    HW232898   3.253   4.101   1.202
10667SOL     OW32899   3.936   3.419   5.709
10667SOL    HW132900   4.003   3.476   5.756
10667SOL    HW232901   3.866   3.477   5.667
10668SOL     OW32902   1.367   1.123   4.785
10668SOL    HW132903   1.362   1.164   4.694
10668SOL    HW232904   1.315   1.178   4.850
10669SOL     OW32905   5.814   6.339   1.091
10669SOL    HW132906   5.795   6.403   1.016
10669SOL    HW232907   5.766   6.369   1.173
10670SOL     OW32908   5.356   3.834   5.074
10670SOL    HW132909   5.292   3.762   5.046
10670SOL    HW232910   5.353   3.844   5.174
10671SOL     OW32911   2.667   2.314   3.304
10671SOL    HW132912   2.646   2.368   3.222
10671SOL    HW232913   2.759   2.275   3.295
10672SOL     OW32914   5.755   2.753   0.052
10672SOL    HW132915   5.776   2.721   6.980
10672SOL    HW232916   5.840   2.763   0.104
10673SOL     OW32917   1.543   1.110   0.003
10673SOL    HW132918   1.562   1.078   6.930
10673SOL    HW232919   1.520   1.208   0.001
10674SOL     OW32920   3.420   3.844   1.653
10674SOL    HW132921   3.504   3.830   1.704
10674SOL    HW232922   3.341   3.817   1.708
10675SOL     OW32923   1.874   6.682   6.591
10675SOL    HW132924   1.809   6.745   6.549
10675SOL    HW232925   1.840   6.588   6.584
10676SOL     OW32926   5.963   6.676   5.946
10676SOL    HW132927   5.968   6.681   6.046
10676SOL    HW232928   5.972   6.768   5.908
10677SOL     OW32929   0.816   1.049   2.653
10677SOL    HW132930   0.762   0.980   2.702
10677SOL    HW232931   0.822   1.024   2.556
10678SOL     OW32932   3.306   5.734   3.607
10678SOL    HW132933   3.352   5.654   3.569
10678SOL    HW232934   3.350   5.759   3.694
10679SOL     OW32935   4.704   5.793   6.555
10679SOL    HW132936   4.674   5.752   6.641
10679SOL    HW232937   4.696   5.727   6.482
10680SOL     OW32938   2.710   1.707   3.509
10680SOL    HW132939   2.657   1.731   3.591
10680SOL    HW232940   2.725   1.608   3.507
10681SOL     OW32941   0.711   3.935   0.326
10681SOL    HW132942   0.740   3.904   0.236
10681SOL    HW232943   0.709   4.035   0.328
10682SOL     OW32944   1.956   1.458   4.335
10682SOL    HW132945   2.020   1.529   4.308
10682SOL    HW232946   1.925   1.474   4.429
10683SOL     OW32947   3.425   1.539   4.127
10683SOL    HW132948   3.500   1.597   4.096
10683SOL    HW232949   3.350   1.543   4.060
10684SOL     OW32950   5.438   4.193   1.135
10684SOL    HW132951   5.380   4.121   1.096
10684SOL    HW232952   5.471   4.165   1.224
10685SOL     OW32953   0.642   5.599   3.078
10685SOL    HW132954   0.589   5.661   3.135
10685SOL    HW232955   0.583   5.556   3.010
10686SOL     OW32956   0.928   4.949   6.678
10686SOL    HW132957   0.833   4.926   6.697
10686SOL    HW232958   0.976   4.868   6.644
10687SOL     OW32959   6.985   5.379   2.074
10687SOL    HW132960   0.025   5.397   1.996
10687SOL    HW232961   6.907   5.441   2.071
10688SOL     OW32962   6.258   4.334   3.077
10688SOL    HW132963   6.193   4.278   3.128
10688SOL    HW232964   6.306   4.277   3.010
10689SOL     OW32965   0.415   6.990   3.492
10689SOL    HW132966   0.473   0.012   3.423
10689SOL    HW232967   0.327   0.019   3.496
10690SOL     OW32968   0.016   6.098   3.091
10690SOL    HW132969   0.067   6.081   3.007
10690SOL    HW232970   0.006   6.013   3.142
10691SOL     OW32971   0.908   1.854   2.151
10691SOL    HW132972   0.866   1.932   2.106
10691SOL    HW232973   0.872   1.769   2.111
10692SOL     OW32974   3.377   4.899   2.601
10692SOL    HW132975   3.282   4.911   2.629
10692SOL    HW232976   3.386   4.920   2.504
10693SOL     OW32977   2.863   0.359   0.995
10693SOL    HW132978   2.774   0.315   0.989
10693SOL    HW232979   2.932   0.302   0.951
10694SOL     OW32980   4.810   6.670   1.136
10694SOL    HW132981   4.765   6.682   1.224
10694SOL    HW232982   4.902   6.709   1.139
10695SOL     OW32983   5.467   2.102   2.948
10695SOL    HW132984   5.437   2.023   3.002
10695SOL    HW232985   5.387   2.154   2.919
10696SOL     OW32986   6.449   3.887   3.762
10696SOL    HW132987   6.500   3.953   3.817
10696SOL    HW232988   6.507   3.807   3.745
10697SOL     OW32989   0.259   5.775   4.941
10697SOL    HW132990   0.190   5.808   4.876
10697SOL    HW232991   0.339   5.743   4.891
10698SOL     OW32992   3.592   5.766   4.469
10698SOL    HW132993   3.557   5.809   4.552
10698SOL    HW232994   3.674   5.713   4.491
10699SOL     OW32995   4.239   2.227   2.129
10699SOL    HW132996   4.159   2.205   2.073
10699SOL    HW232997   4.301   2.149   2.130
10700SOL     OW32998   0.505   6.924   0.309
10700SOL    HW132999   0.596   6.895   0.282
10700SOL    HW233000   0.455   6.957   0.229
10701SOL     OW33001   3.059   5.629   0.341
10701SOL    HW133002   3.115   5.699   0.297
10701SOL    HW233003   3.099   5.603   0.428
10702SOL     OW33004   6.077   2.198   2.478
10702SOL    HW133005   6.087   2.268   2.548
10702SOL    HW233006   6.130   2.223   2.397
10703SOL     OW33007   2.958   3.386   4.093
10703SOL    HW133008   2.918   3.408   4.182
10703SOL    HW233009   3.022   3.310   4.103
10704SOL     OW33010   6.049   5.430   1.637
10704SOL    HW133011   6.097   5.342   1.641
10704SOL    HW233012   5.981   5.427   1.563
10705SOL     OW33013   6.428   4.229   2.361
10705SOL    HW133014   6.379   4.142   2.367
10705SOL    HW233015   6.423   4.264   2.267
10706SOL     OW33016   4.561   6.638   2.386
10706SOL    HW133017   4.556   6.679   2.294
10706SOL    HW233018   4.495   6.683   2.446
10707SOL     OW33019   0.501   0.024   3.957
10707SOL    HW133020   0.460   0.113   3.978
10707SOL    HW233021   0.442   6.994   3.893
10708SOL     OW33022   4.409   0.746   2.750
10708SOL    HW133023   4.498   0.772   2.787
10708SOL    HW233024   4.347   0.723   2.824
10709SOL     OW33025   6.220   0.448   5.333
10709SOL    HW133026   6.163   0.379   5.378
10709SOL    HW233027   6.267   0.406   5.255
10710SOL     OW33028   0.831   6.465   4.037
10710SOL    HW133029   0.783   6.458   4.124
10710SOL    HW233030   0.790   6.538   3.981
10711SOL     OW33031   1.888   6.442   3.482
10711SOL    HW133032   1.796   6.427   3.445
10711SOL    HW233033   1.956   6.422   3.411
10712SOL     OW33034   3.153   1.212   1.984
10712SOL    HW133035   3.237   1.171   2.021
10712SOL    HW233036   3.150   1.198   1.885
10713SOL     OW33037   0.963   4.016   1.774
10713SOL    HW133038   0.906   3.970   1.843
10713SOL    HW233039   0.905   4.074   1.717
10714SOL     OW33040   6.228   3.345   6.126
10714SOL    HW133041   6.194   3.439   6.130
10714SOL    HW233042   6.322   3.342   6.158
10715SOL     OW33043   4.988   6.829   3.064
10715SOL    HW133044   4.970   6.926   3.047
10715SOL    HW233045   4.934   6.798   3.142
10716SOL     OW33046   6.513   2.743   4.304
10716SOL    HW133047   6.588   2.681   4.329
10716SOL    HW233048   6.492   2.803   4.380
10717SOL     OW33049   0.922   2.370   0.905
10717SOL    HW133050   0.866   2.396   0.827
10717SOL    HW233051   0.885   2.287   0.947
10718SOL     OW33052   0.048   3.411   6.345
10718SOL    HW133053   0.105   3.493   6.340
10718SOL    HW233054   0.001   3.408   6.433
10719SOL     OW33055   4.469   6.503   0.160
10719SOL    HW133056   4.407   6.581   0.161
10719SOL    HW233057   4.426   6.425   0.206
10720SOL     OW33058   6.980   2.955   5.549
10720SOL    HW133059   0.016   2.968   5.467
10720SOL    HW233060   6.944   3.043   5.580
10721SOL     OW33061   6.199   3.489   5.366
10721SOL    HW133062   6.222   3.584   5.386
10721SOL    HW233063   6.100   3.476   5.376
10722SOL     OW33064   6.787   3.064   0.440
10722SOL    HW133065   6.885   3.062   0.461
10722SOL    HW233066   6.750   3.154   0.462
10723SOL     OW33067   6.586   3.558   7.019
10723SOL    HW133068   6.634   3.473   6.997
10723SOL    HW233069   6.651   3.623   0.038
10724SOL     OW33070   4.024   0.428   6.414
10724SOL    HW133071   4.082   0.486   6.472
10724SOL    HW233072   4.039   0.332   6.436
10725SOL     OW33073   0.052   5.281   4.327
10725SOL    HW133074   0.139   5.327   4.310
10725SOL    HW233075   0.046   5.254   4.423
10726SOL     OW33076   5.849   6.253   5.701
10726SOL    HW133077   5.862   6.326   5.767
10726SOL    HW233078   5.829   6.168   5.749
10727SOL     OW33079   1.080   4.589   3.626
10727SOL    HW133080   1.169   4.556   3.658
10727SOL    HW233081   1.011   4.571   3.696
10728SOL     OW33082   6.204   6.384   2.031
10728SOL    HW133083   6.120   6.416   1.987
10728SOL    HW233084   6.180   6.318   2.102
10729SOL     OW33085   6.639   0.984   3.267
10729SOL    HW133086   6.698   1.060   3.292
10729SOL    HW233087   6.642   0.969   3.168
10730SOL     OW33088   3.129   0.334   1.332
10730SOL    HW133089   3.131   0.235   1.348
10730SOL    HW233090   3.056   0.375   1.386
10731SOL     OW33091   2.060   6.026   6.493
10731SOL    HW133092   2.119   6.089   6.543
10731SOL    HW233093   2.078   5.932   6.521
10732SOL     OW33094   5.512   6.778   2.693
10732SOL    HW133095   5.545   6.705   2.634
10732SOL    HW233096   5.570   6.859   2.681
10733SOL     OW33097   5.599   2.169   6.753
10733SOL    HW133098   5.506   2.203   6.739
10733SOL    HW233099   5.620   2.170   6.851
10734SOL     OW33100   1.115   0.634   6.462
10734SOL    HW133101   1.055   0.676   6.395
10734SOL    HW233102   1.065   0.565   6.514
10735SOL     OW33103   1.443   4.758   2.394
10735SOL    HW133104   1.536   4.765   2.356
10735SOL    HW233105   1.445   4.786   2.490
10736SOL     OW33106   1.340   1.182   3.700
10736SOL    HW133107   1.380   1.095   3.673
10736SOL    HW233108   1.279   1.215   3.627
10737SOL     OW33109   1.328   2.122   0.072
10737SOL    HW133110   1.328   2.093   6.996
10737SOL    HW233111   1.422   2.129   0.105
10738SOL     OW33112   2.897   0.514   1.792
10738SOL    HW133113   2.868   0.497   1.887
10738SOL    HW233114   2.822   0.558   1.742
10739SOL     OW33115   0.670   1.283   2.455
10739SOL    HW133116   0.757   1.312   2.495
10739SOL    HW233117   0.658   1.329   2.367
10740SOL     OW33118   1.562   4.701   6.471
10740SOL    HW133119   1.553   4.643   6.552
10740SOL    HW233120   1.606   4.649   6.398
10741SOL     OW33121   0.988   1.319   3.196
10741SOL    HW133122   1.018   1.232   3.155
10741SOL    HW233123   1.004   1.317   3.294
10742SOL     OW33124   5.613   0.156   1.624
10742SOL    HW133125   5.530   0.101   1.625
10742SOL    HW233126   5.663   0.144   1.710
10743SOL     OW33127   2.536   2.407   3.514
10743SOL    HW133128   2.455   2.458   3.486
10743SOL    HW233129   2.589   2.380   3.433
10744SOL     OW33130   3.451   2.096   2.666
10744SOL    HW133131   3.489   2.022   2.722
10744SOL    HW233132   3.518   2.124   2.597
10745SOL     OW33133   0.961   4.739   0.660
10745SOL    HW133134   0.941   4.795   0.741
10745SOL    HW233135   0.971   4.643   0.688
10746SOL     OW33136   1.754   4.126   1.243
10746SOL    HW133137   1.812   4.170   1.312
10746SOL    HW233138   1.716   4.041   1.281
10747SOL     OW33139   4.887   1.649   3.553
10747SOL    HW133140   4.820   1.640   3.626
10747SOL    HW233141   4.918   1.744   3.547
10748SOL     OW33142   5.806   0.074   1.201
10748SOL    HW133143   5.837   0.129   1.123
10748SOL    HW233144   5.721   0.114   1.237
10749SOL     OW33145   0.543   5.103   2.719
10749SOL    HW133146   0.576   5.158   2.797
10749SOL    HW233147   0.452   5.134   2.693
10750SOL     OW33148   4.924   5.944   4.482
10750SOL    HW133149   4.903   6.039   4.502
10750SOL    HW233150   4.844   5.887   4.503
10751SOL     OW33151   0.975   3.766   5.341
10751SOL    HW133152   0.987   3.673   5.307
10751SOL    HW233153   0.958   3.827   5.264
10752SOL     OW33154   6.425   3.553   6.308
10752SOL    HW133155   6.386   3.466   6.338
10752SOL    HW233156   6.383   3.627   6.360
10753SOL     OW33157   5.941   0.702   3.687
10753SOL    HW133158   5.856   0.656   3.660
10753SOL    HW233159   5.987   0.737   3.605
10754SOL     OW33160   2.350   1.920   3.452
10754SOL    HW133161   2.429   1.979   3.468
10754SOL    HW233162   2.324   1.924   3.355
10755SOL     OW33163   0.960   1.528   0.905
10755SOL    HW133164   0.876   1.543   0.853
10755SOL    HW233165   0.957   1.580   0.991
10756SOL     OW33166   5.959   3.929   0.346
10756SOL    HW133167   5.860   3.934   0.358
10756SOL    HW233168   5.984   3.839   0.311
10757SOL     OW33169   6.634   3.561   0.480
10757SOL    HW133170   6.632   3.465   0.510
10757SOL    HW233171   6.685   3.567   0.394
10758SOL     OW33172   1.639   6.034   4.875
10758SOL    HW133173   1.654   5.992   4.786
10758SOL    HW233174   1.727   6.042   4.923
10759SOL     OW33175   1.775   3.236   6.861
10759SOL    HW133176   1.829   3.163   6.904
10759SOL    HW233177   1.679   3.227   6.889
10760SOL     OW33178   0.053   0.329   0.650
10760SOL    HW133179   0.026   0.305   0.743
10760SOL    HW233180   0.049   0.428   0.639
10761SOL     OW33181   1.031   2.074   6.360
10761SOL    HW133182   1.122   2.050   6.325
10761SOL    HW233183   0.962   2.051   6.291
10762SOL     OW33184   4.176   1.387   5.207
10762SOL    HW133185   4.179   1.467   5.266
10762SOL    HW233186   4.080   1.358   5.196
10763SOL     OW33187   4.485   6.084   0.928
10763SOL    HW133188   4.575   6.119   0.903
10763SOL    HW233189   4.426   6.083   0.848
10764SOL     OW33190   5.640   1.571   6.078
10764SOL    HW133191   5.548   1.567   6.039
10764SOL    HW233192   5.693   1.641   6.031
10765SOL     OW33193   5.624   2.673   1.277
10765SOL    HW133194   5.685   2.600   1.307
10765SOL    HW233195   5.557   2.636   1.212
10766SOL     OW33196   2.961   3.308   0.088
10766SOL    HW133197   2.958   3.282   0.185
10766SOL    HW233198   2.928   3.402   0.079
10767SOL     OW33199   1.212   0.537   0.496
10767SOL    HW133200   1.298   0.491   0.517
10767SOL    HW233201   1.229   0.634   0.478
10768SOL     OW33202   5.425   5.246   0.457
10768SOL    HW133203   5.408   5.289   0.546
10768SOL    HW233204   5.392   5.152   0.458
10769SOL     OW33205   2.058   4.837   4.184
10769SOL    HW133206   2.135   4.808   4.127
10769SOL    HW233207   1.987   4.877   4.127
10770SOL     OW33208   5.619   0.007   4.582
10770SOL    HW133209   5.522   7.005   4.572
10770SOL    HW233210   5.667   6.949   4.622
10771SOL     OW33211   4.698   0.056   5.293
10771SOL    HW133212   4.722   0.025   5.201
10771SOL    HW233213   4.761   0.128   5.322
10772SOL     OW33214   6.153   6.626   3.919
10772SOL    HW133215   6.136   6.620   3.821
10772SOL    HW233216   6.088   6.569   3.969
10773SOL     OW33217   6.409   5.101   6.584
10773SOL    HW133218   6.372   5.009   6.599
10773SOL    HW233219   6.386   5.160   6.661
10774SOL     OW33220   1.814   2.076   0.234
10774SOL    HW133221   1.837   1.999   0.294
10774SOL    HW233222   1.898   2.125   0.209
10775SOL     OW33223   0.487   3.775   0.411
10775SOL    HW133224   0.577   3.817   0.404
10775SOL    HW233225   0.458   3.743   0.321
10776SOL     OW33226   0.837   6.315   1.043
10776SOL    HW133227   0.867   6.222   1.022
10776SOL    HW233228   0.845   6.371   0.961
10777SOL     OW33229   3.848   6.964   3.886
10777SOL    HW133230   3.818   0.018   3.947
10777SOL    HW233231   3.926   6.917   3.928
10778SOL     OW33232   5.337   6.745   4.888
10778SOL    HW133233   5.388   6.829   4.904
10778SOL    HW233234   5.242   6.758   4.917
10779SOL     OW33235   6.476   4.548   3.577
10779SOL    HW133236   6.562   4.599   3.585
10779SOL    HW233237   6.494   4.450   3.582
10780SOL     OW33238   1.209   6.813   2.512
10780SOL    HW133239   1.166   6.734   2.556
10780SOL    HW233240   1.296   6.785   2.470
10781SOL     OW33241   4.112   1.581   3.416
10781SOL    HW133242   4.078   1.487   3.423
10781SOL    HW233243   4.041   1.638   3.374
10782SOL     OW33244   6.390   2.455   3.764
10782SOL    HW133245   6.458   2.384   3.782
10782SOL    HW233246   6.298   2.415   3.767
10783SOL     OW33247   1.315   3.171   3.270
10783SOL    HW133248   1.280   3.264   3.255
10783SOL    HW233249   1.345   3.162   3.365
10784SOL     OW33250   2.894   0.155   2.337
10784SOL    HW133251   2.822   0.208   2.382
10784SOL    HW233252   2.876   0.152   2.239
10785SOL     OW33253   0.905   4.998   1.868
10785SOL    HW133254   0.973   4.937   1.908
10785SOL    HW233255   0.881   5.070   1.933
10786SOL     OW33256   5.075   3.348   2.223
10786SOL    HW133257   5.011   3.277   2.195
10786SOL    HW233258   5.055   3.376   2.317
10787SOL     OW33259   3.570   2.014   4.606
10787SOL    HW133260   3.658   2.060   4.618
10787SOL    HW233261   3.575   1.922   4.644
10788SOL     OW33262   2.019   4.815   0.320
10788SOL    HW133263   1.989   4.865   0.238
10788SOL    HW233264   2.015   4.876   0.399
10789SOL     OW33265   6.047   1.897   0.963
10789SOL    HW133266   6.052   1.801   0.936
10789SOL    HW233267   6.016   1.904   1.058
10790SOL     OW33268   0.937   0.924   3.990
10790SOL    HW133269   0.876   0.963   4.059
10790SOL    HW233270   0.951   0.827   4.010
10791SOL     OW33271   0.667   1.025   1.096
10791SOL    HW133272   0.673   1.111   1.045
10791SOL    HW233273   0.677   1.043   1.194
10792SOL     OW33274   3.080   3.281   1.964
10792SOL    HW133275   2.992   3.311   2.001
10792SOL    HW233276   3.074   3.274   1.864
10793SOL     OW33277   5.101   2.608   3.963
10793SOL    HW133278   5.130   2.522   3.920
10793SOL    HW233279   5.092   2.595   4.062
10794SOL     OW33280   3.106   3.951   2.777
10794SOL    HW133281   3.128   3.962   2.680
10794SOL    HW233282   3.174   3.999   2.832
10795SOL     OW33283   6.293   4.013   4.116
10795SOL    HW133284   6.374   4.071   4.121
10795SOL    HW233285   6.239   4.039   4.035
10796SOL     OW33286   4.382   6.061   6.766
10796SOL    HW133287   4.481   6.077   6.755
10796SOL    HW233288   4.357   6.071   6.862
10797SOL     OW33289   4.596   2.217   0.626
10797SOL    HW133290   4.597   2.277   0.546
10797SOL    HW233291   4.522   2.246   0.688
10798SOL     OW33292   2.069   0.075   0.505
10798SOL    HW133293   1.987   0.125   0.476
10798SOL    HW233294   2.125   0.134   0.564
10799SOL     OW33295   3.640   1.436   2.163
10799SOL    HW133296   3.554   1.429   2.215
10799SOL    HW233297   3.619   1.451   2.067
10800SOL     OW33298   1.492   0.197   6.854
10800SOL    HW133299   1.584   0.180   6.887
10800SOL    HW233300   1.437   0.238   6.926
10801SOL     OW33301   0.844   6.937   4.899
10801SOL    HW133302   0.868   6.844   4.926
10801SOL    HW233303   0.765   6.968   4.951
10802SOL     OW33304   2.221   3.170   4.688
10802SOL    HW133305   2.168   3.237   4.636
10802SOL    HW233306   2.254   3.212   4.773
10803SOL     OW33307   4.675   4.386   5.082
10803SOL    HW133308   4.749   4.397   5.148
10803SOL    HW233309   4.703   4.322   5.010
10804SOL     OW33310   6.889   4.147   1.489
10804SOL    HW133311   6.913   4.074   1.425
10804SOL    HW233312   6.971   4.175   1.539
10805SOL     OW33313   3.153   6.783   6.723
10805SOL    HW133314   3.086   6.799   6.795
10805SOL    HW233315   3.173   6.685   6.717
10806SOL     OW33316   5.389   4.434   6.606
10806SOL    HW133317   5.317   4.394   6.663
10806SOL    HW233318   5.445   4.360   6.568
10807SOL     OW33319   3.126   6.812   3.391
10807SOL    HW133320   3.093   6.906   3.378
10807SOL    HW233321   3.056   6.758   3.438
10808SOL     OW33322   6.853   3.680   6.844
10808SOL    HW133323   6.942   3.664   6.885
10808SOL    HW233324   6.841   3.621   6.763
10809SOL     OW33325   2.680   6.933   3.718
10809SOL    HW133326   2.628   6.940   3.803
10809SOL    HW233327   2.617   6.911   3.643
10810SOL     OW33328   1.295   0.729   5.264
10810SOL    HW133329   1.385   0.771   5.273
10810SOL    HW233330   1.305   0.636   5.229
10811SOL     OW33331   4.892   4.781   5.325
10811SOL    HW133332   4.854   4.781   5.417
10811SOL    HW233333   4.907   4.876   5.295
10812SOL     OW33334   0.521   3.425   2.581
10812SOL    HW133335   0.568   3.512   2.593
10812SOL    HW233336   0.424   3.441   2.564
10813SOL     OW33337   1.762   6.038   0.039
10813SOL    HW133338   1.859   6.014   0.025
10813SOL    HW233339   1.748   6.135   0.018
10814SOL     OW33340   1.537   6.846   6.762
10814SOL    HW133341   1.534   6.759   6.713
10814SOL    HW233342   1.533   6.921   6.695
10815SOL     OW33343   5.238   4.952   3.174
10815SOL    HW133344   5.315   4.895   3.145
10815SOL    HW233345   5.186   4.982   3.094
10816SOL     OW33346   1.487   1.831   2.328
10816SOL    HW133347   1.573   1.838   2.379
10816SOL    HW233348   1.423   1.899   2.363
10817SOL     OW33349   5.290   6.926   2.800
10817SOL    HW133350   5.372   6.890   2.755
10817SOL    HW233351   5.210   6.876   2.769
10818SOL     OW33352   4.298   3.890   5.318
10818SOL    HW133353   4.252   3.947   5.386
10818SOL    HW233354   4.381   3.936   5.287
10819SOL     OW33355   6.646   4.645   6.959
10819SOL    HW133356   6.575   4.613   0.003
10819SOL    HW233357   6.698   4.720   7.002
10820SOL     OW33358   6.238   5.978   4.193
10820SOL    HW133359   6.149   5.947   4.159
10820SOL    HW233360   6.288   6.025   4.120
10821SOL     OW33361   5.254   6.496   1.714
10821SOL    HW133362   5.183   6.438   1.674
10821SOL    HW233363   5.245   6.496   1.814
10822SOL     OW33364   1.015   2.640   3.160
10822SOL    HW133365   1.027   2.642   3.061
10822SOL    HW233366   0.963   2.558   3.185
10823SOL     OW33367   1.382   5.131   1.899
10823SOL    HW133368   1.433   5.090   1.823
10823SOL    HW233369   1.324   5.204   1.864
10824SOL     OW33370   4.540   6.956   4.375
10824SOL    HW133371   4.474   6.881   4.365
10824SOL    HW233372   4.565   6.990   4.284
10825SOL     OW33373   2.690   0.597   6.963
10825SOL    HW133374   2.626   0.520   6.961
10825SOL    HW233375   2.780   0.565   6.992
10826SOL     OW33376   0.618   3.695   4.282
10826SOL    HW133377   0.713   3.693   4.312
10826SOL    HW233378   0.559   3.723   4.357
10827SOL     OW33379   5.511   3.982   4.890
10827SOL    HW133380   5.457   3.947   4.966
10827SOL    HW233381   5.450   4.023   4.822
10828SOL     OW33382   1.013   5.754   2.522
10828SOL    HW133383   0.938   5.688   2.515
10828SOL    HW233384   1.042   5.780   2.430
10829SOL     OW33385   3.475   2.496   0.279
10829SOL    HW133386   3.459   2.575   0.339
10829SOL    HW233387   3.391   2.476   0.228
10830SOL     OW33388   5.017   2.080   3.270
10830SOL    HW133389   5.115   2.088   3.289
10830SOL    HW233390   4.992   2.139   3.193
10831SOL     OW33391   3.668   6.090   1.950
10831SOL    HW133392   3.653   6.104   1.852
10831SOL    HW233393   3.603   6.022   1.984
10832SOL     OW33394   0.474   1.917   0.790
10832SOL    HW133395   0.473   1.817   0.789
10832SOL    HW233396   0.515   1.951   0.705
10833SOL     OW33397   1.547   0.529   3.837
10833SOL    HW133398   1.522   0.532   3.933
10833SOL    HW233399   1.566   0.435   3.810
10834SOL     OW33400   1.435   1.871   6.156
10834SOL    HW133401   1.380   1.842   6.234
10834SOL    HW233402   1.377   1.921   6.091
10835SOL     OW33403   6.044   1.765   1.224
10835SOL    HW133404   6.012   1.691   1.284
10835SOL    HW233405   6.138   1.746   1.196
10836SOL     OW33406   6.343   1.527   5.007
10836SOL    HW133407   6.324   1.614   5.053
10836SOL    HW233408   6.275   1.512   4.936
10837SOL     OW33409   0.724   5.041   0.479
10837SOL    HW133410   0.718   5.092   0.393
10837SOL    HW233411   0.807   5.069   0.528
10838SOL     OW33412   5.760   6.425   4.675
10838SOL    HW133413   5.816   6.504   4.649
10838SOL    HW233414   5.696   6.453   4.747
10839SOL     OW33415   3.230   2.957   0.308
10839SOL    HW133416   3.130   2.958   0.312
10839SOL    HW233417   3.262   2.862   0.301
10840SOL     OW33418   4.201   5.860   1.416
10840SOL    HW133419   4.122   5.803   1.394
10840SOL    HW233420   4.171   5.952   1.441
10841SOL     OW33421   3.577   6.575   6.694
10841SOL    HW133422   3.526   6.578   6.780
10841SOL    HW233423   3.551   6.493   6.643
10842SOL     OW33424   5.818   2.985   1.234
10842SOL    HW133425   5.747   2.962   1.166
10842SOL    HW233426   5.781   3.054   1.297
10843SOL     OW33427   0.791   2.018   1.969
10843SOL    HW133428   0.758   2.111   1.952
10843SOL    HW233429   0.713   1.955   1.967
10844SOL     OW33430   0.682   6.705   3.952
10844SOL    HW133431   0.590   6.713   3.991
10844SOL    HW233432   0.720   6.796   3.939
10845SOL     OW33433   2.795   0.719   0.148
10845SOL    HW133434   2.761   0.728   0.055
10845SOL    HW233435   2.895   0.710   0.147
10846SOL     OW33436   4.929   3.074   0.964
10846SOL    HW133437   4.991   2.996   0.966
10846SOL    HW233438   4.959   3.142   1.031
10847SOL     OW33439   3.322   2.131   6.390
10847SOL    HW133440   3.331   2.205   6.456
10847SOL    HW233441   3.284   2.167   6.305
10848SOL     OW33442   3.237   2.253   6.166
10848SOL    HW133443   3.249   2.216   6.074
10848SOL    HW233444   3.272   2.347   6.169
10849SOL     OW33445   2.968   4.852   3.276
10849SOL    HW133446   3.004   4.913   3.346
10849SOL    HW233447   2.914   4.780   3.319
10850SOL     OW33448   4.691   6.409   6.754
10850SOL    HW133449   4.679   6.494   6.702
10850SOL    HW233450   4.692   6.331   6.691
10851SOL     OW33451   2.659   3.052   6.400
10851SOL    HW133452   2.685   3.119   6.470
10851SOL    HW233453   2.645   2.963   6.443
10852SOL     OW33454   0.222   6.612   6.005
10852SOL    HW133455   0.308   6.644   6.046
10852SOL    HW233456   0.156   6.593   6.078
10853SOL     OW33457   3.549   1.975   5.662
10853SOL    HW133458   3.638   1.993   5.621
10853SOL    HW233459   3.508   2.061   5.693
10854SOL     OW33460   5.925   6.849   5.364
10854SOL    HW133461   5.899   6.793   5.443
10854SOL    HW233462   5.961   6.936   5.396
10855SOL     OW33463   2.903   6.456   2.180
10855SOL    HW133464   2.862   6.429   2.093
10855SOL    HW233465   2.979   6.519   2.163
10856SOL     OW33466   5.858   1.600   2.505
10856SOL    HW133467   5.773   1.597   2.559
10856SOL    HW233468   5.910   1.681   2.530
10857SOL     OW33469   5.286   3.188   3.911
10857SOL    HW133470   5.333   3.274   3.893
10857SOL    HW233471   5.352   3.113   3.918
10858SOL     OW33472   1.164   2.673   6.305
10858SOL    HW133473   1.170   2.710   6.213
10858SOL    HW233474   1.140   2.746   6.369
10859SOL     OW33475   2.238   4.177   3.965
10859SOL    HW133476   2.217   4.222   4.052
10859SOL    HW233477   2.165   4.113   3.942
10860SOL     OW33478   6.615   1.202   5.840
10860SOL    HW133479   6.705   1.181   5.877
10860SOL    HW233480   6.583   1.124   5.785
10861SOL     OW33481   3.994   3.126   2.543
10861SOL    HW133482   4.017   3.093   2.635
10861SOL    HW233483   3.930   3.203   2.551
10862SOL     OW33484   2.518   1.468   6.770
10862SOL    HW133485   2.517   1.532   6.847
10862SOL    HW233486   2.610   1.464   6.731
10863SOL     OW33487   3.946   0.291   2.135
10863SOL    HW133488   3.918   0.200   2.104
10863SOL    HW233489   4.036   0.285   2.179
10864SOL     OW33490   2.663   4.904   1.017
10864SOL    HW133491   2.618   4.872   0.933
10864SOL    HW233492   2.744   4.957   0.994
10865SOL     OW33493   5.450   1.774   3.844
10865SOL    HW133494   5.387   1.824   3.784
10865SOL    HW233495   5.518   1.726   3.788
10866SOL     OW33496   5.649   5.096   1.193
10866SOL    HW133497   5.694   5.182   1.167
10866SOL    HW233498   5.555   5.114   1.220
10867SOL     OW33499   3.180   4.087   0.647
10867SOL    HW133500   3.163   4.092   0.745
10867SOL    HW233501   3.094   4.094   0.598
10868SOL     OW33502   1.886   1.819   3.492
10868SOL    HW133503   1.903   1.784   3.584
10868SOL    HW233504   1.915   1.915   3.486
10869NA      NA33505   0.454   2.287   6.182
10870NA      NA33506   4.525   4.567   5.128
10871NA      NA33507   2.243   4.364   2.280
10872NA      NA33508   4.802   4.204   3.664
10873NA      NA33509   4.354   2.384   5.219
10874NA      NA33510   3.374   4.279   1.557
10875NA      NA33511   0.822   4.558   0.285
10876NA      NA33512   3.961   3.697   2.087
10877NA      NA33513   5.055   4.617   0.883
10878NA      NA33514   3.655   0.226   5.409
10879NA      NA33515   6.147   5.521   1.072
10880NA      NA33516   1.847   0.952   5.338
10881NA      NA33517   4.586   4.739   1.843
10882NA      NA33518   3.889   2.764   1.385
   7.01985   7.01985   7.01985
