Generated by trjconv : CNT in water t=   6.00000
33518
    1C        C    1   2.846   2.774   4.750
    1C        C    2   2.897   2.720   4.870
    1C        C    3   2.836   2.766   4.987
    1C        C    4   2.856   2.780   4.260
    1C        C    5   2.902   2.729   4.384
    1C        C    6   2.850   2.774   4.507
    1C        C    7   3.013   2.640   4.626
    1C        C    8   2.900   2.725   4.629
    1C        C    9   3.074   2.604   4.748
    1C        C   10   3.009   2.633   4.869
    1C        C   11   3.181   2.492   4.973
    1C        C   12   3.062   2.566   4.980
    1C        C   13   2.850   2.770   3.774
    1C        C   14   2.902   2.725   3.897
    1C        C   15   2.854   2.781   4.017
    1C        C   16   3.021   2.647   4.139
    1C        C   17   2.907   2.731   4.138
    1C        C   18   3.081   2.615   4.263
    1C        C   19   3.018   2.648   4.385
    1C        C   20   3.214   2.562   4.505
    1C        C   21   3.080   2.608   4.505
    1C        C   22   3.280   2.542   4.628
    1C        C   23   3.206   2.550   4.748
    1C        C   24   3.415   2.484   4.868
    1C        C   25   3.273   2.501   4.863
    1C        C   26   3.491   2.476   4.986
    1C        C   27   2.849   2.771   3.284
    1C        C   28   2.906   2.724   3.405
    1C        C   29   2.854   2.777   3.526
    1C        C   30   3.016   2.644   3.653
    1C        C   31   2.903   2.728   3.649
    1C        C   32   3.080   2.609   3.774
    1C        C   33   3.017   2.642   3.896
    1C        C   34   3.210   2.553   4.020
    1C        C   35   3.080   2.607   4.017
    1C        C   36   3.279   2.536   4.142
    1C        C   37   3.210   2.559   4.263
    1C        C   38   3.419   2.508   4.384
    1C        C   39   3.281   2.538   4.383
    1C        C   40   3.489   2.498   4.507
    1C        C   41   3.416   2.504   4.628
    1C        C   42   3.631   2.486   4.750
    1C        C   43   3.489   2.484   4.747
    1C        C   44   3.709   2.484   4.868
    1C        C   45   3.630   2.481   4.984
    1C        C   46   2.838   2.757   2.796
    1C        C   47   2.897   2.711   2.916
    1C        C   48   2.847   2.761   3.039
    1C        C   49   3.016   2.639   3.163
    1C        C   50   2.901   2.721   3.163
    1C        C   51   3.084   2.611   3.284
    1C        C   52   3.023   2.645   3.406
    1C        C   53   3.207   2.550   3.532
    1C        C   54   3.079   2.609   3.531
    1C        C   55   3.279   2.527   3.651
    1C        C   56   3.209   2.550   3.771
    1C        C   57   3.413   2.508   3.896
    1C        C   58   3.274   2.533   3.895
    1C        C   59   3.487   2.500   4.016
    1C        C   60   3.418   2.507   4.139
    1C        C   61   3.629   2.500   4.262
    1C        C   62   3.488   2.500   4.261
    1C        C   63   3.702   2.500   4.383
    1C        C   64   3.630   2.502   4.504
    1C        C   65   3.834   2.548   4.622
    1C        C   66   3.699   2.508   4.628
    1C        C   67   3.906   2.563   4.742
    1C        C   68   3.843   2.526   4.863
    1C        C   69   4.053   2.590   4.978
    1C        C   70   3.925   2.532   4.977
    1C        C   71   2.833   2.742   2.310
    1C        C   72   2.885   2.697   2.433
    1C        C   73   2.837   2.749   2.556
    1C        C   74   3.010   2.626   2.673
    1C        C   75   2.892   2.703   2.677
    1C        C   76   3.076   2.597   2.795
    1C        C   77   3.015   2.634   2.917
    1C        C   78   3.208   2.550   3.039
    1C        C   79   3.076   2.601   3.041
    1C        C   80   3.276   2.533   3.162
    1C        C   81   3.213   2.554   3.286
    1C        C   82   3.413   2.497   3.402
    1C        C   83   3.275   2.525   3.410
    1C        C   84   3.484   2.493   3.524
    1C        C   85   3.419   2.506   3.649
    1C        C   86   3.625   2.503   3.771
    1C        C   87   3.484   2.498   3.774
    1C        C   88   3.695   2.519   3.893
    1C        C   89   3.628   2.510   4.017
    1C        C   90   3.835   2.551   4.137
    1C        C   91   3.698   2.516   4.140
    1C        C   92   3.903   2.573   4.259
    1C        C   93   3.837   2.543   4.381
    1C        C   94   4.030   2.636   4.501
    1C        C   95   3.904   2.571   4.501
    1C        C   96   4.092   2.676   4.621
    1C        C   97   4.031   2.632   4.740
    1C        C   98   4.192   2.768   4.860
    1C        C   99   4.100   2.658   4.861
    1C        C  100   4.212   2.845   4.975
    1C        C  101   2.820   2.728   2.075
    1C        C  102   2.992   2.592   2.191
    1C        C  103   2.877   2.677   2.192
    1C        C  104   3.062   2.570   2.312
    1C        C  105   3.002   2.617   2.431
    1C        C  106   3.201   2.533   2.550
    1C        C  107   3.071   2.591   2.551
    1C        C  108   3.270   2.518   2.672
    1C        C  109   3.205   2.541   2.795
    1C        C  110   3.413   2.500   2.916
    1C        C  111   3.274   2.523   2.917
    1C        C  112   3.482   2.497   3.039
    1C        C  113   3.413   2.498   3.163
    1C        C  114   3.629   2.495   3.281
    1C        C  115   3.488   2.489   3.283
    1C        C  116   3.694   2.512   3.405
    1C        C  117   3.626   2.499   3.528
    1C        C  118   3.833   2.551   3.649
    1C        C  119   3.697   2.511   3.650
    1C        C  120   3.902   2.573   3.770
    1C        C  121   3.833   2.551   3.892
    1C        C  122   4.025   2.640   4.014
    1C        C  123   3.899   2.575   4.014
    1C        C  124   4.088   2.680   4.134
    1C        C  125   4.028   2.638   4.255
    1C        C  126   4.197   2.763   4.377
    1C        C  127   4.090   2.671   4.378
    1C        C  128   4.249   2.822   4.494
    1C        C  129   4.202   2.765   4.615
    1C        C  130   4.331   2.932   4.740
    1C        C  131   4.246   2.818   4.738
    1C        C  132   4.360   3.001   4.860
    1C        C  133   4.289   2.961   4.974
    1C        C  134   3.177   2.472   2.083
    1C        C  135   3.043   2.514   2.082
    1C        C  136   3.264   2.484   2.192
    1C        C  137   3.195   2.519   2.310
    1C        C  138   3.408   2.479   2.429
    1C        C  139   3.269   2.505   2.429
    1C        C  140   3.481   2.489   2.549
    1C        C  141   3.410   2.496   2.671
    1C        C  142   3.623   2.496   2.794
    1C        C  143   3.482   2.489   2.793
    1C        C  144   3.697   2.502   2.914
    1C        C  145   3.623   2.493   3.034
    1C        C  146   3.831   2.536   3.159
    1C        C  147   3.694   2.501   3.156
    1C        C  148   3.898   2.566   3.280
    1C        C  149   3.831   2.547   3.402
    1C        C  150   4.027   2.628   3.524
    1C        C  151   3.896   2.574   3.525
    1C        C  152   4.087   2.669   3.645
    1C        C  153   4.026   2.639   3.770
    1C        C  154   4.195   2.766   3.885
    1C        C  155   4.087   2.675   3.892
    1C        C  156   4.240   2.812   4.011
    1C        C  157   4.202   2.763   4.138
    1C        C  158   4.340   2.927   4.249
    1C        C  159   4.256   2.814   4.259
    1C        C  160   4.372   2.987   4.373
    1C        C  161   4.330   2.938   4.498
    1C        C  162   4.440   3.119   4.616
    1C        C  163   4.368   2.998   4.621
    1C        C  164   4.469   3.185   4.737
    1C        C  165   4.435   3.120   4.858
    1C        C  166   4.512   3.323   4.975
    1C        C  167   4.480   3.188   4.973
    1C        C  168   3.479   2.445   2.072
    1C        C  169   3.404   2.461   2.189
    1C        C  170   3.621   2.463   2.308
    1C        C  171   3.479   2.459   2.309
    1C        C  172   3.695   2.484   2.427
    1C        C  173   3.622   2.485   2.547
    1C        C  174   3.826   2.540   2.666
    1C        C  175   3.690   2.502   2.670
    1C        C  176   3.894   2.565   2.788
    1C        C  177   3.831   2.548   2.913
    1C        C  178   4.021   2.631   3.032
    1C        C  179   3.897   2.564   3.037
    1C        C  180   4.079   2.669   3.155
    1C        C  181   4.023   2.632   3.279
    1C        C  182   4.196   2.754   3.399
    1C        C  183   4.086   2.666   3.401
    1C        C  184   4.251   2.803   3.520
    1C        C  185   4.200   2.754   3.642
    1C        C  186   4.339   2.919   3.769
    1C        C  187   4.246   2.813   3.762
    1C        C  188   4.380   2.980   3.890
    1C        C  189   4.332   2.919   4.008
    1C        C  190   4.447   3.106   4.133
    1C        C  191   4.381   2.982   4.125
    1C        C  192   4.472   3.179   4.252
    1C        C  193   4.443   3.109   4.372
    1C        C  194   4.505   3.317   4.494
    1C        C  195   4.470   3.180   4.492
    1C        C  196   4.521   3.390   4.614
    1C        C  197   4.512   3.320   4.736
    1C        C  198   4.552   3.537   4.853
    1C        C  199   4.528   3.395   4.856
    1C        C  200   4.587   3.619   4.964
    1C        C  201   3.617   2.422   2.076
    1C        C  202   3.831   2.512   2.184
    1C        C  203   3.698   2.458   2.189
    1C        C  204   3.900   2.541   2.305
    1C        C  205   3.832   2.519   2.426
    1C        C  206   4.023   2.622   2.545
    1C        C  207   3.897   2.558   2.546
    1C        C  208   4.081   2.659   2.668
    1C        C  209   4.021   2.625   2.792
    1C        C  210   4.201   2.745   2.911
    1C        C  211   4.088   2.660   2.911
    1C        C  212   4.253   2.795   3.032
    1C        C  213   4.196   2.749   3.153
    1C        C  214   4.334   2.910   3.275
    1C        C  215   4.245   2.801   3.275
    1C        C  216   4.377   2.972   3.395
    1C        C  217   4.336   2.915   3.518
    1C        C  218   4.435   3.098   3.638
    1C        C  219   4.375   2.970   3.642
    1C        C  220   4.468   3.167   3.757
    1C        C  221   4.445   3.105   3.882
    1C        C  222   4.506   3.303   4.002
    1C        C  223   4.471   3.166   4.007
    1C        C  224   4.519   3.379   4.120
    1C        C  225   4.506   3.316   4.246
    1C        C  226   4.517   3.524   4.366
    1C        C  227   4.516   3.383   4.370
    1C        C  228   4.521   3.598   4.486
    1C        C  229   4.535   3.531   4.609
    1C        C  230   4.505   3.744   4.728
    1C        C  231   4.537   3.605   4.729
    1C        C  232   4.497   3.820   4.847
    1C        C  233   4.549   3.754   4.959
    1C        C  234   4.022   2.610   2.063
    1C        C  235   3.899   2.545   2.066
    1C        C  236   4.085   2.654   2.180
    1C        C  237   4.025   2.609   2.299
    1C        C  238   4.191   2.744   2.422
    1C        C  239   4.080   2.657   2.421
    1C        C  240   4.249   2.790   2.543
    1C        C  241   4.194   2.745   2.665
    1C        C  242   4.336   2.903   2.787
    1C        C  243   4.250   2.791   2.786
    1C        C  244   4.374   2.967   2.907
    1C        C  245   4.340   2.906   3.030
    1C        C  246   4.437   3.093   3.153
    1C        C  247   4.377   2.966   3.153
    1C        C  248   4.463   3.163   3.273
    1C        C  249   4.433   3.102   3.397
    1C        C  250   4.497   3.305   3.516
    1C        C  251   4.458   3.169   3.518
    1C        C  252   4.513   3.372   3.640
    1C        C  253   4.499   3.304   3.763
    1C        C  254   4.526   3.518   3.881
    1C        C  255   4.519   3.377   3.883
    1C        C  256   4.522   3.589   4.003
    1C        C  257   4.528   3.520   4.127
    1C        C  258   4.498   3.736   4.246
    1C        C  259   4.521   3.597   4.245
    1C        C  260   4.472   3.807   4.365
    1C        C  261   4.487   3.736   4.486
    1C        C  262   4.425   3.941   4.608
    1C        C  263   4.478   3.810   4.606
    1C        C  264   4.400   4.011   4.727
    1C        C  265   4.439   3.949   4.848
    1C        C  266   4.323   4.137   4.963
    1C        C  267   4.399   4.021   4.961
    1C        C  268   4.267   2.779   2.066
    1C        C  269   4.201   2.734   2.181
    1C        C  270   4.348   2.891   2.300
    1C        C  271   4.253   2.785   2.302
    1C        C  272   4.386   2.951   2.422
    1C        C  273   4.346   2.893   2.544
    1C        C  274   4.448   3.082   2.662
    1C        C  275   4.381   2.958   2.664
    1C        C  276   4.471   3.152   2.783
    1C        C  277   4.440   3.092   2.907
    1C        C  278   4.499   3.295   3.025
    1C        C  279   4.462   3.158   3.030
    1C        C  280   4.514   3.366   3.147
    1C        C  281   4.497   3.300   3.271
    1C        C  282   4.513   3.513   3.392
    1C        C  283   4.505   3.372   3.392
    1C        C  284   4.519   3.584   3.514
    1C        C  285   4.523   3.513   3.636
    1C        C  286   4.496   3.725   3.753
    1C        C  287   4.521   3.586   3.757
    1C        C  288   4.478   3.792   3.875
    1C        C  289   4.495   3.728   4.000
    1C        C  290   4.428   3.931   4.118
    1C        C  291   4.480   3.799   4.121
    1C        C  292   4.399   4.000   4.237
    1C        C  293   4.429   3.942   4.363
    1C        C  294   4.328   4.128   4.480
    1C        C  295   4.400   4.006   4.485
    1C        C  296   4.288   4.191   4.600
    1C        C  297   4.325   4.132   4.723
    1C        C  298   4.202   4.316   4.840
    1C        C  299   4.286   4.199   4.843
    1C        C  300   4.174   4.406   4.947
    1C        C  301   4.359   2.882   2.066
    1C        C  302   4.476   3.071   2.180
    1C        C  303   4.402   2.949   2.181
    1C        C  304   4.486   3.144   2.302
    1C        C  305   4.449   3.077   2.422
    1C        C  306   4.514   3.285   2.541
    1C        C  307   4.475   3.149   2.541
    1C        C  308   4.523   3.359   2.660
    1C        C  309   4.504   3.289   2.782
    1C        C  310   4.526   3.503   2.902
    1C        C  311   4.513   3.363   2.902
    1C        C  312   4.516   3.574   3.024
    1C        C  313   4.519   3.507   3.148
    1C        C  314   4.491   3.720   3.266
    1C        C  315   4.516   3.581   3.268
    1C        C  316   4.473   3.789   3.388
    1C        C  317   4.490   3.723   3.511
    1C        C  318   4.425   3.927   3.631
    1C        C  319   4.472   3.794   3.632
    1C        C  320   4.396   3.989   3.754
    1C        C  321   4.424   3.923   3.876
    1C        C  322   4.320   4.113   3.994
    1C        C  323   4.391   3.991   3.995
    1C        C  324   4.279   4.174   4.115
    1C        C  325   4.320   4.118   4.238
    1C        C  326   4.186   4.286   4.356
    1C        C  327   4.279   4.180   4.358
    1C        C  328   4.136   4.338   4.478
    1C        C  329   4.194   4.296   4.600
    1C        C  330   4.026   4.439   4.716
    1C        C  331   4.141   4.354   4.717
    1C        C  332   3.970   4.490   4.835
    1C        C  333   4.055   4.480   4.946
    1C        C  334   4.555   3.273   2.065
    1C        C  335   4.540   3.134   2.069
    1C        C  336   4.539   3.354   2.179
    1C        C  337   4.521   3.282   2.299
    1C        C  338   4.528   3.497   2.415
    1C        C  339   4.522   3.356   2.419
    1C        C  340   4.521   3.572   2.534
    1C        C  341   4.525   3.500   2.655
    1C        C  342   4.490   3.708   2.778
    1C        C  343   4.522   3.571   2.778
    1C        C  344   4.473   3.783   2.896
    1C        C  345   4.493   3.714   3.018
    1C        C  346   4.427   3.915   3.142
    1C        C  347   4.475   3.783   3.140
    1C        C  348   4.396   3.986   3.260
    1C        C  349   4.425   3.922   3.382
    1C        C  350   4.318   4.102   3.506
    1C        C  351   4.397   3.985   3.505
    1C        C  352   4.273   4.161   3.627
    1C        C  353   4.322   4.110   3.749
    1C        C  354   4.181   4.269   3.870
    1C        C  355   4.279   4.167   3.870
    1C        C  356   4.121   4.316   3.989
    1C        C  357   4.180   4.274   4.110
    1C        C  358   4.014   4.404   4.232
    1C        C  359   4.132   4.326   4.232
    1C        C  360   3.951   4.443   4.353
    1C        C  361   4.018   4.416   4.474
    1C        C  362   3.828   4.513   4.596
    1C        C  363   3.959   4.461   4.594
    1C        C  364   3.763   4.551   4.716
    1C        C  365   3.840   4.545   4.834
    1C        C  366   3.633   4.590   4.954
    1C        C  367   3.771   4.574   4.953
    1C        C  368   4.515   3.568   2.057
    1C        C  369   4.529   3.495   2.175
    1C        C  370   4.500   3.709   2.287
    1C        C  371   4.525   3.570   2.294
    1C        C  372   4.478   3.777   2.408
    1C        C  373   4.495   3.711   2.532
    1C        C  374   4.430   3.910   2.650
    1C        C  375   4.480   3.778   2.656
    1C        C  376   4.402   3.977   2.771
    1C        C  377   4.430   3.918   2.897
    1C        C  378   4.317   4.096   3.015
    1C        C  379   4.395   3.979   3.019
    1C        C  380   4.275   4.154   3.137
    1C        C  381   4.320   4.106   3.262
    1C        C  382   4.179   4.263   3.379
    1C        C  383   4.276   4.160   3.385
    1C        C  384   4.125   4.312   3.500
    1C        C  385   4.175   4.263   3.623
    1C        C  386   4.009   4.391   3.742
    1C        C  387   4.125   4.311   3.747
    1C        C  388   3.946   4.427   3.863
    1C        C  389   4.005   4.397   3.987
    1C        C  390   3.821   4.493   4.108
    1C        C  391   3.952   4.441   4.111
    1C        C  392   3.754   4.516   4.231
    1C        C  393   3.822   4.500   4.354
    1C        C  394   3.619   4.556   4.476
    1C        C  395   3.758   4.533   4.475
    1C        C  396   3.549   4.563   4.598
    1C        C  397   3.623   4.568   4.718
    1C        C  398   3.414   4.553   4.838
    1C        C  399   3.552   4.580   4.840
    1C        C  400   3.345   4.522   4.956
    1C        C  401   4.505   3.707   2.055
    1C        C  402   4.455   3.923   2.169
    1C        C  403   4.495   3.788   2.169
    1C        C  404   4.413   3.984   2.289
    1C        C  405   4.436   3.912   2.408
    1C        C  406   4.334   4.101   2.526
    1C        C  407   4.404   3.978   2.529
    1C        C  408   4.283   4.152   2.648
    1C        C  409   4.323   4.094   2.770
    1C        C  410   4.176   4.249   2.890
    1C        C  411   4.279   4.152   2.891
    1C        C  412   4.118   4.294   3.010
    1C        C  413   4.171   4.251   3.133
    1C        C  414   4.005   4.379   3.255
    1C        C  415   4.124   4.304   3.255
    1C        C  416   3.944   4.417   3.377
    1C        C  417   4.008   4.390   3.500
    1C        C  418   3.815   4.480   3.623
    1C        C  419   3.947   4.430   3.621
    1C        C  420   3.747   4.503   3.744
    1C        C  421   3.815   4.479   3.866
    1C        C  422   3.611   4.539   3.990
    1C        C  423   3.749   4.506   3.988
    1C        C  424   3.542   4.545   4.113
    1C        C  425   3.615   4.539   4.233
    1C        C  426   3.404   4.549   4.358
    1C        C  427   3.545   4.554   4.355
    1C        C  428   3.332   4.547   4.480
    1C        C  429   3.408   4.557   4.599
    1C        C  430   3.196   4.518   4.723
    1C        C  431   3.336   4.545   4.720
    1C        C  432   3.127   4.500   4.846
    1C        C  433   3.208   4.496   4.960
    1C        C  434   4.388   4.127   2.048
    1C        C  435   4.449   4.001   2.052
    1C        C  436   4.306   4.165   2.158
    1C        C  437   4.331   4.101   2.282
    1C        C  438   4.185   4.252   2.404
    1C        C  439   4.287   4.155   2.405
    1C        C  440   4.128   4.297   2.525
    1C        C  441   4.185   4.254   2.647
    1C        C  442   4.010   4.379   2.765
    1C        C  443   4.128   4.301   2.768
    1C        C  444   3.948   4.413   2.887
    1C        C  445   4.004   4.378   3.012
    1C        C  446   3.812   4.471   3.130
    1C        C  447   3.941   4.413   3.134
    1C        C  448   3.751   4.500   3.254
    1C        C  449   3.815   4.474   3.377
    1C        C  450   3.611   4.532   3.498
    1C        C  451   3.748   4.498   3.499
    1C        C  452   3.542   4.543   3.620
    1C        C  453   3.610   4.539   3.744
    1C        C  454   3.401   4.543   3.867
    1C        C  455   3.542   4.550   3.867
    1C        C  456   3.333   4.527   3.990
    1C        C  457   3.400   4.540   4.113
    1C        C  458   3.194   4.512   4.236
    1C        C  459   3.332   4.540   4.237
    1C        C  460   3.128   4.486   4.358
    1C        C  461   3.195   4.515   4.480
    1C        C  462   2.998   4.439   4.604
    1C        C  463   3.127   4.495   4.602
    1C        C  464   2.932   4.405   4.725
    1C        C  465   2.993   4.450   4.846
    1C        C  466   2.801   4.342   4.962
    1C        C  467   2.909   4.431   4.960
    1C        C  468   4.132   4.298   2.044
    1C        C  469   4.194   4.255   2.162
    1C        C  470   4.010   4.374   2.282
    1C        C  471   4.131   4.299   2.282
    1C        C  472   3.943   4.401   2.403
    1C        C  473   4.009   4.372   2.525
    1C        C  474   3.815   4.468   2.646
    1C        C  475   3.945   4.413   2.644
    1C        C  476   3.747   4.496   2.767
    1C        C  477   3.817   4.465   2.886
    1C        C  478   3.608   4.516   3.011
    1C        C  479   3.746   4.488   3.006
    1C        C  480   3.538   4.529   3.133
    1C        C  481   3.612   4.527   3.254
    1C        C  482   3.399   4.532   3.377
    1C        C  483   3.540   4.537   3.375
    1C        C  484   3.331   4.526   3.501
    1C        C  485   3.400   4.541   3.623
    1C        C  486   3.193   4.502   3.747
    1C        C  487   3.329   4.537   3.745
    1C        C  488   3.130   4.476   3.871
    1C        C  489   3.195   4.497   3.995
    1C        C  490   3.000   4.418   4.117
    1C        C  491   3.124   4.485   4.116
    1C        C  492   2.940   4.387   4.241
    1C        C  493   3.000   4.427   4.363
    1C        C  494   2.828   4.304   4.485
    1C        C  495   2.936   4.396   4.485
    1C        C  496   2.774   4.258   4.607
    1C        C  497   2.822   4.315   4.727
    1C        C  498   2.662   4.172   4.847
    1C        C  499   2.754   4.280   4.846
    1C        C  500   2.596   4.120   4.959
    1C        C  501   4.005   4.354   2.042
    1C        C  502   3.817   4.459   2.158
    1C        C  503   3.946   4.403   2.159
    1C        C  504   3.745   4.479   2.278
    1C        C  505   3.810   4.450   2.399
    1C        C  506   3.610   4.507   2.520
    1C        C  507   3.748   4.480   2.523
    1C        C  508   3.538   4.519   2.641
    1C        C  509   3.608   4.520   2.764
    1C        C  510   3.399   4.528   2.887
    1C        C  511   3.540   4.527   2.888
    1C        C  512   3.328   4.518   3.009
    1C        C  513   3.397   4.532   3.131
    1C        C  514   3.192   4.495   3.256
    1C        C  515   3.328   4.533   3.255
    1C        C  516   3.129   4.470   3.379
    1C        C  517   3.193   4.496   3.502
    1C        C  518   2.997   4.419   3.627
    1C        C  519   3.125   4.479   3.625
    1C        C  520   2.940   4.378   3.750
    1C        C  521   3.003   4.414   3.871
    1C        C  522   2.836   4.285   3.997
    1C        C  523   2.946   4.374   3.994
    1C        C  524   2.787   4.239   4.121
    1C        C  525   2.832   4.297   4.242
    1C        C  526   2.695   4.136   4.367
    1C        C  527   2.780   4.249   4.364
    1C        C  528   2.654   4.080   4.490
    1C        C  529   2.690   4.145   4.610
    1C        C  530   2.585   3.963   4.734
    1C        C  531   2.637   4.096   4.731
    1C        C  532   2.548   3.900   4.855
    1C        C  533   2.537   3.993   4.963
    1C        C  534   3.617   4.545   2.042
    1C        C  535   3.751   4.503   2.042
    1C        C  536   3.536   4.533   2.159
    1C        C  537   3.606   4.511   2.280
    1C        C  538   3.393   4.516   2.401
    1C        C  539   3.534   4.516   2.401
    1C        C  540   3.324   4.508   2.525
    1C        C  541   3.396   4.517   2.646
    1C        C  542   3.188   4.480   2.769
    1C        C  543   3.326   4.510   2.768
    1C        C  544   3.121   4.463   2.893
    1C        C  545   3.190   4.488   3.014
    1C        C  546   2.998   4.402   3.137
    1C        C  547   3.121   4.471   3.136
    1C        C  548   2.943   4.364   3.261
    1C        C  549   3.002   4.407   3.382
    1C        C  550   2.835   4.282   3.508
    1C        C  551   2.939   4.379   3.505
    1C        C  552   2.783   4.233   3.629
    1C        C  553   2.833   4.286   3.751
    1C        C  554   2.698   4.125   3.876
    1C        C  555   2.789   4.234   3.874
    1C        C  556   2.659   4.068   3.999
    1C        C  557   2.703   4.125   4.120
    1C        C  558   2.599   3.946   4.249
    1C        C  559   2.664   4.071   4.245
    1C        C  560   2.576   3.881   4.372
    1C        C  561   2.598   3.950   4.493
    1C        C  562   2.529   3.752   4.619
    1C        C  563   2.565   3.889   4.616
    1C        C  564   2.519   3.682   4.741
    1C        C  565   2.524   3.759   4.860
    1C        C  566   2.532   3.545   4.980
    1C        C  567   2.525   3.683   4.978
    1C        C  568   3.327   4.472   2.043
    1C        C  569   3.395   4.517   2.158
    1C        C  570   3.184   4.473   2.281
    1C        C  571   3.321   4.512   2.280
    1C        C  572   3.115   4.461   2.404
    1C        C  573   3.186   4.482   2.524
    1C        C  574   2.989   4.405   2.648
    1C        C  575   3.119   4.461   2.647
    1C        C  576   2.935   4.359   2.770
    1C        C  577   2.997   4.396   2.892
    1C        C  578   2.829   4.272   3.017
    1C        C  579   2.938   4.361   3.015
    1C        C  580   2.783   4.221   3.141
    1C        C  581   2.837   4.270   3.262
    1C        C  582   2.696   4.119   3.386
    1C        C  583   2.789   4.225   3.387
    1C        C  584   2.662   4.060   3.510
    1C        C  585   2.703   4.117   3.633
    1C        C  586   2.595   3.937   3.758
    1C        C  587   2.661   4.062   3.756
    1C        C  588   2.574   3.872   3.882
    1C        C  589   2.600   3.939   4.004
    1C        C  590   2.533   3.742   4.130
    1C        C  591   2.574   3.877   4.128
    1C        C  592   2.524   3.674   4.254
    1C        C  593   2.538   3.745   4.375
    1C        C  594   2.515   3.536   4.502
    1C        C  595   2.525   3.677   4.499
    1C        C  596   2.520   3.465   4.623
    1C        C  597   2.521   3.540   4.743
    1C        C  598   2.533   3.326   4.863
    1C        C  599   2.538   3.467   4.863
    1C        C  600   2.539   3.251   4.981
    1C        C  601   3.195   4.434   2.045
    1C        C  602   2.980   4.397   2.162
    1C        C  603   3.116   4.442   2.161
    1C        C  604   2.921   4.366   2.287
    1C        C  605   2.986   4.403   2.407
    1C        C  606   2.817   4.274   2.529
    1C        C  607   2.924   4.366   2.529
    1C        C  608   2.771   4.225   2.653
    1C        C  609   2.827   4.269   2.776
    1C        C  610   2.687   4.109   2.898
    1C        C  611   2.774   4.220   2.898
    1C        C  612   2.647   4.059   3.024
    1C        C  613   2.692   4.114   3.147
    1C        C  614   2.590   3.927   3.268
    1C        C  615   2.652   4.054   3.268
    1C        C  616   2.568   3.868   3.395
    1C        C  617   2.599   3.934   3.516
    1C        C  618   2.537   3.730   3.638
    1C        C  619   2.569   3.868   3.637
    1C        C  620   2.522   3.668   3.764
    1C        C  621   2.535   3.737   3.887
    1C        C  622   2.513   3.528   4.010
    1C        C  623   2.522   3.669   4.010
    1C        C  624   2.519   3.462   4.135
    1C        C  625   2.516   3.533   4.256
    1C        C  626   2.536   3.325   4.378
    1C        C  627   2.516   3.464   4.380
    1C        C  628   2.557   3.255   4.499
    1C        C  629   2.543   3.326   4.620
    1C        C  630   2.592   3.119   4.743
    1C        C  631   2.548   3.254   4.742
    1C        C  632   2.617   3.051   4.866
    1C        C  633   2.561   3.113   4.982
    1C        C  634   2.783   4.303   2.054
    1C        C  635   2.885   4.399   2.055
    1C        C  636   2.749   4.230   2.169
    1C        C  637   2.811   4.276   2.288
    1C        C  638   2.678   4.110   2.414
    1C        C  639   2.761   4.224   2.409
    1C        C  640   2.645   4.047   2.536
    1C        C  641   2.686   4.113   2.654
    1C        C  642   2.589   3.922   2.782
    1C        C  643   2.651   4.050   2.775
    1C        C  644   2.563   3.858   2.905
    1C        C  645   2.586   3.932   3.024
    1C        C  646   2.531   3.725   3.152
    1C        C  647   2.565   3.862   3.145
    1C        C  648   2.518   3.658   3.275
    1C        C  649   2.530   3.732   3.395
    1C        C  650   2.509   3.520   3.522
    1C        C  651   2.520   3.661   3.516
    1C        C  652   2.512   3.453   3.646
    1C        C  653   2.507   3.527   3.767
    1C        C  654   2.537   3.317   3.891
    1C        C  655   2.508   3.456   3.888
    1C        C  656   2.556   3.254   4.015
    1C        C  657   2.539   3.322   4.138
    1C        C  658   2.612   3.121   4.258
    1C        C  659   2.556   3.251   4.259
    1C        C  660   2.640   3.061   4.382
    1C        C  661   2.601   3.121   4.504
    1C        C  662   2.711   2.938   4.624
    1C        C  663   2.627   3.051   4.625
    1C        C  664   2.752   2.881   4.746
    1C        C  665   2.698   2.933   4.867
    1C        C  666   2.750   2.874   4.983
    1C        C  667   2.681   4.023   2.055
    1C        C  668   2.688   4.103   2.170
    1C        C  669   2.588   3.916   2.293
    1C        C  670   2.648   4.045   2.292
    1C        C  671   2.559   3.849   2.414
    1C        C  672   2.589   3.918   2.534
    1C        C  673   2.526   3.721   2.660
    1C        C  674   2.564   3.857   2.659
    1C        C  675   2.515   3.650   2.782
    1C        C  676   2.529   3.721   2.903
    1C        C  677   2.501   3.518   3.032
    1C        C  678   2.515   3.658   3.028
    1C        C  679   2.508   3.444   3.153
    1C        C  680   2.507   3.517   3.274
    1C        C  681   2.530   3.311   3.404
    1C        C  682   2.510   3.451   3.399
    1C        C  683   2.554   3.241   3.525
    1C        C  684   2.537   3.314   3.645
    1C        C  685   2.604   3.116   3.775
    1C        C  686   2.554   3.248   3.768
    1C        C  687   2.639   3.052   3.895
    1C        C  688   2.605   3.121   4.013
    1C        C  689   2.712   2.936   4.141
    1C        C  690   2.638   3.057   4.134
    1C        C  691   2.755   2.878   4.263
    1C        C  692   2.709   2.938   4.382
    1C        C  693   2.757   2.881   4.503
    1C        C  694   2.631   3.892   2.059
    1C        C  695   2.530   3.705   2.177
    1C        C  696   2.581   3.836   2.177
    1C        C  697   2.508   3.637   2.299
    1C        C  698   2.521   3.713   2.418
    1C        C  699   2.493   3.506   2.544
    1C        C  700   2.505   3.647   2.542
    1C        C  701   2.503   3.435   2.666
    1C        C  702   2.505   3.509   2.787
    1C        C  703   2.527   3.304   2.912
    1C        C  704   2.505   3.444   2.912
    1C        C  705   2.546   3.234   3.033
    1C        C  706   2.532   3.305   3.155
    1C        C  707   2.602   3.112   3.282
    1C        C  708   2.550   3.244   3.281
    1C        C  709   2.634   3.042   3.401
    1C        C  710   2.607   3.111   3.522
    1C        C  711   2.707   2.936   3.651
    1C        C  712   2.633   3.057   3.650
    1C        C  713   2.759   2.878   3.769
    1C        C  714   2.720   2.936   3.892
    1C        C  715   2.758   2.885   4.018
    1C        C  716   2.455   3.502   2.063
    1C        C  717   2.499   3.635   2.060
    1C        C  718   2.466   3.424   2.182
    1C        C  719   2.483   3.497   2.303
    1C        C  720   2.518   3.292   2.425
    1C        C  721   2.485   3.429   2.426
    1C        C  722   2.541   3.226   2.548
    1C        C  723   2.523   3.296   2.670
    1C        C  724   2.594   3.098   2.788
    1C        C  725   2.540   3.229   2.793
    1C        C  726   2.625   3.041   2.913
    1C        C  727   2.597   3.103   3.037
    1C        C  728   2.710   2.929   3.156
    1C        C  729   2.629   3.044   3.162
    1C        C  730   2.756   2.877   3.280
    1C        C  731   2.714   2.926   3.405
    1C        C  732   2.756   2.878   3.532
    1C        C  733   2.492   3.197   2.074
    1C        C  734   2.485   3.282   2.185
    1C        C  735   2.581   3.086   2.306
    1C        C  736   2.525   3.217   2.305
    1C        C  737   2.616   3.024   2.428
    1C        C  738   2.591   3.094   2.549
    1C        C  739   2.699   2.908   2.671
    1C        C  740   2.622   3.027   2.669
    1C        C  741   2.746   2.864   2.796
    1C        C  742   2.705   2.924   2.918
    1C        C  743   2.753   2.866   3.037
    1C        C  744   2.550   3.071   2.072
    1C        C  745   2.691   2.901   2.185
    1C        C  746   2.612   3.019   2.186
    1C        C  747   2.735   2.845   2.307
    1C        C  748   2.690   2.904   2.427
    1C        C  749   2.738   2.850   2.548
    1C        C  750   2.741   2.843   2.068
    1C        C  751   3.644   2.307   1.986
    1C        O  752   3.611   2.190   2.017
    1C        O  753   3.657   2.336   1.850
    1C        C  754   4.642   3.072   1.981
    1C        O  755   4.611   3.061   1.859
    1C        O  756   4.778   3.081   2.010
    1C        C  757   4.461   4.225   1.964
    1C        O  758   4.582   4.252   1.985
    1C        O  759   4.432   4.226   1.827
    1C        C  760   3.602   4.664   1.955
    1C        O  761   3.619   4.783   1.994
    1C        O  762   3.554   4.653   1.824
    1C        C  763   2.862   4.526   1.983
    1C        O  764   2.903   4.546   1.865
    1C        O  765   2.833   4.647   2.047
    1C        C  766   2.359   3.477   1.953
    1C        O  767   2.406   3.438   1.843
    1C        O  768   2.219   3.486   1.960
    1C        C  769   4.692   3.582   5.061
    1C        O  770   4.674   3.544   5.180
    1C        O  771   4.821   3.635   5.050
    1C        C  772   4.285   4.484   5.007
    1C        O  773   4.309   4.483   5.130
    1C        O  774   4.348   4.583   4.929
    1C        C  775   4.151   2.522   5.065
    1C        O  776   4.172   2.398   5.055
    1C        O  777   4.144   2.564   5.198
    1C        C  778   2.885   4.551   5.044
    1C        O  779   2.809   4.640   4.997
    1C        O  780   2.916   4.546   5.180
    1C        C  781   2.467   3.038   5.068
    1C        O  782   2.355   3.006   5.020
    1C        O  783   2.503   2.972   5.185
    1C        C  784   2.435   3.980   5.070
    1C        O  785   2.313   3.971   5.039
    1C        O  786   2.467   3.972   5.206
    1C        C  787   2.951   2.418   2.017
    1C        O  788   2.946   2.406   1.891
    1C        O  789   2.920   2.294   2.071
    1C        C  790   3.175   2.366   5.050
    1C        O  791   3.128   2.264   4.993
    1C        O  792   3.161   2.368   5.190
    1C        H  793   4.266   3.037   5.046
    1C        H  794   4.131   2.853   5.044
    1C        H  795   4.495   3.127   5.059
    1C        H  796   4.477   3.378   5.060
    1C        H  797   4.566   3.810   5.049
    1C        H  798   4.424   3.984   5.059
    1C        H  799   4.274   4.172   5.051
    1C        H  800   4.056   4.573   4.999
    1C        H  801   3.823   4.568   5.046
    1C        H  802   3.601   4.664   5.023
    1C        H  803   3.389   4.557   5.047
    1C        H  804   3.162   4.466   5.052
    1C        H  805   3.880   2.524   5.073
    1C        H  806   3.674   2.516   5.075
    1C        H  807   3.053   2.616   5.074
    1C        H  808   3.445   2.437   5.074
    1C        H  809   2.889   2.741   5.077
    1C        H  810   2.724   2.919   5.077
    1C        H  811   2.581   3.302   5.065
    1C        H  812   2.544   3.498   5.076
    1C        H  813   2.579   3.728   5.059
    1C        H  814   2.575   4.189   5.039
    1C        H  815   2.773   4.296   5.055
    1C        H  816   2.735   2.889   1.972
    1C        H  817   2.793   2.656   2.001
    1C        H  818   3.217   2.443   1.988
    1C        H  819   3.442   2.508   1.994
    1C        H  820   3.845   2.527   1.975
    1C        H  821   4.069   2.628   1.968
    1C        H  822   4.241   2.740   1.969
    1C        H  823   4.412   2.907   1.976
    1C        H  824   4.599   3.318   1.978
    1C        H  825   4.535   3.521   1.963
    1C        H  826   4.539   3.755   1.966
    1C        H  827   3.807   4.535   1.957
    1C        H  828   3.939   4.327   1.961
    1C        H  829   4.179   4.280   1.949
    1C        H  830   4.489   3.966   1.959
    1C        H  831   2.638   3.838   1.967
    1C        H  832   2.721   4.058   1.962
    1C        H  833   2.728   4.282   1.965
    1C        H  834   3.382   4.478   1.952
    1C        H  835   3.145   4.411   1.953
    1C        H  836   2.513   3.003   1.998
    1C        H  837   2.437   3.225   1.986
    1C        H  838   2.528   3.675   1.965
    2V3OU   H29  839   2.806   3.555   0.643
    2V3OU   C27  840   2.786   3.504   0.740
    2V3OU   H27  841   2.729   3.568   0.812
    2V3OU   H28  842   2.731   3.409   0.720
    2V3OU   O11  843   2.913   3.474   0.799
    2V3OU   C15  844   2.924   3.406   0.918
    2V3OU   C13  845   3.053   3.378   0.970
    2V3OU   C14  846   3.074   3.265   1.049
    2V3OU   C16  847   2.968   3.183   1.086
    2V3OU    H6  848   2.991   3.098   1.152
    2V3OU   C12  849   3.214   3.234   1.084
    2V3OU    O2  850   3.242   3.126   1.141
    2V3OU   C10  851   3.329   3.307   1.028
    2V3OU    C8  852   3.461   3.269   1.044
    2V3OU   O10  853   3.496   3.152   1.103
    2V3OU   H26  854   3.408   3.120   1.131
    2V3OU    C6  855   3.569   3.349   0.993
    2V3OU    C5  856   3.539   3.465   0.923
    2V3OU    C4  857   3.706   3.291   0.990
    2V3OU    H4  858   3.723   3.230   1.084
    2V3OU    H5  859   3.716   3.221   0.902
    2V3OU    C2  860   3.814   3.400   0.985
    2V3OU    O6  861   3.805   3.477   1.105
    2V3OU   H21  862   3.757   3.554   1.073
    2V3OU    C3  863   3.782   3.494   0.869
    2V3OU    H2  864   3.861   3.573   0.862
    2V3OU    H3  865   3.786   3.437   0.773
    2V3OU   C25  866   3.947   3.329   0.959
    2V3OU    O7  867   3.997   3.296   0.852
    2V3OU   C26  868   4.029   3.294   1.082
    2V3OU   H22  869   4.078   3.387   1.120
    2V3OU   H23  870   4.117   3.232   1.052
    2V3OU    O8  871   3.961   3.214   1.176
    2V3OU   H24  872   3.929   3.269   1.250
    2V3OU    C1  873   3.646   3.561   0.883
    2V3OU    H1  874   3.627   3.616   0.785
    2V3OU    O3  875   3.665   3.658   0.986
    2V3OU   C19  876   3.619   3.791   0.962
    2V3OU    H9  877   3.525   3.798   0.899
    2V3OU    O4  878   3.715   3.838   0.870
    2V3OU   C20  879   3.843   3.875   0.922
    2V3OU   H10  880   3.891   3.773   0.932
    2V3OU   C24  881   3.614   3.852   1.102
    2V3OU   H16  882   3.545   3.797   1.170
    2V3OU   H17  883   3.570   3.953   1.084
    2V3OU   C23  884   3.754   3.877   1.158
    2V3OU   H15  885   3.799   3.775   1.181
    2V3OU    N1  886   3.743   3.958   1.278
    2V3OU   H19  887   3.811   3.920   1.340
    2V3OU   H20  888   3.655   3.944   1.323
    2V3OU   C21  889   3.850   3.947   1.056
    2V3OU   H11  890   3.951   3.938   1.105
    2V3OU    O5  891   3.823   4.087   1.062
    2V3OU   H18  892   3.783   4.105   1.148
    2V3OU   C22  893   3.912   3.957   0.814
    2V3OU   H12  894   3.857   4.055   0.808
    2V3OU   H13  895   3.906   3.900   0.718
    2V3OU   H14  896   4.022   3.963   0.835
    2V3OU   C11  897   3.162   3.469   0.932
    2V3OU    O1  898   3.136   3.587   0.897
    2V3OU    C9  899   3.301   3.428   0.958
    2V3OU    C7  900   3.403   3.507   0.908
    2V3OU    O9  901   3.387   3.619   0.828
    2V3OU   H25  902   3.290   3.627   0.823
    2V3OU   C17  903   2.822   3.319   0.961
    2V3OU    H7  904   2.717   3.347   0.947
    2V3OU   C18  905   2.838   3.207   1.042
    2V3OU    H8  906   2.757   3.143   1.080
    3SOL     OW  907   0.735   4.796   1.365
    3SOL    HW1  908   0.664   4.726   1.374
    3SOL    HW2  909   0.823   4.758   1.394
    4SOL     OW  910   6.204   1.875   2.392
    4SOL    HW1  911   6.204   1.971   2.364
    4SOL    HW2  912   6.200   1.817   2.311
    5SOL     OW  913   4.018   3.129   0.314
    5SOL    HW1  914   4.083   3.184   0.367
    5SOL    HW2  915   3.925   3.155   0.339
    6SOL     OW  916   3.487   2.455   0.341
    6SOL    HW1  917   3.516   2.532   0.397
    6SOL    HW2  918   3.409   2.409   0.384
    7SOL     OW  919   5.668   0.814   1.763
    7SOL    HW1  920   5.691   0.767   1.677
    7SOL    HW2  921   5.733   0.787   1.834
    8SOL     OW  922   3.331   2.057   3.188
    8SOL    HW1  923   3.243   2.097   3.164
    8SOL    HW2  924   3.387   2.047   3.106
    9SOL     OW  925   6.440   4.226   6.629
    9SOL    HW1  926   6.436   4.323   6.606
    9SOL    HW2  927   6.386   4.209   6.711
   10SOL     OW  928   6.874   4.321   1.899
   10SOL    HW1  929   6.828   4.370   1.974
   10SOL    HW2  930   6.970   4.348   1.898
   11SOL     OW  931   4.010   6.895   0.590
   11SOL    HW1  932   3.980   6.801   0.571
   11SOL    HW2  933   4.041   6.901   0.685
   12SOL     OW  934   5.521   6.773   2.331
   12SOL    HW1  935   5.544   6.805   2.239
   12SOL    HW2  936   5.602   6.730   2.372
   13SOL     OW  937   2.148   6.683   2.347
   13SOL    HW1  938   2.161   6.774   2.308
   13SOL    HW2  939   2.050   6.661   2.349
   14SOL     OW  940   2.528   0.368   3.036
   14SOL    HW1  941   2.578   0.339   2.955
   14SOL    HW2  942   2.435   0.332   3.032
   15SOL     OW  943   2.770   6.998   6.433
   15SOL    HW1  944   2.781   6.942   6.352
   15SOL    HW2  945   2.762   0.068   6.407
   16SOL     OW  946   6.091   1.585   0.546
   16SOL    HW1  947   6.030   1.661   0.569
   16SOL    HW2  948   6.186   1.614   0.558
   17SOL     OW  949   4.154   5.595   4.008
   17SOL    HW1  950   4.098   5.513   4.020
   17SOL    HW2  951   4.097   5.677   4.014
   18SOL     OW  952   1.432   0.140   6.686
   18SOL    HW1  953   1.385   0.123   6.772
   18SOL    HW2  954   1.378   0.104   6.610
   19SOL     OW  955   0.325   6.901   0.962
   19SOL    HW1  956   0.352   6.882   0.868
   19SOL    HW2  957   0.233   6.867   0.979
   20SOL     OW  958   3.437   0.122   4.633
   20SOL    HW1  959   3.477   0.129   4.541
   20SOL    HW2  960   3.341   0.149   4.629
   21SOL     OW  961   2.876   3.015   1.380
   21SOL    HW1  962   2.854   3.106   1.415
   21SOL    HW2  963   2.951   2.976   1.434
   22SOL     OW  964   1.718   1.021   5.246
   22SOL    HW1  965   1.771   0.979   5.172
   22SOL    HW2  966   1.710   0.956   5.322
   23SOL     OW  967   2.344   6.488   4.197
   23SOL    HW1  968   2.368   6.434   4.278
   23SOL    HW2  969   2.376   6.582   4.208
   24SOL     OW  970   4.777   1.614   5.312
   24SOL    HW1  971   4.820   1.704   5.316
   24SOL    HW2  972   4.801   1.570   5.225
   25SOL     OW  973   2.609   6.063   0.742
   25SOL    HW1  974   2.527   6.038   0.793
   25SOL    HW2  975   2.687   6.010   0.776
   26SOL     OW  976   6.024   1.312   2.748
   26SOL    HW1  977   5.953   1.361   2.697
   26SOL    HW2  978   6.095   1.377   2.776
   27SOL     OW  979   5.843   7.013   2.329
   27SOL    HW1  980   5.848   6.997   2.231
   27SOL    HW2  981   5.770   0.052   2.349
   28SOL     OW  982   2.711   1.388   0.232
   28SOL    HW1  983   2.636   1.354   0.289
   28SOL    HW2  984   2.758   1.311   0.188
   29SOL     OW  985   4.976   3.263   1.939
   29SOL    HW1  986   4.905   3.196   1.959
   29SOL    HW2  987   5.042   3.264   2.014
   30SOL     OW  988   4.120   1.375   6.738
   30SOL    HW1  989   4.095   1.427   6.657
   30SOL    HW2  990   4.049   1.307   6.758
   31SOL     OW  991   1.376   1.923   5.444
   31SOL    HW1  992   1.444   1.947   5.374
   31SOL    HW2  993   1.326   2.006   5.471
   32SOL     OW  994   6.480   1.542   2.312
   32SOL    HW1  995   6.508   1.471   2.247
   32SOL    HW2  996   6.531   1.529   2.398
   33SOL     OW  997   1.495   1.246   4.734
   33SOL    HW1  998   1.556   1.261   4.656
   33SOL    HW2  999   1.543   1.267   4.819
   34SOL     OW 1000   0.918   0.657   4.600
   34SOL    HW1 1001   1.003   0.705   4.576
   34SOL    HW2 1002   0.886   0.688   4.690
   35SOL     OW 1003   4.616   2.376   6.363
   35SOL    HW1 1004   4.690   2.434   6.330
   35SOL    HW2 1005   4.597   2.304   6.296
   36SOL     OW 1006   0.949   2.621   6.366
   36SOL    HW1 1007   0.858   2.596   6.332
   36SOL    HW2 1008   0.940   2.663   6.457
   37SOL     OW 1009   3.476   6.767   1.909
   37SOL    HW1 1010   3.466   6.785   1.811
   37SOL    HW2 1011   3.499   6.853   1.955
   38SOL     OW 1012   6.766   5.402   1.419
   38SOL    HW1 1013   6.858   5.397   1.380
   38SOL    HW2 1014   6.733   5.496   1.415
   39SOL     OW 1015   0.026   2.802   6.508
   39SOL    HW1 1016   6.971   2.791   6.451
   39SOL    HW2 1017   0.095   2.735   6.481
   40SOL     OW 1018   6.946   1.770   1.693
   40SOL    HW1 1019   6.862   1.730   1.731
   40SOL    HW2 1020   7.018   1.767   1.762
   41SOL     OW 1021   0.595   1.589   6.213
   41SOL    HW1 1022   0.588   1.647   6.294
   41SOL    HW2 1023   0.690   1.584   6.184
   42SOL     OW 1024   4.236   6.618   0.678
   42SOL    HW1 1025   4.179   6.648   0.755
   42SOL    HW2 1026   4.300   6.691   0.655
   43SOL     OW 1027   4.505   5.403   5.675
   43SOL    HW1 1028   4.529   5.457   5.755
   43SOL    HW2 1029   4.525   5.455   5.592
   44SOL     OW 1030   1.019   4.683   6.966
   44SOL    HW1 1031   1.102   4.670   7.020
   44SOL    HW2 1032   0.982   4.593   6.940
   45SOL     OW 1033   2.673   0.037   0.821
   45SOL    HW1 1034   2.680   7.000   0.899
   45SOL    HW2 1035   2.616   7.023   0.750
   46SOL     OW 1036   0.552   5.426   3.847
   46SOL    HW1 1037   0.586   5.353   3.787
   46SOL    HW2 1038   0.586   5.410   3.940
   47SOL     OW 1039   6.733   4.225   2.615
   47SOL    HW1 1040   6.742   4.316   2.575
   47SOL    HW2 1041   6.646   4.185   2.586
   48SOL     OW 1042   0.879   1.797   5.377
   48SOL    HW1 1043   0.861   1.893   5.401
   48SOL    HW2 1044   0.962   1.793   5.322
   49SOL     OW 1045   5.861   3.420   0.003
   49SOL    HW1 1046   5.923   3.450   0.075
   49SOL    HW2 1047   5.888   3.462   6.943
   50SOL     OW 1048   0.957   3.912   4.665
   50SOL    HW1 1049   0.999   3.874   4.582
   50SOL    HW2 1050   0.860   3.888   4.668
   51SOL     OW 1051   2.904   6.179   1.547
   51SOL    HW1 1052   2.843   6.255   1.571
   51SOL    HW2 1053   2.853   6.093   1.552
   52SOL     OW 1054   0.770   2.126   2.420
   52SOL    HW1 1055   0.752   2.085   2.331
   52SOL    HW2 1056   0.812   2.216   2.408
   53SOL     OW 1057   4.519   6.705   3.851
   53SOL    HW1 1058   4.542   6.753   3.936
   53SOL    HW2 1059   4.499   6.610   3.872
   54SOL     OW 1060   4.702   4.682   5.384
   54SOL    HW1 1061   4.712   4.633   5.471
   54SOL    HW2 1062   4.645   4.627   5.322
   55SOL     OW 1063   4.440   2.261   1.142
   55SOL    HW1 1064   4.379   2.340   1.144
   55SOL    HW2 1065   4.490   2.255   1.229
   56SOL     OW 1066   0.061   0.873   1.759
   56SOL    HW1 1067   7.002   0.826   1.742
   56SOL    HW2 1068   0.046   0.950   1.821
   57SOL     OW 1069   5.055   0.495   6.878
   57SOL    HW1 1070   5.009   0.416   6.918
   57SOL    HW2 1071   5.119   0.465   6.808
   58SOL     OW 1072   7.022   1.114   7.004
   58SOL    HW1 1073   0.049   1.197   7.017
   58SOL    HW2 1074   7.000   1.104   6.907
   59SOL     OW 1075   0.324   0.060   5.672
   59SOL    HW1 1076   0.327   0.031   5.768
   59SOL    HW2 1077   0.388   0.005   5.619
   60SOL     OW 1078   4.527   6.852   5.221
   60SOL    HW1 1079   4.476   6.931   5.253
   60SOL    HW2 1080   4.606   6.883   5.167
   61SOL     OW 1081   3.317   0.181   5.449
   61SOL    HW1 1082   3.268   0.119   5.387
   61SOL    HW2 1083   3.291   0.161   5.544
   62SOL     OW 1084   3.019   0.314   4.646
   62SOL    HW1 1085   2.974   0.372   4.714
   62SOL    HW2 1086   2.976   0.329   4.557
   63SOL     OW 1087   0.092   3.468   4.446
   63SOL    HW1 1088   0.006   3.518   4.455
   63SOL    HW2 1089   0.079   3.374   4.479
   64SOL     OW 1090   0.046   1.989   5.632
   64SOL    HW1 1091   0.052   2.008   5.730
   64SOL    HW2 1092   7.002   1.921   5.616
   65SOL     OW 1093   1.346   4.480   5.371
   65SOL    HW1 1094   1.445   4.473   5.359
   65SOL    HW2 1095   1.325   4.490   5.468
   66SOL     OW 1096   2.914   0.743   1.296
   66SOL    HW1 1097   2.843   0.730   1.365
   66SOL    HW2 1098   2.967   0.825   1.318
   67SOL     OW 1099   4.498   5.384   4.382
   67SOL    HW1 1100   4.434   5.357   4.310
   67SOL    HW2 1101   4.542   5.302   4.421
   68SOL     OW 1102   5.176   2.749   0.086
   68SOL    HW1 1103   5.081   2.731   0.109
   68SOL    HW2 1104   5.235   2.711   0.158
   69SOL     OW 1105   2.433   3.264   5.549
   69SOL    HW1 1106   2.420   3.360   5.575
   69SOL    HW2 1107   2.344   3.219   5.543
   70SOL     OW 1108   5.766   1.076   3.370
   70SOL    HW1 1109   5.852   1.095   3.418
   70SOL    HW2 1110   5.727   0.991   3.405
   71SOL     OW 1111   1.606   4.441   1.781
   71SOL    HW1 1112   1.537   4.370   1.763
   71SOL    HW2 1113   1.697   4.402   1.770
   72SOL     OW 1114   3.911   5.824   3.994
   72SOL    HW1 1115   3.952   5.909   3.960
   72SOL    HW2 1116   3.854   5.783   3.923
   73SOL     OW 1117   3.515   2.908   6.913
   73SOL    HW1 1118   3.439   2.859   6.954
   73SOL    HW2 1119   3.483   2.961   6.834
   74SOL     OW 1120   5.124   0.318   5.102
   74SOL    HW1 1121   5.128   0.232   5.154
   74SOL    HW2 1122   5.049   0.313   5.036
   75SOL     OW 1123   3.474   5.549   5.445
   75SOL    HW1 1124   3.497   5.456   5.417
   75SOL    HW2 1125   3.522   5.614   5.385
   76SOL     OW 1126   2.776   2.650   0.868
   76SOL    HW1 1127   2.861   2.702   0.869
   76SOL    HW2 1128   2.760   2.610   0.958
   77SOL     OW 1129   6.039   4.040   6.736
   77SOL    HW1 1130   6.072   4.068   6.646
   77SOL    HW2 1131   5.982   4.112   6.775
   78SOL     OW 1132   5.987   0.120   5.467
   78SOL    HW1 1133   6.013   0.158   5.378
   78SOL    HW2 1134   5.962   0.195   5.529
   79SOL     OW 1135   3.303   6.197   0.544
   79SOL    HW1 1136   3.263   6.114   0.504
   79SOL    HW2 1137   3.303   6.188   0.644
   80SOL     OW 1138   0.119   1.339   4.406
   80SOL    HW1 1139   0.123   1.437   4.385
   80SOL    HW2 1140   0.108   1.287   4.321
   81SOL     OW 1141   1.255   5.770   2.965
   81SOL    HW1 1142   1.219   5.846   2.911
   81SOL    HW2 1143   1.345   5.795   3.001
   82SOL     OW 1144   6.568   4.519   5.905
   82SOL    HW1 1145   6.634   4.443   5.907
   82SOL    HW2 1146   6.497   4.503   5.974
   83SOL     OW 1147   5.382   0.135   5.119
   83SOL    HW1 1148   5.332   0.158   5.035
   83SOL    HW2 1149   5.413   0.040   5.114
   84SOL     OW 1150   6.890   3.200   2.327
   84SOL    HW1 1151   6.835   3.157   2.255
   84SOL    HW2 1152   6.836   3.208   2.410
   85SOL     OW 1153   0.969   1.029   5.109
   85SOL    HW1 1154   1.064   1.051   5.084
   85SOL    HW2 1155   0.955   0.930   5.105
   86SOL     OW 1156   1.725   0.751   4.032
   86SOL    HW1 1157   1.821   0.780   4.031
   86SOL    HW2 1158   1.697   0.730   4.125
   87SOL     OW 1159   4.398   6.570   1.804
   87SOL    HW1 1160   4.444   6.617   1.880
   87SOL    HW2 1161   4.378   6.476   1.830
   88SOL     OW 1162   5.929   0.736   1.510
   88SOL    HW1 1163   5.864   0.661   1.500
   88SOL    HW2 1164   6.013   0.702   1.552
   89SOL     OW 1165   2.000   1.885   5.648
   89SOL    HW1 1166   1.910   1.870   5.690
   89SOL    HW2 1167   1.987   1.915   5.553
   90SOL     OW 1168   5.928   5.998   3.408
   90SOL    HW1 1169   5.868   6.005   3.488
   90SOL    HW2 1170   5.898   5.922   3.350
   91SOL     OW 1171   5.301   5.249   4.110
   91SOL    HW1 1172   5.360   5.290   4.180
   91SOL    HW2 1173   5.214   5.299   4.107
   92SOL     OW 1174   3.422   5.672   1.014
   92SOL    HW1 1175   3.349   5.723   0.967
   92SOL    HW2 1176   3.392   5.649   1.107
   93SOL     OW 1177   2.983   4.945   5.985
   93SOL    HW1 1178   2.995   4.868   6.048
   93SOL    HW2 1179   2.929   5.017   6.029
   94SOL     OW 1180   1.897   6.581   2.332
   94SOL    HW1 1181   1.896   6.536   2.242
   94SOL    HW2 1182   1.823   6.544   2.388
   95SOL     OW 1183   0.028   0.178   4.090
   95SOL    HW1 1184   0.038   0.143   4.183
   95SOL    HW2 1185   6.991   0.256   4.090
   96SOL     OW 1186   1.759   6.477   4.441
   96SOL    HW1 1187   1.745   6.379   4.457
   96SOL    HW2 1188   1.800   6.518   4.522
   97SOL     OW 1189   6.751   2.425   4.076
   97SOL    HW1 1190   6.750   2.413   3.977
   97SOL    HW2 1191   6.839   2.396   4.113
   98SOL     OW 1192   4.858   1.049   5.453
   98SOL    HW1 1193   4.857   1.000   5.540
   98SOL    HW2 1194   4.764   1.063   5.422
   99SOL     OW 1195   4.484   1.160   0.785
   99SOL    HW1 1196   4.531   1.087   0.835
   99SOL    HW2 1197   4.496   1.247   0.834
  100SOL     OW 1198   6.454   5.840   0.621
  100SOL    HW1 1199   6.464   5.742   0.605
  100SOL    HW2 1200   6.544   5.884   0.617
  101SOL     OW 1201   1.535   6.521   3.608
  101SOL    HW1 1202   1.611   6.585   3.601
  101SOL    HW2 1203   1.568   6.428   3.593
  102SOL     OW 1204   4.754   0.541   2.307
  102SOL    HW1 1205   4.842   0.578   2.337
  102SOL    HW2 1206   4.680   0.590   2.352
  103SOL     OW 1207   4.711   1.135   3.068
  103SOL    HW1 1208   4.663   1.220   3.093
  103SOL    HW2 1209   4.807   1.155   3.052
  104SOL     OW 1210   6.155   6.431   2.368
  104SOL    HW1 1211   6.190   6.356   2.312
  104SOL    HW2 1212   6.117   6.394   2.452
  105SOL     OW 1213   5.430   1.531   5.761
  105SOL    HW1 1214   5.346   1.519   5.814
  105SOL    HW2 1215   5.418   1.493   5.669
  106SOL     OW 1216   3.858   0.017   1.091
  106SOL    HW1 1217   3.920   0.066   1.152
  106SOL    HW2 1218   3.778   0.073   1.072
  107SOL     OW 1219   2.779   3.866   6.839
  107SOL    HW1 1220   2.819   3.926   6.770
  107SOL    HW2 1221   2.831   3.873   6.924
  108SOL     OW 1222   4.667   4.125   5.392
  108SOL    HW1 1223   4.726   4.137   5.312
  108SOL    HW2 1224   4.624   4.035   5.388
  109SOL     OW 1225   5.742   1.158   2.407
  109SOL    HW1 1226   5.661   1.142   2.351
  109SOL    HW2 1227   5.717   1.211   2.488
  110SOL     OW 1228   3.669   6.636   4.253
  110SOL    HW1 1229   3.715   6.725   4.251
  110SOL    HW2 1230   3.736   6.564   4.273
  111SOL     OW 1231   3.177   1.462   3.352
  111SOL    HW1 1232   3.122   1.428   3.276
  111SOL    HW2 1233   3.208   1.386   3.408
  112SOL     OW 1234   0.209   1.811   6.920
  112SOL    HW1 1235   0.135   1.761   6.965
  112SOL    HW2 1236   0.175   1.899   6.888
  113SOL     OW 1237   6.645   6.659   3.721
  113SOL    HW1 1238   6.584   6.600   3.775
  113SOL    HW2 1239   6.730   6.610   3.701
  114SOL     OW 1240   1.374   5.803   0.521
  114SOL    HW1 1241   1.391   5.890   0.476
  114SOL    HW2 1242   1.319   5.745   0.461
  115SOL     OW 1243   5.423   1.157   5.816
  115SOL    HW1 1244   5.373   1.212   5.749
  115SOL    HW2 1245   5.501   1.210   5.850
  116SOL     OW 1246   6.159   3.818   2.829
  116SOL    HW1 1247   6.074   3.833   2.879
  116SOL    HW2 1248   6.229   3.882   2.861
  117SOL     OW 1249   0.620   6.558   6.346
  117SOL    HW1 1250   0.579   6.468   6.332
  117SOL    HW2 1251   0.584   6.622   6.278
  118SOL     OW 1252   2.485   1.496   3.911
  118SOL    HW1 1253   2.545   1.445   3.972
  118SOL    HW2 1254   2.520   1.491   3.818
  119SOL     OW 1255   6.851   2.609   6.818
  119SOL    HW1 1256   6.885   2.541   6.753
  119SOL    HW2 1257   6.807   2.684   6.768
  120SOL     OW 1258   4.254   5.812   1.528
  120SOL    HW1 1259   4.324   5.881   1.550
  120SOL    HW2 1260   4.242   5.808   1.429
  121SOL     OW 1261   2.891   2.917   6.397
  121SOL    HW1 1262   2.985   2.940   6.371
  121SOL    HW2 1263   2.886   2.908   6.497
  122SOL     OW 1264   1.315   3.309   4.699
  122SOL    HW1 1265   1.394   3.356   4.660
  122SOL    HW2 1266   1.243   3.377   4.718
  123SOL     OW 1267   6.414   1.655   1.950
  123SOL    HW1 1268   6.492   1.622   2.003
  123SOL    HW2 1269   6.351   1.579   1.934
  124SOL     OW 1270   5.121   3.675   1.689
  124SOL    HW1 1271   5.061   3.633   1.621
  124SOL    HW2 1272   5.215   3.674   1.654
  125SOL     OW 1273   2.322   3.192   1.487
  125SOL    HW1 1274   2.238   3.144   1.463
  125SOL    HW2 1275   2.329   3.198   1.587
  126SOL     OW 1276   3.787   4.612   0.348
  126SOL    HW1 1277   3.727   4.560   0.409
  126SOL    HW2 1278   3.849   4.669   0.403
  127SOL     OW 1279   0.514   6.046   6.036
  127SOL    HW1 1280   0.583   6.073   5.968
  127SOL    HW2 1281   0.535   6.092   6.123
  128SOL     OW 1282   4.821   2.012   0.173
  128SOL    HW1 1283   4.822   1.939   0.241
  128SOL    HW2 1284   4.735   2.010   0.122
  129SOL     OW 1285   2.358   3.818   6.780
  129SOL    HW1 1286   2.348   3.842   6.684
  129SOL    HW2 1287   2.270   3.791   6.818
  130SOL     OW 1288   1.777   2.045   4.928
  130SOL    HW1 1289   1.866   2.046   4.881
  130SOL    HW2 1290   1.713   1.987   4.877
  131SOL     OW 1291   6.099   1.446   2.405
  131SOL    HW1 1292   6.167   1.513   2.436
  131SOL    HW2 1293   6.011   1.466   2.448
  132SOL     OW 1294   0.758   1.711   2.345
  132SOL    HW1 1295   0.846   1.712   2.393
  132SOL    HW2 1296   0.726   1.617   2.336
  133SOL     OW 1297   0.127   5.580   2.904
  133SOL    HW1 1298   0.056   5.526   2.950
  133SOL    HW2 1299   0.091   5.672   2.886
  134SOL     OW 1300   1.194   3.670   3.212
  134SOL    HW1 1301   1.246   3.586   3.221
  134SOL    HW2 1302   1.196   3.721   3.298
  135SOL     OW 1303   4.904   0.823   4.456
  135SOL    HW1 1304   4.810   0.790   4.460
  135SOL    HW2 1305   4.968   0.748   4.472
  136SOL     OW 1306   5.059   5.277   6.032
  136SOL    HW1 1307   5.064   5.190   5.982
  136SOL    HW2 1308   4.965   5.311   6.031
  137SOL     OW 1309   4.098   1.073   5.702
  137SOL    HW1 1310   4.048   1.034   5.779
  137SOL    HW2 1311   4.036   1.132   5.649
  138SOL     OW 1312   5.511   4.826   5.286
  138SOL    HW1 1313   5.463   4.903   5.245
  138SOL    HW2 1314   5.608   4.833   5.267
  139SOL     OW 1315   3.530   5.316   5.319
  139SOL    HW1 1316   3.579   5.232   5.343
  139SOL    HW2 1317   3.502   5.312   5.224
  140SOL     OW 1318   6.447   4.027   4.586
  140SOL    HW1 1319   6.405   4.088   4.652
  140SOL    HW2 1320   6.376   3.980   4.533
  141SOL     OW 1321   1.674   2.093   2.775
  141SOL    HW1 1322   1.727   2.144   2.707
  141SOL    HW2 1323   1.605   2.152   2.815
  142SOL     OW 1324   1.117   4.810   1.117
  142SOL    HW1 1325   1.182   4.822   1.191
  142SOL    HW2 1326   1.048   4.742   1.143
  143SOL     OW 1327   5.215   4.493   1.958
  143SOL    HW1 1328   5.224   4.558   1.883
  143SOL    HW2 1329   5.121   4.460   1.962
  144SOL     OW 1330   3.575   6.385   0.698
  144SOL    HW1 1331   3.499   6.449   0.687
  144SOL    HW2 1332   3.634   6.415   0.773
  145SOL     OW 1333   6.068   5.774   0.941
  145SOL    HW1 1334   6.096   5.854   0.887
  145SOL    HW2 1335   6.069   5.693   0.883
  146SOL     OW 1336   0.355   4.300   0.700
  146SOL    HW1 1337   0.413   4.270   0.624
  146SOL    HW2 1338   0.388   4.259   0.785
  147SOL     OW 1339   5.849   2.554   1.232
  147SOL    HW1 1340   5.818   2.557   1.137
  147SOL    HW2 1341   5.930   2.496   1.238
  148SOL     OW 1342   0.701   5.623   5.333
  148SOL    HW1 1343   0.678   5.543   5.278
  148SOL    HW2 1344   0.634   5.633   5.407
  149SOL     OW 1345   2.997   0.911   6.795
  149SOL    HW1 1346   3.054   0.913   6.877
  149SOL    HW2 1347   3.055   0.900   6.714
  150SOL     OW 1348   6.657   6.016   5.340
  150SOL    HW1 1349   6.685   6.112   5.336
  150SOL    HW2 1350   6.558   6.011   5.357
  151SOL     OW 1351   4.916   0.469   1.901
  151SOL    HW1 1352   4.891   0.564   1.884
  151SOL    HW2 1353   4.949   0.427   1.817
  152SOL     OW 1354   2.882   0.746   4.213
  152SOL    HW1 1355   2.845   0.830   4.174
  152SOL    HW2 1356   2.888   0.676   4.141
  153SOL     OW 1357   0.880   0.188   2.572
  153SOL    HW1 1358   0.931   0.114   2.615
  153SOL    HW2 1359   0.860   0.259   2.639
  154SOL     OW 1360   0.787   1.577   2.820
  154SOL    HW1 1361   0.760   1.598   2.914
  154SOL    HW2 1362   0.879   1.538   2.820
  155SOL     OW 1363   1.139   1.189   3.636
  155SOL    HW1 1364   1.056   1.189   3.580
  155SOL    HW2 1365   1.162   1.283   3.661
  156SOL     OW 1366   6.989   2.144   1.161
  156SOL    HW1 1367   0.004   2.149   1.070
  156SOL    HW2 1368   6.903   2.092   1.155
  157SOL     OW 1369   0.605   2.336   2.678
  157SOL    HW1 1370   0.692   2.364   2.637
  157SOL    HW2 1371   0.553   2.281   2.612
  158SOL     OW 1372   1.963   1.177   3.393
  158SOL    HW1 1373   2.022   1.106   3.356
  158SOL    HW2 1374   2.003   1.267   3.372
  159SOL     OW 1375   4.993   3.911   1.705
  159SOL    HW1 1376   4.905   3.880   1.669
  159SOL    HW2 1377   5.055   3.834   1.713
  160SOL     OW 1378   6.682   4.936   6.361
  160SOL    HW1 1379   6.681   4.852   6.415
  160SOL    HW2 1380   6.744   5.002   6.403
  161SOL     OW 1381   2.732   4.489   5.352
  161SOL    HW1 1382   2.808   4.512   5.291
  161SOL    HW2 1383   2.647   4.525   5.314
  162SOL     OW 1384   4.478   5.687   2.663
  162SOL    HW1 1385   4.516   5.745   2.735
  162SOL    HW2 1386   4.553   5.643   2.614
  163SOL     OW 1387   5.919   0.383   1.265
  163SOL    HW1 1388   5.867   0.330   1.333
  163SOL    HW2 1389   5.862   0.397   1.184
  164SOL     OW 1390   6.127   3.144   1.888
  164SOL    HW1 1391   6.219   3.157   1.924
  164SOL    HW2 1392   6.061   3.151   1.963
  165SOL     OW 1393   6.544   3.537   6.835
  165SOL    HW1 1394   6.501   3.541   6.926
  165SOL    HW2 1395   6.475   3.513   6.767
  166SOL     OW 1396   1.402   6.882   0.696
  166SOL    HW1 1397   1.434   6.789   0.713
  166SOL    HW2 1398   1.347   6.884   0.613
  167SOL     OW 1399   6.724   2.439   1.878
  167SOL    HW1 1400   6.673   2.424   1.962
  167SOL    HW2 1401   6.701   2.529   1.840
  168SOL     OW 1402   2.080   5.113   1.280
  168SOL    HW1 1403   2.070   5.014   1.265
  168SOL    HW2 1404   2.108   5.129   1.375
  169SOL     OW 1405   1.070   0.293   1.155
  169SOL    HW1 1406   1.146   0.273   1.216
  169SOL    HW2 1407   1.105   0.312   1.063
  170SOL     OW 1408   0.147   1.919   3.860
  170SOL    HW1 1409   0.150   1.819   3.850
  170SOL    HW2 1410   0.206   1.961   3.791
  171SOL     OW 1411   3.344   4.036   0.807
  171SOL    HW1 1412   3.323   4.056   0.903
  171SOL    HW2 1413   3.436   4.071   0.786
  172SOL     OW 1414   0.081   3.240   1.854
  172SOL    HW1 1415   0.030   3.176   1.911
  172SOL    HW2 1416   0.020   3.280   1.785
  173SOL     OW 1417   6.974   6.726   5.344
  173SOL    HW1 1418   0.002   6.642   5.340
  173SOL    HW2 1419   0.002   6.799   5.387
  174SOL     OW 1420   2.381   5.990   3.311
  174SOL    HW1 1421   2.295   5.998   3.260
  174SOL    HW2 1422   2.439   5.922   3.268
  175SOL     OW 1423   0.479   5.053   3.589
  175SOL    HW1 1424   0.539   4.977   3.564
  175SOL    HW2 1425   0.384   5.027   3.575
  176SOL     OW 1426   2.650   6.148   6.750
  176SOL    HW1 1427   2.740   6.187   6.767
  176SOL    HW2 1428   2.586   6.221   6.726
  177SOL     OW 1429   4.940   1.378   2.417
  177SOL    HW1 1430   4.965   1.286   2.386
  177SOL    HW2 1431   4.906   1.373   2.511
  178SOL     OW 1432   5.424   3.864   6.377
  178SOL    HW1 1433   5.467   3.792   6.322
  178SOL    HW2 1434   5.489   3.900   6.443
  179SOL     OW 1435   3.394   6.896   0.273
  179SOL    HW1 1436   3.343   6.867   0.354
  179SOL    HW2 1437   3.483   6.850   0.272
  180SOL     OW 1438   0.925   2.427   0.053
  180SOL    HW1 1439   0.867   2.504   0.028
  180SOL    HW2 1440   0.969   2.446   0.141
  181SOL     OW 1441   3.062   3.373   3.907
  181SOL    HW1 1442   3.158   3.402   3.904
  181SOL    HW2 1443   3.035   3.338   3.817
  182SOL     OW 1444   5.519   2.376   5.016
  182SOL    HW1 1445   5.472   2.391   5.103
  182SOL    HW2 1446   5.607   2.424   5.016
  183SOL     OW 1447   6.671   1.249   3.195
  183SOL    HW1 1448   6.573   1.267   3.191
  183SOL    HW2 1449   6.721   1.324   3.151
  184SOL     OW 1450   0.058   4.531   2.366
  184SOL    HW1 1451   0.138   4.491   2.410
  184SOL    HW2 1452   0.047   4.626   2.396
  185SOL     OW 1453   3.591   3.728   5.984
  185SOL    HW1 1454   3.566   3.762   6.074
  185SOL    HW2 1455   3.597   3.628   5.986
  186SOL     OW 1456   5.991   6.971   3.869
  186SOL    HW1 1457   6.087   6.995   3.853
  186SOL    HW2 1458   5.942   0.024   3.904
  187SOL     OW 1459   5.498   7.020   3.953
  187SOL    HW1 1460   5.489   0.068   4.019
  187SOL    HW2 1461   5.525   0.030   3.864
  188SOL     OW 1462   6.293   2.534   5.017
  188SOL    HW1 1463   6.207   2.575   5.048
  188SOL    HW2 1464   6.279   2.436   5.000
  189SOL     OW 1465   1.775   4.827   3.459
  189SOL    HW1 1466   1.740   4.734   3.473
  189SOL    HW2 1467   1.743   4.862   3.371
  190SOL     OW 1468   3.303   1.033   0.194
  190SOL    HW1 1469   3.298   0.982   0.108
  190SOL    HW2 1470   3.388   1.012   0.241
  191SOL     OW 1471   5.283   5.612   6.784
  191SOL    HW1 1472   5.271   5.659   6.872
  191SOL    HW2 1473   5.306   5.679   6.714
  192SOL     OW 1474   6.478   1.104   6.673
  192SOL    HW1 1475   6.433   1.029   6.624
  192SOL    HW2 1476   6.441   1.192   6.642
  193SOL     OW 1477   6.337   4.097   0.084
  193SOL    HW1 1478   6.418   4.038   0.090
  193SOL    HW2 1479   6.327   4.132   7.017
  194SOL     OW 1480   4.178   0.039   4.421
  194SOL    HW1 1481   4.126   0.116   4.458
  194SOL    HW2 1482   4.200   7.001   4.494
  195SOL     OW 1483   6.879   5.531   3.387
  195SOL    HW1 1484   6.928   5.516   3.473
  195SOL    HW2 1485   6.813   5.606   3.399
  196SOL     OW 1486   0.276   0.902   1.275
  196SOL    HW1 1487   0.252   0.923   1.369
  196SOL    HW2 1488   0.318   0.982   1.232
  197SOL     OW 1489   2.029   0.871   0.690
  197SOL    HW1 1490   2.093   0.851   0.616
  197SOL    HW2 1491   1.935   0.858   0.658
  198SOL     OW 1492   3.025   1.572   4.858
  198SOL    HW1 1493   2.990   1.592   4.950
  198SOL    HW2 1494   2.984   1.488   4.824
  199SOL     OW 1495   2.109   0.926   4.403
  199SOL    HW1 1496   2.138   0.966   4.316
  199SOL    HW2 1497   2.145   0.981   4.478
  200SOL     OW 1498   6.048   1.974   0.661
  200SOL    HW1 1499   5.995   1.889   0.655
  200SOL    HW2 1500   6.108   1.981   0.581
  201SOL     OW 1501   0.660   1.666   5.903
  201SOL    HW1 1502   0.661   1.644   6.000
  201SOL    HW2 1503   0.573   1.708   5.878
  202SOL     OW 1504   5.793   6.788   6.927
  202SOL    HW1 1505   5.780   6.831   6.837
  202SOL    HW2 1506   5.864   6.839   6.976
  203SOL     OW 1507   6.540   3.943   0.231
  203SOL    HW1 1508   6.500   3.884   0.301
  203SOL    HW2 1509   6.550   4.036   0.267
  204SOL     OW 1510   6.412   0.502   5.220
  204SOL    HW1 1511   6.497   0.494   5.168
  204SOL    HW2 1512   6.336   0.465   5.167
  205SOL     OW 1513   2.153   4.970   3.170
  205SOL    HW1 1514   2.155   5.068   3.149
  205SOL    HW2 1515   2.243   4.941   3.202
  206SOL     OW 1516   1.258   3.995   1.359
  206SOL    HW1 1517   1.159   4.005   1.345
  206SOL    HW2 1518   1.275   3.959   1.451
  207SOL     OW 1519   0.434   2.783   4.254
  207SOL    HW1 1520   0.460   2.756   4.162
  207SOL    HW2 1521   0.335   2.798   4.258
  208SOL     OW 1522   1.444   3.060   4.938
  208SOL    HW1 1523   1.360   3.007   4.931
  208SOL    HW2 1524   1.422   3.152   4.971
  209SOL     OW 1525   6.234   4.121   2.226
  209SOL    HW1 1526   6.321   4.086   2.192
  209SOL    HW2 1527   6.188   4.171   2.152
  210SOL     OW 1528   4.702   4.142   1.384
  210SOL    HW1 1529   4.635   4.208   1.351
  210SOL    HW2 1530   4.656   4.056   1.407
  211SOL     OW 1531   1.692   1.109   1.915
  211SOL    HW1 1532   1.627   1.034   1.910
  211SOL    HW2 1533   1.757   1.102   1.840
  212SOL     OW 1534   2.143   4.761   1.748
  212SOL    HW1 1535   2.102   4.679   1.707
  212SOL    HW2 1536   2.232   4.778   1.707
  213SOL     OW 1537   1.009   5.861   1.203
  213SOL    HW1 1538   1.081   5.930   1.208
  213SOL    HW2 1539   0.920   5.905   1.210
  214SOL     OW 1540   5.780   6.534   2.147
  214SOL    HW1 1541   5.707   6.568   2.087
  214SOL    HW2 1542   5.867   6.574   2.120
  215SOL     OW 1543   2.391   4.957   2.788
  215SOL    HW1 1544   2.297   4.990   2.794
  215SOL    HW2 1545   2.392   4.866   2.747
  216SOL     OW 1546   1.609   6.019   2.802
  216SOL    HW1 1547   1.532   5.996   2.861
  216SOL    HW2 1548   1.695   5.999   2.850
  217SOL     OW 1549   6.928   4.566   4.654
  217SOL    HW1 1550   6.937   4.558   4.753
  217SOL    HW2 1551   6.895   4.657   4.631
  218SOL     OW 1552   3.391   2.775   5.958
  218SOL    HW1 1553   3.307   2.819   5.991
  218SOL    HW2 1554   3.444   2.742   6.037
  219SOL     OW 1555   5.149   2.000   1.134
  219SOL    HW1 1556   5.131   2.097   1.115
  219SOL    HW2 1557   5.206   1.992   1.215
  220SOL     OW 1558   2.004   6.966   0.551
  220SOL    HW1 1559   2.024   6.878   0.593
  220SOL    HW2 1560   1.906   6.972   0.531
  221SOL     OW 1561   5.000   4.359   1.950
  221SOL    HW1 1562   4.999   4.260   1.966
  221SOL    HW2 1563   4.914   4.387   1.907
  222SOL     OW 1564   0.971   4.215   6.189
  222SOL    HW1 1565   1.010   4.122   6.189
  222SOL    HW2 1566   0.953   4.243   6.283
  223SOL     OW 1567   6.121   2.005   5.450
  223SOL    HW1 1568   6.157   1.960   5.532
  223SOL    HW2 1569   6.086   2.095   5.474
  224SOL     OW 1570   3.817   3.022   5.552
  224SOL    HW1 1571   3.738   3.007   5.492
  224SOL    HW2 1572   3.900   2.990   5.507
  225SOL     OW 1573   4.477   5.812   6.337
  225SOL    HW1 1574   4.545   5.739   6.352
  225SOL    HW2 1575   4.412   5.813   6.413
  226SOL     OW 1576   1.742   2.231   0.373
  226SOL    HW1 1577   1.727   2.267   0.465
  226SOL    HW2 1578   1.664   2.253   0.316
  227SOL     OW 1579   1.209   3.663   1.541
  227SOL    HW1 1580   1.228   3.757   1.570
  227SOL    HW2 1581   1.279   3.602   1.578
  228SOL     OW 1582   0.666   0.074   2.467
  228SOL    HW1 1583   0.727   0.123   2.528
  228SOL    HW2 1584   0.619   0.139   2.407
  229SOL     OW 1585   4.163   0.741   5.974
  229SOL    HW1 1586   4.238   0.775   6.030
  229SOL    HW2 1587   4.179   0.766   5.878
  230SOL     OW 1588   5.756   3.507   5.765
  230SOL    HW1 1589   5.853   3.490   5.777
  230SOL    HW2 1590   5.709   3.422   5.742
  231SOL     OW 1591   4.799   1.486   0.396
  231SOL    HW1 1592   4.884   1.538   0.391
  231SOL    HW2 1593   4.795   1.436   0.482
  232SOL     OW 1594   1.521   2.853   5.104
  232SOL    HW1 1595   1.499   2.932   5.046
  232SOL    HW2 1596   1.440   2.825   5.155
  233SOL     OW 1597   3.379   1.860   3.607
  233SOL    HW1 1598   3.350   1.781   3.553
  233SOL    HW2 1599   3.392   1.939   3.547
  234SOL     OW 1600   5.461   6.462   0.279
  234SOL    HW1 1601   5.537   6.501   0.331
  234SOL    HW2 1602   5.399   6.535   0.250
  235SOL     OW 1603   5.125   3.365   2.702
  235SOL    HW1 1604   5.035   3.323   2.688
  235SOL    HW2 1605   5.112   3.461   2.728
  236SOL     OW 1606   3.834   3.548   5.732
  236SOL    HW1 1607   3.779   3.570   5.651
  236SOL    HW2 1608   3.918   3.601   5.731
  237SOL     OW 1609   5.879   3.361   3.364
  237SOL    HW1 1610   5.978   3.360   3.380
  237SOL    HW2 1611   5.853   3.450   3.326
  238SOL     OW 1612   6.196   1.990   0.419
  238SOL    HW1 1613   6.277   2.048   0.429
  238SOL    HW2 1614   6.166   1.990   0.324
  239SOL     OW 1615   1.885   3.200   0.462
  239SOL    HW1 1616   1.932   3.287   0.445
  239SOL    HW2 1617   1.826   3.178   0.384
  240SOL     OW 1618   4.920   3.400   4.416
  240SOL    HW1 1619   4.927   3.331   4.344
  240SOL    HW2 1620   4.900   3.354   4.503
  241SOL     OW 1621   2.120   2.622   3.977
  241SOL    HW1 1622   2.213   2.657   3.969
  241SOL    HW2 1623   2.070   2.675   4.046
  242SOL     OW 1624   3.892   3.542   1.925
  242SOL    HW1 1625   3.969   3.591   1.966
  242SOL    HW2 1626   3.814   3.603   1.917
  243SOL     OW 1627   4.665   3.178   6.367
  243SOL    HW1 1628   4.692   3.132   6.452
  243SOL    HW2 1629   4.590   3.241   6.386
  244SOL     OW 1630   4.900   3.440   4.880
  244SOL    HW1 1631   4.884   3.378   4.957
  244SOL    HW2 1632   4.874   3.533   4.907
  245SOL     OW 1633   3.091   0.832   3.100
  245SOL    HW1 1634   3.139   0.831   3.013
  245SOL    HW2 1635   3.148   0.876   3.170
  246SOL     OW 1636   0.019   1.331   2.441
  246SOL    HW1 1637   6.952   1.364   2.428
  246SOL    HW2 1638   0.073   1.401   2.489
  247SOL     OW 1639   2.247   0.414   1.924
  247SOL    HW1 1640   2.284   0.505   1.906
  247SOL    HW2 1641   2.189   0.417   2.006
  248SOL     OW 1642   3.399   3.335   1.373
  248SOL    HW1 1643   3.496   3.312   1.368
  248SOL    HW2 1644   3.345   3.251   1.384
  249SOL     OW 1645   4.890   6.283   6.005
  249SOL    HW1 1646   4.957   6.241   5.945
  249SOL    HW2 1647   4.810   6.223   6.014
  250SOL     OW 1648   4.640   2.354   0.026
  250SOL    HW1 1649   4.675   2.293   6.982
  250SOL    HW2 1650   4.559   2.401   7.020
  251SOL     OW 1651   4.454   5.312   4.872
  251SOL    HW1 1652   4.396   5.245   4.826
  251SOL    HW2 1653   4.517   5.265   4.935
  252SOL     OW 1654   6.400   6.146   5.515
  252SOL    HW1 1655   6.332   6.082   5.551
  252SOL    HW2 1656   6.372   6.178   5.424
  253SOL     OW 1657   4.501   5.682   5.508
  253SOL    HW1 1658   4.426   5.670   5.573
  253SOL    HW2 1659   4.574   5.735   5.550
  254SOL     OW 1660   6.729   2.439   5.637
  254SOL    HW1 1661   6.781   2.354   5.634
  254SOL    HW2 1662   6.784   2.511   5.680
  255SOL     OW 1663   1.887   5.319   6.499
  255SOL    HW1 1664   1.915   5.341   6.405
  255SOL    HW2 1665   1.890   5.220   6.512
  256SOL     OW 1666   5.021   2.198   5.319
  256SOL    HW1 1667   4.978   2.154   5.398
  256SOL    HW2 1668   5.109   2.155   5.300
  257SOL     OW 1669   5.070   6.504   2.436
  257SOL    HW1 1670   5.076   6.412   2.397
  257SOL    HW2 1671   5.161   6.535   2.463
  258SOL     OW 1672   2.164   3.211   6.231
  258SOL    HW1 1673   2.240   3.146   6.223
  258SOL    HW2 1674   2.148   3.233   6.327
  259SOL     OW 1675   3.270   0.733   3.983
  259SOL    HW1 1676   3.370   0.737   3.985
  259SOL    HW2 1677   3.239   0.726   3.888
  260SOL     OW 1678   3.733   5.674   3.233
  260SOL    HW1 1679   3.805   5.657   3.166
  260SOL    HW2 1680   3.697   5.586   3.267
  261SOL     OW 1681   3.624   4.703   6.709
  261SOL    HW1 1682   3.620   4.664   6.617
  261SOL    HW2 1683   3.603   4.632   6.776
  262SOL     OW 1684   0.902   3.433   6.314
  262SOL    HW1 1685   0.887   3.531   6.318
  262SOL    HW2 1686   0.986   3.414   6.261
  263SOL     OW 1687   2.123   0.458   3.353
  263SOL    HW1 1688   2.155   0.464   3.448
  263SOL    HW2 1689   2.049   0.391   3.347
  264SOL     OW 1690   6.475   3.281   6.416
  264SOL    HW1 1691   6.427   3.337   6.483
  264SOL    HW2 1692   6.531   3.214   6.463
  265SOL     OW 1693   6.885   0.382   2.912
  265SOL    HW1 1694   6.795   0.348   2.884
  265SOL    HW2 1695   6.900   0.361   3.009
  266SOL     OW 1696   3.202   0.663   5.967
  266SOL    HW1 1697   3.195   0.611   5.882
  266SOL    HW2 1698   3.134   0.629   6.033
  267SOL     OW 1699   2.327   6.970   2.172
  267SOL    HW1 1700   2.278   6.999   2.090
  267SOL    HW2 1701   2.264   6.920   2.232
  268SOL     OW 1702   4.278   2.631   0.501
  268SOL    HW1 1703   4.280   2.581   0.587
  268SOL    HW2 1704   4.281   2.729   0.519
  269SOL     OW 1705   5.411   1.898   0.096
  269SOL    HW1 1706   5.412   1.807   0.137
  269SOL    HW2 1707   5.358   1.897   0.011
  270SOL     OW 1708   5.330   1.541   0.582
  270SOL    HW1 1709   5.393   1.543   0.660
  270SOL    HW2 1710   5.294   1.633   0.566
  271SOL     OW 1711   0.197   5.263   6.382
  271SOL    HW1 1712   0.287   5.226   6.405
  271SOL    HW2 1713   0.160   5.213   6.303
  272SOL     OW 1714   3.292   5.893   3.088
  272SOL    HW1 1715   3.218   5.877   3.023
  272SOL    HW2 1716   3.347   5.810   3.097
  273SOL     OW 1717   1.514   5.859   6.346
  273SOL    HW1 1718   1.556   5.837   6.258
  273SOL    HW2 1719   1.583   5.903   6.404
  274SOL     OW 1720   4.574   1.664   3.775
  274SOL    HW1 1721   4.663   1.642   3.734
  274SOL    HW2 1722   4.560   1.763   3.774
  275SOL     OW 1723   5.599   0.890   1.235
  275SOL    HW1 1724   5.515   0.906   1.287
  275SOL    HW2 1725   5.675   0.936   1.281
  276SOL     OW 1726   0.472   6.356   3.960
  276SOL    HW1 1727   0.497   6.308   3.876
  276SOL    HW2 1728   0.503   6.303   4.039
  277SOL     OW 1729   1.994   4.836   1.307
  277SOL    HW1 1730   2.077   4.797   1.347
  277SOL    HW2 1731   1.928   4.763   1.289
  278SOL     OW 1732   1.071   3.208   3.685
  278SOL    HW1 1733   1.065   3.247   3.777
  278SOL    HW2 1734   1.073   3.282   3.618
  279SOL     OW 1735   6.444   1.470   3.403
  279SOL    HW1 1736   6.430   1.508   3.495
  279SOL    HW2 1737   6.532   1.423   3.399
  280SOL     OW 1738   1.703   5.599   2.436
  280SOL    HW1 1739   1.608   5.572   2.420
  280SOL    HW2 1740   1.755   5.521   2.472
  281SOL     OW 1741   2.418   4.533   1.214
  281SOL    HW1 1742   2.464   4.542   1.125
  281SOL    HW2 1743   2.319   4.542   1.201
  282SOL     OW 1744   1.712   1.462   4.896
  282SOL    HW1 1745   1.681   1.555   4.913
  282SOL    HW2 1746   1.734   1.418   4.984
  283SOL     OW 1747   2.671   2.962   6.830
  283SOL    HW1 1748   2.662   3.002   6.738
  283SOL    HW2 1749   2.653   2.864   6.825
  284SOL     OW 1750   0.568   4.117   4.103
  284SOL    HW1 1751   0.638   4.053   4.070
  284SOL    HW2 1752   0.492   4.119   4.039
  285SOL     OW 1753   5.236   3.905   4.079
  285SOL    HW1 1754   5.207   3.980   4.138
  285SOL    HW2 1755   5.212   3.925   3.984
  286SOL     OW 1756   2.613   3.971   1.278
  286SOL    HW1 1757   2.518   4.001   1.282
  286SOL    HW2 1758   2.628   3.899   1.346
  287SOL     OW 1759   0.603   3.254   0.134
  287SOL    HW1 1760   0.559   3.216   0.053
  287SOL    HW2 1761   0.577   3.199   0.214
  288SOL     OW 1762   5.317   3.049   2.234
  288SOL    HW1 1763   5.276   3.140   2.236
  288SOL    HW2 1764   5.269   2.992   2.167
  289SOL     OW 1765   3.849   5.866   6.603
  289SOL    HW1 1766   3.843   5.932   6.678
  289SOL    HW2 1767   3.833   5.914   6.516
  290SOL     OW 1768   1.574   0.468   4.862
  290SOL    HW1 1769   1.544   0.420   4.944
  290SOL    HW2 1770   1.494   0.486   4.804
  291SOL     OW 1771   6.669   1.153   2.835
  291SOL    HW1 1772   6.723   1.146   2.751
  291SOL    HW2 1773   6.633   1.063   2.859
  292SOL     OW 1774   3.489   6.836   3.554
  292SOL    HW1 1775   3.453   6.761   3.610
  292SOL    HW2 1776   3.578   6.809   3.516
  293SOL     OW 1777   3.309   5.084   2.926
  293SOL    HW1 1778   3.254   5.153   2.974
  293SOL    HW2 1779   3.251   5.031   2.864
  294SOL     OW 1780   4.832   0.491   0.506
  294SOL    HW1 1781   4.743   0.521   0.473
  294SOL    HW2 1782   4.889   0.463   0.429
  295SOL     OW 1783   6.186   0.690   4.704
  295SOL    HW1 1784   6.110   0.736   4.750
  295SOL    HW2 1785   6.244   0.645   4.773
  296SOL     OW 1786   2.725   2.317   3.056
  296SOL    HW1 1787   2.650   2.380   3.036
  296SOL    HW2 1788   2.724   2.296   3.154
  297SOL     OW 1789   1.774   4.866   1.719
  297SOL    HW1 1790   1.790   4.792   1.653
  297SOL    HW2 1791   1.821   4.949   1.688
  298SOL     OW 1792   6.641   5.111   0.502
  298SOL    HW1 1793   6.546   5.094   0.474
  298SOL    HW2 1794   6.642   5.149   0.594
  299SOL     OW 1795   5.582   2.787   3.605
  299SOL    HW1 1796   5.616   2.870   3.648
  299SOL    HW2 1797   5.482   2.791   3.599
  300SOL     OW 1798   6.059   0.081   1.606
  300SOL    HW1 1799   6.088   0.026   1.684
  300SOL    HW2 1800   5.979   0.136   1.631
  301SOL     OW 1801   5.415   2.960   5.809
  301SOL    HW1 1802   5.459   2.953   5.720
  301SOL    HW2 1803   5.319   2.933   5.801
  302SOL     OW 1804   1.231   5.517   5.011
  302SOL    HW1 1805   1.326   5.538   5.034
  302SOL    HW2 1806   1.220   5.419   4.999
  303SOL     OW 1807   6.295   0.389   3.277
  303SOL    HW1 1808   6.389   0.362   3.254
  303SOL    HW2 1809   6.279   0.483   3.246
  304SOL     OW 1810   3.960   0.651   4.414
  304SOL    HW1 1811   3.899   0.659   4.493
  304SOL    HW2 1812   3.985   0.742   4.381
  305SOL     OW 1813   1.792   3.819   0.563
  305SOL    HW1 1814   1.873   3.827   0.620
  305SOL    HW2 1815   1.818   3.784   0.473
  306SOL     OW 1816   1.643   0.868   3.288
  306SOL    HW1 1817   1.653   0.860   3.387
  306SOL    HW2 1818   1.638   0.964   3.262
  307SOL     OW 1819   2.969   0.142   0.961
  307SOL    HW1 1820   3.018   0.139   1.048
  307SOL    HW2 1821   3.011   0.211   0.902
  308SOL     OW 1822   0.843   4.896   4.359
  308SOL    HW1 1823   0.913   4.953   4.317
  308SOL    HW2 1824   0.839   4.808   4.312
  309SOL     OW 1825   3.831   4.854   5.389
  309SOL    HW1 1826   3.874   4.825   5.474
  309SOL    HW2 1827   3.736   4.822   5.388
  310SOL     OW 1828   1.123   5.893   6.875
  310SOL    HW1 1829   1.211   5.912   6.916
  310SOL    HW2 1830   1.127   5.806   6.825
  311SOL     OW 1831   6.490   0.931   1.319
  311SOL    HW1 1832   6.504   1.023   1.357
  311SOL    HW2 1833   6.510   0.932   1.221
  312SOL     OW 1834   3.691   1.359   6.384
  312SOL    HW1 1835   3.710   1.399   6.473
  312SOL    HW2 1836   3.712   1.262   6.385
  313SOL     OW 1837   6.745   4.885   1.434
  313SOL    HW1 1838   6.772   4.817   1.502
  313SOL    HW2 1839   6.740   4.842   1.344
  314SOL     OW 1840   3.598   5.875   2.452
  314SOL    HW1 1841   3.648   5.904   2.371
  314SOL    HW2 1842   3.658   5.819   2.510
  315SOL     OW 1843   0.634   4.201   3.198
  315SOL    HW1 1844   0.670   4.234   3.285
  315SOL    HW2 1845   0.565   4.130   3.214
  316SOL     OW 1846   2.257   3.004   4.103
  316SOL    HW1 1847   2.328   3.034   4.040
  316SOL    HW2 1848   2.281   2.914   4.140
  317SOL     OW 1849   6.776   1.859   0.923
  317SOL    HW1 1850   6.702   1.793   0.934
  317SOL    HW2 1851   6.800   1.897   1.012
  318SOL     OW 1852   2.662   4.263   0.934
  318SOL    HW1 1853   2.601   4.192   0.969
  318SOL    HW2 1854   2.686   4.326   1.007
  319SOL     OW 1855   0.347   1.546   6.107
  319SOL    HW1 1856   0.440   1.553   6.143
  319SOL    HW2 1857   0.351   1.528   6.009
  320SOL     OW 1858   5.967   3.254   2.966
  320SOL    HW1 1859   5.895   3.314   2.932
  320SOL    HW2 1860   5.966   3.168   2.914
  321SOL     OW 1861   1.881   1.215   2.092
  321SOL    HW1 1862   1.813   1.166   2.037
  321SOL    HW2 1863   1.937   1.273   2.034
  322SOL     OW 1864   3.914   3.344   5.562
  322SOL    HW1 1865   3.869   3.404   5.629
  322SOL    HW2 1866   3.929   3.254   5.603
  323SOL     OW 1867   1.711   4.429   2.211
  323SOL    HW1 1868   1.725   4.521   2.174
  323SOL    HW2 1869   1.726   4.430   2.310
  324SOL     OW 1870   0.492   2.718   3.996
  324SOL    HW1 1871   0.573   2.715   3.938
  324SOL    HW2 1872   0.417   2.671   3.951
  325SOL     OW 1873   2.169   1.748   2.323
  325SOL    HW1 1874   2.260   1.788   2.316
  325SOL    HW2 1875   2.139   1.716   2.234
  326SOL     OW 1876   2.209   3.953   4.542
  326SOL    HW1 1877   2.195   3.908   4.630
  326SOL    HW2 1878   2.298   3.998   4.542
  327SOL     OW 1879   6.059   4.166   6.168
  327SOL    HW1 1880   6.105   4.129   6.249
  327SOL    HW2 1881   5.978   4.112   6.147
  328SOL     OW 1882   3.489   5.703   3.101
  328SOL    HW1 1883   3.432   5.630   3.138
  328SOL    HW2 1884   3.572   5.712   3.157
  329SOL     OW 1885   3.470   4.217   1.806
  329SOL    HW1 1886   3.481   4.142   1.739
  329SOL    HW2 1887   3.499   4.185   1.896
  330SOL     OW 1888   2.768   2.353   1.311
  330SOL    HW1 1889   2.769   2.255   1.295
  330SOL    HW2 1890   2.709   2.374   1.390
  331SOL     OW 1891   6.715   4.013   5.530
  331SOL    HW1 1892   6.718   4.067   5.446
  331SOL    HW2 1893   6.723   3.916   5.507
  332SOL     OW 1894   4.089   1.966   3.175
  332SOL    HW1 1895   4.009   1.910   3.151
  332SOL    HW2 1896   4.087   1.986   3.273
  333SOL     OW 1897   4.431   6.358   0.934
  333SOL    HW1 1898   4.517   6.328   0.976
  333SOL    HW2 1899   4.366   6.282   0.933
  334SOL     OW 1900   5.087   0.110   2.841
  334SOL    HW1 1901   5.149   0.046   2.797
  334SOL    HW2 1902   4.999   0.065   2.858
  335SOL     OW 1903   3.389   0.375   2.070
  335SOL    HW1 1904   3.376   0.363   1.972
  335SOL    HW2 1905   3.486   0.388   2.090
  336SOL     OW 1906   3.535   1.085   4.937
  336SOL    HW1 1907   3.542   0.986   4.949
  336SOL    HW2 1908   3.624   1.127   4.955
  337SOL     OW 1909   1.205   4.024   2.571
  337SOL    HW1 1910   1.109   3.997   2.564
  337SOL    HW2 1911   1.235   4.018   2.666
  338SOL     OW 1912   2.297   2.813   0.975
  338SOL    HW1 1913   2.359   2.892   0.970
  338SOL    HW2 1914   2.344   2.737   1.020
  339SOL     OW 1915   4.548   0.533   2.856
  339SOL    HW1 1916   4.463   0.511   2.903
  339SOL    HW2 1917   4.532   0.608   2.792
  340SOL     OW 1918   5.378   3.779   4.511
  340SOL    HW1 1919   5.403   3.749   4.419
  340SOL    HW2 1920   5.341   3.701   4.562
  341SOL     OW 1921   4.550   4.494   5.638
  341SOL    HW1 1922   4.471   4.488   5.576
  341SOL    HW2 1923   4.625   4.438   5.603
  342SOL     OW 1924   5.692   3.195   0.878
  342SOL    HW1 1925   5.738   3.145   0.951
  342SOL    HW2 1926   5.670   3.288   0.909
  343SOL     OW 1927   2.433   0.166   2.472
  343SOL    HW1 1928   2.502   0.208   2.413
  343SOL    HW2 1929   2.439   0.066   2.464
  344SOL     OW 1930   4.404   6.818   0.623
  344SOL    HW1 1931   4.400   6.918   0.633
  344SOL    HW2 1932   4.487   6.784   0.667
  345SOL     OW 1933   1.266   0.848   4.958
  345SOL    HW1 1934   1.251   0.945   4.937
  345SOL    HW2 1935   1.187   0.794   4.930
  346SOL     OW 1936   2.205   0.642   4.927
  346SOL    HW1 1937   2.222   0.704   5.004
  346SOL    HW2 1938   2.289   0.592   4.905
  347SOL     OW 1939   5.342   5.504   5.715
  347SOL    HW1 1940   5.414   5.566   5.683
  347SOL    HW2 1941   5.326   5.520   5.813
  348SOL     OW 1942   2.749   0.150   3.697
  348SOL    HW1 1943   2.788   0.080   3.636
  348SOL    HW2 1944   2.650   0.139   3.701
  349SOL     OW 1945   2.401   5.195   1.966
  349SOL    HW1 1946   2.483   5.208   1.910
  349SOL    HW2 1947   2.414   5.117   2.027
  350SOL     OW 1948   5.085   3.191   1.701
  350SOL    HW1 1949   5.047   3.216   1.790
  350SOL    HW2 1950   5.155   3.257   1.675
  351SOL     OW 1951   3.145   1.727   0.364
  351SOL    HW1 1952   3.203   1.806   0.382
  351SOL    HW2 1953   3.059   1.736   0.414
  352SOL     OW 1954   2.735   1.599   6.595
  352SOL    HW1 1955   2.734   1.663   6.517
  352SOL    HW2 1956   2.701   1.510   6.566
  353SOL     OW 1957   2.222   6.741   1.468
  353SOL    HW1 1958   2.310   6.786   1.487
  353SOL    HW2 1959   2.147   6.800   1.497
  354SOL     OW 1960   5.695   0.214   2.427
  354SOL    HW1 1961   5.640   0.170   2.498
  354SOL    HW2 1962   5.656   0.303   2.405
  355SOL     OW 1963   1.134   0.812   2.484
  355SOL    HW1 1964   1.062   0.878   2.506
  355SOL    HW2 1965   1.105   0.720   2.513
  356SOL     OW 1966   2.840   6.927   2.980
  356SOL    HW1 1967   2.867   6.872   2.901
  356SOL    HW2 1968   2.895   6.900   3.059
  357SOL     OW 1969   1.245   4.638   4.287
  357SOL    HW1 1970   1.269   4.732   4.312
  357SOL    HW2 1971   1.326   4.591   4.251
  358SOL     OW 1972   4.844   0.940   3.215
  358SOL    HW1 1973   4.896   1.009   3.267
  358SOL    HW2 1974   4.772   0.986   3.162
  359SOL     OW 1975   0.780   1.754   0.442
  359SOL    HW1 1976   0.844   1.818   0.401
  359SOL    HW2 1977   0.742   1.694   0.372
  360SOL     OW 1978   5.457   6.957   6.533
  360SOL    HW1 1979   5.413   6.889   6.592
  360SOL    HW2 1980   5.452   6.926   6.438
  361SOL     OW 1981   2.877   0.332   2.145
  361SOL    HW1 1982   2.972   0.359   2.130
  361SOL    HW2 1983   2.818   0.412   2.141
  362SOL     OW 1984   2.777   3.493   0.427
  362SOL    HW1 1985   2.712   3.420   0.406
  362SOL    HW2 1986   2.869   3.464   0.402
  363SOL     OW 1987   4.929   4.800   4.168
  363SOL    HW1 1988   4.859   4.731   4.149
  363SOL    HW2 1989   4.911   4.881   4.113
  364SOL     OW 1990   2.706   6.009   6.232
  364SOL    HW1 1991   2.657   6.021   6.146
  364SOL    HW2 1992   2.793   5.963   6.216
  365SOL     OW 1993   4.855   6.011   2.835
  365SOL    HW1 1994   4.795   6.055   2.902
  365SOL    HW2 1995   4.914   6.081   2.794
  366SOL     OW 1996   5.075   1.393   0.625
  366SOL    HW1 1997   5.121   1.379   0.712
  366SOL    HW2 1998   5.139   1.432   0.559
  367SOL     OW 1999   6.814   2.424   2.570
  367SOL    HW1 2000   6.777   2.502   2.519
  367SOL    HW2 2001   6.901   2.450   2.612
  368SOL     OW 2002   6.631   4.866   4.514
  368SOL    HW1 2003   6.612   4.822   4.427
  368SOL    HW2 2004   6.623   4.965   4.503
  369SOL     OW 2005   1.042   3.717   2.429
  369SOL    HW1 2006   1.124   3.660   2.421
  369SOL    HW2 2007   1.000   3.727   2.339
  370SOL     OW 2008   3.978   1.980   6.566
  370SOL    HW1 2009   3.999   2.030   6.650
  370SOL    HW2 2010   3.897   1.923   6.581
  371SOL     OW 2011   3.284   2.291   6.309
  371SOL    HW1 2012   3.365   2.262   6.361
  371SOL    HW2 2013   3.202   2.259   6.356
  372SOL     OW 2014   2.241   5.603   0.215
  372SOL    HW1 2015   2.210   5.612   0.310
  372SOL    HW2 2016   2.207   5.681   0.162
  373SOL     OW 2017   6.287   0.194   6.537
  373SOL    HW1 2018   6.284   0.186   6.437
  373SOL    HW2 2019   6.319   0.108   6.576
  374SOL     OW 2020   4.644   0.952   0.856
  374SOL    HW1 2021   4.619   0.867   0.808
  374SOL    HW2 2022   4.744   0.958   0.860
  375SOL     OW 2023   6.627   3.539   2.229
  375SOL    HW1 2024   6.685   3.540   2.148
  375SOL    HW2 2025   6.685   3.535   2.311
  376SOL     OW 2026   2.414   4.229   5.317
  376SOL    HW1 2027   2.496   4.240   5.373
  376SOL    HW2 2028   2.415   4.139   5.273
  377SOL     OW 2029   4.626   0.792   3.669
  377SOL    HW1 2030   4.641   0.707   3.618
  377SOL    HW2 2031   4.569   0.854   3.615
  378SOL     OW 2032   6.159   2.132   5.787
  378SOL    HW1 2033   6.204   2.124   5.876
  378SOL    HW2 2034   6.117   2.222   5.778
  379SOL     OW 2035   6.442   2.471   0.898
  379SOL    HW1 2036   6.392   2.476   0.984
  379SOL    HW2 2037   6.510   2.544   0.894
  380SOL     OW 2038   0.026   2.025   0.179
  380SOL    HW1 2039   0.094   2.082   0.133
  380SOL    HW2 2040   6.979   2.083   0.215
  381SOL     OW 2041   4.717   4.659   6.805
  381SOL    HW1 2042   4.808   4.625   6.829
  381SOL    HW2 2043   4.705   4.752   6.841
  382SOL     OW 2044   1.799   5.412   6.811
  382SOL    HW1 2045   1.827   5.395   6.716
  382SOL    HW2 2046   1.737   5.340   6.841
  383SOL     OW 2047   5.717   1.969   0.105
  383SOL    HW1 2048   5.761   1.914   0.034
  383SOL    HW2 2049   5.626   1.996   0.075
  384SOL     OW 2050   1.400   4.892   4.325
  384SOL    HW1 2051   1.466   4.952   4.369
  384SOL    HW2 2052   1.389   4.918   4.229
  385SOL     OW 2053   4.787   4.334   0.756
  385SOL    HW1 2054   4.861   4.399   0.773
  385SOL    HW2 2055   4.811   4.275   0.678
  386SOL     OW 2056   2.864   5.950   4.342
  386SOL    HW1 2057   2.909   5.878   4.290
  386SOL    HW2 2058   2.881   5.937   4.440
  387SOL     OW 2059   0.523   0.481   5.572
  387SOL    HW1 2060   0.512   0.529   5.485
  387SOL    HW2 2061   0.538   0.384   5.555
  388SOL     OW 2062   0.336   2.200   4.846
  388SOL    HW1 2063   0.356   2.102   4.853
  388SOL    HW2 2064   0.391   2.240   4.773
  389SOL     OW 2065   5.015   4.021   2.577
  389SOL    HW1 2066   5.034   4.119   2.585
  389SOL    HW2 2067   4.947   4.006   2.506
  390SOL     OW 2068   3.124   2.893   6.993
  390SOL    HW1 2069   3.146   2.981   6.951
  390SOL    HW2 2070   3.051   2.849   6.940
  391SOL     OW 2071   3.915   3.943   3.392
  391SOL    HW1 2072   3.856   3.917   3.468
  391SOL    HW2 2073   3.873   4.018   3.341
  392SOL     OW 2074   1.928   3.054   2.009
  392SOL    HW1 2075   1.961   2.959   2.005
  392SOL    HW2 2076   2.005   3.116   1.995
  393SOL     OW 2077   1.188   6.246   0.786
  393SOL    HW1 2078   1.096   6.245   0.748
  393SOL    HW2 2079   1.255   6.240   0.712
  394SOL     OW 2080   6.007   2.391   6.546
  394SOL    HW1 2081   6.096   2.397   6.592
  394SOL    HW2 2082   6.020   2.401   6.447
  395SOL     OW 2083   6.898   5.376   6.554
  395SOL    HW1 2084   6.992   5.363   6.584
  395SOL    HW2 2085   6.895   5.445   6.482
  396SOL     OW 2086   0.228   0.964   1.537
  396SOL    HW1 2087   0.187   0.922   1.618
  396SOL    HW2 2088   0.172   1.041   1.508
  397SOL     OW 2089   4.612   1.944   4.873
  397SOL    HW1 2090   4.592   2.041   4.860
  397SOL    HW2 2091   4.653   1.907   4.790
  398SOL     OW 2092   0.113   1.537   3.490
  398SOL    HW1 2093   0.062   1.481   3.425
  398SOL    HW2 2094   0.211   1.530   3.471
  399SOL     OW 2095   5.572   5.007   4.948
  399SOL    HW1 2096   5.481   4.966   4.943
  399SOL    HW2 2097   5.640   4.939   4.922
  400SOL     OW 2098   6.632   6.405   3.406
  400SOL    HW1 2099   6.629   6.374   3.310
  400SOL    HW2 2100   6.721   6.444   3.426
  401SOL     OW 2101   1.115   5.658   4.149
  401SOL    HW1 2102   1.121   5.571   4.198
  401SOL    HW2 2103   1.133   5.733   4.212
  402SOL     OW 2104   6.754   0.965   4.801
  402SOL    HW1 2105   6.704   0.903   4.861
  402SOL    HW2 2106   6.851   0.942   4.802
  403SOL     OW 2107   2.463   1.539   5.072
  403SOL    HW1 2108   2.368   1.513   5.055
  403SOL    HW2 2109   2.483   1.532   5.169
  404SOL     OW 2110   3.671   5.765   3.495
  404SOL    HW1 2111   3.706   5.752   3.402
  404SOL    HW2 2112   3.599   5.835   3.494
  405SOL     OW 2113   3.495   5.001   3.571
  405SOL    HW1 2114   3.522   4.984   3.666
  405SOL    HW2 2115   3.509   5.097   3.549
  406SOL     OW 2116   1.410   0.615   0.521
  406SOL    HW1 2117   1.492   0.638   0.573
  406SOL    HW2 2118   1.330   0.618   0.582
  407SOL     OW 2119   2.328   4.214   3.841
  407SOL    HW1 2120   2.271   4.133   3.834
  407SOL    HW2 2121   2.398   4.212   3.770
  408SOL     OW 2122   2.993   1.896   1.671
  408SOL    HW1 2123   3.028   1.989   1.677
  408SOL    HW2 2124   3.033   1.841   1.744
  409SOL     OW 2125   0.261   2.037   2.076
  409SOL    HW1 2126   0.354   2.001   2.067
  409SOL    HW2 2127   0.256   2.093   2.159
  410SOL     OW 2128   1.557   3.359   2.078
  410SOL    HW1 2129   1.541   3.313   1.990
  410SOL    HW2 2130   1.642   3.326   2.117
  411SOL     OW 2131   6.754   1.143   2.002
  411SOL    HW1 2132   6.721   1.161   1.909
  411SOL    HW2 2133   6.801   1.224   2.037
  412SOL     OW 2134   2.648   4.696   3.262
  412SOL    HW1 2135   2.647   4.610   3.314
  412SOL    HW2 2136   2.576   4.694   3.194
  413SOL     OW 2137   6.607   4.449   3.237
  413SOL    HW1 2138   6.704   4.472   3.243
  413SOL    HW2 2139   6.565   4.503   3.163
  414SOL     OW 2140   2.144   6.958   2.370
  414SOL    HW1 2141   2.100   0.014   2.334
  414SOL    HW2 2142   2.126   6.951   2.468
  415SOL     OW 2143   5.964   2.830   1.788
  415SOL    HW1 2144   5.994   2.819   1.883
  415SOL    HW2 2145   5.991   2.921   1.755
  416SOL     OW 2146   6.573   3.558   6.498
  416SOL    HW1 2147   6.613   3.619   6.567
  416SOL    HW2 2148   6.644   3.525   6.436
  417SOL     OW 2149   2.848   1.998   6.178
  417SOL    HW1 2150   2.766   1.946   6.154
  417SOL    HW2 2151   2.821   2.084   6.222
  418SOL     OW 2152   4.332   5.435   6.469
  418SOL    HW1 2153   4.429   5.415   6.461
  418SOL    HW2 2154   4.281   5.349   6.481
  419SOL     OW 2155   5.430   7.018   0.137
  419SOL    HW1 2156   5.457   0.029   0.225
  419SOL    HW2 2157   5.340   0.027   0.112
  420SOL     OW 2158   3.073   6.346   0.484
  420SOL    HW1 2159   3.154   6.312   0.533
  420SOL    HW2 2160   3.014   6.268   0.461
  421SOL     OW 2161   5.280   4.793   3.422
  421SOL    HW1 2162   5.370   4.768   3.458
  421SOL    HW2 2163   5.291   4.843   3.336
  422SOL     OW 2164   4.036   1.545   2.248
  422SOL    HW1 2165   4.035   1.564   2.150
  422SOL    HW2 2166   4.014   1.628   2.298
  423SOL     OW 2167   2.859   0.729   6.545
  423SOL    HW1 2168   2.836   0.827   6.546
  423SOL    HW2 2169   2.804   0.681   6.614
  424SOL     OW 2170   2.119   4.821   3.954
  424SOL    HW1 2171   2.094   4.895   3.891
  424SOL    HW2 2172   2.219   4.814   3.958
  425SOL     OW 2173   3.350   1.132   6.940
  425SOL    HW1 2174   3.410   1.106   6.864
  425SOL    HW2 2175   3.350   1.232   6.948
  426SOL     OW 2176   2.304   2.748   3.382
  426SOL    HW1 2177   2.377   2.686   3.353
  426SOL    HW2 2178   2.268   2.797   3.302
  427SOL     OW 2179   5.135   0.794   4.815
  427SOL    HW1 2180   5.080   0.722   4.857
  427SOL    HW2 2181   5.220   0.805   4.866
  428SOL     OW 2182   2.382   1.455   6.004
  428SOL    HW1 2183   2.447   1.382   6.026
  428SOL    HW2 2184   2.313   1.420   5.941
  429SOL     OW 2185   0.002   0.119   3.772
  429SOL    HW1 2186   6.944   0.137   3.823
  429SOL    HW2 2187   0.081   0.135   3.831
  430SOL     OW 2188   1.549   0.873   3.879
  430SOL    HW1 2189   1.604   0.816   3.941
  430SOL    HW2 2190   1.563   0.969   3.902
  431SOL     OW 2191   2.593   0.468   1.642
  431SOL    HW1 2192   2.630   0.459   1.550
  431SOL    HW2 2193   2.641   0.406   1.704
  432SOL     OW 2194   6.140   1.701   2.153
  432SOL    HW1 2195   6.230   1.659   2.143
  432SOL    HW2 2196   6.114   1.744   2.066
  433SOL     OW 2197   1.609   3.442   6.888
  433SOL    HW1 2198   1.534   3.439   6.954
  433SOL    HW2 2199   1.576   3.412   6.799
  434SOL     OW 2200   4.167   6.051   2.712
  434SOL    HW1 2201   4.138   6.074   2.805
  434SOL    HW2 2202   4.187   5.954   2.706
  435SOL     OW 2203   2.342   2.238   6.528
  435SOL    HW1 2204   2.336   2.176   6.607
  435SOL    HW2 2205   2.437   2.243   6.497
  436SOL     OW 2206   5.776   6.115   2.479
  436SOL    HW1 2207   5.792   6.190   2.544
  436SOL    HW2 2208   5.842   6.122   2.404
  437SOL     OW 2209   6.586   1.736   6.160
  437SOL    HW1 2210   6.677   1.695   6.158
  437SOL    HW2 2211   6.523   1.681   6.105
  438SOL     OW 2212   1.035   3.260   1.639
  438SOL    HW1 2213   1.117   3.249   1.584
  438SOL    HW2 2214   0.980   3.177   1.635
  439SOL     OW 2215   0.619   1.298   6.222
  439SOL    HW1 2216   0.583   1.389   6.202
  439SOL    HW2 2217   0.717   1.295   6.201
  440SOL     OW 2218   3.321   1.944   1.494
  440SOL    HW1 2219   3.359   1.852   1.496
  440SOL    HW2 2220   3.310   1.979   1.587
  441SOL     OW 2221   1.475   4.405   2.799
  441SOL    HW1 2222   1.481   4.326   2.860
  441SOL    HW2 2223   1.441   4.375   2.709
  442SOL     OW 2224   3.275   3.057   4.483
  442SOL    HW1 2225   3.236   3.148   4.478
  442SOL    HW2 2226   3.286   3.020   4.391
  443SOL     OW 2227   5.435   2.924   2.442
  443SOL    HW1 2228   5.366   2.855   2.461
  443SOL    HW2 2229   5.412   2.971   2.357
  444SOL     OW 2230   3.931   2.200   1.365
  444SOL    HW1 2231   3.967   2.116   1.325
  444SOL    HW2 2232   3.962   2.209   1.460
  445SOL     OW 2233   2.450   6.323   3.974
  445SOL    HW1 2234   2.392   6.247   3.942
  445SOL    HW2 2235   2.392   6.391   4.019
  446SOL     OW 2236   6.393   0.311   6.920
  446SOL    HW1 2237   6.489   0.325   6.895
  446SOL    HW2 2238   6.381   0.325   7.018
  447SOL     OW 2239   6.400   3.500   0.325
  447SOL    HW1 2240   6.313   3.523   0.368
  447SOL    HW2 2241   6.404   3.402   0.306
  448SOL     OW 2242   3.603   7.002   4.784
  448SOL    HW1 2243   3.681   6.959   4.739
  448SOL    HW2 2244   3.566   0.047   4.724
  449SOL     OW 2245   0.931   4.849   4.819
  449SOL    HW1 2246   0.874   4.820   4.896
  449SOL    HW2 2247   0.875   4.894   4.750
  450SOL     OW 2248   6.700   3.673   4.126
  450SOL    HW1 2249   6.613   3.684   4.175
  450SOL    HW2 2250   6.712   3.577   4.100
  451SOL     OW 2251   2.844   1.335   6.353
  451SOL    HW1 2252   2.796   1.333   6.440
  451SOL    HW2 2253   2.941   1.353   6.369
  452SOL     OW 2254   4.320   4.788   0.823
  452SOL    HW1 2255   4.328   4.800   0.724
  452SOL    HW2 2256   4.261   4.859   0.861
  453SOL     OW 2257   4.618   1.101   7.004
  453SOL    HW1 2258   4.524   1.069   6.990
  453SOL    HW2 2259   4.621   1.157   0.061
  454SOL     OW 2260   0.380   2.699   3.635
  454SOL    HW1 2261   0.466   2.649   3.630
  454SOL    HW2 2262   0.323   2.660   3.708
  455SOL     OW 2263   5.898   5.771   6.978
  455SOL    HW1 2264   5.847   5.838   6.924
  455SOL    HW2 2265   5.881   5.679   6.942
  456SOL     OW 2266   1.127   1.153   2.604
  456SOL    HW1 2267   1.107   1.072   2.659
  456SOL    HW2 2268   1.048   1.176   2.548
  457SOL     OW 2269   3.208   5.738   0.573
  457SOL    HW1 2270   3.287   5.782   0.615
  457SOL    HW2 2271   3.233   5.645   0.545
  458SOL     OW 2272   3.481   1.258   4.425
  458SOL    HW1 2273   3.477   1.200   4.506
  458SOL    HW2 2274   3.402   1.321   4.425
  459SOL     OW 2275   3.609   1.047   3.860
  459SOL    HW1 2276   3.594   1.145   3.849
  459SOL    HW2 2277   3.705   1.026   3.838
  460SOL     OW 2278   0.849   1.600   6.156
  460SOL    HW1 2279   0.920   1.644   6.101
  460SOL    HW2 2280   0.890   1.560   6.238
  461SOL     OW 2281   0.560   0.160   4.608
  461SOL    HW1 2282   0.478   0.148   4.553
  461SOL    HW2 2283   0.575   0.257   4.625
  462SOL     OW 2284   3.694   4.408   5.265
  462SOL    HW1 2285   3.712   4.362   5.177
  462SOL    HW2 2286   3.607   4.374   5.302
  463SOL     OW 2287   5.627   6.225   3.030
  463SOL    HW1 2288   5.651   6.311   3.077
  463SOL    HW2 2289   5.711   6.182   2.996
  464SOL     OW 2290   4.843   6.082   4.905
  464SOL    HW1 2291   4.896   6.165   4.922
  464SOL    HW2 2292   4.905   6.007   4.883
  465SOL     OW 2293   0.742   5.502   0.809
  465SOL    HW1 2294   0.716   5.406   0.798
  465SOL    HW2 2295   0.799   5.513   0.890
  466SOL     OW 2296   4.118   4.754   3.874
  466SOL    HW1 2297   4.044   4.816   3.848
  466SOL    HW2 2298   4.157   4.783   3.962
  467SOL     OW 2299   6.503   0.075   0.697
  467SOL    HW1 2300   6.419   0.035   0.735
  467SOL    HW2 2301   6.582   0.021   0.727
  468SOL     OW 2302   2.371   6.839   6.287
  468SOL    HW1 2303   2.440   6.911   6.294
  468SOL    HW2 2304   2.311   6.843   6.367
  469SOL     OW 2305   4.292   5.033   5.356
  469SOL    HW1 2306   4.382   4.997   5.331
  469SOL    HW2 2307   4.242   4.965   5.410
  470SOL     OW 2308   2.675   4.930   2.270
  470SOL    HW1 2309   2.722   4.850   2.235
  470SOL    HW2 2310   2.674   4.928   2.370
  471SOL     OW 2311   1.832   2.627   4.309
  471SOL    HW1 2312   1.893   2.662   4.239
  471SOL    HW2 2313   1.802   2.535   4.284
  472SOL     OW 2314   4.457   3.787   6.039
  472SOL    HW1 2315   4.433   3.701   5.994
  472SOL    HW2 2316   4.376   3.845   6.046
  473SOL     OW 2317   5.815   3.860   2.143
  473SOL    HW1 2318   5.801   3.934   2.209
  473SOL    HW2 2319   5.792   3.892   2.051
  474SOL     OW 2320   4.564   5.403   4.044
  474SOL    HW1 2321   4.479   5.391   4.096
  474SOL    HW2 2322   4.637   5.350   4.086
  475SOL     OW 2323   4.996   1.749   0.910
  475SOL    HW1 2324   4.958   1.834   0.947
  475SOL    HW2 2325   5.093   1.761   0.894
  476SOL     OW 2326   0.995   2.953   0.401
  476SOL    HW1 2327   1.046   2.948   0.487
  476SOL    HW2 2328   1.059   2.945   0.325
  477SOL     OW 2329   6.170   6.054   4.461
  477SOL    HW1 2330   6.163   5.977   4.525
  477SOL    HW2 2331   6.145   6.139   4.507
  478SOL     OW 2332   6.496   5.647   1.646
  478SOL    HW1 2333   6.420   5.688   1.696
  478SOL    HW2 2334   6.575   5.639   1.707
  479SOL     OW 2335   3.733   3.837   2.598
  479SOL    HW1 2336   3.791   3.914   2.570
  479SOL    HW2 2337   3.784   3.751   2.586
  480SOL     OW 2338   6.388   0.411   1.128
  480SOL    HW1 2339   6.456   0.484   1.140
  480SOL    HW2 2340   6.311   0.426   1.190
  481SOL     OW 2341   5.667   6.663   0.355
  481SOL    HW1 2342   5.699   6.758   0.360
  481SOL    HW2 2343   5.725   6.612   0.291
  482SOL     OW 2344   3.922   5.328   2.484
  482SOL    HW1 2345   3.997   5.270   2.454
  482SOL    HW2 2346   3.883   5.376   2.405
  483SOL     OW 2347   6.199   2.715   5.298
  483SOL    HW1 2348   6.157   2.633   5.337
  483SOL    HW2 2349   6.274   2.746   5.357
  484SOL     OW 2350   2.837   5.619   4.461
  484SOL    HW1 2351   2.827   5.539   4.520
  484SOL    HW2 2352   2.788   5.697   4.501
  485SOL     OW 2353   5.273   2.860   0.948
  485SOL    HW1 2354   5.369   2.843   0.971
  485SOL    HW2 2355   5.233   2.779   0.906
  486SOL     OW 2356   6.054   6.584   5.782
  486SOL    HW1 2357   6.093   6.492   5.793
  486SOL    HW2 2358   5.986   6.599   5.854
  487SOL     OW 2359   6.036   1.368   0.091
  487SOL    HW1 2360   6.103   1.337   0.024
  487SOL    HW2 2361   6.007   1.461   0.069
  488SOL     OW 2362   1.397   6.245   4.101
  488SOL    HW1 2363   1.490   6.221   4.128
  488SOL    HW2 2364   1.376   6.203   4.013
  489SOL     OW 2365   2.624   4.244   5.498
  489SOL    HW1 2366   2.711   4.221   5.454
  489SOL    HW2 2367   2.624   4.341   5.523
  490SOL     OW 2368   0.917   3.773   4.899
  490SOL    HW1 2369   0.997   3.793   4.956
  490SOL    HW2 2370   0.919   3.832   4.818
  491SOL     OW 2371   6.769   3.339   1.948
  491SOL    HW1 2372   6.805   3.424   1.987
  491SOL    HW2 2373   6.844   3.280   1.921
  492SOL     OW 2374   1.419   1.876   6.173
  492SOL    HW1 2375   1.401   1.943   6.101
  492SOL    HW2 2376   1.480   1.917   6.241
  493SOL     OW 2377   2.029   5.682   4.106
  493SOL    HW1 2378   1.997   5.628   4.184
  493SOL    HW2 2379   2.032   5.624   4.025
  494SOL     OW 2380   2.722   6.611   2.453
  494SOL    HW1 2381   2.746   6.695   2.405
  494SOL    HW2 2382   2.802   6.577   2.503
  495SOL     OW 2383   3.536   4.715   6.187
  495SOL    HW1 2384   3.481   4.654   6.129
  495SOL    HW2 2385   3.534   4.808   6.150
  496SOL     OW 2386   4.938   0.295   2.683
  496SOL    HW1 2387   4.982   0.216   2.725
  496SOL    HW2 2388   4.865   0.264   2.622
  497SOL     OW 2389   4.459   2.882   0.903
  497SOL    HW1 2390   4.521   2.923   0.970
  497SOL    HW2 2391   4.369   2.869   0.945
  498SOL     OW 2392   0.617   6.988   0.678
  498SOL    HW1 2393   0.540   7.007   0.617
  498SOL    HW2 2394   0.702   7.018   0.635
  499SOL     OW 2395   2.732   6.800   6.202
  499SOL    HW1 2396   2.646   6.850   6.197
  499SOL    HW2 2397   2.720   6.718   6.258
  500SOL     OW 2398   6.379   1.598   6.045
  500SOL    HW1 2399   6.395   1.506   6.008
  500SOL    HW2 2400   6.304   1.595   6.110
  501SOL     OW 2401   2.019   2.010   4.829
  501SOL    HW1 2402   2.045   2.051   4.742
  501SOL    HW2 2403   2.081   2.042   4.901
  502SOL     OW 2404   3.399   2.582   6.817
  502SOL    HW1 2405   3.347   2.629   6.888
  502SOL    HW2 2406   3.490   2.559   6.853
  503SOL     OW 2407   3.896   5.195   1.212
  503SOL    HW1 2408   3.841   5.279   1.212
  503SOL    HW2 2409   3.847   5.123   1.261
  504SOL     OW 2410   6.423   0.651   6.329
  504SOL    HW1 2411   6.336   0.629   6.285
  504SOL    HW2 2412   6.438   0.589   6.405
  505SOL     OW 2413   0.229   3.926   5.754
  505SOL    HW1 2414   0.218   3.959   5.660
  505SOL    HW2 2415   0.195   3.832   5.761
  506SOL     OW 2416   3.176   6.272   2.353
  506SOL    HW1 2417   3.135   6.278   2.444
  506SOL    HW2 2418   3.260   6.218   2.357
  507SOL     OW 2419   1.965   6.915   3.648
  507SOL    HW1 2420   1.978   6.966   3.563
  507SOL    HW2 2421   2.040   6.934   3.711
  508SOL     OW 2422   0.417   4.939   2.619
  508SOL    HW1 2423   0.512   4.950   2.590
  508SOL    HW2 2424   0.364   4.895   2.546
  509SOL     OW 2425   4.604   0.522   5.861
  509SOL    HW1 2426   4.686   0.542   5.913
  509SOL    HW2 2427   4.534   0.485   5.922
  510SOL     OW 2428   6.511   4.903   0.042
  510SOL    HW1 2429   6.548   4.812   0.028
  510SOL    HW2 2430   6.469   4.936   6.984
  511SOL     OW 2431   6.910   2.358   0.813
  511SOL    HW1 2432   7.008   2.359   0.833
  511SOL    HW2 2433   6.890   2.285   0.748
  512SOL     OW 2434   1.848   1.499   4.643
  512SOL    HW1 2435   1.792   1.580   4.623
  512SOL    HW2 2436   1.857   1.489   4.742
  513SOL     OW 2437   5.661   5.341   2.318
  513SOL    HW1 2438   5.658   5.281   2.398
  513SOL    HW2 2439   5.570   5.349   2.278
  514SOL     OW 2440   4.891   1.279   4.981
  514SOL    HW1 2441   4.835   1.362   4.979
  514SOL    HW2 2442   4.924   1.263   5.074
  515SOL     OW 2443   2.888   0.378   6.760
  515SOL    HW1 2444   2.926   0.294   6.722
  515SOL    HW2 2445   2.835   0.358   6.841
  516SOL     OW 2446   0.654   5.804   2.626
  516SOL    HW1 2447   0.679   5.707   2.625
  516SOL    HW2 2448   0.573   5.817   2.568
  517SOL     OW 2449   3.481   4.808   0.258
  517SOL    HW1 2450   3.472   4.900   0.220
  517SOL    HW2 2451   3.509   4.813   0.353
  518SOL     OW 2452   2.005   0.177   3.543
  518SOL    HW1 2453   2.072   0.213   3.608
  518SOL    HW2 2454   1.926   0.238   3.540
  519SOL     OW 2455   0.356   6.475   3.450
  519SOL    HW1 2456   0.393   6.568   3.452
  519SOL    HW2 2457   0.419   6.413   3.497
  520SOL     OW 2458   3.500   5.086   0.199
  520SOL    HW1 2459   3.564   5.095   0.275
  520SOL    HW2 2460   3.409   5.115   0.229
  521SOL     OW 2461   0.082   0.124   4.949
  521SOL    HW1 2462   0.022   0.066   4.895
  521SOL    HW2 2463   0.066   0.220   4.925
  522SOL     OW 2464   3.054   5.610   6.083
  522SOL    HW1 2465   3.127   5.608   6.151
  522SOL    HW2 2466   3.093   5.613   5.991
  523SOL     OW 2467   1.930   6.905   6.181
  523SOL    HW1 2468   1.987   6.907   6.098
  523SOL    HW2 2469   1.843   6.949   6.162
  524SOL     OW 2470   6.543   1.863   1.627
  524SOL    HW1 2471   6.516   1.917   1.707
  524SOL    HW2 2472   6.600   1.919   1.567
  525SOL     OW 2473   6.827   3.076   3.933
  525SOL    HW1 2474   6.751   3.141   3.941
  525SOL    HW2 2475   6.883   3.101   3.854
  526SOL     OW 2476   4.402   6.121   5.094
  526SOL    HW1 2477   4.389   6.214   5.129
  526SOL    HW2 2478   4.389   6.055   5.167
  527SOL     OW 2479   6.717   1.895   0.264
  527SOL    HW1 2480   6.761   1.817   0.308
  527SOL    HW2 2481   6.767   1.979   0.286
  528SOL     OW 2482   6.769   1.682   3.336
  528SOL    HW1 2483   6.804   1.645   3.250
  528SOL    HW2 2484   6.801   1.627   3.413
  529SOL     OW 2485   1.222   1.556   5.562
  529SOL    HW1 2486   1.239   1.562   5.660
  529SOL    HW2 2487   1.136   1.508   5.545
  530SOL     OW 2488   3.462   4.465   1.661
  530SOL    HW1 2489   3.452   4.378   1.710
  530SOL    HW2 2490   3.483   4.538   1.726
  531SOL     OW 2491   0.062   1.407   5.861
  531SOL    HW1 2492   0.093   1.478   5.923
  531SOL    HW2 2493   0.075   1.437   5.766
  532SOL     OW 2494   3.344   1.152   6.538
  532SOL    HW1 2495   3.409   1.147   6.615
  532SOL    HW2 2496   3.394   1.177   6.455
  533SOL     OW 2497   3.226   6.762   4.909
  533SOL    HW1 2498   3.320   6.762   4.943
  533SOL    HW2 2499   3.163   6.766   4.986
  534SOL     OW 2500   1.637   3.984   0.717
  534SOL    HW1 2501   1.551   3.936   0.734
  534SOL    HW2 2502   1.693   3.930   0.654
  535SOL     OW 2503   5.357   3.902   3.562
  535SOL    HW1 2504   5.375   3.990   3.519
  535SOL    HW2 2505   5.317   3.839   3.494
  536SOL     OW 2506   6.490   0.445   0.845
  536SOL    HW1 2507   6.422   0.428   0.917
  536SOL    HW2 2508   6.469   0.531   0.799
  537SOL     OW 2509   3.584   2.028   2.599
  537SOL    HW1 2510   3.606   2.023   2.502
  537SOL    HW2 2511   3.489   1.999   2.613
  538SOL     OW 2512   4.374   5.696   6.571
  538SOL    HW1 2513   4.288   5.743   6.585
  538SOL    HW2 2514   4.356   5.601   6.544
  539SOL     OW 2515   3.078   6.520   6.783
  539SOL    HW1 2516   3.043   6.578   6.856
  539SOL    HW2 2517   3.005   6.503   6.716
  540SOL     OW 2518   1.753   1.823   5.728
  540SOL    HW1 2519   1.725   1.779   5.814
  540SOL    HW2 2520   1.732   1.763   5.651
  541SOL     OW 2521   5.990   5.807   1.729
  541SOL    HW1 2522   5.950   5.897   1.745
  541SOL    HW2 2523   5.932   5.756   1.666
  542SOL     OW 2524   4.189   5.641   5.965
  542SOL    HW1 2525   4.217   5.562   5.910
  542SOL    HW2 2526   4.120   5.612   6.031
  543SOL     OW 2527   7.009   2.194   5.216
  543SOL    HW1 2528   0.003   2.154   5.305
  543SOL    HW2 2529   6.963   2.282   5.228
  544SOL     OW 2530   0.751   2.112   1.174
  544SOL    HW1 2531   0.731   2.018   1.199
  544SOL    HW2 2532   0.850   2.125   1.172
  545SOL     OW 2533   6.935   4.820   0.568
  545SOL    HW1 2534   6.896   4.898   0.617
  545SOL    HW2 2535   6.966   4.752   0.635
  546SOL     OW 2536   6.861   6.031   2.401
  546SOL    HW1 2537   6.869   6.129   2.413
  546SOL    HW2 2538   6.859   5.986   2.491
  547SOL     OW 2539   3.579   6.356   0.189
  547SOL    HW1 2540   3.620   6.348   0.279
  547SOL    HW2 2541   3.496   6.299   0.185
  548SOL     OW 2542   4.138   3.537   6.209
  548SOL    HW1 2543   4.066   3.468   6.203
  548SOL    HW2 2544   4.127   3.590   6.293
  549SOL     OW 2545   4.753   2.809   4.114
  549SOL    HW1 2546   4.692   2.743   4.069
  549SOL    HW2 2547   4.847   2.792   4.086
  550SOL     OW 2548   6.826   5.769   4.379
  550SOL    HW1 2549   6.894   5.838   4.353
  550SOL    HW2 2550   6.759   5.759   4.306
  551SOL     OW 2551   5.250   0.799   6.692
  551SOL    HW1 2552   5.300   0.714   6.677
  551SOL    HW2 2553   5.294   0.874   6.642
  552SOL     OW 2554   1.283   0.296   4.118
  552SOL    HW1 2555   1.323   0.205   4.121
  552SOL    HW2 2556   1.328   0.351   4.048
  553SOL     OW 2557   4.387   2.777   5.908
  553SOL    HW1 2558   4.328   2.713   5.858
  553SOL    HW2 2559   4.459   2.726   5.955
  554SOL     OW 2560   6.648   4.777   0.474
  554SOL    HW1 2561   6.637   4.710   0.401
  554SOL    HW2 2562   6.741   4.772   0.510
  555SOL     OW 2563   4.151   5.099   5.776
  555SOL    HW1 2564   4.079   5.078   5.842
  555SOL    HW2 2565   4.127   5.183   5.727
  556SOL     OW 2566   5.584   5.798   3.124
  556SOL    HW1 2567   5.609   5.826   3.031
  556SOL    HW2 2568   5.581   5.878   3.184
  557SOL     OW 2569   0.157   3.542   0.240
  557SOL    HW1 2570   0.168   3.444   0.251
  557SOL    HW2 2571   0.246   3.585   0.225
  558SOL     OW 2572   3.639   3.654   1.599
  558SOL    HW1 2573   3.692   3.575   1.629
  558SOL    HW2 2574   3.571   3.626   1.532
  559SOL     OW 2575   5.655   1.600   5.959
  559SOL    HW1 2576   5.694   1.642   5.877
  559SOL    HW2 2577   5.704   1.515   5.979
  560SOL     OW 2578   1.992   2.276   2.821
  560SOL    HW1 2579   2.079   2.227   2.816
  560SOL    HW2 2580   2.000   2.350   2.888
  561SOL     OW 2581   6.566   3.991   0.825
  561SOL    HW1 2582   6.612   3.903   0.817
  561SOL    HW2 2583   6.501   4.002   0.749
  562SOL     OW 2584   3.054   6.242   2.626
  562SOL    HW1 2585   3.133   6.190   2.659
  562SOL    HW2 2586   2.970   6.188   2.640
  563SOL     OW 2587   0.905   0.301   3.935
  563SOL    HW1 2588   0.882   0.223   3.877
  563SOL    HW2 2589   0.822   0.354   3.954
  564SOL     OW 2590   6.051   2.818   5.952
  564SOL    HW1 2591   6.064   2.896   5.890
  564SOL    HW2 2592   5.960   2.780   5.939
  565SOL     OW 2593   3.522   3.224   3.398
  565SOL    HW1 2594   3.607   3.217   3.451
  565SOL    HW2 2595   3.541   3.205   3.302
  566SOL     OW 2596   0.893   2.582   3.247
  566SOL    HW1 2597   0.952   2.664   3.245
  566SOL    HW2 2598   0.950   2.500   3.250
  567SOL     OW 2599   1.731   2.471   5.196
  567SOL    HW1 2600   1.785   2.404   5.248
  567SOL    HW2 2601   1.634   2.449   5.205
  568SOL     OW 2602   0.731   0.028   0.001
  568SOL    HW1 2603   0.679   0.064   6.950
  568SOL    HW2 2604   0.829   0.032   7.006
  569SOL     OW 2605   5.369   3.428   5.097
  569SOL    HW1 2606   5.299   3.371   5.053
  569SOL    HW2 2607   5.356   3.524   5.071
  570SOL     OW 2608   2.836   0.309   5.381
  570SOL    HW1 2609   2.925   0.354   5.375
  570SOL    HW2 2610   2.777   0.342   5.307
  571SOL     OW 2611   2.445   4.487   2.456
  571SOL    HW1 2612   2.420   4.393   2.431
  571SOL    HW2 2613   2.395   4.552   2.399
  572SOL     OW 2614   2.519   1.569   4.788
  572SOL    HW1 2615   2.552   1.662   4.777
  572SOL    HW2 2616   2.473   1.560   4.877
  573SOL     OW 2617   0.457   0.155   6.042
  573SOL    HW1 2618   0.454   0.117   6.134
  573SOL    HW2 2619   0.533   0.114   5.991
  574SOL     OW 2620   2.816   1.292   5.911
  574SOL    HW1 2621   2.843   1.198   5.928
  574SOL    HW2 2622   2.722   1.295   5.877
  575SOL     OW 2623   3.824   3.790   6.978
  575SOL    HW1 2624   3.889   3.779   0.027
  575SOL    HW2 2625   3.828   3.885   6.945
  576SOL     OW 2626   6.714   0.894   4.250
  576SOL    HW1 2627   6.713   0.889   4.150
  576SOL    HW2 2628   6.800   0.858   4.285
  577SOL     OW 2629   6.167   0.626   1.556
  577SOL    HW1 2630   6.179   0.586   1.465
  577SOL    HW2 2631   6.208   0.717   1.558
  578SOL     OW 2632   4.030   6.967   0.853
  578SOL    HW1 2633   4.045   6.869   0.862
  578SOL    HW2 2634   3.973   7.000   0.929
  579SOL     OW 2635   0.490   4.158   2.160
  579SOL    HW1 2636   0.548   4.175   2.080
  579SOL    HW2 2637   0.428   4.082   2.140
  580SOL     OW 2638   4.810   4.627   4.587
  580SOL    HW1 2639   4.742   4.666   4.649
  580SOL    HW2 2640   4.778   4.537   4.556
  581SOL     OW 2641   2.786   2.009   4.207
  581SOL    HW1 2642   2.819   1.973   4.294
  581SOL    HW2 2643   2.840   2.089   4.181
  582SOL     OW 2644   6.491   4.903   5.182
  582SOL    HW1 2645   6.510   4.932   5.089
  582SOL    HW2 2646   6.495   4.803   5.187
  583SOL     OW 2647   3.007   6.125   5.135
  583SOL    HW1 2648   2.957   6.054   5.185
  583SOL    HW2 2649   2.995   6.213   5.181
  584SOL     OW 2650   3.841   0.797   5.086
  584SOL    HW1 2651   3.867   0.776   5.180
  584SOL    HW2 2652   3.896   0.742   5.023
  585SOL     OW 2653   3.675   6.678   1.495
  585SOL    HW1 2654   3.658   6.581   1.517
  585SOL    HW2 2655   3.622   6.736   1.556
  586SOL     OW 2656   3.327   6.413   1.130
  586SOL    HW1 2657   3.381   6.468   1.194
  586SOL    HW2 2658   3.264   6.472   1.080
  587SOL     OW 2659   5.666   0.812   3.447
  587SOL    HW1 2660   5.621   0.792   3.360
  587SOL    HW2 2661   5.703   0.727   3.486
  588SOL     OW 2662   2.223   4.241   2.852
  588SOL    HW1 2663   2.313   4.282   2.866
  588SOL    HW2 2664   2.155   4.291   2.906
  589SOL     OW 2665   3.554   5.075   5.631
  589SOL    HW1 2666   3.463   5.097   5.597
  589SOL    HW2 2667   3.549   4.994   5.689
  590SOL     OW 2668   2.045   0.778   6.490
  590SOL    HW1 2669   2.033   0.866   6.443
  590SOL    HW2 2670   1.984   0.710   6.448
  591SOL     OW 2671   2.815   0.337   3.484
  591SOL    HW1 2672   2.800   0.273   3.560
  591SOL    HW2 2673   2.900   0.387   3.498
  592SOL     OW 2674   4.908   1.562   4.249
  592SOL    HW1 2675   4.836   1.596   4.309
  592SOL    HW2 2676   4.990   1.541   4.302
  593SOL     OW 2677   1.289   6.700   0.051
  593SOL    HW1 2678   1.280   6.623   7.015
  593SOL    HW2 2679   1.227   6.774   0.023
  594SOL     OW 2680   2.529   1.125   4.972
  594SOL    HW1 2681   2.469   1.172   5.037
  594SOL    HW2 2682   2.597   1.072   5.022
  595SOL     OW 2683   5.903   4.013   2.587
  595SOL    HW1 2684   5.828   3.948   2.596
  595SOL    HW2 2685   5.979   3.969   2.539
  596SOL     OW 2686   6.669   5.102   5.274
  596SOL    HW1 2687   6.759   5.070   5.243
  596SOL    HW2 2688   6.606   5.025   5.277
  597SOL     OW 2689   3.697   0.932   0.001
  597SOL    HW1 2690   3.761   0.905   6.955
  597SOL    HW2 2691   3.606   0.896   7.006
  598SOL     OW 2692   3.351   3.129   2.034
  598SOL    HW1 2693   3.304   3.064   1.974
  598SOL    HW2 2694   3.290   3.155   2.109
  599SOL     OW 2695   1.633   5.613   1.898
  599SOL    HW1 2696   1.693   5.680   1.855
  599SOL    HW2 2697   1.542   5.652   1.909
  600SOL     OW 2698   0.859   4.221   5.541
  600SOL    HW1 2699   0.775   4.193   5.587
  600SOL    HW2 2700   0.935   4.221   5.606
  601SOL     OW 2701   6.744   0.124   5.772
  601SOL    HW1 2702   6.799   0.177   5.837
  601SOL    HW2 2703   6.799   0.105   5.690
  602SOL     OW 2704   0.258   0.734   3.173
  602SOL    HW1 2705   0.274   0.809   3.108
  602SOL    HW2 2706   0.284   0.648   3.130
  603SOL     OW 2707   1.106   1.036   3.864
  603SOL    HW1 2708   1.133   1.074   3.775
  603SOL    HW2 2709   1.142   0.944   3.874
  604SOL     OW 2710   5.557   2.640   1.283
  604SOL    HW1 2711   5.653   2.667   1.290
  604SOL    HW2 2712   5.502   2.698   1.344
  605SOL     OW 2713   6.049   6.537   1.689
  605SOL    HW1 2714   5.968   6.564   1.637
  605SOL    HW2 2715   6.041   6.570   1.783
  606SOL     OW 2716   2.477   6.761   5.396
  606SOL    HW1 2717   2.444   6.667   5.407
  606SOL    HW2 2718   2.563   6.760   5.346
  607SOL     OW 2719   1.711   3.592   5.823
  607SOL    HW1 2720   1.653   3.549   5.892
  607SOL    HW2 2721   1.769   3.523   5.779
  608SOL     OW 2722   2.559   1.282   6.867
  608SOL    HW1 2723   2.584   1.185   6.867
  608SOL    HW2 2724   2.459   1.290   6.867
  609SOL     OW 2725   3.906   2.986   2.465
  609SOL    HW1 2726   3.825   2.931   2.488
  609SOL    HW2 2727   3.982   2.925   2.441
  610SOL     OW 2728   5.707   2.932   2.424
  610SOL    HW1 2729   5.738   2.949   2.518
  610SOL    HW2 2730   5.607   2.929   2.422
  611SOL     OW 2731   4.141   1.190   2.006
  611SOL    HW1 2732   4.230   1.181   2.049
  611SOL    HW2 2733   4.131   1.282   1.968
  612SOL     OW 2734   4.290   5.601   4.412
  612SOL    HW1 2735   4.326   5.645   4.495
  612SOL    HW2 2736   4.338   5.515   4.397
  613SOL     OW 2737   3.913   6.374   6.687
  613SOL    HW1 2738   3.981   6.431   6.734
  613SOL    HW2 2739   3.823   6.416   6.695
  614SOL     OW 2740   3.441   6.700   6.127
  614SOL    HW1 2741   3.396   6.618   6.162
  614SOL    HW2 2742   3.485   6.680   6.040
  615SOL     OW 2743   0.054   5.044   4.163
  615SOL    HW1 2744   0.056   5.116   4.232
  615SOL    HW2 2745   0.023   4.959   4.204
  616SOL     OW 2746   6.545   3.294   3.943
  616SOL    HW1 2747   6.523   3.302   4.040
  616SOL    HW2 2748   6.485   3.224   3.902
  617SOL     OW 2749   2.737   0.095   6.143
  617SOL    HW1 2750   2.640   0.072   6.153
  617SOL    HW2 2751   2.760   0.172   6.203
  618SOL     OW 2752   2.409   0.060   2.932
  618SOL    HW1 2753   2.501   0.089   2.905
  618SOL    HW2 2754   2.358   0.137   2.968
  619SOL     OW 2755   1.419   2.894   0.028
  619SOL    HW1 2756   1.485   2.837   0.078
  619SOL    HW2 2757   1.448   2.990   0.032
  620SOL     OW 2758   5.094   3.620   1.110
  620SOL    HW1 2759   5.076   3.700   1.052
  620SOL    HW2 2760   5.146   3.649   1.191
  621SOL     OW 2761   0.038   5.831   1.109
  621SOL    HW1 2762   0.106   5.875   1.052
  621SOL    HW2 2763   0.055   5.853   1.205
  622SOL     OW 2764   1.333   1.617   6.968
  622SOL    HW1 2765   1.255   1.561   6.942
  622SOL    HW2 2766   1.364   1.670   6.889
  623SOL     OW 2767   6.058   5.735   5.586
  623SOL    HW1 2768   5.986   5.787   5.539
  623SOL    HW2 2769   6.021   5.646   5.613
  624SOL     OW 2770   6.761   1.492   1.347
  624SOL    HW1 2771   6.699   1.419   1.375
  624SOL    HW2 2772   6.785   1.479   1.250
  625SOL     OW 2773   1.875   1.064   1.708
  625SOL    HW1 2774   1.933   1.120   1.650
  625SOL    HW2 2775   1.790   1.041   1.659
  626SOL     OW 2776   4.171   5.892   5.619
  626SOL    HW1 2777   4.132   5.935   5.537
  626SOL    HW2 2778   4.166   5.793   5.610
  627SOL     OW 2779   4.256   4.993   6.923
  627SOL    HW1 2780   4.262   4.926   6.997
  627SOL    HW2 2781   4.163   4.996   6.887
  628SOL     OW 2782   4.946   3.598   4.210
  628SOL    HW1 2783   4.908   3.524   4.267
  628SOL    HW2 2784   4.910   3.686   4.242
  629SOL     OW 2785   0.920   0.329   1.583
  629SOL    HW1 2786   0.902   0.233   1.562
  629SOL    HW2 2787   0.921   0.342   1.682
  630SOL     OW 2788   2.680   1.585   2.127
  630SOL    HW1 2789   2.620   1.523   2.178
  630SOL    HW2 2790   2.745   1.626   2.190
  631SOL     OW 2791   2.744   1.406   4.042
  631SOL    HW1 2792   2.797   1.487   4.016
  631SOL    HW2 2793   2.805   1.327   4.047
  632SOL     OW 2794   2.794   0.850   0.396
  632SOL    HW1 2795   2.828   0.929   0.448
  632SOL    HW2 2796   2.738   0.792   0.455
  633SOL     OW 2797   2.235   0.297   4.390
  633SOL    HW1 2798   2.299   0.284   4.313
  633SOL    HW2 2799   2.158   0.353   4.360
  634SOL     OW 2800   2.698   5.528   1.972
  634SOL    HW1 2801   2.731   5.621   1.952
  634SOL    HW2 2802   2.644   5.529   2.055
  635SOL     OW 2803   2.981   0.213   1.889
  635SOL    HW1 2804   3.000   0.123   1.929
  635SOL    HW2 2805   3.006   0.284   1.954
  636SOL     OW 2806   4.987   5.339   6.393
  636SOL    HW1 2807   5.018   5.273   6.325
  636SOL    HW2 2808   4.889   5.328   6.408
  637SOL     OW 2809   5.973   4.532   6.330
  637SOL    HW1 2810   5.976   4.470   6.252
  637SOL    HW2 2811   6.023   4.616   6.309
  638SOL     OW 2812   5.641   1.574   3.530
  638SOL    HW1 2813   5.727   1.623   3.528
  638SOL    HW2 2814   5.658   1.476   3.537
  639SOL     OW 2815   3.669   3.356   1.348
  639SOL    HW1 2816   3.738   3.339   1.418
  639SOL    HW2 2817   3.698   3.432   1.291
  640SOL     OW 2818   3.385   3.125   5.433
  640SOL    HW1 2819   3.293   3.099   5.401
  640SOL    HW2 2820   3.379   3.157   5.527
  641SOL     OW 2821   0.660   0.584   4.841
  641SOL    HW1 2822   0.565   0.575   4.811
  641SOL    HW2 2823   0.665   0.572   4.940
  642SOL     OW 2824   0.710   5.194   6.813
  642SOL    HW1 2825   0.695   5.122   6.745
  642SOL    HW2 2826   0.682   5.160   6.903
  643SOL     OW 2827   5.416   6.827   4.556
  643SOL    HW1 2828   5.323   6.850   4.526
  643SOL    HW2 2829   5.423   6.840   4.655
  644SOL     OW 2830   3.173   5.704   2.118
  644SOL    HW1 2831   3.220   5.780   2.163
  644SOL    HW2 2832   3.079   5.700   2.151
  645SOL     OW 2833   0.951   3.144   3.365
  645SOL    HW1 2834   0.989   3.074   3.425
  645SOL    HW2 2835   0.995   3.138   3.275
  646SOL     OW 2836   1.690   3.525   4.172
  646SOL    HW1 2837   1.644   3.444   4.135
  646SOL    HW2 2838   1.742   3.499   4.253
  647SOL     OW 2839   5.431   5.320   1.041
  647SOL    HW1 2840   5.394   5.277   1.123
  647SOL    HW2 2841   5.509   5.266   1.008
  648SOL     OW 2842   4.207   2.266   4.108
  648SOL    HW1 2843   4.261   2.308   4.034
  648SOL    HW2 2844   4.114   2.251   4.076
  649SOL     OW 2845   4.238   4.279   1.397
  649SOL    HW1 2846   4.191   4.363   1.422
  649SOL    HW2 2847   4.179   4.200   1.417
  650SOL     OW 2848   5.857   5.527   0.597
  650SOL    HW1 2849   5.957   5.523   0.599
  650SOL    HW2 2850   5.825   5.547   0.505
  651SOL     OW 2851   1.200   5.327   6.464
  651SOL    HW1 2852   1.288   5.339   6.510
  651SOL    HW2 2853   1.173   5.414   6.422
  652SOL     OW 2854   4.833   2.836   1.503
  652SOL    HW1 2855   4.902   2.900   1.470
  652SOL    HW2 2856   4.789   2.873   1.585
  653SOL     OW 2857   3.658   5.517   2.490
  653SOL    HW1 2858   3.722   5.465   2.433
  653SOL    HW2 2859   3.580   5.459   2.513
  654SOL     OW 2860   6.750   4.113   6.956
  654SOL    HW1 2861   6.835   4.166   6.968
  654SOL    HW2 2862   6.747   4.076   6.863
  655SOL     OW 2863   2.091   1.369   0.573
  655SOL    HW1 2864   2.101   1.465   0.598
  655SOL    HW2 2865   2.087   1.313   0.657
  656SOL     OW 2866   2.299   6.223   0.836
  656SOL    HW1 2867   2.263   6.206   0.744
  656SOL    HW2 2868   2.296   6.139   0.889
  657SOL     OW 2869   3.716   0.388   6.202
  657SOL    HW1 2870   3.736   0.454   6.131
  657SOL    HW2 2871   3.801   0.350   6.238
  658SOL     OW 2872   4.077   5.408   0.237
  658SOL    HW1 2873   4.167   5.438   0.204
  658SOL    HW2 2874   4.010   5.481   0.222
  659SOL     OW 2875   3.299   1.037   6.163
  659SOL    HW1 2876   3.296   1.073   6.070
  659SOL    HW2 2877   3.212   0.994   6.185
  660SOL     OW 2878   3.102   6.449   3.716
  660SOL    HW1 2879   3.200   6.467   3.712
  660SOL    HW2 2880   3.070   6.415   3.628
  661SOL     OW 2881   0.377   5.009   2.947
  661SOL    HW1 2882   0.350   4.927   2.898
  661SOL    HW2 2883   0.477   5.018   2.946
  662SOL     OW 2884   3.681   2.126   0.051
  662SOL    HW1 2885   3.778   2.150   0.043
  662SOL    HW2 2886   3.647   2.153   0.141
  663SOL     OW 2887   1.561   3.791   4.916
  663SOL    HW1 2888   1.589   3.846   4.837
  663SOL    HW2 2889   1.596   3.698   4.905
  664SOL     OW 2890   5.395   0.115   6.184
  664SOL    HW1 2891   5.331   0.134   6.258
  664SOL    HW2 2892   5.451   0.195   6.167
  665SOL     OW 2893   1.714   4.159   2.078
  665SOL    HW1 2894   1.762   4.091   2.135
  665SOL    HW2 2895   1.695   4.241   2.133
  666SOL     OW 2896   4.020   0.762   3.048
  666SOL    HW1 2897   4.049   0.679   3.000
  666SOL    HW2 2898   3.921   0.759   3.062
  667SOL     OW 2899   6.181   6.958   1.109
  667SOL    HW1 2900   6.112   7.018   1.150
  667SOL    HW2 2901   6.206   6.887   1.174
  668SOL     OW 2902   5.017   3.554   6.773
  668SOL    HW1 2903   5.110   3.521   6.786
  668SOL    HW2 2904   4.996   3.623   6.842
  669SOL     OW 2905   5.846   0.655   3.614
  669SOL    HW1 2906   5.875   0.562   3.594
  669SOL    HW2 2907   5.880   0.716   3.542
  670SOL     OW 2908   4.184   1.763   1.912
  670SOL    HW1 2909   4.102   1.745   1.966
  670SOL    HW2 2910   4.260   1.784   1.973
  671SOL     OW 2911   0.839   5.443   1.672
  671SOL    HW1 2912   0.812   5.432   1.576
  671SOL    HW2 2913   0.831   5.356   1.720
  672SOL     OW 2914   0.081   0.190   1.254
  672SOL    HW1 2915   0.050   0.099   1.229
  672SOL    HW2 2916   0.073   0.251   1.175
  673SOL     OW 2917   6.419   6.839   6.310
  673SOL    HW1 2918   6.502   6.799   6.348
  673SOL    HW2 2919   6.356   6.864   6.384
  674SOL     OW 2920   4.741   6.833   4.414
  674SOL    HW1 2921   4.742   6.786   4.326
  674SOL    HW2 2922   4.695   6.921   4.404
  675SOL     OW 2923   0.501   5.098   2.245
  675SOL    HW1 2924   0.592   5.072   2.278
  675SOL    HW2 2925   0.499   5.197   2.229
  676SOL     OW 2926   2.224   6.075   6.657
  676SOL    HW1 2927   2.171   6.071   6.572
  676SOL    HW2 2928   2.162   6.088   6.734
  677SOL     OW 2929   5.034   1.003   1.087
  677SOL    HW1 2930   4.961   1.013   1.019
  677SOL    HW2 2931   5.087   0.921   1.067
  678SOL     OW 2932   0.408   5.417   4.291
  678SOL    HW1 2933   0.475   5.400   4.219
  678SOL    HW2 2934   0.400   5.515   4.307
  679SOL     OW 2935   5.527   0.573   6.246
  679SOL    HW1 2936   5.500   0.534   6.334
  679SOL    HW2 2937   5.539   0.499   6.180
  680SOL     OW 2938   6.250   0.419   3.830
  680SOL    HW1 2939   6.329   0.358   3.822
  680SOL    HW2 2940   6.281   0.514   3.820
  681SOL     OW 2941   4.830   4.895   3.000
  681SOL    HW1 2942   4.760   4.964   3.018
  681SOL    HW2 2943   4.816   4.817   3.061
  682SOL     OW 2944   6.205   2.231   3.534
  682SOL    HW1 2945   6.239   2.283   3.613
  682SOL    HW2 2946   6.172   2.295   3.464
  683SOL     OW 2947   3.247   5.735   0.185
  683SOL    HW1 2948   3.203   5.668   0.125
  683SOL    HW2 2949   3.326   5.774   0.140
  684SOL     OW 2950   5.620   2.324   6.209
  684SOL    HW1 2951   5.665   2.412   6.214
  684SOL    HW2 2952   5.641   2.280   6.121
  685SOL     OW 2953   3.359   6.524   3.059
  685SOL    HW1 2954   3.418   6.457   3.105
  685SOL    HW2 2955   3.269   6.524   3.103
  686SOL     OW 2956   2.481   0.584   5.335
  686SOL    HW1 2957   2.524   0.595   5.425
  686SOL    HW2 2958   2.544   0.536   5.274
  687SOL     OW 2959   0.327   1.106   4.750
  687SOL    HW1 2960   0.371   1.035   4.695
  687SOL    HW2 2961   0.379   1.121   4.834
  688SOL     OW 2962   4.854   3.600   6.541
  688SOL    HW1 2963   4.910   3.577   6.621
  688SOL    HW2 2964   4.901   3.668   6.485
  689SOL     OW 2965   2.313   6.366   0.208
  689SOL    HW1 2966   2.372   6.431   0.256
  689SOL    HW2 2967   2.292   6.401   0.117
  690SOL     OW 2968   5.778   3.500   4.183
  690SOL    HW1 2969   5.799   3.483   4.087
  690SOL    HW2 2970   5.823   3.431   4.240
  691SOL     OW 2971   5.604   0.442   3.141
  691SOL    HW1 2972   5.626   0.391   3.058
  691SOL    HW2 2973   5.508   0.428   3.164
  692SOL     OW 2974   1.571   6.887   3.638
  692SOL    HW1 2975   1.478   6.855   3.656
  692SOL    HW2 2976   1.568   6.969   3.581
  693SOL     OW 2977   6.130   4.364   1.780
  693SOL    HW1 2978   6.051   4.396   1.728
  693SOL    HW2 2979   6.109   4.278   1.826
  694SOL     OW 2980   4.018   4.825   4.334
  694SOL    HW1 2981   4.076   4.822   4.415
  694SOL    HW2 2982   3.927   4.790   4.357
  695SOL     OW 2983   4.879   0.048   4.241
  695SOL    HW1 2984   4.882   0.146   4.225
  695SOL    HW2 2985   4.786   0.021   4.264
  696SOL     OW 2986   6.784   4.473   2.102
  696SOL    HW1 2987   6.726   4.537   2.154
  696SOL    HW2 2988   6.856   4.438   2.161
  697SOL     OW 2989   0.788   6.459   3.220
  697SOL    HW1 2990   0.753   6.366   3.225
  697SOL    HW2 2991   0.718   6.523   3.251
  698SOL     OW 2992   6.090   7.005   5.704
  698SOL    HW1 2993   6.041   0.006   5.621
  698SOL    HW2 2994   6.035   0.002   5.784
  699SOL     OW 2995   4.285   3.007   0.732
  699SOL    HW1 2996   4.353   2.949   0.777
  699SOL    HW2 2997   4.194   2.964   0.740
  700SOL     OW 2998   3.718   0.038   5.396
  700SOL    HW1 2999   3.648   6.995   5.378
  700SOL    HW2 3000   3.730   0.095   5.314
  701SOL     OW 3001   4.452   4.291   1.576
  701SOL    HW1 3002   4.374   4.344   1.542
  701SOL    HW2 3003   4.435   4.265   1.671
  702SOL     OW 3004   3.247   0.879   5.147
  702SOL    HW1 3005   3.266   0.927   5.061
  702SOL    HW2 3006   3.240   0.946   5.221
  703SOL     OW 3007   3.803   3.109   0.701
  703SOL    HW1 3008   3.821   3.174   0.626
  703SOL    HW2 3009   3.790   3.018   0.663
  704SOL     OW 3010   3.433   1.491   0.400
  704SOL    HW1 3011   3.387   1.464   0.486
  704SOL    HW2 3012   3.365   1.496   0.327
  705SOL     OW 3013   6.786   6.727   6.126
  705SOL    HW1 3014   6.712   6.722   6.058
  705SOL    HW2 3015   6.834   6.639   6.129
  706SOL     OW 3016   3.634   0.197   4.965
  706SOL    HW1 3017   3.566   0.263   4.933
  706SOL    HW2 3018   3.606   0.105   4.937
  707SOL     OW 3019   3.732   5.007   4.228
  707SOL    HW1 3020   3.793   5.079   4.262
  707SOL    HW2 3021   3.651   5.002   4.287
  708SOL     OW 3022   2.747   5.894   4.062
  708SOL    HW1 3023   2.786   5.966   4.119
  708SOL    HW2 3024   2.682   5.840   4.116
  709SOL     OW 3025   1.886   6.668   1.870
  709SOL    HW1 3026   1.797   6.625   1.864
  709SOL    HW2 3027   1.893   6.721   1.954
  710SOL     OW 3028   4.844   3.055   3.264
  710SOL    HW1 3029   4.910   2.983   3.284
  710SOL    HW2 3030   4.751   3.020   3.277
  711SOL     OW 3031   6.434   1.088   0.606
  711SOL    HW1 3032   6.457   0.992   0.624
  711SOL    HW2 3033   6.451   1.142   0.689
  712SOL     OW 3034   5.008   4.694   6.587
  712SOL    HW1 3035   5.084   4.722   6.646
  712SOL    HW2 3036   4.988   4.597   6.602
  713SOL     OW 3037   2.505   2.759   5.315
  713SOL    HW1 3038   2.474   2.675   5.270
  713SOL    HW2 3039   2.501   2.835   5.251
  714SOL     OW 3040   4.103   6.713   2.693
  714SOL    HW1 3041   4.129   6.679   2.602
  714SOL    HW2 3042   4.015   6.760   2.687
  715SOL     OW 3043   6.267   4.315   6.039
  715SOL    HW1 3044   6.354   4.275   6.070
  715SOL    HW2 3045   6.193   4.251   6.056
  716SOL     OW 3046   3.236   0.843   3.527
  716SOL    HW1 3047   3.273   0.817   3.438
  716SOL    HW2 3048   3.157   0.902   3.514
  717SOL     OW 3049   5.417   4.481   3.227
  717SOL    HW1 3050   5.350   4.467   3.300
  717SOL    HW2 3051   5.381   4.445   3.141
  718SOL     OW 3052   6.914   2.266   5.573
  718SOL    HW1 3053   6.939   2.175   5.605
  718SOL    HW2 3054   6.987   2.331   5.595
  719SOL     OW 3055   4.549   5.418   2.288
  719SOL    HW1 3056   4.615   5.344   2.285
  719SOL    HW2 3057   4.459   5.382   2.313
  720SOL     OW 3058   3.264   1.373   1.083
  720SOL    HW1 3059   3.211   1.413   1.158
  720SOL    HW2 3060   3.275   1.275   1.097
  721SOL     OW 3061   0.049   2.234   2.681
  721SOL    HW1 3062   0.068   2.327   2.647
  721SOL    HW2 3063   0.059   2.232   2.780
  722SOL     OW 3064   5.525   5.955   2.268
  722SOL    HW1 3065   5.503   6.038   2.319
  722SOL    HW2 3066   5.553   5.979   2.175
  723SOL     OW 3067   2.200   0.298   4.662
  723SOL    HW1 3068   2.123   0.358   4.685
  723SOL    HW2 3069   2.208   0.292   4.562
  724SOL     OW 3070   1.460   2.300   4.466
  724SOL    HW1 3071   1.510   2.228   4.417
  724SOL    HW2 3072   1.465   2.385   4.415
  725SOL     OW 3073   2.146   3.731   3.569
  725SOL    HW1 3074   2.048   3.739   3.552
  725SOL    HW2 3075   2.162   3.663   3.641
  726SOL     OW 3076   1.910   2.918   0.471
  726SOL    HW1 3077   1.885   3.015   0.468
  726SOL    HW2 3078   1.941   2.888   0.381
  727SOL     OW 3079   3.753   5.128   5.459
  727SOL    HW1 3080   3.799   5.044   5.429
  727SOL    HW2 3081   3.686   5.106   5.530
  728SOL     OW 3082   6.159   3.365   3.351
  728SOL    HW1 3083   6.219   3.313   3.411
  728SOL    HW2 3084   6.175   3.339   3.256
  729SOL     OW 3085   0.139   4.455   0.602
  729SOL    HW1 3086   0.207   4.398   0.647
  729SOL    HW2 3087   0.132   4.429   0.506
  730SOL     OW 3088   3.099   1.108   3.847
  730SOL    HW1 3089   3.050   1.079   3.764
  730SOL    HW2 3090   3.196   1.122   3.825
  731SOL     OW 3091   5.070   4.481   4.820
  731SOL    HW1 3092   5.152   4.505   4.871
  731SOL    HW2 3093   5.048   4.384   4.836
  732SOL     OW 3094   4.863   0.552   4.567
  732SOL    HW1 3095   4.962   0.548   4.553
  732SOL    HW2 3096   4.841   0.628   4.628
  733SOL     OW 3097   0.216   5.216   4.339
  733SOL    HW1 3098   0.279   5.293   4.329
  733SOL    HW2 3099   0.263   5.139   4.380
  734SOL     OW 3100   6.653   5.689   3.499
  734SOL    HW1 3101   6.602   5.613   3.458
  734SOL    HW2 3102   6.637   5.691   3.597
  735SOL     OW 3103   5.180   0.423   2.588
  735SOL    HW1 3104   5.116   0.403   2.662
  735SOL    HW2 3105   5.267   0.377   2.607
  736SOL     OW 3106   1.882   1.372   3.097
  736SOL    HW1 3107   1.876   1.388   2.999
  736SOL    HW2 3108   1.853   1.278   3.117
  737SOL     OW 3109   3.525   1.811   6.518
  737SOL    HW1 3110   3.481   1.751   6.450
  737SOL    HW2 3111   3.469   1.816   6.600
  738SOL     OW 3112   1.714   5.117   0.571
  738SOL    HW1 3113   1.652   5.047   0.535
  738SOL    HW2 3114   1.702   5.125   0.670
  739SOL     OW 3115   1.973   0.884   2.673
  739SOL    HW1 3116   2.036   0.950   2.714
  739SOL    HW2 3117   2.018   0.795   2.666
  740SOL     OW 3118   4.556   2.563   2.705
  740SOL    HW1 3119   4.593   2.572   2.612
  740SOL    HW2 3120   4.593   2.636   2.762
  741SOL     OW 3121   3.610   1.370   2.276
  741SOL    HW1 3122   3.513   1.391   2.259
  741SOL    HW2 3123   3.665   1.451   2.254
  742SOL     OW 3124   2.342   0.265   2.168
  742SOL    HW1 3125   2.312   0.199   2.100
  742SOL    HW2 3126   2.265   0.292   2.226
  743SOL     OW 3127   6.767   6.505   2.994
  743SOL    HW1 3128   6.688   6.542   3.042
  743SOL    HW2 3129   6.778   6.409   3.018
  744SOL     OW 3130   5.879   0.911   0.661
  744SOL    HW1 3131   5.919   0.901   0.752
  744SOL    HW2 3132   5.920   0.990   0.615
  745SOL     OW 3133   0.616   6.483   5.377
  745SOL    HW1 3134   0.685   6.486   5.449
  745SOL    HW2 3135   0.647   6.425   5.302
  746SOL     OW 3136   6.360   5.391   6.098
  746SOL    HW1 3137   6.394   5.412   6.189
  746SOL    HW2 3138   6.408   5.447   6.030
  747SOL     OW 3139   3.226   5.001   2.193
  747SOL    HW1 3140   3.176   4.954   2.121
  747SOL    HW2 3141   3.202   5.098   2.192
  748SOL     OW 3142   6.433   5.363   3.116
  748SOL    HW1 3143   6.380   5.368   3.031
  748SOL    HW2 3144   6.371   5.371   3.194
  749SOL     OW 3145   4.722   4.383   4.688
  749SOL    HW1 3146   4.632   4.418   4.714
  749SOL    HW2 3147   4.787   4.401   4.763
  750SOL     OW 3148   3.003   1.884   2.525
  750SOL    HW1 3149   3.004   1.803   2.584
  750SOL    HW2 3150   3.092   1.929   2.529
  751SOL     OW 3151   4.092   0.145   0.588
  751SOL    HW1 3152   4.042   0.059   0.597
  751SOL    HW2 3153   4.092   0.175   0.493
  752SOL     OW 3154   2.992   3.200   3.706
  752SOL    HW1 3155   2.932   3.167   3.779
  752SOL    HW2 3156   3.069   3.138   3.694
  753SOL     OW 3157   3.089   3.996   3.718
  753SOL    HW1 3158   3.163   4.040   3.669
  753SOL    HW2 3159   3.111   3.992   3.815
  754SOL     OW 3160   4.452   0.510   5.628
  754SOL    HW1 3161   4.518   0.504   5.703
  754SOL    HW2 3162   4.444   0.605   5.599
  755SOL     OW 3163   5.187   4.208   5.175
  755SOL    HW1 3164   5.128   4.128   5.168
  755SOL    HW2 3165   5.154   4.267   5.249
  756SOL     OW 3166   2.984   5.860   6.175
  756SOL    HW1 3167   3.033   5.936   6.133
  756SOL    HW2 3168   2.967   5.789   6.107
  757SOL     OW 3169   0.358   0.077   1.493
  757SOL    HW1 3170   0.394   0.131   1.417
  757SOL    HW2 3171   0.310   0.138   1.556
  758SOL     OW 3172   3.764   1.053   6.033
  758SOL    HW1 3173   3.695   1.102   5.980
  758SOL    HW2 3174   3.719   0.995   6.101
  759SOL     OW 3175   7.020   2.399   3.612
  759SOL    HW1 3176   6.946   2.462   3.636
  759SOL    HW2 3177   0.049   2.438   3.538
  760SOL     OW 3178   6.621   6.122   4.526
  760SOL    HW1 3179   6.619   6.143   4.624
  760SOL    HW2 3180   6.539   6.157   4.482
  761SOL     OW 3181   4.892   4.562   5.981
  761SOL    HW1 3182   4.955   4.523   5.914
  761SOL    HW2 3183   4.799   4.530   5.962
  762SOL     OW 3184   4.089   5.991   3.750
  762SOL    HW1 3185   4.031   6.059   3.793
  762SOL    HW2 3186   4.058   5.975   3.656
  763SOL     OW 3187   5.485   1.127   0.264
  763SOL    HW1 3188   5.508   1.131   0.167
  763SOL    HW2 3189   5.463   1.033   0.289
  764SOL     OW 3190   4.757   6.443   4.492
  764SOL    HW1 3191   4.678   6.472   4.437
  764SOL    HW2 3192   4.802   6.366   4.447
  765SOL     OW 3193   5.392   6.375   6.937
  765SOL    HW1 3194   5.427   6.283   6.951
  765SOL    HW2 3195   5.466   6.441   6.950
  766SOL     OW 3196   3.146   1.467   3.736
  766SOL    HW1 3197   3.197   1.478   3.821
  766SOL    HW2 3198   3.193   1.402   3.677
  767SOL     OW 3199   6.316   6.745   3.380
  767SOL    HW1 3200   6.317   6.761   3.478
  767SOL    HW2 3201   6.408   6.720   3.349
  768SOL     OW 3202   2.851   5.623   1.007
  768SOL    HW1 3203   2.791   5.638   1.086
  768SOL    HW2 3204   2.877   5.527   1.003
  769SOL     OW 3205   3.616   2.160   5.541
  769SOL    HW1 3206   3.693   2.150   5.603
  769SOL    HW2 3207   3.599   2.258   5.524
  770SOL     OW 3208   0.317   4.798   5.869
  770SOL    HW1 3209   0.219   4.809   5.854
  770SOL    HW2 3210   0.341   4.701   5.865
  771SOL     OW 3211   1.695   4.888   2.689
  771SOL    HW1 3212   1.774   4.947   2.704
  771SOL    HW2 3213   1.727   4.797   2.660
  772SOL     OW 3214   5.920   4.927   0.263
  772SOL    HW1 3215   5.823   4.904   0.265
  772SOL    HW2 3216   5.938   4.983   0.182
  773SOL     OW 3217   1.411   4.841   3.694
  773SOL    HW1 3218   1.319   4.816   3.664
  773SOL    HW2 3219   1.413   4.938   3.716
  774SOL     OW 3220   1.788   2.845   3.287
  774SOL    HW1 3221   1.727   2.799   3.352
  774SOL    HW2 3222   1.877   2.860   3.331
  775SOL     OW 3223   0.826   5.121   2.368
  775SOL    HW1 3224   0.860   5.118   2.274
  775SOL    HW2 3225   0.898   5.091   2.430
  776SOL     OW 3226   2.294   4.594   0.474
  776SOL    HW1 3227   2.206   4.605   0.427
  776SOL    HW2 3228   2.315   4.678   0.523
  777SOL     OW 3229   1.211   3.431   6.572
  777SOL    HW1 3230   1.158   3.363   6.622
  777SOL    HW2 3231   1.270   3.384   6.506
  778SOL     OW 3232   3.660   6.023   0.230
  778SOL    HW1 3233   3.639   5.966   0.310
  778SOL    HW2 3234   3.590   6.007   0.159
  779SOL     OW 3235   5.785   2.290   3.938
  779SOL    HW1 3236   5.714   2.242   3.886
  779SOL    HW2 3237   5.867   2.300   3.882
  780SOL     OW 3238   6.143   1.933   5.137
  780SOL    HW1 3239   6.196   1.870   5.080
  780SOL    HW2 3240   6.189   1.943   5.226
  781SOL     OW 3241   6.914   5.060   6.755
  781SOL    HW1 3242   6.933   5.083   6.660
  781SOL    HW2 3243   6.956   4.971   6.776
  782SOL     OW 3244   2.132   4.344   5.399
  782SOL    HW1 3245   2.202   4.280   5.430
  782SOL    HW2 3246   2.053   4.340   5.460
  783SOL     OW 3247   0.439   5.061   5.535
  783SOL    HW1 3248   0.384   5.117   5.597
  783SOL    HW2 3249   0.392   4.975   5.517
  784SOL     OW 3250   0.966   6.273   5.892
  784SOL    HW1 3251   0.913   6.232   5.966
  784SOL    HW2 3252   0.944   6.228   5.806
  785SOL     OW 3253   0.610   0.128   3.652
  785SOL    HW1 3254   0.569   0.076   3.727
  785SOL    HW2 3255   0.624   0.068   3.573
  786SOL     OW 3256   6.629   2.095   4.952
  786SOL    HW1 3257   6.539   2.102   4.996
  786SOL    HW2 3258   6.634   2.160   4.876
  787SOL     OW 3259   2.488   6.593   0.582
  787SOL    HW1 3260   2.571   6.625   0.627
  787SOL    HW2 3261   2.432   6.543   0.648
  788SOL     OW 3262   2.115   3.136   2.294
  788SOL    HW1 3263   2.164   3.128   2.381
  788SOL    HW2 3264   2.019   3.110   2.307
  789SOL     OW 3265   3.101   5.358   1.686
  789SOL    HW1 3266   3.028   5.425   1.683
  789SOL    HW2 3267   3.063   5.266   1.679
  790SOL     OW 3268   6.712   3.368   2.908
  790SOL    HW1 3269   6.699   3.330   3.000
  790SOL    HW2 3270   6.797   3.420   2.905
  791SOL     OW 3271   3.581   0.522   3.898
  791SOL    HW1 3272   3.557   0.596   3.961
  791SOL    HW2 3273   3.533   0.536   3.811
  792SOL     OW 3274   3.249   0.753   0.765
  792SOL    HW1 3275   3.179   0.749   0.836
  792SOL    HW2 3276   3.337   0.722   0.803
  793SOL     OW 3277   2.185   5.632   4.429
  793SOL    HW1 3278   2.248   5.645   4.352
  793SOL    HW2 3279   2.158   5.536   4.434
  794SOL     OW 3280   3.686   3.182   1.724
  794SOL    HW1 3281   3.657   3.201   1.818
  794SOL    HW2 3282   3.620   3.122   1.680
  795SOL     OW 3283   3.367   6.116   6.157
  795SOL    HW1 3284   3.411   6.203   6.133
  795SOL    HW2 3285   3.349   6.114   6.256
  796SOL     OW 3286   1.279   2.324   6.621
  796SOL    HW1 3287   1.294   2.368   6.532
  796SOL    HW2 3288   1.204   2.259   6.614
  797SOL     OW 3289   2.851   6.728   6.946
  797SOL    HW1 3290   2.756   6.707   6.967
  797SOL    HW2 3291   2.910   6.688   7.016
  798SOL     OW 3292   5.341   4.263   1.884
  798SOL    HW1 3293   5.268   4.323   1.918
  798SOL    HW2 3294   5.388   4.307   1.808
  799SOL     OW 3295   3.378   3.321   4.522
  799SOL    HW1 3296   3.474   3.310   4.548
  799SOL    HW2 3297   3.371   3.386   4.446
  800SOL     OW 3298   5.266   3.241   3.546
  800SOL    HW1 3299   5.325   3.302   3.494
  800SOL    HW2 3300   5.170   3.270   3.534
  801SOL     OW 3301   1.896   4.394   0.346
  801SOL    HW1 3302   1.862   4.324   0.409
  801SOL    HW2 3303   1.842   4.392   0.262
  802SOL     OW 3304   4.118   2.716   6.041
  802SOL    HW1 3305   4.062   2.751   5.966
  802SOL    HW2 3306   4.195   2.777   6.057
  803SOL     OW 3307   3.638   2.043   3.394
  803SOL    HW1 3308   3.666   2.075   3.303
  803SOL    HW2 3309   3.718   2.016   3.446
  804SOL     OW 3310   4.551   0.151   2.732
  804SOL    HW1 3311   4.468   0.119   2.687
  804SOL    HW2 3312   4.630   0.103   2.694
  805SOL     OW 3313   3.804   1.648   3.783
  805SOL    HW1 3314   3.756   1.727   3.821
  805SOL    HW2 3315   3.827   1.665   3.687
  806SOL     OW 3316   4.403   6.458   5.713
  806SOL    HW1 3317   4.333   6.483   5.646
  806SOL    HW2 3318   4.369   6.386   5.772
  807SOL     OW 3319   1.294   6.573   6.181
  807SOL    HW1 3320   1.343   6.546   6.264
  807SOL    HW2 3321   1.276   6.493   6.125
  808SOL     OW 3322   5.512   1.818   5.305
  808SOL    HW1 3323   5.422   1.777   5.295
  808SOL    HW2 3324   5.582   1.752   5.277
  809SOL     OW 3325   2.607   6.204   4.376
  809SOL    HW1 3326   2.533   6.270   4.389
  809SOL    HW2 3327   2.593   6.126   4.437
  810SOL     OW 3328   3.171   3.711   6.166
  810SOL    HW1 3329   3.196   3.628   6.116
  810SOL    HW2 3330   3.250   3.743   6.219
  811SOL     OW 3331   5.969   4.981   5.366
  811SOL    HW1 3332   5.965   5.006   5.269
  811SOL    HW2 3333   6.057   4.940   5.387
  812SOL     OW 3334   1.533   2.038   0.554
  812SOL    HW1 3335   1.571   2.120   0.511
  812SOL    HW2 3336   1.524   1.966   0.485
  813SOL     OW 3337   2.709   1.455   4.971
  813SOL    HW1 3338   2.629   1.504   5.006
  813SOL    HW2 3339   2.715   1.467   4.872
  814SOL     OW 3340   1.152   4.489   1.558
  814SOL    HW1 3341   1.243   4.453   1.538
  814SOL    HW2 3342   1.153   4.536   1.647
  815SOL     OW 3343   3.824   0.392   3.866
  815SOL    HW1 3344   3.816   0.360   3.772
  815SOL    HW2 3345   3.735   0.426   3.898
  816SOL     OW 3346   4.601   3.705   6.431
  816SOL    HW1 3347   4.677   3.713   6.495
  816SOL    HW2 3348   4.589   3.792   6.383
  817SOL     OW 3349   6.371   5.478   0.834
  817SOL    HW1 3350   6.425   5.447   0.912
  817SOL    HW2 3351   6.432   5.500   0.758
  818SOL     OW 3352   6.486   1.143   5.274
  818SOL    HW1 3353   6.394   1.137   5.237
  818SOL    HW2 3354   6.498   1.231   5.321
  819SOL     OW 3355   5.393   3.673   1.611
  819SOL    HW1 3356   5.426   3.644   1.701
  819SOL    HW2 3357   5.471   3.702   1.555
  820SOL     OW 3358   2.094   2.015   5.427
  820SOL    HW1 3359   2.079   1.941   5.362
  820SOL    HW2 3360   2.193   2.032   5.436
  821SOL     OW 3361   4.787   3.946   6.492
  821SOL    HW1 3362   4.884   3.931   6.473
  821SOL    HW2 3363   4.734   3.933   6.408
  822SOL     OW 3364   0.255   4.167   2.936
  822SOL    HW1 3365   0.220   4.228   2.866
  822SOL    HW2 3366   0.217   4.076   2.924
  823SOL     OW 3367   1.638   3.171   4.771
  823SOL    HW1 3368   1.578   3.126   4.838
  823SOL    HW2 3369   1.582   3.217   4.702
  824SOL     OW 3370   5.124   0.745   6.088
  824SOL    HW1 3371   5.049   0.800   6.125
  824SOL    HW2 3372   5.208   0.764   6.140
  825SOL     OW 3373   6.523   6.641   1.529
  825SOL    HW1 3374   6.586   6.580   1.481
  825SOL    HW2 3375   6.541   6.635   1.628
  826SOL     OW 3376   3.579   1.946   0.362
  826SOL    HW1 3377   3.556   2.039   0.335
  826SOL    HW2 3378   3.672   1.924   0.331
  827SOL     OW 3379   3.867   3.280   4.932
  827SOL    HW1 3380   3.935   3.236   4.992
  827SOL    HW2 3381   3.775   3.257   4.964
  828SOL     OW 3382   0.237   6.548   6.083
  828SOL    HW1 3383   0.189   6.564   6.169
  828SOL    HW2 3384   0.190   6.477   6.031
  829SOL     OW 3385   3.425   3.013   1.754
  829SOL    HW1 3386   3.506   2.971   1.794
  829SOL    HW2 3387   3.344   2.981   1.803
  830SOL     OW 3388   0.708   4.263   6.093
  830SOL    HW1 3389   0.782   4.234   6.154
  830SOL    HW2 3390   0.743   4.330   6.028
  831SOL     OW 3391   5.556   1.720   3.739
  831SOL    HW1 3392   5.599   1.680   3.820
  831SOL    HW2 3393   5.570   1.660   3.660
  832SOL     OW 3394   2.932   2.116   4.977
  832SOL    HW1 3395   3.016   2.170   4.978
  832SOL    HW2 3396   2.939   2.045   4.906
  833SOL     OW 3397   3.342   2.687   6.556
  833SOL    HW1 3398   3.376   2.618   6.620
  833SOL    HW2 3399   3.331   2.646   6.465
  834SOL     OW 3400   6.263   3.571   1.269
  834SOL    HW1 3401   6.275   3.476   1.240
  834SOL    HW2 3402   6.255   3.574   1.369
  835SOL     OW 3403   6.510   6.386   5.219
  835SOL    HW1 3404   6.478   6.320   5.287
  835SOL    HW2 3405   6.608   6.400   5.230
  836SOL     OW 3406   6.755   0.307   3.962
  836SOL    HW1 3407   6.779   0.348   4.050
  836SOL    HW2 3408   6.810   0.349   3.890
  837SOL     OW 3409   0.587   0.087   6.772
  837SOL    HW1 3410   0.586   0.117   6.677
  837SOL    HW2 3411   0.561   7.017   6.777
  838SOL     OW 3412   0.819   5.874   3.014
  838SOL    HW1 3413   0.848   5.934   2.939
  838SOL    HW2 3414   0.863   5.785   3.003
  839SOL     OW 3415   1.846   2.010   6.960
  839SOL    HW1 3416   1.854   1.913   6.937
  839SOL    HW2 3417   1.935   2.044   6.990
  840SOL     OW 3418   4.800   5.097   0.471
  840SOL    HW1 3419   4.871   5.028   0.456
  840SOL    HW2 3420   4.748   5.111   0.387
  841SOL     OW 3421   2.970   4.315   6.859
  841SOL    HW1 3422   2.982   4.394   6.919
  841SOL    HW2 3423   3.056   4.297   6.812
  842SOL     OW 3424   3.865   5.583   1.058
  842SOL    HW1 3425   3.876   5.681   1.075
  842SOL    HW2 3426   3.952   5.543   1.033
  843SOL     OW 3427   1.903   6.809   2.092
  843SOL    HW1 3428   1.872   6.904   2.079
  843SOL    HW2 3429   1.960   6.804   2.173
  844SOL     OW 3430   0.080   6.790   1.453
  844SOL    HW1 3431   0.144   6.763   1.381
  844SOL    HW2 3432   0.019   6.861   1.418
  845SOL     OW 3433   4.236   1.789   1.486
  845SOL    HW1 3434   4.299   1.721   1.448
  845SOL    HW2 3435   4.146   1.778   1.444
  846SOL     OW 3436   1.297   0.650   1.364
  846SOL    HW1 3437   1.379   0.593   1.376
  846SOL    HW2 3438   1.216   0.596   1.385
  847SOL     OW 3439   2.626   2.929   1.463
  847SOL    HW1 3440   2.648   2.836   1.492
  847SOL    HW2 3441   2.711   2.979   1.445
  848SOL     OW 3442   6.408   6.275   0.989
  848SOL    HW1 3443   6.474   6.270   0.915
  848SOL    HW2 3444   6.372   6.183   1.008
  849SOL     OW 3445   5.481   3.311   6.335
  849SOL    HW1 3446   5.527   3.223   6.351
  849SOL    HW2 3447   5.410   3.299   6.266
  850SOL     OW 3448   2.241   0.955   4.093
  850SOL    HW1 3449   2.214   1.051   4.099
  850SOL    HW2 3450   2.337   0.945   4.120
  851SOL     OW 3451   4.711   2.680   6.063
  851SOL    HW1 3452   4.755   2.623   6.133
  851SOL    HW2 3453   4.721   2.636   5.973
  852SOL     OW 3454   0.549   4.597   1.294
  852SOL    HW1 3455   0.564   4.539   1.374
  852SOL    HW2 3456   0.504   4.544   1.222
  853SOL     OW 3457   3.654   2.894   0.561
  853SOL    HW1 3458   3.671   2.830   0.636
  853SOL    HW2 3459   3.642   2.843   0.476
  854SOL     OW 3460   6.659   1.069   6.229
  854SOL    HW1 3461   6.701   1.085   6.140
  854SOL    HW2 3462   6.715   1.111   6.300
  855SOL     OW 3463   4.199   1.884   6.437
  855SOL    HW1 3464   4.108   1.907   6.471
  855SOL    HW2 3465   4.236   1.961   6.384
  856SOL     OW 3466   1.066   5.893   1.701
  856SOL    HW1 3467   1.035   5.798   1.692
  856SOL    HW2 3468   0.991   5.950   1.735
  857SOL     OW 3469   6.977   6.290   5.470
  857SOL    HW1 3470   6.906   6.264   5.535
  857SOL    HW2 3471   7.024   6.372   5.503
  858SOL     OW 3472   2.923   4.427   0.628
  858SOL    HW1 3473   2.827   4.420   0.600
  858SOL    HW2 3474   2.968   4.498   0.575
  859SOL     OW 3475   4.632   6.093   5.964
  859SOL    HW1 3476   4.627   6.066   6.060
  859SOL    HW2 3477   4.622   6.013   5.906
  860SOL     OW 3478   4.218   2.712   0.119
  860SOL    HW1 3479   4.182   2.776   0.187
  860SOL    HW2 3480   4.220   2.756   0.030
  861SOL     OW 3481   0.675   5.349   2.470
  861SOL    HW1 3482   0.734   5.428   2.483
  861SOL    HW2 3483   0.721   5.284   2.408
  862SOL     OW 3484   1.019   4.714   4.588
  862SOL    HW1 3485   1.015   4.748   4.682
  862SOL    HW2 3486   0.937   4.660   4.569
  863SOL     OW 3487   4.894   0.593   1.523
  863SOL    HW1 3488   4.938   0.641   1.448
  863SOL    HW2 3489   4.956   0.525   1.562
  864SOL     OW 3490   5.630   3.431   3.769
  864SOL    HW1 3491   5.544   3.418   3.818
  864SOL    HW2 3492   5.656   3.345   3.724
  865SOL     OW 3493   2.011   4.646   4.958
  865SOL    HW1 3494   1.976   4.591   4.883
  865SOL    HW2 3495   2.099   4.686   4.932
  866SOL     OW 3496   3.648   6.518   0.958
  866SOL    HW1 3497   3.571   6.579   0.942
  866SOL    HW2 3498   3.644   6.483   1.052
  867SOL     OW 3499   5.730   3.419   4.666
  867SOL    HW1 3500   5.782   3.387   4.587
  867SOL    HW2 3501   5.773   3.385   4.750
  868SOL     OW 3502   0.146   1.646   1.833
  868SOL    HW1 3503   0.225   1.657   1.772
  868SOL    HW2 3504   0.087   1.573   1.798
  869SOL     OW 3505   1.129   2.546   2.147
  869SOL    HW1 3506   1.179   2.524   2.063
  869SOL    HW2 3507   1.047   2.490   2.153
  870SOL     OW 3508   3.742   4.577   1.674
  870SOL    HW1 3509   3.662   4.588   1.734
  870SOL    HW2 3510   3.755   4.479   1.655
  871SOL     OW 3511   4.816   1.679   3.533
  871SOL    HW1 3512   4.881   1.744   3.573
  871SOL    HW2 3513   4.820   1.593   3.584
  872SOL     OW 3514   2.121   2.620   5.735
  872SOL    HW1 3515   2.082   2.589   5.821
  872SOL    HW2 3516   2.082   2.709   5.711
  873SOL     OW 3517   3.964   0.940   5.883
  873SOL    HW1 3518   3.881   0.962   5.934
  873SOL    HW2 3519   4.010   0.862   5.925
  874SOL     OW 3520   5.224   4.060   2.804
  874SOL    HW1 3521   5.214   4.106   2.892
  874SOL    HW2 3522   5.134   4.045   2.764
  875SOL     OW 3523   4.947   5.304   2.354
  875SOL    HW1 3524   4.944   5.385   2.413
  875SOL    HW2 3525   4.855   5.285   2.320
  876SOL     OW 3526   6.032   1.780   6.008
  876SOL    HW1 3527   6.070   1.872   6.018
  876SOL    HW2 3528   5.939   1.778   6.044
  877SOL     OW 3529   1.065   3.294   6.126
  877SOL    HW1 3530   1.040   3.299   6.029
  877SOL    HW2 3531   1.162   3.272   6.134
  878SOL     OW 3532   4.422   6.463   4.815
  878SOL    HW1 3533   4.337   6.418   4.840
  878SOL    HW2 3534   4.486   6.460   4.893
  879SOL     OW 3535   5.939   0.048   5.925
  879SOL    HW1 3536   5.968   0.144   5.922
  879SOL    HW2 3537   5.980   0.003   6.004
  880SOL     OW 3538   3.564   2.924   3.057
  880SOL    HW1 3539   3.584   3.017   3.090
  880SOL    HW2 3540   3.543   2.927   2.959
  881SOL     OW 3541   5.131   2.113   0.365
  881SOL    HW1 3542   5.064   2.080   0.298
  881SOL    HW2 3543   5.155   2.208   0.345
  882SOL     OW 3544   1.722   2.370   4.186
  882SOL    HW1 3545   1.656   2.304   4.222
  882SOL    HW2 3546   1.735   2.354   4.088
  883SOL     OW 3547   2.906   6.409   3.066
  883SOL    HW1 3548   2.908   6.372   3.158
  883SOL    HW2 3549   2.835   6.478   3.059
  884SOL     OW 3550   2.631   3.411   5.812
  884SOL    HW1 3551   2.625   3.485   5.745
  884SOL    HW2 3552   2.540   3.386   5.843
  885SOL     OW 3553   4.437   3.377   6.708
  885SOL    HW1 3554   4.353   3.416   6.670
  885SOL    HW2 3555   4.412   3.307   6.775
  886SOL     OW 3556   3.562   1.493   5.967
  886SOL    HW1 3557   3.611   1.553   5.904
  886SOL    HW2 3558   3.598   1.505   6.059
  887SOL     OW 3559   3.447   0.830   5.613
  887SOL    HW1 3560   3.528   0.889   5.624
  887SOL    HW2 3561   3.433   0.810   5.517
  888SOL     OW 3562   0.191   6.655   2.032
  888SOL    HW1 3563   0.225   6.663   1.938
  888SOL    HW2 3564   0.268   6.647   2.095
  889SOL     OW 3565   0.782   4.158   1.470
  889SOL    HW1 3566   0.842   4.093   1.423
  889SOL    HW2 3567   0.835   4.214   1.533
  890SOL     OW 3568   2.611   6.557   4.364
  890SOL    HW1 3569   2.549   6.489   4.404
  890SOL    HW2 3570   2.693   6.564   4.420
  891SOL     OW 3571   4.333   4.614   2.193
  891SOL    HW1 3572   4.387   4.698   2.192
  891SOL    HW2 3573   4.377   4.547   2.253
  892SOL     OW 3574   2.498   4.034   0.927
  892SOL    HW1 3575   2.560   3.956   0.930
  892SOL    HW2 3576   2.438   4.032   1.007
  893SOL     OW 3577   1.329   5.279   2.447
  893SOL    HW1 3578   1.316   5.198   2.389
  893SOL    HW2 3579   1.241   5.322   2.465
  894SOL     OW 3580   1.497   4.078   0.986
  894SOL    HW1 3581   1.592   4.101   0.961
  894SOL    HW2 3582   1.466   4.003   0.928
  895SOL     OW 3583   6.600   6.104   5.919
  895SOL    HW1 3584   6.585   6.174   5.850
  895SOL    HW2 3585   6.605   6.014   5.875
  896SOL     OW 3586   6.844   0.767   5.727
  896SOL    HW1 3587   6.822   0.680   5.682
  896SOL    HW2 3588   6.806   0.768   5.819
  897SOL     OW 3589   5.814   1.130   0.341
  897SOL    HW1 3590   5.869   1.107   0.421
  897SOL    HW2 3591   5.719   1.104   0.358
  898SOL     OW 3592   4.136   1.879   3.929
  898SOL    HW1 3593   4.154   1.850   3.835
  898SOL    HW2 3594   4.067   1.951   3.930
  899SOL     OW 3595   6.549   7.022   6.568
  899SOL    HW1 3596   6.584   6.946   6.513
  899SOL    HW2 3597   6.541   6.994   6.663
  900SOL     OW 3598   5.078   4.547   5.735
  900SOL    HW1 3599   5.161   4.525   5.683
  900SOL    HW2 3600   5.098   4.620   5.800
  901SOL     OW 3601   1.024   0.564   2.579
  901SOL    HW1 3602   0.996   0.560   2.483
  901SOL    HW2 3603   0.943   0.571   2.637
  902SOL     OW 3604   0.007   2.551   2.651
  902SOL    HW1 3605   0.053   2.589   2.571
  902SOL    HW2 3606   0.057   2.577   2.733
  903SOL     OW 3607   5.775   1.319   0.140
  903SOL    HW1 3608   5.869   1.351   0.128
  903SOL    HW2 3609   5.774   1.244   0.207
  904SOL     OW 3610   3.008   0.947   3.375
  904SOL    HW1 3611   2.959   0.979   3.456
  904SOL    HW2 3612   2.946   0.947   3.297
  905SOL     OW 3613   4.951   2.240   6.151
  905SOL    HW1 3614   5.002   2.172   6.203
  905SOL    HW2 3615   4.956   2.217   6.053
  906SOL     OW 3616   5.937   3.083   1.658
  906SOL    HW1 3617   6.023   3.126   1.685
  906SOL    HW2 3618   5.861   3.142   1.686
  907SOL     OW 3619   5.994   4.835   0.524
  907SOL    HW1 3620   5.984   4.851   0.425
  907SOL    HW2 3621   6.071   4.774   0.540
  908SOL     OW 3622   1.065   3.994   3.718
  908SOL    HW1 3623   1.055   4.039   3.806
  908SOL    HW2 3624   1.058   3.895   3.731
  909SOL     OW 3625   5.111   4.246   5.565
  909SOL    HW1 3626   5.134   4.341   5.543
  909SOL    HW2 3627   5.088   4.238   5.662
  910SOL     OW 3628   3.278   4.627   0.310
  910SOL    HW1 3629   3.291   4.591   0.402
  910SOL    HW2 3630   3.355   4.686   0.286
  911SOL     OW 3631   1.112   4.639   5.748
  911SOL    HW1 3632   1.085   4.669   5.839
  911SOL    HW2 3633   1.207   4.606   5.751
  912SOL     OW 3634   5.446   1.464   4.933
  912SOL    HW1 3635   5.535   1.482   4.890
  912SOL    HW2 3636   5.385   1.541   4.917
  913SOL     OW 3637   5.754   6.047   3.645
  913SOL    HW1 3638   5.798   6.008   3.726
  913SOL    HW2 3639   5.659   6.014   3.640
  914SOL     OW 3640   2.542   6.407   4.679
  914SOL    HW1 3641   2.455   6.385   4.723
  914SOL    HW2 3642   2.609   6.433   4.748
  915SOL     OW 3643   5.421   4.960   2.279
  915SOL    HW1 3644   5.399   5.058   2.271
  915SOL    HW2 3645   5.411   4.917   2.190
  916SOL     OW 3646   1.354   4.147   3.048
  916SOL    HW1 3647   1.333   4.155   3.146
  916SOL    HW2 3648   1.440   4.194   3.029
  917SOL     OW 3649   0.031   6.833   6.819
  917SOL    HW1 3650   6.960   6.852   6.803
  917SOL    HW2 3651   0.084   6.858   6.738
  918SOL     OW 3652   3.179   5.613   5.822
  918SOL    HW1 3653   3.213   5.672   5.749
  918SOL    HW2 3654   3.163   5.521   5.786
  919SOL     OW 3655   4.312   0.008   6.106
  919SOL    HW1 3656   4.273   7.018   6.015
  919SOL    HW2 3657   4.402   6.992   6.112
  920SOL     OW 3658   3.308   4.510   0.998
  920SOL    HW1 3659   3.379   4.488   0.930
  920SOL    HW2 3660   3.312   4.443   1.072
  921SOL     OW 3661   5.110   5.795   5.473
  921SOL    HW1 3662   5.151   5.719   5.423
  921SOL    HW2 3663   5.066   5.858   5.409
  922SOL     OW 3664   3.481   3.810   2.994
  922SOL    HW1 3665   3.526   3.763   2.918
  922SOL    HW2 3666   3.431   3.743   3.049
  923SOL     OW 3667   2.835   3.952   5.576
  923SOL    HW1 3668   2.747   3.920   5.541
  923SOL    HW2 3669   2.862   4.035   5.527
  924SOL     OW 3670   0.575   2.310   1.130
  924SOL    HW1 3671   0.652   2.250   1.151
  924SOL    HW2 3672   0.596   2.403   1.158
  925SOL     OW 3673   1.105   1.514   0.191
  925SOL    HW1 3674   1.122   1.603   0.148
  925SOL    HW2 3675   1.066   1.527   0.281
  926SOL     OW 3676   1.787   2.061   1.302
  926SOL    HW1 3677   1.762   2.157   1.285
  926SOL    HW2 3678   1.777   2.009   1.217
  927SOL     OW 3679   0.540   4.021   5.276
  927SOL    HW1 3680   0.474   3.946   5.278
  927SOL    HW2 3681   0.569   4.038   5.182
  928SOL     OW 3682   2.864   5.459   5.800
  928SOL    HW1 3683   2.852   5.439   5.897
  928SOL    HW2 3684   2.776   5.489   5.761
  929SOL     OW 3685   2.011   2.313   4.757
  929SOL    HW1 3686   1.977   2.323   4.850
  929SOL    HW2 3687   2.062   2.396   4.732
  930SOL     OW 3688   5.873   5.950   5.856
  930SOL    HW1 3689   5.944   5.896   5.900
  930SOL    HW2 3690   5.806   5.889   5.814
  931SOL     OW 3691   5.995   0.072   2.654
  931SOL    HW1 3692   5.923   0.069   2.725
  931SOL    HW2 3693   6.084   0.087   2.697
  932SOL     OW 3694   4.216   6.999   3.757
  932SOL    HW1 3695   4.310   6.973   3.734
  932SOL    HW2 3696   4.152   6.935   3.714
  933SOL     OW 3697   0.845   5.717   2.041
  933SOL    HW1 3698   0.792   5.633   2.034
  933SOL    HW2 3699   0.785   5.792   2.068
  934SOL     OW 3700   1.804   2.862   1.045
  934SOL    HW1 3701   1.789   2.925   1.121
  934SOL    HW2 3702   1.721   2.809   1.028
  935SOL     OW 3703   5.398   3.241   5.845
  935SOL    HW1 3704   5.445   3.161   5.883
  935SOL    HW2 3705   5.299   3.227   5.849
  936SOL     OW 3706   1.183   1.129   6.149
  936SOL    HW1 3707   1.240   1.073   6.088
  936SOL    HW2 3708   1.199   1.226   6.129
  937SOL     OW 3709   3.525   1.992   6.273
  937SOL    HW1 3710   3.563   1.902   6.257
  937SOL    HW2 3711   3.490   1.999   6.366
  938SOL     OW 3712   5.134   6.706   4.169
  938SOL    HW1 3713   5.111   6.674   4.261
  938SOL    HW2 3714   5.144   6.627   4.108
  939SOL     OW 3715   1.673   6.854   4.695
  939SOL    HW1 3716   1.673   6.762   4.734
  939SOL    HW2 3717   1.739   6.860   4.621
  940SOL     OW 3718   2.086   4.976   0.757
  940SOL    HW1 3719   2.084   4.881   0.789
  940SOL    HW2 3720   2.162   5.025   0.800
  941SOL     OW 3721   3.714   0.099   1.575
  941SOL    HW1 3722   3.698   0.043   1.493
  941SOL    HW2 3723   3.742   0.040   1.651
  942SOL     OW 3724   0.381   4.563   0.144
  942SOL    HW1 3725   0.435   4.509   0.209
  942SOL    HW2 3726   0.372   4.657   0.177
  943SOL     OW 3727   3.266   0.011   1.471
  943SOL    HW1 3728   3.331   0.005   1.547
  943SOL    HW2 3729   3.297   0.080   1.406
  944SOL     OW 3730   6.291   5.686   3.689
  944SOL    HW1 3731   6.265   5.592   3.668
  944SOL    HW2 3732   6.234   5.749   3.636
  945SOL     OW 3733   0.420   4.907   6.678
  945SOL    HW1 3734   0.398   4.835   6.744
  945SOL    HW2 3735   0.410   4.997   6.722
  946SOL     OW 3736   6.260   1.623   4.141
  946SOL    HW1 3737   6.286   1.528   4.164
  946SOL    HW2 3738   6.241   1.673   4.225
  947SOL     OW 3739   3.258   3.945   3.084
  947SOL    HW1 3740   3.188   3.992   3.029
  947SOL    HW2 3741   3.337   3.925   3.027
  948SOL     OW 3742   4.201   2.176   3.793
  948SOL    HW1 3743   4.285   2.231   3.797
  948SOL    HW2 3744   4.226   2.079   3.785
  949SOL     OW 3745   1.683   0.718   5.304
  949SOL    HW1 3746   1.614   0.714   5.231
  949SOL    HW2 3747   1.640   0.692   5.390
  950SOL     OW 3748   6.159   0.528   1.299
  950SOL    HW1 3749   6.143   0.627   1.288
  950SOL    HW2 3750   6.079   0.478   1.265
  951SOL     OW 3751   0.938   0.175   2.256
  951SOL    HW1 3752   0.936   0.253   2.193
  951SOL    HW2 3753   0.862   0.182   2.321
  952SOL     OW 3754   3.370   1.595   2.894
  952SOL    HW1 3755   3.407   1.551   2.812
  952SOL    HW2 3756   3.306   1.667   2.867
  953SOL     OW 3757   6.990   5.738   5.115
  953SOL    HW1 3758   6.970   5.754   5.211
  953SOL    HW2 3759   6.965   5.819   5.061
  954SOL     OW 3760   4.410   6.833   2.507
  954SOL    HW1 3761   4.332   6.830   2.444
  954SOL    HW2 3762   4.495   6.840   2.454
  955SOL     OW 3763   3.427   3.967   1.436
  955SOL    HW1 3764   3.361   4.033   1.401
  955SOL    HW2 3765   3.511   4.014   1.464
  956SOL     OW 3766   3.453   6.832   0.638
  956SOL    HW1 3767   3.550   6.833   0.660
  956SOL    HW2 3768   3.437   6.779   0.555
  957SOL     OW 3769   6.546   0.350   3.184
  957SOL    HW1 3770   6.511   0.406   3.109
  957SOL    HW2 3771   6.542   0.253   3.159
  958SOL     OW 3772   5.127   5.274   2.023
  958SOL    HW1 3773   5.034   5.260   2.056
  958SOL    HW2 3774   5.161   5.191   1.980
  959SOL     OW 3775   5.220   5.899   1.865
  959SOL    HW1 3776   5.280   5.965   1.820
  959SOL    HW2 3777   5.252   5.884   1.958
  960SOL     OW 3778   0.771   6.735   6.518
  960SOL    HW1 3779   0.868   6.714   6.502
  960SOL    HW2 3780   0.714   6.673   6.465
  961SOL     OW 3781   4.640   1.125   4.005
  961SOL    HW1 3782   4.628   1.219   4.040
  961SOL    HW2 3783   4.550   1.087   3.982
  962SOL     OW 3784   0.117   1.024   4.928
  962SOL    HW1 3785   0.180   1.080   4.875
  962SOL    HW2 3786   0.039   1.080   4.957
  963SOL     OW 3787   5.764   2.524   2.052
  963SOL    HW1 3788   5.696   2.566   1.992
  963SOL    HW2 3789   5.780   2.429   2.025
  964SOL     OW 3790   3.558   6.375   4.610
  964SOL    HW1 3791   3.555   6.446   4.681
  964SOL    HW2 3792   3.653   6.355   4.588
  965SOL     OW 3793   5.252   1.161   4.420
  965SOL    HW1 3794   5.210   1.164   4.510
  965SOL    HW2 3795   5.317   1.237   4.411
  966SOL     OW 3796   5.084   1.406   3.092
  966SOL    HW1 3797   4.990   1.441   3.088
  966SOL    HW2 3798   5.147   1.476   3.059
  967SOL     OW 3799   4.811   5.661   6.149
  967SOL    HW1 3800   4.814   5.739   6.212
  967SOL    HW2 3801   4.894   5.606   6.161
  968SOL     OW 3802   4.410   6.834   1.422
  968SOL    HW1 3803   4.480   6.813   1.355
  968SOL    HW2 3804   4.327   6.866   1.375
  969SOL     OW 3805   3.422   3.552   6.926
  969SOL    HW1 3806   3.436   3.565   7.024
  969SOL    HW2 3807   3.495   3.597   6.875
  970SOL     OW 3808   3.941   5.995   5.738
  970SOL    HW1 3809   3.888   5.947   5.668
  970SOL    HW2 3810   4.039   5.986   5.718
  971SOL     OW 3811   4.942   3.977   3.696
  971SOL    HW1 3812   4.944   3.904   3.627
  971SOL    HW2 3813   4.896   4.057   3.658
  972SOL     OW 3814   1.116   1.274   0.806
  972SOL    HW1 3815   1.118   1.373   0.814
  972SOL    HW2 3816   1.106   1.249   0.709
  973SOL     OW 3817   6.836   2.893   4.954
  973SOL    HW1 3818   6.792   2.946   4.881
  973SOL    HW2 3819   6.778   2.893   5.035
  974SOL     OW 3820   1.517   3.224   1.594
  974SOL    HW1 3821   1.581   3.147   1.590
  974SOL    HW2 3822   1.452   3.217   1.519
  975SOL     OW 3823   3.479   0.549   2.361
  975SOL    HW1 3824   3.520   0.526   2.273
  975SOL    HW2 3825   3.532   0.507   2.435
  976SOL     OW 3826   0.061   3.468   3.669
  976SOL    HW1 3827   0.157   3.456   3.692
  976SOL    HW2 3828   0.019   3.534   3.730
  977SOL     OW 3829   6.879   1.708   2.235
  977SOL    HW1 3830   6.882   1.757   2.322
  977SOL    HW2 3831   6.971   1.699   2.198
  978SOL     OW 3832   5.910   1.789   0.548
  978SOL    HW1 3833   5.834   1.740   0.506
  978SOL    HW2 3834   5.903   1.887   0.528
  979SOL     OW 3835   0.386   5.179   6.762
  979SOL    HW1 3836   0.442   5.250   6.721
  979SOL    HW2 3837   0.384   5.191   6.862
  980SOL     OW 3838   5.204   1.646   4.038
  980SOL    HW1 3839   5.136   1.676   3.971
  980SOL    HW2 3840   5.167   1.659   4.130
  981SOL     OW 3841   0.450   5.788   6.047
  981SOL    HW1 3842   0.353   5.763   6.039
  981SOL    HW2 3843   0.469   5.869   5.993
  982SOL     OW 3844   6.947   0.940   6.386
  982SOL    HW1 3845   6.964   0.947   6.484
  982SOL    HW2 3846   6.858   0.899   6.370
  983SOL     OW 3847   0.310   3.682   2.212
  983SOL    HW1 3848   0.279   3.687   2.117
  983SOL    HW2 3849   0.233   3.701   2.273
  984SOL     OW 3850   0.689   3.884   4.681
  984SOL    HW1 3851   0.651   3.956   4.622
  984SOL    HW2 3852   0.615   3.833   4.725
  985SOL     OW 3853   5.219   4.943   6.094
  985SOL    HW1 3854   5.293   4.926   6.158
  985SOL    HW2 3855   5.143   4.989   6.141
  986SOL     OW 3856   3.568   5.470   1.624
  986SOL    HW1 3857   3.510   5.408   1.571
  986SOL    HW2 3858   3.511   5.533   1.676
  987SOL     OW 3859   4.495   5.010   4.169
  987SOL    HW1 3860   4.486   4.977   4.074
  987SOL    HW2 3861   4.407   4.997   4.216
  988SOL     OW 3862   3.144   4.638   1.731
  988SOL    HW1 3863   3.170   4.543   1.715
  988SOL    HW2 3864   3.052   4.641   1.771
  989SOL     OW 3865   0.629   1.848   1.255
  989SOL    HW1 3866   0.668   1.776   1.312
  989SOL    HW2 3867   0.556   1.811   1.199
  990SOL     OW 3868   3.832   0.177   5.191
  990SOL    HW1 3869   3.840   0.163   5.092
  990SOL    HW2 3870   3.791   0.267   5.209
  991SOL     OW 3871   1.194   6.347   4.242
  991SOL    HW1 3872   1.217   6.385   4.332
  991SOL    HW2 3873   1.277   6.311   4.199
  992SOL     OW 3874   6.486   3.418   1.444
  992SOL    HW1 3875   6.464   3.380   1.355
  992SOL    HW2 3876   6.423   3.381   1.513
  993SOL     OW 3877   2.114   4.505   0.059
  993SOL    HW1 3878   2.137   4.541   0.150
  993SOL    HW2 3879   2.191   4.520   7.023
  994SOL     OW 3880   2.585   6.467   1.564
  994SOL    HW1 3881   2.502   6.523   1.562
  994SOL    HW2 3882   2.586   6.407   1.484
  995SOL     OW 3883   5.343   4.278   4.953
  995SOL    HW1 3884   5.425   4.233   4.989
  995SOL    HW2 3885   5.266   4.264   5.015
  996SOL     OW 3886   4.059   6.758   5.109
  996SOL    HW1 3887   4.032   6.852   5.131
  996SOL    HW2 3888   4.067   6.749   5.010
  997SOL     OW 3889   1.094   6.394   3.463
  997SOL    HW1 3890   1.051   6.311   3.429
  997SOL    HW2 3891   1.024   6.456   3.500
  998SOL     OW 3892   4.554   6.892   0.202
  998SOL    HW1 3893   4.467   6.941   0.203
  998SOL    HW2 3894   4.620   6.944   0.148
  999SOL     OW 3895   6.066   2.942   2.685
  999SOL    HW1 3896   6.131   2.978   2.618
  999SOL    HW2 3897   6.113   2.926   2.772
 1000SOL     OW 3898   6.294   1.609   2.492
 1000SOL    HW1 3899   6.356   1.562   2.429
 1000SOL    HW2 3900   6.333   1.699   2.516
 1001SOL     OW 3901   2.551   0.001   3.436
 1001SOL    HW1 3902   2.483   0.061   3.480
 1001SOL    HW2 3903   2.524   7.011   3.341
 1002SOL     OW 3904   4.872   2.272   0.236
 1002SOL    HW1 3905   4.888   2.174   0.251
 1002SOL    HW2 3906   4.786   2.284   0.188
 1003SOL     OW 3907   1.632   1.749   4.052
 1003SOL    HW1 3908   1.569   1.777   3.980
 1003SOL    HW2 3909   1.621   1.809   4.131
 1004SOL     OW 3910   4.170   1.716   5.005
 1004SOL    HW1 3911   4.185   1.682   4.913
 1004SOL    HW2 3912   4.223   1.661   5.070
 1005SOL     OW 3913   0.617   5.850   1.995
 1005SOL    HW1 3914   0.526   5.867   2.032
 1005SOL    HW2 3915   0.613   5.775   1.929
 1006SOL     OW 3916   1.835   3.973   2.246
 1006SOL    HW1 3917   1.816   3.898   2.183
 1006SOL    HW2 3918   1.925   3.961   2.286
 1007SOL     OW 3919   4.600   0.673   6.281
 1007SOL    HW1 3920   4.692   0.644   6.308
 1007SOL    HW2 3921   4.602   0.770   6.256
 1008SOL     OW 3922   0.539   4.082   4.540
 1008SOL    HW1 3923   0.549   4.150   4.468
 1008SOL    HW2 3924   0.447   4.043   4.537
 1009SOL     OW 3925   6.681   6.241   6.650
 1009SOL    HW1 3926   6.774   6.241   6.688
 1009SOL    HW2 3927   6.683   6.202   6.558
 1010SOL     OW 3928   3.113   3.903   0.289
 1010SOL    HW1 3929   3.032   3.961   0.276
 1010SOL    HW2 3930   3.158   3.888   0.201
 1011SOL     OW 3931   6.556   4.765   2.672
 1011SOL    HW1 3932   6.502   4.695   2.626
 1011SOL    HW2 3933   6.503   4.802   2.749
 1012SOL     OW 3934   5.365   6.287   3.081
 1012SOL    HW1 3935   5.457   6.252   3.063
 1012SOL    HW2 3936   5.312   6.287   2.996
 1013SOL     OW 3937   0.457   1.084   6.125
 1013SOL    HW1 3938   0.466   1.091   6.025
 1013SOL    HW2 3939   0.503   1.161   6.168
 1014SOL     OW 3940   0.693   4.394   4.676
 1014SOL    HW1 3941   0.740   4.471   4.720
 1014SOL    HW2 3942   0.595   4.412   4.674
 1015SOL     OW 3943   2.904   6.232   6.234
 1015SOL    HW1 3944   2.932   6.186   6.150
 1015SOL    HW2 3945   2.834   6.300   6.213
 1016SOL     OW 3946   6.893   4.257   0.465
 1016SOL    HW1 3947   6.920   4.353   0.452
 1016SOL    HW2 3948   6.858   4.220   0.378
 1017SOL     OW 3949   1.178   0.223   1.967
 1017SOL    HW1 3950   1.108   0.159   1.997
 1017SOL    HW2 3951   1.172   0.307   2.021
 1018SOL     OW 3952   5.709   5.643   6.547
 1018SOL    HW1 3953   5.637   5.577   6.567
 1018SOL    HW2 3954   5.745   5.627   6.455
 1019SOL     OW 3955   6.840   3.464   2.417
 1019SOL    HW1 3956   6.934   3.428   2.419
 1019SOL    HW2 3957   6.779   3.399   2.463
 1020SOL     OW 3958   5.194   1.644   1.232
 1020SOL    HW1 3959   5.204   1.710   1.158
 1020SOL    HW2 3960   5.142   1.565   1.200
 1021SOL     OW 3961   1.075   6.705   0.896
 1021SOL    HW1 3962   1.139   6.781   0.907
 1021SOL    HW2 3963   1.073   6.676   0.800
 1022SOL     OW 3964   2.108   5.163   5.770
 1022SOL    HW1 3965   2.046   5.090   5.800
 1022SOL    HW2 3966   2.194   5.122   5.740
 1023SOL     OW 3967   0.816   2.437   2.520
 1023SOL    HW1 3968   0.886   2.494   2.561
 1023SOL    HW2 3969   0.841   2.417   2.425
 1024SOL     OW 3970   1.906   3.147   4.796
 1024SOL    HW1 3971   1.807   3.129   4.790
 1024SOL    HW2 3972   1.946   3.088   4.866
 1025SOL     OW 3973   4.251   4.054   0.570
 1025SOL    HW1 3974   4.209   4.098   0.650
 1025SOL    HW2 3975   4.347   4.032   0.591
 1026SOL     OW 3976   3.083   2.721   1.769
 1026SOL    HW1 3977   3.065   2.636   1.720
 1026SOL    HW2 3978   2.999   2.774   1.778
 1027SOL     OW 3979   6.343   0.353   0.620
 1027SOL    HW1 3980   6.399   0.377   0.700
 1027SOL    HW2 3981   6.304   0.436   0.580
 1028SOL     OW 3982   0.652   5.360   4.105
 1028SOL    HW1 3983   0.633   5.271   4.145
 1028SOL    HW2 3984   0.717   5.410   4.163
 1029SOL     OW 3985   0.940   0.170   4.925
 1029SOL    HW1 3986   0.924   0.165   4.827
 1029SOL    HW2 3987   0.932   0.079   4.965
 1030SOL     OW 3988   4.642   3.333   0.467
 1030SOL    HW1 3989   4.620   3.260   0.531
 1030SOL    HW2 3990   4.735   3.321   0.433
 1031SOL     OW 3991   4.432   2.561   0.283
 1031SOL    HW1 3992   4.381   2.554   0.197
 1031SOL    HW2 3993   4.371   2.593   0.356
 1032SOL     OW 3994   1.220   1.260   1.248
 1032SOL    HW1 3995   1.168   1.248   1.333
 1032SOL    HW2 3996   1.304   1.207   1.253
 1033SOL     OW 3997   6.270   0.083   1.806
 1033SOL    HW1 3998   6.338   0.029   1.757
 1033SOL    HW2 3999   6.310   0.114   1.893
 1034SOL     OW 4000   2.010   0.487   4.736
 1034SOL    HW1 4001   1.946   0.538   4.677
 1034SOL    HW2 4002   2.063   0.552   4.790
 1035SOL     OW 4003   1.324   0.038   6.915
 1035SOL    HW1 4004   1.284   6.976   6.891
 1035SOL    HW2 4005   1.339   0.042   7.014
 1036SOL     OW 4006   5.544   1.517   2.537
 1036SOL    HW1 4007   5.468   1.523   2.473
 1036SOL    HW2 4008   5.547   1.599   2.594
 1037SOL     OW 4009   0.662   3.928   2.768
 1037SOL    HW1 4010   0.717   3.846   2.782
 1037SOL    HW2 4011   0.700   4.003   2.821
 1038SOL     OW 4012   1.556   6.214   6.853
 1038SOL    HW1 4013   1.601   6.277   6.790
 1038SOL    HW2 4014   1.514   6.140   6.800
 1039SOL     OW 4015   2.898   3.510   2.817
 1039SOL    HW1 4016   2.891   3.491   2.915
 1039SOL    HW2 4017   2.994   3.511   2.790
 1040SOL     OW 4018   4.396   1.460   3.143
 1040SOL    HW1 4019   4.331   1.522   3.187
 1040SOL    HW2 4020   4.346   1.391   3.090
 1041SOL     OW 4021   0.148   0.273   6.558
 1041SOL    HW1 4022   0.162   0.248   6.654
 1041SOL    HW2 4023   0.234   0.262   6.508
 1042SOL     OW 4024   5.577   3.181   4.142
 1042SOL    HW1 4025   5.525   3.266   4.127
 1042SOL    HW2 4026   5.514   3.107   4.166
 1043SOL     OW 4027   2.422   2.499   3.828
 1043SOL    HW1 4028   2.378   2.500   3.738
 1043SOL    HW2 4029   2.374   2.434   3.887
 1044SOL     OW 4030   4.932   4.314   2.283
 1044SOL    HW1 4031   4.858   4.248   2.270
 1044SOL    HW2 4032   4.962   4.311   2.379
 1045SOL     OW 4033   1.947   0.308   3.061
 1045SOL    HW1 4034   2.018   0.374   3.034
 1045SOL    HW2 4035   1.859   0.337   3.024
 1046SOL     OW 4036   4.000   2.825   0.460
 1046SOL    HW1 4037   3.944   2.903   0.434
 1046SOL    HW2 4038   3.946   2.763   0.519
 1047SOL     OW 4039   4.371   1.064   4.218
 1047SOL    HW1 4040   4.271   1.073   4.225
 1047SOL    HW2 4041   4.395   1.032   4.126
 1048SOL     OW 4042   6.685   0.355   1.926
 1048SOL    HW1 4043   6.653   0.381   1.835
 1048SOL    HW2 4044   6.782   0.335   1.923
 1049SOL     OW 4045   3.643   6.489   0.416
 1049SOL    HW1 4046   3.732   6.443   0.419
 1049SOL    HW2 4047   3.590   6.463   0.496
 1050SOL     OW 4048   2.778   1.743   4.365
 1050SOL    HW1 4049   2.757   1.673   4.297
 1050SOL    HW2 4050   2.875   1.736   4.391
 1051SOL     OW 4051   1.713   2.274   6.418
 1051SOL    HW1 4052   1.720   2.320   6.329
 1051SOL    HW2 4053   1.787   2.208   6.427
 1052SOL     OW 4054   4.395   2.425   6.099
 1052SOL    HW1 4055   4.404   2.345   6.157
 1052SOL    HW2 4056   4.298   2.449   6.090
 1053SOL     OW 4057   4.566   2.635   4.862
 1053SOL    HW1 4058   4.504   2.690   4.806
 1053SOL    HW2 4059   4.513   2.569   4.916
 1054SOL     OW 4060   5.278   5.228   0.004
 1054SOL    HW1 4061   5.350   5.283   0.047
 1054SOL    HW2 4062   5.225   5.181   0.074
 1055SOL     OW 4063   5.340   5.613   6.367
 1055SOL    HW1 4064   5.385   5.525   6.382
 1055SOL    HW2 4065   5.387   5.661   6.292
 1056SOL     OW 4066   3.648   3.253   0.067
 1056SOL    HW1 4067   3.703   3.335   0.082
 1056SOL    HW2 4068   3.551   3.275   0.081
 1057SOL     OW 4069   3.077   3.850   6.602
 1057SOL    HW1 4070   3.000   3.821   6.658
 1057SOL    HW2 4071   3.154   3.875   6.662
 1058SOL     OW 4072   3.094   1.752   1.858
 1058SOL    HW1 4073   3.049   1.663   1.861
 1058SOL    HW2 4074   3.115   1.782   1.951
 1059SOL     OW 4075   1.939   6.294   2.765
 1059SOL    HW1 4076   1.958   6.207   2.721
 1059SOL    HW2 4077   1.960   6.288   2.862
 1060SOL     OW 4078   6.474   6.564   5.017
 1060SOL    HW1 4079   6.419   6.629   5.070
 1060SOL    HW2 4080   6.503   6.489   5.076
 1061SOL     OW 4081   0.296   4.176   6.565
 1061SOL    HW1 4082   0.389   4.212   6.551
 1061SOL    HW2 4083   0.300   4.099   6.628
 1062SOL     OW 4084   4.014   4.867   5.618
 1062SOL    HW1 4085   4.060   4.898   5.702
 1062SOL    HW2 4086   4.080   4.865   5.543
 1063SOL     OW 4087   3.177   6.011   3.807
 1063SOL    HW1 4088   3.089   6.019   3.762
 1063SOL    HW2 4089   3.246   5.983   3.740
 1064SOL     OW 4090   1.162   3.974   0.114
 1064SOL    HW1 4091   1.177   3.996   0.210
 1064SOL    HW2 4092   1.175   4.056   0.059
 1065SOL     OW 4093   5.662   1.324   5.829
 1065SOL    HW1 4094   5.696   1.350   5.919
 1065SOL    HW2 4095   5.620   1.403   5.784
 1066SOL     OW 4096   4.591   6.190   1.086
 1066SOL    HW1 4097   4.687   6.166   1.099
 1066SOL    HW2 4098   4.547   6.200   1.176
 1067SOL     OW 4099   4.261   0.999   0.840
 1067SOL    HW1 4100   4.338   1.061   0.826
 1067SOL    HW2 4101   4.175   1.048   0.827
 1068SOL     OW 4102   6.059   2.323   3.303
 1068SOL    HW1 4103   6.067   2.224   3.315
 1068SOL    HW2 4104   6.091   2.348   3.212
 1069SOL     OW 4105   0.541   1.226   2.946
 1069SOL    HW1 4106   0.593   1.204   3.029
 1069SOL    HW2 4107   0.505   1.320   2.953
 1070SOL     OW 4108   1.569   0.151   2.009
 1070SOL    HW1 4109   1.528   0.242   2.006
 1070SOL    HW2 4110   1.514   0.091   2.067
 1071SOL     OW 4111   1.262   3.063   5.367
 1071SOL    HW1 4112   1.330   3.095   5.301
 1071SOL    HW2 4113   1.176   3.110   5.352
 1072SOL     OW 4114   2.093   1.207   1.586
 1072SOL    HW1 4115   2.178   1.220   1.636
 1072SOL    HW2 4116   2.090   1.272   1.509
 1073SOL     OW 4117   5.237   2.254   2.742
 1073SOL    HW1 4118   5.165   2.323   2.740
 1073SOL    HW2 4119   5.240   2.207   2.654
 1074SOL     OW 4120   3.430   6.391   1.585
 1074SOL    HW1 4121   3.390   6.475   1.622
 1074SOL    HW2 4122   3.357   6.331   1.553
 1075SOL     OW 4123   6.713   3.874   4.863
 1075SOL    HW1 4124   6.738   3.942   4.931
 1075SOL    HW2 4125   6.792   3.853   4.806
 1076SOL     OW 4126   2.777   4.720   5.794
 1076SOL    HW1 4127   2.794   4.639   5.739
 1076SOL    HW2 4128   2.817   4.800   5.749
 1077SOL     OW 4129   6.856   6.670   0.796
 1077SOL    HW1 4130   6.780   6.621   0.754
 1077SOL    HW2 4131   6.822   6.727   0.871
 1078SOL     OW 4132   5.673   6.710   3.819
 1078SOL    HW1 4133   5.678   6.798   3.771
 1078SOL    HW2 4134   5.742   6.708   3.891
 1079SOL     OW 4135   1.290   5.235   1.232
 1079SOL    HW1 4136   1.299   5.163   1.163
 1079SOL    HW2 4137   1.211   5.215   1.291
 1080SOL     OW 4138   5.243   6.319   0.475
 1080SOL    HW1 4139   5.221   6.388   0.545
 1080SOL    HW2 4140   5.333   6.338   0.436
 1081SOL     OW 4141   6.810   6.832   3.394
 1081SOL    HW1 4142   6.878   6.837   3.467
 1081SOL    HW2 4143   6.854   6.849   3.306
 1082SOL     OW 4144   4.514   6.644   0.062
 1082SOL    HW1 4145   4.506   6.558   0.112
 1082SOL    HW2 4146   4.530   6.719   0.126
 1083SOL     OW 4147   6.691   4.026   2.293
 1083SOL    HW1 4148   6.678   3.982   2.382
 1083SOL    HW2 4149   6.781   4.002   2.256
 1084SOL     OW 4150   4.286   6.999   5.417
 1084SOL    HW1 4151   4.330   0.028   5.346
 1084SOL    HW2 4152   4.187   7.008   5.410
 1085SOL     OW 4153   2.190   3.344   4.696
 1085SOL    HW1 4154   2.198   3.301   4.606
 1085SOL    HW2 4155   2.280   3.372   4.728
 1086SOL     OW 4156   4.836   4.488   2.561
 1086SOL    HW1 4157   4.747   4.531   2.570
 1086SOL    HW2 4158   4.906   4.548   2.600
 1087SOL     OW 4159   3.701   0.252   5.941
 1087SOL    HW1 4160   3.792   0.219   5.966
 1087SOL    HW2 4161   3.654   0.286   6.023
 1088SOL     OW 4162   5.819   5.604   4.190
 1088SOL    HW1 4163   5.797   5.551   4.108
 1088SOL    HW2 4164   5.918   5.620   4.193
 1089SOL     OW 4165   5.929   4.659   4.651
 1089SOL    HW1 4166   6.004   4.605   4.611
 1089SOL    HW2 4167   5.844   4.606   4.648
 1090SOL     OW 4168   6.143   2.837   5.057
 1090SOL    HW1 4169   6.169   2.782   5.137
 1090SOL    HW2 4170   6.119   2.929   5.086
 1091SOL     OW 4171   2.058   3.332   3.932
 1091SOL    HW1 4172   1.999   3.399   3.977
 1091SOL    HW2 4173   2.012   3.294   3.853
 1092SOL     OW 4174   0.660   5.836   0.327
 1092SOL    HW1 4175   0.622   5.821   0.236
 1092SOL    HW2 4176   0.753   5.797   0.331
 1093SOL     OW 4177   1.779   0.450   3.301
 1093SOL    HW1 4178   1.796   0.548   3.289
 1093SOL    HW2 4179   1.814   0.400   3.222
 1094SOL     OW 4180   0.501   0.568   3.617
 1094SOL    HW1 4181   0.532   0.493   3.559
 1094SOL    HW2 4182   0.402   0.560   3.631
 1095SOL     OW 4183   6.646   4.770   0.941
 1095SOL    HW1 4184   6.615   4.785   0.847
 1095SOL    HW2 4185   6.704   4.688   0.944
 1096SOL     OW 4186   1.952   6.054   1.904
 1096SOL    HW1 4187   2.043   6.095   1.911
 1096SOL    HW2 4188   1.949   5.969   1.957
 1097SOL     OW 4189   3.133   5.335   4.748
 1097SOL    HW1 4190   3.143   5.385   4.662
 1097SOL    HW2 4191   3.177   5.246   4.740
 1098SOL     OW 4192   0.300   4.128   0.275
 1098SOL    HW1 4193   0.236   4.204   0.271
 1098SOL    HW2 4194   0.381   4.149   0.219
 1099SOL     OW 4195   5.609   0.078   6.736
 1099SOL    HW1 4196   5.515   0.097   6.762
 1099SOL    HW2 4197   5.652   0.162   6.702
 1100SOL     OW 4198   5.149   0.736   4.043
 1100SOL    HW1 4199   5.071   0.789   4.076
 1100SOL    HW2 4200   5.234   0.780   4.072
 1101SOL     OW 4201   5.061   2.433   0.396
 1101SOL    HW1 4202   5.045   2.525   0.430
 1101SOL    HW2 4203   4.983   2.402   0.342
 1102SOL     OW 4204   4.121   1.221   4.590
 1102SOL    HW1 4205   4.077   1.187   4.673
 1102SOL    HW2 4206   4.204   1.167   4.572
 1103SOL     OW 4207   2.840   6.176   0.474
 1103SOL    HW1 4208   2.837   6.102   0.540
 1103SOL    HW2 4209   2.778   6.157   0.398
 1104SOL     OW 4210   6.272   1.021   4.251
 1104SOL    HW1 4211   6.367   1.052   4.254
 1104SOL    HW2 4212   6.269   0.921   4.257
 1105SOL     OW 4213   4.575   6.866   5.675
 1105SOL    HW1 4214   4.638   6.941   5.658
 1105SOL    HW2 4215   4.481   6.900   5.676
 1106SOL     OW 4216   6.543   1.392   2.090
 1106SOL    HW1 4217   6.485   1.311   2.097
 1106SOL    HW2 4218   6.631   1.374   2.135
 1107SOL     OW 4219   1.318   2.476   6.845
 1107SOL    HW1 4220   1.352   2.567   6.820
 1107SOL    HW2 4221   1.329   2.413   6.768
 1108SOL     OW 4222   2.456   1.455   2.232
 1108SOL    HW1 4223   2.436   1.524   2.302
 1108SOL    HW2 4224   2.373   1.404   2.210
 1109SOL     OW 4225   5.201   1.508   5.513
 1109SOL    HW1 4226   5.225   1.416   5.544
 1109SOL    HW2 4227   5.263   1.535   5.440
 1110SOL     OW 4228   1.733   0.042   1.825
 1110SOL    HW1 4229   1.701   6.996   1.763
 1110SOL    HW2 4230   1.664   0.057   1.896
 1111SOL     OW 4231   5.146   3.543   6.246
 1111SOL    HW1 4232   5.055   3.525   6.207
 1111SOL    HW2 4233   5.136   3.565   6.343
 1112SOL     OW 4234   5.850   0.627   2.577
 1112SOL    HW1 4235   5.922   0.557   2.576
 1112SOL    HW2 4236   5.870   0.695   2.648
 1113SOL     OW 4237   0.483   1.096   2.716
 1113SOL    HW1 4238   0.497   1.147   2.801
 1113SOL    HW2 4239   0.415   1.143   2.660
 1114SOL     OW 4240   3.670   3.403   4.446
 1114SOL    HW1 4241   3.639   3.442   4.532
 1114SOL    HW2 4242   3.746   3.339   4.463
 1115SOL     OW 4243   1.944   5.780   6.090
 1115SOL    HW1 4244   2.016   5.715   6.069
 1115SOL    HW2 4245   1.972   5.871   6.059
 1116SOL     OW 4246   4.454   0.118   0.383
 1116SOL    HW1 4247   4.380   0.080   0.438
 1116SOL    HW2 4248   4.502   0.044   0.335
 1117SOL     OW 4249   2.057   2.555   1.680
 1117SOL    HW1 4250   2.134   2.599   1.726
 1117SOL    HW2 4251   2.090   2.481   1.621
 1118SOL     OW 4252   4.377   6.671   0.313
 1118SOL    HW1 4253   4.343   6.761   0.287
 1118SOL    HW2 4254   4.300   6.612   0.337
 1119SOL     OW 4255   3.328   6.274   3.937
 1119SOL    HW1 4256   3.288   6.184   3.921
 1119SOL    HW2 4257   3.259   6.334   3.977
 1120SOL     OW 4258   0.510   3.277   1.744
 1120SOL    HW1 4259   0.439   3.221   1.701
 1120SOL    HW2 4260   0.588   3.284   1.682
 1121SOL     OW 4261   5.437   4.619   5.840
 1121SOL    HW1 4262   5.413   4.589   5.933
 1121SOL    HW2 4263   5.459   4.538   5.784
 1122SOL     OW 4264   6.073   0.959   2.388
 1122SOL    HW1 4265   6.056   0.887   2.456
 1122SOL    HW2 4266   6.057   1.048   2.430
 1123SOL     OW 4267   3.320   2.097   4.902
 1123SOL    HW1 4268   3.369   2.089   4.988
 1123SOL    HW2 4269   3.238   2.153   4.915
 1124SOL     OW 4270   2.755   2.381   3.669
 1124SOL    HW1 4271   2.851   2.361   3.689
 1124SOL    HW2 4272   2.708   2.403   3.755
 1125SOL     OW 4273   1.100   2.962   3.548
 1125SOL    HW1 4274   1.125   3.048   3.593
 1125SOL    HW2 4275   1.183   2.920   3.510
 1126SOL     OW 4276   5.025   4.891   3.533
 1126SOL    HW1 4277   5.077   4.836   3.467
 1126SOL    HW2 4278   5.042   4.856   3.625
 1127SOL     OW 4279   5.223   0.229   0.870
 1127SOL    HW1 4280   5.248   0.322   0.842
 1127SOL    HW2 4281   5.129   0.210   0.841
 1128SOL     OW 4282   2.926   1.801   4.711
 1128SOL    HW1 4283   2.961   1.732   4.774
 1128SOL    HW2 4284   3.003   1.846   4.665
 1129SOL     OW 4285   1.456   0.607   6.781
 1129SOL    HW1 4286   1.485   0.512   6.786
 1129SOL    HW2 4287   1.401   0.620   6.699
 1130SOL     OW 4288   2.612   5.756   0.659
 1130SOL    HW1 4289   2.690   5.801   0.702
 1130SOL    HW2 4290   2.605   5.662   0.693
 1131SOL     OW 4291   1.502   5.681   3.429
 1131SOL    HW1 4292   1.552   5.759   3.469
 1131SOL    HW2 4293   1.450   5.635   3.501
 1132SOL     OW 4294   1.177   2.481   3.282
 1132SOL    HW1 4295   1.194   2.572   3.245
 1132SOL    HW2 4296   1.265   2.432   3.291
 1133SOL     OW 4297   1.290   5.891   0.157
 1133SOL    HW1 4298   1.199   5.880   0.196
 1133SOL    HW2 4299   1.302   5.986   0.127
 1134SOL     OW 4300   3.865   5.345   0.799
 1134SOL    HW1 4301   3.932   5.419   0.812
 1134SOL    HW2 4302   3.888   5.294   0.716
 1135SOL     OW 4303   1.652   6.660   2.686
 1135SOL    HW1 4304   1.651   6.621   2.778
 1135SOL    HW2 4305   1.689   6.593   2.621
 1136SOL     OW 4306   1.822   5.152   3.192
 1136SOL    HW1 4307   1.759   5.207   3.137
 1136SOL    HW2 4308   1.844   5.201   3.277
 1137SOL     OW 4309   1.368   4.884   4.054
 1137SOL    HW1 4310   1.386   4.956   3.986
 1137SOL    HW2 4311   1.387   4.795   4.014
 1138SOL     OW 4312   2.730   4.803   4.378
 1138SOL    HW1 4313   2.708   4.810   4.281
 1138SOL    HW2 4314   2.689   4.720   4.415
 1139SOL     OW 4315   3.474   5.803   4.854
 1139SOL    HW1 4316   3.521   5.842   4.775
 1139SOL    HW2 4317   3.376   5.797   4.834
 1140SOL     OW 4318   1.765   3.016   1.260
 1140SOL    HW1 4319   1.750   3.114   1.247
 1140SOL    HW2 4320   1.748   2.992   1.356
 1141SOL     OW 4321   5.946   4.891   5.894
 1141SOL    HW1 4322   5.922   4.920   5.801
 1141SOL    HW2 4323   5.878   4.826   5.927
 1142SOL     OW 4324   0.705   6.181   3.162
 1142SOL    HW1 4325   0.677   6.091   3.196
 1142SOL    HW2 4326   0.690   6.186   3.063
 1143SOL     OW 4327   6.962   3.837   1.852
 1143SOL    HW1 4328   6.888   3.904   1.861
 1143SOL    HW2 4329   6.953   3.789   1.765
 1144SOL     OW 4330   5.257   4.506   0.149
 1144SOL    HW1 4331   5.182   4.457   0.105
 1144SOL    HW2 4332   5.332   4.442   0.167
 1145SOL     OW 4333   5.807   0.310   1.023
 1145SOL    HW1 4334   5.744   0.253   1.077
 1145SOL    HW2 4335   5.755   0.372   0.965
 1146SOL     OW 4336   1.524   0.524   1.414
 1146SOL    HW1 4337   1.621   0.547   1.418
 1146SOL    HW2 4338   1.509   0.435   1.457
 1147SOL     OW 4339   1.231   5.646   0.353
 1147SOL    HW1 4340   1.220   5.562   0.406
 1147SOL    HW2 4341   1.159   5.651   0.284
 1148SOL     OW 4342   3.796   5.583   1.774
 1148SOL    HW1 4343   3.881   5.603   1.726
 1148SOL    HW2 4344   3.719   5.591   1.710
 1149SOL     OW 4345   6.102   2.423   2.048
 1149SOL    HW1 4346   6.055   2.336   2.064
 1149SOL    HW2 4347   6.073   2.490   2.116
 1150SOL     OW 4348   0.969   1.627   0.865
 1150SOL    HW1 4349   0.884   1.576   0.849
 1150SOL    HW2 4350   0.963   1.673   0.954
 1151SOL     OW 4351   5.772   5.533   4.451
 1151SOL    HW1 4352   5.863   5.536   4.494
 1151SOL    HW2 4353   5.780   5.562   4.355
 1152SOL     OW 4354   3.133   6.312   5.628
 1152SOL    HW1 4355   3.096   6.347   5.714
 1152SOL    HW2 4356   3.058   6.296   5.564
 1153SOL     OW 4357   5.355   0.231   1.128
 1153SOL    HW1 4358   5.322   0.186   1.045
 1153SOL    HW2 4359   5.340   0.329   1.121
 1154SOL     OW 4360   1.446   3.059   0.828
 1154SOL    HW1 4361   1.393   3.134   0.869
 1154SOL    HW2 4362   1.491   3.091   0.745
 1155SOL     OW 4363   4.019   5.577   3.610
 1155SOL    HW1 4364   4.096   5.517   3.633
 1155SOL    HW2 4365   4.044   5.636   3.534
 1156SOL     OW 4366   3.112   0.107   1.250
 1156SOL    HW1 4367   3.197   0.159   1.237
 1156SOL    HW2 4368   3.074   0.128   1.340
 1157SOL     OW 4369   2.197   2.136   0.653
 1157SOL    HW1 4370   2.284   2.150   0.699
 1157SOL    HW2 4371   2.166   2.043   0.668
 1158SOL     OW 4372   5.446   5.105   3.932
 1158SOL    HW1 4373   5.402   5.164   3.999
 1158SOL    HW2 4374   5.491   5.029   3.979
 1159SOL     OW 4375   5.442   4.610   0.372
 1159SOL    HW1 4376   5.445   4.528   0.314
 1159SOL    HW2 4377   5.535   4.642   0.389
 1160SOL     OW 4378   4.344   2.235   0.886
 1160SOL    HW1 4379   4.368   2.148   0.843
 1160SOL    HW2 4380   4.376   2.236   0.980
 1161SOL     OW 4381   0.667   4.329   0.990
 1161SOL    HW1 4382   0.572   4.356   1.008
 1161SOL    HW2 4383   0.668   4.241   0.943
 1162SOL     OW 4384   2.181   3.192   4.951
 1162SOL    HW1 4385   2.248   3.123   4.979
 1162SOL    HW2 4386   2.143   3.166   4.862
 1163SOL     OW 4387   4.478   1.853   2.310
 1163SOL    HW1 4388   4.568   1.897   2.307
 1163SOL    HW2 4389   4.488   1.755   2.296
 1164SOL     OW 4390   3.922   2.139   6.338
 1164SOL    HW1 4391   3.939   2.086   6.421
 1164SOL    HW2 4392   3.988   2.214   6.333
 1165SOL     OW 4393   4.300   0.467   2.715
 1165SOL    HW1 4394   4.330   0.555   2.679
 1165SOL    HW2 4395   4.379   0.406   2.724
 1166SOL     OW 4396   4.321   3.852   0.017
 1166SOL    HW1 4397   4.347   3.860   0.113
 1166SOL    HW2 4398   4.281   3.938   7.012
 1167SOL     OW 4399   5.219   3.965   3.812
 1167SOL    HW1 4400   5.256   3.914   3.735
 1167SOL    HW2 4401   5.135   4.013   3.784
 1168SOL     OW 4402   0.021   0.047   0.254
 1168SOL    HW1 4403   6.962   0.011   0.293
 1168SOL    HW2 4404   0.074   0.090   0.327
 1169SOL     OW 4405   5.001   1.669   5.592
 1169SOL    HW1 4406   4.999   1.760   5.549
 1169SOL    HW2 4407   5.079   1.618   5.557
 1170SOL     OW 4408   5.334   4.437   2.961
 1170SOL    HW1 4409   5.349   4.473   2.868
 1170SOL    HW2 4410   5.257   4.485   3.002
 1171SOL     OW 4411   0.043   6.351   0.665
 1171SOL    HW1 4412   0.031   6.429   0.727
 1171SOL    HW2 4413   0.137   6.316   0.674
 1172SOL     OW 4414   5.573   2.549   6.713
 1172SOL    HW1 4415   5.666   2.537   6.747
 1172SOL    HW2 4416   5.531   2.628   6.757
 1173SOL     OW 4417   4.833   3.048   1.712
 1173SOL    HW1 4418   4.919   3.100   1.718
 1173SOL    HW2 4419   4.777   3.068   1.792
 1174SOL     OW 4420   2.740   5.328   6.812
 1174SOL    HW1 4421   2.788   5.397   6.758
 1174SOL    HW2 4422   2.803   5.254   6.837
 1175SOL     OW 4423   3.238   3.729   3.946
 1175SOL    HW1 4424   3.324   3.756   3.990
 1175SOL    HW2 4425   3.246   3.635   3.912
 1176SOL     OW 4426   5.690   3.647   0.097
 1176SOL    HW1 4427   5.726   3.554   0.096
 1176SOL    HW2 4428   5.631   3.660   0.176
 1177SOL     OW 4429   1.333   0.349   4.390
 1177SOL    HW1 4430   1.348   0.448   4.384
 1177SOL    HW2 4431   1.285   0.317   4.307
 1178SOL     OW 4432   4.109   6.556   6.827
 1178SOL    HW1 4433   4.139   6.620   6.757
 1178SOL    HW2 4434   4.188   6.519   6.875
 1179SOL     OW 4435   0.409   6.041   1.345
 1179SOL    HW1 4436   0.343   6.071   1.414
 1179SOL    HW2 4437   0.489   6.101   1.346
 1180SOL     OW 4438   3.873   6.507   0.806
 1180SOL    HW1 4439   3.786   6.503   0.855
 1180SOL    HW2 4440   3.906   6.414   0.789
 1181SOL     OW 4441   5.897   6.664   5.998
 1181SOL    HW1 4442   5.917   6.759   6.024
 1181SOL    HW2 4443   5.828   6.626   6.059
 1182SOL     OW 4444   5.232   3.667   4.245
 1182SOL    HW1 4445   5.238   3.764   4.219
 1182SOL    HW2 4446   5.165   3.621   4.188
 1183SOL     OW 4447   1.434   4.018   0.121
 1183SOL    HW1 4448   1.372   3.939   0.125
 1183SOL    HW2 4449   1.488   4.022   0.205
 1184SOL     OW 4450   0.425   1.938   4.850
 1184SOL    HW1 4451   0.467   1.907   4.765
 1184SOL    HW2 4452   0.383   1.860   4.897
 1185SOL     OW 4453   6.945   1.942   6.553
 1185SOL    HW1 4454   6.913   1.979   6.466
 1185SOL    HW2 4455   0.017   1.922   6.546
 1186SOL     OW 4456   4.785   6.335   3.605
 1186SOL    HW1 4457   4.699   6.369   3.644
 1186SOL    HW2 4458   4.852   6.410   3.605
 1187SOL     OW 4459   6.025   2.052   6.816
 1187SOL    HW1 4460   5.932   2.018   6.806
 1187SOL    HW2 4461   6.025   2.152   6.807
 1188SOL     OW 4462   4.316   2.137   6.122
 1188SOL    HW1 4463   4.378   2.087   6.062
 1188SOL    HW2 4464   4.341   2.120   6.217
 1189SOL     OW 4465   6.243   3.776   3.783
 1189SOL    HW1 4466   6.200   3.866   3.777
 1189SOL    HW2 4467   6.194   3.720   3.850
 1190SOL     OW 4468   2.288   1.241   3.894
 1190SOL    HW1 4469   2.264   1.335   3.916
 1190SOL    HW2 4470   2.206   1.184   3.894
 1191SOL     OW 4471   3.127   0.352   2.893
 1191SOL    HW1 4472   3.177   0.270   2.922
 1191SOL    HW2 4473   3.045   0.362   2.950
 1192SOL     OW 4474   5.666   5.447   4.021
 1192SOL    HW1 4475   5.624   5.412   3.937
 1192SOL    HW2 4476   5.713   5.373   4.068
 1193SOL     OW 4477   6.580   5.956   4.183
 1193SOL    HW1 4478   6.518   5.998   4.117
 1193SOL    HW2 4479   6.599   6.020   4.257
 1194SOL     OW 4480   3.614   0.170   1.041
 1194SOL    HW1 4481   3.600   0.268   1.029
 1194SOL    HW2 4482   3.567   0.120   0.968
 1195SOL     OW 4483   5.244   3.371   3.114
 1195SOL    HW1 4484   5.153   3.354   3.075
 1195SOL    HW2 4485   5.296   3.431   3.054
 1196SOL     OW 4486   0.163   6.103   5.426
 1196SOL    HW1 4487   0.219   6.173   5.382
 1196SOL    HW2 4488   0.077   6.143   5.457
 1197SOL     OW 4489   2.831   6.611   6.375
 1197SOL    HW1 4490   2.913   6.655   6.338
 1197SOL    HW2 4491   2.839   6.603   6.474
 1198SOL     OW 4492   1.237   2.463   0.566
 1198SOL    HW1 4493   1.210   2.547   0.519
 1198SOL    HW2 4494   1.156   2.417   0.602
 1199SOL     OW 4495   5.682   4.357   2.761
 1199SOL    HW1 4496   5.628   4.341   2.679
 1199SOL    HW2 4497   5.762   4.412   2.738
 1200SOL     OW 4498   3.146   4.102   1.985
 1200SOL    HW1 4499   3.124   4.185   2.036
 1200SOL    HW2 4500   3.086   4.095   1.905
 1201SOL     OW 4501   1.452   2.441   4.993
 1201SOL    HW1 4502   1.537   2.390   4.980
 1201SOL    HW2 4503   1.418   2.472   4.905
 1202SOL     OW 4504   0.829   6.342   4.879
 1202SOL    HW1 4505   0.844   6.406   4.803
 1202SOL    HW2 4506   0.914   6.331   4.930
 1203SOL     OW 4507   4.581   5.471   5.107
 1203SOL    HW1 4508   4.492   5.517   5.108
 1203SOL    HW2 4509   4.648   5.529   5.061
 1204SOL     OW 4510   2.093   0.627   2.628
 1204SOL    HW1 4511   2.168   0.562   2.618
 1204SOL    HW2 4512   2.006   0.577   2.635
 1205SOL     OW 4513   6.191   3.316   2.347
 1205SOL    HW1 4514   6.126   3.392   2.346
 1205SOL    HW2 4515   6.271   3.340   2.292
 1206SOL     OW 4516   3.323   3.018   3.957
 1206SOL    HW1 4517   3.369   3.068   4.031
 1206SOL    HW2 4518   3.391   2.983   3.893
 1207SOL     OW 4519   1.069   5.876   3.393
 1207SOL    HW1 4520   1.074   5.873   3.492
 1207SOL    HW2 4521   1.142   5.935   3.358
 1208SOL     OW 4522   3.350   2.342   6.728
 1208SOL    HW1 4523   3.363   2.425   6.781
 1208SOL    HW2 4524   3.418   2.273   6.756
 1209SOL     OW 4525   4.283   6.650   5.225
 1209SOL    HW1 4526   4.352   6.721   5.210
 1209SOL    HW2 4527   4.198   6.675   5.179
 1210SOL     OW 4528   2.600   1.290   3.443
 1210SOL    HW1 4529   2.521   1.325   3.493
 1210SOL    HW2 4530   2.682   1.340   3.471
 1211SOL     OW 4531   1.087   2.985   0.872
 1211SOL    HW1 4532   1.147   2.947   0.802
 1211SOL    HW2 4533   1.005   3.024   0.830
 1212SOL     OW 4534   0.637   6.720   0.314
 1212SOL    HW1 4535   0.662   6.630   0.279
 1212SOL    HW2 4536   0.636   6.786   0.238
 1213SOL     OW 4537   6.302   2.705   2.681
 1213SOL    HW1 4538   6.251   2.689   2.596
 1213SOL    HW2 4539   6.388   2.750   2.659
 1214SOL     OW 4540   1.145   2.692   2.359
 1214SOL    HW1 4541   1.139   2.626   2.283
 1214SOL    HW2 4542   1.151   2.785   2.322
 1215SOL     OW 4543   2.397   5.642   2.738
 1215SOL    HW1 4544   2.350   5.591   2.810
 1215SOL    HW2 4545   2.394   5.590   2.653
 1216SOL     OW 4546   4.002   0.246   2.019
 1216SOL    HW1 4547   4.011   0.344   2.033
 1216SOL    HW2 4548   4.014   0.224   1.922
 1217SOL     OW 4549   2.673   4.271   0.181
 1217SOL    HW1 4550   2.628   4.315   0.259
 1217SOL    HW2 4551   2.732   4.337   0.136
 1218SOL     OW 4552   2.354   4.821   4.139
 1218SOL    HW1 4553   2.422   4.832   4.067
 1218SOL    HW2 4554   2.349   4.725   4.166
 1219SOL     OW 4555   3.221   5.260   1.931
 1219SOL    HW1 4556   3.181   5.294   1.846
 1219SOL    HW2 4557   3.277   5.180   1.912
 1220SOL     OW 4558   0.860   4.882   1.948
 1220SOL    HW1 4559   0.901   4.942   2.016
 1220SOL    HW2 4560   0.772   4.848   1.981
 1221SOL     OW 4561   4.528   4.155   6.425
 1221SOL    HW1 4562   4.564   4.125   6.513
 1221SOL    HW2 4563   4.561   4.248   6.406
 1222SOL     OW 4564   6.463   1.761   6.626
 1222SOL    HW1 4565   6.408   1.818   6.688
 1222SOL    HW2 4566   6.560   1.770   6.651
 1223SOL     OW 4567   4.306   5.713   1.245
 1223SOL    HW1 4568   4.251   5.631   1.262
 1223SOL    HW2 4569   4.331   5.717   1.149
 1224SOL     OW 4570   2.892   1.040   1.537
 1224SOL    HW1 4571   2.834   0.989   1.601
 1224SOL    HW2 4572   2.979   1.061   1.581
 1225SOL     OW 4573   3.636   4.381   5.699
 1225SOL    HW1 4574   3.611   4.308   5.636
 1225SOL    HW2 4575   3.565   4.452   5.697
 1226SOL     OW 4576   2.164   5.501   1.015
 1226SOL    HW1 4577   2.106   5.477   1.093
 1226SOL    HW2 4578   2.259   5.509   1.045
 1227SOL     OW 4579   1.364   4.527   5.647
 1227SOL    HW1 4580   1.424   4.449   5.667
 1227SOL    HW2 4581   1.419   4.610   5.637
 1228SOL     OW 4582   3.516   2.645   0.591
 1228SOL    HW1 4583   3.454   2.670   0.665
 1228SOL    HW2 4584   3.586   2.583   0.626
 1229SOL     OW 4585   2.741   4.193   6.923
 1229SOL    HW1 4586   2.709   4.223   7.013
 1229SOL    HW2 4587   2.812   4.256   6.890
 1230SOL     OW 4588   4.044   0.184   3.459
 1230SOL    HW1 4589   4.033   0.179   3.558
 1230SOL    HW2 4590   4.125   0.239   3.437
 1231SOL     OW 4591   0.732   3.307   3.416
 1231SOL    HW1 4592   0.713   3.348   3.327
 1231SOL    HW2 4593   0.818   3.255   3.410
 1232SOL     OW 4594   1.956   1.628   2.105
 1232SOL    HW1 4595   1.947   1.540   2.151
 1232SOL    HW2 4596   1.870   1.677   2.108
 1233SOL     OW 4597   0.819   2.517   4.570
 1233SOL    HW1 4598   0.738   2.487   4.620
 1233SOL    HW2 4599   0.898   2.463   4.600
 1234SOL     OW 4600   6.676   4.454   4.140
 1234SOL    HW1 4601   6.629   4.424   4.223
 1234SOL    HW2 4602   6.753   4.513   4.165
 1235SOL     OW 4603   0.210   4.998   3.510
 1235SOL    HW1 4604   0.165   5.073   3.461
 1235SOL    HW2 4605   0.164   4.912   3.489
 1236SOL     OW 4606   5.857   0.685   6.694
 1236SOL    HW1 4607   5.867   0.655   6.789
 1236SOL    HW2 4608   5.923   0.635   6.637
 1237SOL     OW 4609   2.532   3.987   0.182
 1237SOL    HW1 4610   2.590   4.068   0.184
 1237SOL    HW2 4611   2.443   4.010   0.144
 1238SOL     OW 4612   2.051   1.214   1.245
 1238SOL    HW1 4613   2.033   1.294   1.303
 1238SOL    HW2 4614   2.016   1.132   1.291
 1239SOL     OW 4615   0.950   0.606   5.240
 1239SOL    HW1 4616   0.906   0.629   5.327
 1239SOL    HW2 4617   0.901   0.652   5.166
 1240SOL     OW 4618   6.041   5.466   0.976
 1240SOL    HW1 4619   6.027   5.473   0.877
 1240SOL    HW2 4620   5.952   5.461   1.021
 1241SOL     OW 4621   0.727   1.886   4.252
 1241SOL    HW1 4622   0.667   1.893   4.172
 1241SOL    HW2 4623   0.688   1.938   4.328
 1242SOL     OW 4624   1.966   2.032   6.687
 1242SOL    HW1 4625   1.985   2.048   6.784
 1242SOL    HW2 4626   2.015   1.951   6.656
 1243SOL     OW 4627   3.219   5.145   5.200
 1243SOL    HW1 4628   3.121   5.126   5.187
 1243SOL    HW2 4629   3.234   5.181   5.292
 1244SOL     OW 4630   1.332   1.410   2.946
 1244SOL    HW1 4631   1.420   1.363   2.942
 1244SOL    HW2 4632   1.314   1.441   3.039
 1245SOL     OW 4633   3.655   2.979   5.052
 1245SOL    HW1 4634   3.565   2.936   5.066
 1245SOL    HW2 4635   3.643   3.077   5.037
 1246SOL     OW 4636   1.386   6.679   1.695
 1246SOL    HW1 4637   1.378   6.694   1.597
 1246SOL    HW2 4638   1.362   6.584   1.716
 1247SOL     OW 4639   0.565   6.566   6.640
 1247SOL    HW1 4640   0.466   6.564   6.650
 1247SOL    HW2 4641   0.592   6.516   6.558
 1248SOL     OW 4642   2.262   6.857   4.154
 1248SOL    HW1 4643   2.359   6.842   4.139
 1248SOL    HW2 4644   2.240   6.954   4.137
 1249SOL     OW 4645   6.410   2.976   3.402
 1249SOL    HW1 4646   6.332   2.914   3.411
 1249SOL    HW2 4647   6.453   2.963   3.312
 1250SOL     OW 4648   6.402   3.399   4.773
 1250SOL    HW1 4649   6.345   3.462   4.825
 1250SOL    HW2 4650   6.468   3.452   4.719
 1251SOL     OW 4651   3.081   0.747   0.073
 1251SOL    HW1 4652   3.148   0.800   0.019
 1251SOL    HW2 4653   3.010   0.809   0.106
 1252SOL     OW 4654   3.955   3.736   0.200
 1252SOL    HW1 4655   3.942   3.654   0.256
 1252SOL    HW2 4656   3.963   3.816   0.259
 1253SOL     OW 4657   5.291   1.988   3.292
 1253SOL    HW1 4658   5.372   1.964   3.239
 1253SOL    HW2 4659   5.222   1.916   3.282
 1254SOL     OW 4660   5.556   0.951   3.670
 1254SOL    HW1 4661   5.576   0.901   3.586
 1254SOL    HW2 4662   5.476   1.009   3.656
 1255SOL     OW 4663   5.592   0.607   1.200
 1255SOL    HW1 4664   5.608   0.704   1.218
 1255SOL    HW2 4665   5.593   0.590   1.101
 1256SOL     OW 4666   5.531   3.151   3.393
 1256SOL    HW1 4667   5.602   3.127   3.327
 1256SOL    HW2 4668   5.459   3.082   3.391
 1257SOL     OW 4669   6.036   1.809   4.704
 1257SOL    HW1 4670   6.084   1.861   4.775
 1257SOL    HW2 4671   6.026   1.714   4.733
 1258SOL     OW 4672   0.284   5.009   4.010
 1258SOL    HW1 4673   0.205   5.037   4.065
 1258SOL    HW2 4674   0.285   5.061   3.924
 1259SOL     OW 4675   5.837   2.778   5.158
 1259SOL    HW1 4676   5.780   2.844   5.208
 1259SOL    HW2 4677   5.927   2.818   5.140
 1260SOL     OW 4678   0.872   1.403   4.667
 1260SOL    HW1 4679   0.925   1.318   4.675
 1260SOL    HW2 4680   0.917   1.464   4.602
 1261SOL     OW 4681   6.457   2.776   1.342
 1261SOL    HW1 4682   6.359   2.787   1.323
 1261SOL    HW2 4683   6.486   2.684   1.316
 1262SOL     OW 4684   5.218   5.672   1.692
 1262SOL    HW1 4685   5.207   5.765   1.726
 1262SOL    HW2 4686   5.299   5.667   1.633
 1263SOL     OW 4687   1.267   2.166   2.989
 1263SOL    HW1 4688   1.270   2.198   2.895
 1263SOL    HW2 4689   1.360   2.165   3.027
 1264SOL     OW 4690   1.611   2.953   5.481
 1264SOL    HW1 4691   1.625   2.871   5.425
 1264SOL    HW2 4692   1.518   2.956   5.515
 1265SOL     OW 4693   6.242   1.293   6.337
 1265SOL    HW1 4694   6.314   1.242   6.290
 1265SOL    HW2 4695   6.189   1.346   6.271
 1266SOL     OW 4696   3.707   1.898   5.953
 1266SOL    HW1 4697   3.620   1.947   5.961
 1266SOL    HW2 4698   3.763   1.917   6.035
 1267SOL     OW 4699   2.978   1.188   1.924
 1267SOL    HW1 4700   3.014   1.163   2.014
 1267SOL    HW2 4701   2.929   1.110   1.885
 1268SOL     OW 4702   4.295   2.153   5.264
 1268SOL    HW1 4703   4.385   2.141   5.308
 1268SOL    HW2 4704   4.280   2.078   5.200
 1269SOL     OW 4705   5.603   1.979   3.642
 1269SOL    HW1 4706   5.698   1.981   3.674
 1269SOL    HW2 4707   5.564   1.889   3.662
 1270SOL     OW 4708   5.969   5.682   3.734
 1270SOL    HW1 4709   5.886   5.736   3.737
 1270SOL    HW2 4710   6.033   5.722   3.669
 1271SOL     OW 4711   1.326   0.183   1.748
 1271SOL    HW1 4712   1.268   0.214   1.823
 1271SOL    HW2 4713   1.356   0.089   1.765
 1272SOL     OW 4714   5.609   2.054   1.371
 1272SOL    HW1 4715   5.524   2.065   1.320
 1272SOL    HW2 4716   5.675   2.123   1.341
 1273SOL     OW 4717   2.113   4.441   5.125
 1273SOL    HW1 4718   2.116   4.453   5.224
 1273SOL    HW2 4719   2.073   4.522   5.082
 1274SOL     OW 4720   0.128   4.464   4.546
 1274SOL    HW1 4721   0.048   4.509   4.585
 1274SOL    HW2 4722   0.099   4.382   4.496
 1275SOL     OW 4723   2.150   1.579   2.566
 1275SOL    HW1 4724   2.245   1.589   2.596
 1275SOL    HW2 4725   2.143   1.604   2.470
 1276SOL     OW 4726   5.792   3.681   3.698
 1276SOL    HW1 4727   5.738   3.601   3.724
 1276SOL    HW2 4728   5.818   3.732   3.780
 1277SOL     OW 4729   1.595   6.290   6.155
 1277SOL    HW1 4730   1.634   6.376   6.121
 1277SOL    HW2 4731   1.497   6.288   6.131
 1278SOL     OW 4732   6.775   6.199   2.903
 1278SOL    HW1 4733   6.838   6.144   2.849
 1278SOL    HW2 4734   6.816   6.221   2.991
 1279SOL     OW 4735   3.078   2.498   0.554
 1279SOL    HW1 4736   2.984   2.482   0.584
 1279SOL    HW2 4737   3.142   2.468   0.625
 1280SOL     OW 4738   2.766   2.184   2.829
 1280SOL    HW1 4739   2.853   2.216   2.792
 1280SOL    HW2 4740   2.752   2.224   2.920
 1281SOL     OW 4741   5.691   5.734   5.833
 1281SOL    HW1 4742   5.765   5.668   5.836
 1281SOL    HW2 4743   5.607   5.692   5.867
 1282SOL     OW 4744   0.801   2.330   1.408
 1282SOL    HW1 4745   0.780   2.252   1.467
 1282SOL    HW2 4746   0.898   2.351   1.412
 1283SOL     OW 4747   1.451   0.278   5.031
 1283SOL    HW1 4748   1.351   0.282   5.031
 1283SOL    HW2 4749   1.481   0.198   4.978
 1284SOL     OW 4750   4.057   2.416   1.597
 1284SOL    HW1 4751   4.000   2.356   1.654
 1284SOL    HW2 4752   4.108   2.478   1.656
 1285SOL     OW 4753   3.728   1.411   4.511
 1285SOL    HW1 4754   3.640   1.380   4.474
 1285SOL    HW2 4755   3.721   1.508   4.534
 1286SOL     OW 4756   5.382   0.849   2.148
 1286SOL    HW1 4757   5.434   0.836   2.233
 1286SOL    HW2 4758   5.293   0.805   2.157
 1287SOL     OW 4759   5.996   4.765   6.685
 1287SOL    HW1 4760   5.956   4.842   6.637
 1287SOL    HW2 4761   5.924   4.714   6.732
 1288SOL     OW 4762   4.832   4.550   5.619
 1288SOL    HW1 4763   4.811   4.453   5.611
 1288SOL    HW2 4764   4.922   4.562   5.661
 1289SOL     OW 4765   1.243   6.912   0.917
 1289SOL    HW1 4766   1.255   6.988   0.980
 1289SOL    HW2 4767   1.308   6.921   0.841
 1290SOL     OW 4768   1.454   6.699   4.191
 1290SOL    HW1 4769   1.503   6.784   4.209
 1290SOL    HW2 4770   1.466   6.673   4.095
 1291SOL     OW 4771   4.745   6.299   3.970
 1291SOL    HW1 4772   4.723   6.247   3.888
 1291SOL    HW2 4773   4.661   6.323   4.019
 1292SOL     OW 4774   7.014   6.596   2.852
 1292SOL    HW1 4775   7.012   6.691   2.820
 1292SOL    HW2 4776   6.933   6.578   2.907
 1293SOL     OW 4777   4.535   0.102   1.274
 1293SOL    HW1 4778   4.536   0.197   1.303
 1293SOL    HW2 4779   4.506   0.097   1.178
 1294SOL     OW 4780   2.313   4.563   5.391
 1294SOL    HW1 4781   2.272   4.473   5.406
 1294SOL    HW2 4782   2.381   4.556   5.318
 1295SOL     OW 4783   0.172   4.369   0.276
 1295SOL    HW1 4784   0.085   4.372   0.227
 1295SOL    HW2 4785   0.223   4.452   0.259
 1296SOL     OW 4786   3.764   0.550   5.993
 1296SOL    HW1 4787   3.808   0.619   5.934
 1296SOL    HW2 4788   3.667   0.545   5.971
 1297SOL     OW 4789   6.055   6.644   0.145
 1297SOL    HW1 4790   6.108   6.580   0.201
 1297SOL    HW2 4791   6.071   6.737   0.177
 1298SOL     OW 4792   4.752   6.740   2.469
 1298SOL    HW1 4793   4.814   6.678   2.421
 1298SOL    HW2 4794   4.709   6.802   2.402
 1299SOL     OW 4795   1.184   4.978   5.336
 1299SOL    HW1 4796   1.217   5.055   5.281
 1299SOL    HW2 4797   1.262   4.921   5.363
 1300SOL     OW 4798   1.207   5.422   0.527
 1300SOL    HW1 4799   1.187   5.490   0.599
 1300SOL    HW2 4800   1.255   5.344   0.568
 1301SOL     OW 4801   6.252   1.914   6.811
 1301SOL    HW1 4802   6.287   1.909   6.904
 1301SOL    HW2 4803   6.162   1.958   6.811
 1302SOL     OW 4804   6.863   6.869   5.154
 1302SOL    HW1 4805   6.797   6.932   5.194
 1302SOL    HW2 4806   6.912   6.821   5.227
 1303SOL     OW 4807   2.453   6.652   1.267
 1303SOL    HW1 4808   2.521   6.723   1.282
 1303SOL    HW2 4809   2.390   6.681   1.195
 1304SOL     OW 4810   6.479   1.205   6.916
 1304SOL    HW1 4811   6.460   1.152   6.834
 1304SOL    HW2 4812   6.487   1.144   6.995
 1305SOL     OW 4813   3.413   4.246   6.412
 1305SOL    HW1 4814   3.370   4.160   6.438
 1305SOL    HW2 4815   3.496   4.227   6.359
 1306SOL     OW 4816   2.490   6.702   4.061
 1306SOL    HW1 4817   2.539   6.784   4.033
 1306SOL    HW2 4818   2.451   6.657   3.981
 1307SOL     OW 4819   2.044   3.553   3.072
 1307SOL    HW1 4820   2.074   3.647   3.085
 1307SOL    HW2 4821   2.013   3.515   3.160
 1308SOL     OW 4822   0.486   3.843   5.857
 1308SOL    HW1 4823   0.417   3.901   5.815
 1308SOL    HW2 4824   0.462   3.827   5.953
 1309SOL     OW 4825   6.166   4.116   0.311
 1309SOL    HW1 4826   6.085   4.068   0.277
 1309SOL    HW2 4827   6.238   4.113   0.242
 1310SOL     OW 4828   2.539   2.476   3.523
 1310SOL    HW1 4829   2.455   2.425   3.541
 1310SOL    HW2 4830   2.612   2.441   3.582
 1311SOL     OW 4831   6.307   5.480   0.013
 1311SOL    HW1 4832   6.350   5.541   0.080
 1311SOL    HW2 4833   6.241   5.531   6.985
 1312SOL     OW 4834   2.380   1.718   6.605
 1312SOL    HW1 4835   2.421   1.798   6.562
 1312SOL    HW2 4836   2.438   1.687   6.680
 1313SOL     OW 4837   4.735   5.128   3.375
 1313SOL    HW1 4838   4.702   5.217   3.341
 1313SOL    HW2 4839   4.823   5.140   3.421
 1314SOL     OW 4840   2.951   1.927   3.669
 1314SOL    HW1 4841   2.887   1.852   3.651
 1314SOL    HW2 4842   2.934   1.964   3.760
 1315SOL     OW 4843   5.295   0.270   3.653
 1315SOL    HW1 4844   5.261   0.199   3.715
 1315SOL    HW2 4845   5.259   0.359   3.681
 1316SOL     OW 4846   5.106   0.229   6.320
 1316SOL    HW1 4847   5.129   0.245   6.224
 1316SOL    HW2 4848   5.077   0.134   6.333
 1317SOL     OW 4849   3.948   3.139   4.043
 1317SOL    HW1 4850   3.978   3.097   4.129
 1317SOL    HW2 4851   3.946   3.238   4.052
 1318SOL     OW 4852   1.670   0.851   0.296
 1318SOL    HW1 4853   1.702   0.823   0.386
 1318SOL    HW2 4854   1.727   0.924   0.260
 1319SOL     OW 4855   6.498   1.503   0.101
 1319SOL    HW1 4856   6.445   1.530   0.182
 1319SOL    HW2 4857   6.437   1.492   0.023
 1320SOL     OW 4858   2.945   2.765   5.776
 1320SOL    HW1 4859   2.980   2.856   5.797
 1320SOL    HW2 4860   2.868   2.772   5.712
 1321SOL     OW 4861   7.008   2.324   1.527
 1321SOL    HW1 4862   7.014   2.419   1.559
 1321SOL    HW2 4863   0.061   2.273   1.560
 1322SOL     OW 4864   1.955   2.486   0.521
 1322SOL    HW1 4865   2.008   2.542   0.585
 1322SOL    HW2 4866   2.015   2.421   0.476
 1323SOL     OW 4867   4.489   0.782   1.416
 1323SOL    HW1 4868   4.465   0.877   1.397
 1323SOL    HW2 4869   4.533   0.742   1.335
 1324SOL     OW 4870   2.535   3.731   5.902
 1324SOL    HW1 4871   2.563   3.687   5.816
 1324SOL    HW2 4872   2.438   3.752   5.898
 1325SOL     OW 4873   4.568   5.158   4.500
 1325SOL    HW1 4874   4.617   5.078   4.466
 1325SOL    HW2 4875   4.488   5.127   4.553
 1326SOL     OW 4876   3.758   1.533   5.085
 1326SOL    HW1 4877   3.828   1.591   5.043
 1326SOL    HW2 4878   3.725   1.575   5.169
 1327SOL     OW 4879   4.605   5.611   1.771
 1327SOL    HW1 4880   4.690   5.663   1.777
 1327SOL    HW2 4881   4.588   5.565   1.858
 1328SOL     OW 4882   1.164   2.507   5.528
 1328SOL    HW1 4883   1.142   2.598   5.563
 1328SOL    HW2 4884   1.089   2.474   5.470
 1329SOL     OW 4885   1.508   2.553   4.332
 1329SOL    HW1 4886   1.521   2.556   4.232
 1329SOL    HW2 4887   1.592   2.584   4.377
 1330SOL     OW 4888   6.489   3.067   2.395
 1330SOL    HW1 4889   6.524   2.979   2.365
 1330SOL    HW2 4890   6.560   3.117   2.443
 1331SOL     OW 4891   4.251   1.676   3.234
 1331SOL    HW1 4892   4.162   1.676   3.188
 1331SOL    HW2 4893   4.253   1.749   3.302
 1332SOL     OW 4894   2.322   6.637   6.694
 1332SOL    HW1 4895   2.322   6.554   6.638
 1332SOL    HW2 4896   2.291   6.614   6.787
 1333SOL     OW 4897   3.442   3.547   2.480
 1333SOL    HW1 4898   3.448   3.645   2.496
 1333SOL    HW2 4899   3.357   3.512   2.519
 1334SOL     OW 4900   0.424   4.314   1.694
 1334SOL    HW1 4901   0.456   4.304   1.788
 1334SOL    HW2 4902   0.473   4.390   1.650
 1335SOL     OW 4903   6.908   3.442   3.258
 1335SOL    HW1 4904   6.928   3.399   3.170
 1335SOL    HW2 4905   6.993   3.449   3.311
 1336SOL     OW 4906   1.974   6.360   5.665
 1336SOL    HW1 4907   1.976   6.407   5.754
 1336SOL    HW2 4908   2.025   6.274   5.672
 1337SOL     OW 4909   6.951   6.994   1.332
 1337SOL    HW1 4910   6.932   0.047   1.389
 1337SOL    HW2 4911   6.876   6.980   1.267
 1338SOL     OW 4912   0.713   4.260   5.049
 1338SOL    HW1 4913   0.788   4.301   4.998
 1338SOL    HW2 4914   0.723   4.160   5.050
 1339SOL     OW 4915   5.144   1.365   6.774
 1339SOL    HW1 4916   5.109   1.459   6.769
 1339SOL    HW2 4917   5.237   1.366   6.810
 1340SOL     OW 4918   2.579   2.789   0.758
 1340SOL    HW1 4919   2.555   2.863   0.820
 1340SOL    HW2 4920   2.661   2.742   0.791
 1341SOL     OW 4921   6.088   6.100   0.295
 1341SOL    HW1 4922   6.095   6.011   0.340
 1341SOL    HW2 4923   5.998   6.109   0.252
 1342SOL     OW 4924   1.733   6.016   0.869
 1342SOL    HW1 4925   1.648   5.977   0.834
 1342SOL    HW2 4926   1.724   6.115   0.877
 1343SOL     OW 4927   5.180   5.981   2.816
 1343SOL    HW1 4928   5.180   5.989   2.916
 1343SOL    HW2 4929   5.124   6.054   2.777
 1344SOL     OW 4930   1.468   0.635   3.285
 1344SOL    HW1 4931   1.446   0.624   3.188
 1344SOL    HW2 4932   1.547   0.695   3.294
 1345SOL     OW 4933   0.837   6.632   5.250
 1345SOL    HW1 4934   0.774   6.554   5.254
 1345SOL    HW2 4935   0.886   6.631   5.163
 1346SOL     OW 4936   3.601   6.154   3.665
 1346SOL    HW1 4937   3.672   6.221   3.684
 1346SOL    HW2 4938   3.611   6.076   3.727
 1347SOL     OW 4939   6.984   0.956   5.888
 1347SOL    HW1 4940   6.916   0.907   5.833
 1347SOL    HW2 4941   7.021   0.895   5.958
 1348SOL     OW 4942   1.527   6.411   4.732
 1348SOL    HW1 4943   1.448   6.443   4.681
 1348SOL    HW2 4944   1.597   6.482   4.733
 1349SOL     OW 4945   4.874   3.934   4.214
 1349SOL    HW1 4946   4.960   3.986   4.219
 1349SOL    HW2 4947   4.848   3.920   4.119
 1350SOL     OW 4948   5.559   4.414   7.003
 1350SOL    HW1 4949   5.504   4.470   6.942
 1350SOL    HW2 4950   5.567   4.460   0.065
 1351SOL     OW 4951   6.667   3.765   0.063
 1351SOL    HW1 4952   6.617   3.841   0.104
 1351SOL    HW2 4953   6.758   3.796   0.035
 1352SOL     OW 4954   6.868   1.097   4.027
 1352SOL    HW1 4955   6.773   1.087   3.998
 1352SOL    HW2 4956   6.879   1.186   4.073
 1353SOL     OW 4957   6.805   3.406   6.112
 1353SOL    HW1 4958   6.801   3.391   6.013
 1353SOL    HW2 4959   6.836   3.322   6.157
 1354SOL     OW 4960   5.069   5.109   3.232
 1354SOL    HW1 4961   5.059   5.017   3.270
 1354SOL    HW2 4962   4.988   5.132   3.179
 1355SOL     OW 4963   3.655   3.712   4.089
 1355SOL    HW1 4964   3.631   3.624   4.131
 1355SOL    HW2 4965   3.649   3.704   3.990
 1356SOL     OW 4966   2.789   3.330   6.866
 1356SOL    HW1 4967   2.826   3.269   6.796
 1356SOL    HW2 4968   2.864   3.369   6.919
 1357SOL     OW 4969   0.160   3.490   4.885
 1357SOL    HW1 4970   0.235   3.429   4.860
 1357SOL    HW2 4971   0.181   3.535   4.971
 1358SOL     OW 4972   2.727   6.433   5.928
 1358SOL    HW1 4973   2.641   6.389   5.905
 1358SOL    HW2 4974   2.736   6.438   6.028
 1359SOL     OW 4975   6.007   5.435   0.107
 1359SOL    HW1 4976   6.098   5.403   0.080
 1359SOL    HW2 4977   6.012   5.530   0.137
 1360SOL     OW 4978   2.433   2.088   6.236
 1360SOL    HW1 4979   2.419   2.026   6.159
 1360SOL    HW2 4980   2.501   2.157   6.212
 1361SOL     OW 4981   6.008   4.911   4.563
 1361SOL    HW1 4982   5.938   4.978   4.588
 1361SOL    HW2 4983   5.995   4.828   4.616
 1362SOL     OW 4984   2.996   3.867   4.508
 1362SOL    HW1 4985   2.951   3.886   4.595
 1362SOL    HW2 4986   2.927   3.858   4.436
 1363SOL     OW 4987   6.867   6.539   3.438
 1363SOL    HW1 4988   6.928   6.615   3.458
 1363SOL    HW2 4989   6.918   6.468   3.389
 1364SOL     OW 4990   3.253   4.398   6.905
 1364SOL    HW1 4991   3.244   4.337   6.825
 1364SOL    HW2 4992   3.303   4.480   6.878
 1365SOL     OW 4993   5.777   2.540   6.153
 1365SOL    HW1 4994   5.746   2.624   6.196
 1365SOL    HW2 4995   5.780   2.553   6.053
 1366SOL     OW 4996   1.657   0.816   4.330
 1366SOL    HW1 4997   1.725   0.847   4.397
 1366SOL    HW2 4998   1.598   0.893   4.305
 1367SOL     OW 4999   2.309   1.233   1.737
 1367SOL    HW1 5000   2.376   1.307   1.737
 1367SOL    HW2 5001   2.337   1.162   1.801
 1368SOL     OW 5002   7.022   0.901   3.079
 1368SOL    HW1 5003   6.971   0.831   3.130
 1368SOL    HW2 5004   0.056   0.856   3.013
 1369SOL     OW 5005   0.239   6.890   2.734
 1369SOL    HW1 5006   0.262   6.929   2.645
 1369SOL    HW2 5007   0.300   6.812   2.752
 1370SOL     OW 5008   0.723   1.141   2.578
 1370SOL    HW1 5009   0.662   1.101   2.646
 1370SOL    HW2 5010   0.669   1.186   2.507
 1371SOL     OW 5011   1.825   6.897   4.921
 1371SOL    HW1 5012   1.847   6.819   4.980
 1371SOL    HW2 5013   1.782   6.864   4.837
 1372SOL     OW 5014   3.093   1.896   1.352
 1372SOL    HW1 5015   3.184   1.922   1.383
 1372SOL    HW2 5016   3.087   1.796   1.346
 1373SOL     OW 5017   1.323   5.767   6.506
 1373SOL    HW1 5018   1.390   5.794   6.437
 1373SOL    HW2 5019   1.369   5.748   6.593
 1374SOL     OW 5020   5.553   3.180   4.691
 1374SOL    HW1 5021   5.473   3.203   4.746
 1374SOL    HW2 5022   5.582   3.261   4.639
 1375SOL     OW 5023   0.925   4.477   3.774
 1375SOL    HW1 5024   0.920   4.535   3.693
 1375SOL    HW2 5025   0.917   4.533   3.856
 1376SOL     OW 5026   5.380   0.207   2.615
 1376SOL    HW1 5027   5.456   0.153   2.579
 1376SOL    HW2 5028   5.317   0.148   2.666
 1377SOL     OW 5029   6.746   3.739   5.513
 1377SOL    HW1 5030   6.774   3.686   5.433
 1377SOL    HW2 5031   6.778   3.694   5.596
 1378SOL     OW 5032   1.999   1.813   0.550
 1378SOL    HW1 5033   1.994   1.879   0.475
 1378SOL    HW2 5034   2.094   1.787   0.565
 1379SOL     OW 5035   4.443   5.271   1.547
 1379SOL    HW1 5036   4.346   5.257   1.527
 1379SOL    HW2 5037   4.457   5.274   1.646
 1380SOL     OW 5038   6.348   5.338   2.865
 1380SOL    HW1 5039   6.430   5.330   2.807
 1380SOL    HW2 5040   6.272   5.371   2.810
 1381SOL     OW 5041   3.922   7.016   2.192
 1381SOL    HW1 5042   3.942   0.012   2.287
 1381SOL    HW2 5043   3.981   0.043   2.132
 1382SOL     OW 5044   6.470   3.763   0.401
 1382SOL    HW1 5045   6.434   3.685   0.351
 1382SOL    HW2 5046   6.528   3.731   0.476
 1383SOL     OW 5047   3.695   6.801   0.735
 1383SOL    HW1 5048   3.750   6.724   0.705
 1383SOL    HW2 5049   3.674   6.791   0.832
 1384SOL     OW 5050   1.076   1.743   2.706
 1384SOL    HW1 5051   1.038   1.656   2.735
 1384SOL    HW2 5052   1.033   1.818   2.758
 1385SOL     OW 5053   4.894   3.278   4.652
 1385SOL    HW1 5054   4.883   3.329   4.737
 1385SOL    HW2 5055   4.875   3.181   4.668
 1386SOL     OW 5056   2.508   2.492   3.242
 1386SOL    HW1 5057   2.501   2.403   3.287
 1386SOL    HW2 5058   2.570   2.550   3.294
 1387SOL     OW 5059   3.782   1.028   4.576
 1387SOL    HW1 5060   3.765   1.073   4.488
 1387SOL    HW2 5061   3.697   0.989   4.612
 1388SOL     OW 5062   4.790   2.463   3.678
 1388SOL    HW1 5063   4.809   2.427   3.587
 1388SOL    HW2 5064   4.864   2.438   3.740
 1389SOL     OW 5065   0.059   1.400   5.091
 1389SOL    HW1 5066   6.990   1.409   5.064
 1389SOL    HW2 5067   0.116   1.390   5.010
 1390SOL     OW 5068   6.122   2.375   3.031
 1390SOL    HW1 5069   6.174   2.313   2.973
 1390SOL    HW2 5070   6.131   2.468   2.996
 1391SOL     OW 5071   5.641   0.876   5.447
 1391SOL    HW1 5072   5.688   0.958   5.414
 1391SOL    HW2 5073   5.675   0.853   5.538
 1392SOL     OW 5074   2.888   6.899   4.954
 1392SOL    HW1 5075   2.934   6.964   4.893
 1392SOL    HW2 5076   2.805   6.865   4.909
 1393SOL     OW 5077   4.193   6.762   0.037
 1393SOL    HW1 5078   4.161   6.679   0.083
 1393SOL    HW2 5079   4.253   6.737   6.988
 1394SOL     OW 5080   3.926   1.047   4.978
 1394SOL    HW1 5081   3.857   1.111   5.013
 1394SOL    HW2 5082   3.901   0.954   5.005
 1395SOL     OW 5083   0.986   4.813   2.229
 1395SOL    HW1 5084   1.031   4.769   2.306
 1395SOL    HW2 5085   1.035   4.790   2.145
 1396SOL     OW 5086   1.736   2.010   3.265
 1396SOL    HW1 5087   1.779   2.008   3.176
 1396SOL    HW2 5088   1.776   1.940   3.324
 1397SOL     OW 5089   2.324   5.370   5.585
 1397SOL    HW1 5090   2.274   5.412   5.509
 1397SOL    HW2 5091   2.422   5.366   5.563
 1398SOL     OW 5092   2.981   6.869   6.079
 1398SOL    HW1 5093   2.899   6.820   6.109
 1398SOL    HW2 5094   2.954   6.946   6.020
 1399SOL     OW 5095   3.844   0.093   0.168
 1399SOL    HW1 5096   3.906   0.019   0.141
 1399SOL    HW2 5097   3.768   0.098   0.104
 1400SOL     OW 5098   0.434   2.142   5.915
 1400SOL    HW1 5099   0.490   2.098   5.986
 1400SOL    HW2 5100   0.448   2.095   5.828
 1401SOL     OW 5101   4.482   6.937   2.913
 1401SOL    HW1 5102   4.559   6.995   2.937
 1401SOL    HW2 5103   4.506   6.879   2.835
 1402SOL     OW 5104   4.837   3.901   2.901
 1402SOL    HW1 5105   4.882   3.947   2.977
 1402SOL    HW2 5106   4.781   3.966   2.850
 1403SOL     OW 5107   2.902   3.136   6.677
 1403SOL    HW1 5108   2.940   3.149   6.586
 1403SOL    HW2 5109   2.910   3.039   6.703
 1404SOL     OW 5110   3.869   5.810   7.025
 1404SOL    HW1 5111   3.823   5.865   6.955
 1404SOL    HW2 5112   3.960   5.847   0.016
 1405SOL     OW 5113   1.203   4.915   7.007
 1405SOL    HW1 5114   1.171   4.936   0.073
 1405SOL    HW2 5115   1.234   4.999   6.962
 1406SOL     OW 5116   1.719   2.331   0.626
 1406SOL    HW1 5117   1.812   2.352   0.655
 1406SOL    HW2 5118   1.654   2.386   0.678
 1407SOL     OW 5119   6.508   3.338   1.890
 1407SOL    HW1 5120   6.594   3.338   1.942
 1407SOL    HW2 5121   6.449   3.265   1.925
 1408SOL     OW 5122   5.881   6.299   1.728
 1408SOL    HW1 5123   5.910   6.395   1.729
 1408SOL    HW2 5124   5.962   6.240   1.722
 1409SOL     OW 5125   6.029   2.453   5.801
 1409SOL    HW1 5126   6.005   2.536   5.750
 1409SOL    HW2 5127   5.946   2.408   5.832
 1410SOL     OW 5128   3.589   0.373   0.559
 1410SOL    HW1 5129   3.549   0.445   0.502
 1410SOL    HW2 5130   3.636   0.307   0.501
 1411SOL     OW 5131   3.295   0.325   6.996
 1411SOL    HW1 5132   3.263   0.417   6.974
 1411SOL    HW2 5133   3.336   0.325   0.061
 1412SOL     OW 5134   1.599   1.124   6.281
 1412SOL    HW1 5135   1.638   1.040   6.320
 1412SOL    HW2 5136   1.506   1.136   6.316
 1413SOL     OW 5137   1.588   1.093   4.266
 1413SOL    HW1 5138   1.527   1.097   4.345
 1413SOL    HW2 5139   1.534   1.088   4.183
 1414SOL     OW 5140   0.467   5.294   2.810
 1414SOL    HW1 5141   0.549   5.280   2.754
 1414SOL    HW2 5142   0.431   5.205   2.839
 1415SOL     OW 5143   3.280   1.825   5.206
 1415SOL    HW1 5144   3.320   1.734   5.217
 1415SOL    HW2 5145   3.221   1.846   5.284
 1416SOL     OW 5146   4.049   0.399   5.377
 1416SOL    HW1 5147   4.049   0.462   5.454
 1416SOL    HW2 5148   4.043   0.305   5.411
 1417SOL     OW 5149   3.855   3.590   4.264
 1417SOL    HW1 5150   3.832   3.615   4.358
 1417SOL    HW2 5151   3.811   3.654   4.201
 1418SOL     OW 5152   2.978   3.713   5.918
 1418SOL    HW1 5153   3.029   3.744   5.998
 1418SOL    HW2 5154   2.964   3.615   5.923
 1419SOL     OW 5155   0.546   5.274   1.673
 1419SOL    HW1 5156   0.523   5.336   1.748
 1419SOL    HW2 5157   0.469   5.213   1.655
 1420SOL     OW 5158   2.548   6.775   3.574
 1420SOL    HW1 5159   2.598   6.713   3.513
 1420SOL    HW2 5160   2.537   6.864   3.530
 1421SOL     OW 5161   1.807   5.016   1.077
 1421SOL    HW1 5162   1.827   5.089   1.012
 1421SOL    HW2 5163   1.796   5.054   1.168
 1422SOL     OW 5164   1.507   3.312   6.675
 1422SOL    HW1 5165   1.584   3.291   6.615
 1422SOL    HW2 5166   1.422   3.310   6.621
 1423SOL     OW 5167   4.798   0.904   5.131
 1423SOL    HW1 5168   4.799   0.992   5.178
 1423SOL    HW2 5169   4.768   0.917   5.036
 1424SOL     OW 5170   6.122   3.983   1.512
 1424SOL    HW1 5171   6.144   4.075   1.478
 1424SOL    HW2 5172   6.042   3.948   1.463
 1425SOL     OW 5173   5.658   0.264   2.881
 1425SOL    HW1 5174   5.652   0.326   2.803
 1425SOL    HW2 5175   5.580   0.201   2.879
 1426SOL     OW 5176   3.798   0.687   0.741
 1426SOL    HW1 5177   3.715   0.633   0.754
 1426SOL    HW2 5178   3.878   0.629   0.758
 1427SOL     OW 5179   1.372   0.434   3.883
 1427SOL    HW1 5180   1.373   0.511   3.820
 1427SOL    HW2 5181   1.461   0.388   3.883
 1428SOL     OW 5182   2.534   4.499   3.881
 1428SOL    HW1 5183   2.457   4.447   3.844
 1428SOL    HW2 5184   2.586   4.441   3.943
 1429SOL     OW 5185   5.605   0.855   0.945
 1429SOL    HW1 5186   5.592   0.856   1.044
 1429SOL    HW2 5187   5.700   0.878   0.923
 1430SOL     OW 5188   2.219   3.934   4.234
 1430SOL    HW1 5189   2.232   3.862   4.302
 1430SOL    HW2 5190   2.189   3.893   4.147
 1431SOL     OW 5191   3.625   1.852   0.639
 1431SOL    HW1 5192   3.681   1.812   0.712
 1431SOL    HW2 5193   3.641   1.802   0.554
 1432SOL     OW 5194   2.634   6.997   2.624
 1432SOL    HW1 5195   2.589   6.965   2.540
 1432SOL    HW2 5196   2.714   0.025   2.600
 1433SOL     OW 5197   3.908   1.775   3.517
 1433SOL    HW1 5198   3.962   1.713   3.460
 1433SOL    HW2 5199   3.811   1.765   3.494
 1434SOL     OW 5200   6.406   3.344   1.172
 1434SOL    HW1 5201   6.359   3.260   1.145
 1434SOL    HW2 5202   6.421   3.401   1.091
 1435SOL     OW 5203   6.722   5.750   4.105
 1435SOL    HW1 5204   6.795   5.740   4.037
 1435SOL    HW2 5205   6.692   5.845   4.108
 1436SOL     OW 5206   6.328   0.913   6.512
 1436SOL    HW1 5207   6.357   0.928   6.418
 1436SOL    HW2 5208   6.276   0.828   6.518
 1437SOL     OW 5209   4.099   0.790   0.716
 1437SOL    HW1 5210   4.156   0.860   0.759
 1437SOL    HW2 5211   4.095   0.806   0.618
 1438SOL     OW 5212   2.771   6.367   3.320
 1438SOL    HW1 5213   2.828   6.298   3.365
 1438SOL    HW2 5214   2.683   6.326   3.294
 1439SOL     OW 5215   6.603   5.166   4.458
 1439SOL    HW1 5216   6.555   5.182   4.372
 1439SOL    HW2 5217   6.579   5.237   4.524
 1440SOL     OW 5218   3.593   3.218   1.973
 1440SOL    HW1 5219   3.504   3.174   1.990
 1440SOL    HW2 5220   3.644   3.224   2.059
 1441SOL     OW 5221   0.452   2.422   6.628
 1441SOL    HW1 5222   0.538   2.428   6.577
 1441SOL    HW2 5223   0.441   2.504   6.684
 1442SOL     OW 5224   5.587   5.783   0.283
 1442SOL    HW1 5225   5.550   5.794   0.191
 1442SOL    HW2 5226   5.582   5.870   0.332
 1443SOL     OW 5227   2.126   3.023   4.593
 1443SOL    HW1 5228   2.137   3.085   4.515
 1443SOL    HW2 5229   2.075   3.069   4.666
 1444SOL     OW 5230   4.788   6.904   5.114
 1444SOL    HW1 5231   4.879   6.879   5.147
 1444SOL    HW2 5232   4.763   6.845   5.037
 1445SOL     OW 5233   6.600   2.954   6.928
 1445SOL    HW1 5234   6.692   2.934   6.963
 1445SOL    HW2 5235   6.537   2.967   7.005
 1446SOL     OW 5236   2.871   5.977   2.428
 1446SOL    HW1 5237   2.891   5.956   2.524
 1446SOL    HW2 5238   2.891   6.073   2.409
 1447SOL     OW 5239   6.457   1.151   4.821
 1447SOL    HW1 5240   6.492   1.074   4.874
 1447SOL    HW2 5241   6.532   1.212   4.796
 1448SOL     OW 5242   5.165   1.452   0.881
 1448SOL    HW1 5243   5.229   1.399   0.938
 1448SOL    HW2 5244   5.186   1.549   0.889
 1449SOL     OW 5245   4.966   6.142   6.779
 1449SOL    HW1 5246   5.018   6.056   6.784
 1449SOL    HW2 5247   5.007   6.209   6.840
 1450SOL     OW 5248   5.430   1.492   4.167
 1450SOL    HW1 5249   5.414   1.415   4.105
 1450SOL    HW2 5250   5.345   1.542   4.181
 1451SOL     OW 5251   6.986   6.393   2.650
 1451SOL    HW1 5252   0.023   6.316   2.654
 1451SOL    HW2 5253   7.014   6.464   2.715
 1452SOL     OW 5254   1.613   0.321   6.178
 1452SOL    HW1 5255   1.526   0.333   6.226
 1452SOL    HW2 5256   1.688   0.324   6.244
 1453SOL     OW 5257   6.181   4.314   4.002
 1453SOL    HW1 5258   6.178   4.244   4.073
 1453SOL    HW2 5259   6.276   4.335   3.980
 1454SOL     OW 5260   6.493   4.816   1.711
 1454SOL    HW1 5261   6.467   4.895   1.657
 1454SOL    HW2 5262   6.508   4.843   1.806
 1455SOL     OW 5263   2.230   1.502   1.970
 1455SOL    HW1 5264   2.330   1.502   1.982
 1455SOL    HW2 5265   2.209   1.515   1.873
 1456SOL     OW 5266   5.509   4.639   5.083
 1456SOL    HW1 5267   5.550   4.690   5.159
 1456SOL    HW2 5268   5.580   4.620   5.014
 1457SOL     OW 5269   2.322   1.810   4.444
 1457SOL    HW1 5270   2.396   1.853   4.495
 1457SOL    HW2 5271   2.357   1.776   4.356
 1458SOL     OW 5272   6.180   5.445   6.675
 1458SOL    HW1 5273   6.185   5.521   6.740
 1458SOL    HW2 5274   6.183   5.480   6.582
 1459SOL     OW 5275   3.544   6.803   1.141
 1459SOL    HW1 5276   3.626   6.796   1.085
 1459SOL    HW2 5277   3.514   6.712   1.169
 1460SOL     OW 5278   0.788   1.749   6.887
 1460SOL    HW1 5279   0.751   1.756   6.980
 1460SOL    HW2 5280   0.716   1.719   6.825
 1461SOL     OW 5281   5.455   3.959   2.316
 1461SOL    HW1 5282   5.532   3.912   2.360
 1461SOL    HW2 5283   5.371   3.906   2.329
 1462SOL     OW 5284   5.869   0.317   5.029
 1462SOL    HW1 5285   5.864   0.220   5.052
 1462SOL    HW2 5286   5.914   0.328   4.941
 1463SOL     OW 5287   0.845   2.675   5.576
 1463SOL    HW1 5288   0.854   2.629   5.665
 1463SOL    HW2 5289   0.788   2.619   5.516
 1464SOL     OW 5290   0.394   0.674   1.290
 1464SOL    HW1 5291   0.347   0.760   1.269
 1464SOL    HW2 5292   0.489   0.694   1.316
 1465SOL     OW 5293   2.328   0.857   3.807
 1465SOL    HW1 5294   2.366   0.770   3.839
 1465SOL    HW2 5295   2.250   0.883   3.864
 1466SOL     OW 5296   6.209   6.035   4.824
 1466SOL    HW1 5297   6.113   6.059   4.806
 1466SOL    HW2 5298   6.215   5.939   4.852
 1467SOL     OW 5299   0.929   4.418   4.561
 1467SOL    HW1 5300   0.985   4.405   4.642
 1467SOL    HW2 5301   0.835   4.393   4.581
 1468SOL     OW 5302   4.979   7.009   2.472
 1468SOL    HW1 5303   5.032   0.067   2.470
 1468SOL    HW2 5304   4.948   6.987   2.379
 1469SOL     OW 5305   6.685   0.187   2.161
 1469SOL    HW1 5306   6.678   0.206   2.063
 1469SOL    HW2 5307   6.736   0.260   2.206
 1470SOL     OW 5308   6.926   0.838   2.073
 1470SOL    HW1 5309   7.026   0.842   2.084
 1470SOL    HW2 5310   6.882   0.891   2.145
 1471SOL     OW 5311   6.570   1.243   1.146
 1471SOL    HW1 5312   6.479   1.286   1.139
 1471SOL    HW2 5313   6.597   1.239   1.242
 1472SOL     OW 5314   4.783   5.119   4.696
 1472SOL    HW1 5315   4.767   5.081   4.787
 1472SOL    HW2 5316   4.696   5.126   4.647
 1473SOL     OW 5317   0.692   3.371   3.674
 1473SOL    HW1 5318   0.611   3.341   3.723
 1473SOL    HW2 5319   0.692   3.331   3.582
 1474SOL     OW 5320   4.718   6.308   2.328
 1474SOL    HW1 5321   4.740   6.393   2.279
 1474SOL    HW2 5322   4.619   6.302   2.341
 1475SOL     OW 5323   6.452   6.988   2.785
 1475SOL    HW1 5324   6.538   6.964   2.740
 1475SOL    HW2 5325   6.436   6.925   2.861
 1476SOL     OW 5326   1.188   2.333   0.885
 1476SOL    HW1 5327   1.288   2.343   0.893
 1476SOL    HW2 5328   1.167   2.276   0.806
 1477SOL     OW 5329   2.688   6.506   4.101
 1477SOL    HW1 5330   2.714   6.517   4.197
 1477SOL    HW2 5331   2.610   6.564   4.080
 1478SOL     OW 5332   6.962   4.425   1.140
 1478SOL    HW1 5333   6.991   4.517   1.165
 1478SOL    HW2 5334   6.867   4.427   1.108
 1479SOL     OW 5335   1.481   4.794   6.914
 1479SOL    HW1 5336   1.445   4.782   6.822
 1479SOL    HW2 5337   1.406   4.806   6.979
 1480SOL     OW 5338   3.474   0.734   6.977
 1480SOL    HW1 5339   3.470   0.663   6.907
 1480SOL    HW2 5340   3.477   0.692   0.041
 1481SOL     OW 5341   6.918   2.830   1.037
 1481SOL    HW1 5342   6.875   2.906   1.085
 1481SOL    HW2 5343   6.933   2.754   1.100
 1482SOL     OW 5344   6.353   0.548   5.474
 1482SOL    HW1 5345   6.394   0.534   5.384
 1482SOL    HW2 5346   6.309   0.637   5.478
 1483SOL     OW 5347   0.176   1.918   0.779
 1483SOL    HW1 5348   0.113   1.848   0.813
 1483SOL    HW2 5349   0.150   2.008   0.816
 1484SOL     OW 5350   5.471   0.038   2.971
 1484SOL    HW1 5351   5.528   0.072   3.046
 1484SOL    HW2 5352   5.442   6.971   2.991
 1485SOL     OW 5353   5.508   3.993   4.654
 1485SOL    HW1 5354   5.499   3.900   4.619
 1485SOL    HW2 5355   5.459   4.002   4.741
 1486SOL     OW 5356   5.109   2.794   1.978
 1486SOL    HW1 5357   5.162   2.716   2.011
 1486SOL    HW2 5358   5.163   2.843   1.909
 1487SOL     OW 5359   0.485   6.779   5.808
 1487SOL    HW1 5360   0.422   6.701   5.809
 1487SOL    HW2 5361   0.501   6.807   5.714
 1488SOL     OW 5362   4.499   2.090   4.199
 1488SOL    HW1 5363   4.428   2.026   4.227
 1488SOL    HW2 5364   4.474   2.182   4.230
 1489SOL     OW 5365   3.535   5.541   4.459
 1489SOL    HW1 5366   3.531   5.442   4.450
 1489SOL    HW2 5367   3.485   5.584   4.385
 1490SOL     OW 5368   3.004   2.976   0.684
 1490SOL    HW1 5369   2.985   2.901   0.748
 1490SOL    HW2 5370   3.070   3.038   0.725
 1491SOL     OW 5371   2.014   1.752   3.795
 1491SOL    HW1 5372   2.037   1.655   3.803
 1491SOL    HW2 5373   1.995   1.789   3.886
 1492SOL     OW 5374   6.792   2.254   1.670
 1492SOL    HW1 5375   6.745   2.325   1.722
 1492SOL    HW2 5376   6.855   2.296   1.604
 1493SOL     OW 5377   6.750   3.490   4.907
 1493SOL    HW1 5378   6.707   3.456   4.823
 1493SOL    HW2 5379   6.679   3.529   4.966
 1494SOL     OW 5380   6.019   2.016   4.542
 1494SOL    HW1 5381   6.003   1.984   4.448
 1494SOL    HW2 5382   6.040   1.938   4.601
 1495SOL     OW 5383   0.932   3.897   1.824
 1495SOL    HW1 5384   0.925   3.810   1.872
 1495SOL    HW2 5385   0.888   3.891   1.735
 1496SOL     OW 5386   6.479   0.205   2.527
 1496SOL    HW1 5387   6.481   0.105   2.521
 1496SOL    HW2 5388   6.571   0.241   2.512
 1497SOL     OW 5389   5.390   4.227   5.917
 1497SOL    HW1 5390   5.402   4.128   5.911
 1497SOL    HW2 5391   5.314   4.248   5.979
 1498SOL     OW 5392   3.181   5.882   6.559
 1498SOL    HW1 5393   3.100   5.854   6.507
 1498SOL    HW2 5394   3.192   5.823   6.639
 1499SOL     OW 5395   1.862   3.951   3.730
 1499SOL    HW1 5396   1.847   3.899   3.814
 1499SOL    HW2 5397   1.778   3.953   3.676
 1500SOL     OW 5398   4.020   5.969   5.399
 1500SOL    HW1 5399   3.927   5.985   5.365
 1500SOL    HW2 5400   4.086   5.996   5.330
 1501SOL     OW 5401   3.666   1.463   1.589
 1501SOL    HW1 5402   3.651   1.555   1.625
 1501SOL    HW2 5403   3.599   1.443   1.518
 1502SOL     OW 5404   6.902   0.449   6.209
 1502SOL    HW1 5405   6.814   0.496   6.199
 1502SOL    HW2 5406   6.892   0.374   6.274
 1503SOL     OW 5407   3.456   3.527   5.302
 1503SOL    HW1 5408   3.497   3.436   5.303
 1503SOL    HW2 5409   3.528   3.596   5.316
 1504SOL     OW 5410   2.496   0.657   3.010
 1504SOL    HW1 5411   2.462   0.611   2.928
 1504SOL    HW2 5412   2.509   0.591   3.083
 1505SOL     OW 5413   5.832   6.243   3.266
 1505SOL    HW1 5414   5.814   6.314   3.198
 1505SOL    HW2 5415   5.887   6.171   3.225
 1506SOL     OW 5416   6.556   0.599   3.965
 1506SOL    HW1 5417   6.587   0.583   4.059
 1506SOL    HW2 5418   6.635   0.617   3.906
 1507SOL     OW 5419   2.480   1.930   6.465
 1507SOL    HW1 5420   2.527   2.003   6.516
 1507SOL    HW2 5421   2.425   1.970   6.392
 1508SOL     OW 5422   4.085   6.260   1.055
 1508SOL    HW1 5423   4.032   6.186   1.098
 1508SOL    HW2 5424   4.150   6.220   0.990
 1509SOL     OW 5425   4.936   2.265   5.779
 1509SOL    HW1 5426   5.017   2.234   5.829
 1509SOL    HW2 5427   4.864   2.195   5.785
 1510SOL     OW 5428   6.899   1.834   2.485
 1510SOL    HW1 5429   6.934   1.927   2.473
 1510SOL    HW2 5430   6.818   1.835   2.544
 1511SOL     OW 5431   6.917   2.408   0.521
 1511SOL    HW1 5432   6.916   2.489   0.463
 1511SOL    HW2 5433   6.840   2.411   0.585
 1512SOL     OW 5434   0.436   0.254   2.974
 1512SOL    HW1 5435   0.363   0.203   3.018
 1512SOL    HW2 5436   0.460   0.210   2.887
 1513SOL     OW 5437   2.629   0.370   2.799
 1513SOL    HW1 5438   2.655   0.422   2.718
 1513SOL    HW2 5439   2.677   0.282   2.799
 1514SOL     OW 5440   4.327   0.290   5.508
 1514SOL    HW1 5441   4.233   0.320   5.492
 1514SOL    HW2 5442   4.373   0.355   5.568
 1515SOL     OW 5443   5.448   5.610   5.198
 1515SOL    HW1 5444   5.358   5.572   5.219
 1515SOL    HW2 5445   5.513   5.585   5.271
 1516SOL     OW 5446   6.337   2.272   2.510
 1516SOL    HW1 5447   6.285   2.229   2.584
 1516SOL    HW2 5448   6.414   2.323   2.549
 1517SOL     OW 5449   2.688   5.287   1.822
 1517SOL    HW1 5450   2.712   5.375   1.863
 1517SOL    HW2 5451   2.756   5.219   1.848
 1518SOL     OW 5452   0.950   4.749   0.481
 1518SOL    HW1 5453   0.887   4.802   0.537
 1518SOL    HW2 5454   1.010   4.694   0.540
 1519SOL     OW 5455   1.083   4.190   1.779
 1519SOL    HW1 5456   1.052   4.095   1.772
 1519SOL    HW2 5457   1.005   4.251   1.765
 1520SOL     OW 5458   1.780   3.783   3.021
 1520SOL    HW1 5459   1.871   3.810   2.987
 1520SOL    HW2 5460   1.752   3.698   2.977
 1521SOL     OW 5461   1.794   6.006   5.592
 1521SOL    HW1 5462   1.717   6.061   5.624
 1521SOL    HW2 5463   1.823   5.943   5.664
 1522SOL     OW 5464   1.390   2.030   5.941
 1522SOL    HW1 5465   1.392   1.996   5.846
 1522SOL    HW2 5466   1.469   2.088   5.957
 1523SOL     OW 5467   5.003   1.162   0.450
 1523SOL    HW1 5468   5.004   1.201   0.358
 1523SOL    HW2 5469   4.925   1.198   0.501
 1524SOL     OW 5470   1.350   1.968   2.174
 1524SOL    HW1 5471   1.325   1.903   2.102
 1524SOL    HW2 5472   1.447   1.957   2.195
 1525SOL     OW 5473   4.548   2.102   5.364
 1525SOL    HW1 5474   4.615   2.088   5.291
 1525SOL    HW2 5475   4.562   2.193   5.405
 1526SOL     OW 5476   5.900   2.746   1.408
 1526SOL    HW1 5477   5.931   2.695   1.488
 1526SOL    HW2 5478   5.874   2.683   1.335
 1527SOL     OW 5479   1.914   0.143   4.955
 1527SOL    HW1 5480   1.912   0.178   5.048
 1527SOL    HW2 5481   1.868   0.054   4.952
 1528SOL     OW 5482   5.064   5.897   3.531
 1528SOL    HW1 5483   5.005   5.978   3.521
 1528SOL    HW2 5484   5.081   5.857   3.441
 1529SOL     OW 5485   0.950   6.822   5.988
 1529SOL    HW1 5486   0.914   6.802   5.897
 1529SOL    HW2 5487   0.887   6.786   6.057
 1530SOL     OW 5488   3.631   6.962   1.379
 1530SOL    HW1 5489   3.616   6.863   1.386
 1530SOL    HW2 5490   3.644   6.987   1.283
 1531SOL     OW 5491   5.013   1.631   6.791
 1531SOL    HW1 5492   5.045   1.631   6.696
 1531SOL    HW2 5493   5.041   1.715   6.836
 1532SOL     OW 5494   2.792   1.218   5.161
 1532SOL    HW1 5495   2.799   1.151   5.087
 1532SOL    HW2 5496   2.761   1.305   5.124
 1533SOL     OW 5497   4.370   2.863   1.592
 1533SOL    HW1 5498   4.350   2.894   1.499
 1533SOL    HW2 5499   4.286   2.866   1.646
 1534SOL     OW 5500   5.788   0.802   0.276
 1534SOL    HW1 5501   5.762   0.878   0.337
 1534SOL    HW2 5502   5.788   0.834   0.181
 1535SOL     OW 5503   4.407   4.648   4.089
 1535SOL    HW1 5504   4.324   4.629   4.141
 1535SOL    HW2 5505   4.410   4.588   4.009
 1536SOL     OW 5506   2.574   6.252   3.081
 1536SOL    HW1 5507   2.571   6.212   3.173
 1536SOL    HW2 5508   2.580   6.352   3.088
 1537SOL     OW 5509   1.801   5.292   4.849
 1537SOL    HW1 5510   1.703   5.291   4.828
 1537SOL    HW2 5511   1.851   5.333   4.774
 1538SOL     OW 5512   3.588   6.159   0.523
 1538SOL    HW1 5513   3.497   6.153   0.482
 1538SOL    HW2 5514   3.593   6.240   0.582
 1539SOL     OW 5515   1.897   6.821   1.296
 1539SOL    HW1 5516   1.858   6.868   1.376
 1539SOL    HW2 5517   1.824   6.798   1.232
 1540SOL     OW 5518   6.010   1.120   6.012
 1540SOL    HW1 5519   6.049   1.186   5.948
 1540SOL    HW2 5520   5.916   1.098   5.984
 1541SOL     OW 5521   5.062   1.920   2.400
 1541SOL    HW1 5522   5.032   1.826   2.419
 1541SOL    HW2 5523   4.987   1.971   2.357
 1542SOL     OW 5524   0.211   5.284   0.768
 1542SOL    HW1 5525   0.138   5.223   0.798
 1542SOL    HW2 5526   0.178   5.343   0.694
 1543SOL     OW 5527   3.502   2.948   2.790
 1543SOL    HW1 5528   3.440   3.025   2.774
 1543SOL    HW2 5529   3.560   2.935   2.709
 1544SOL     OW 5530   3.041   3.414   1.379
 1544SOL    HW1 5531   3.041   3.480   1.454
 1544SOL    HW2 5532   3.114   3.436   1.314
 1545SOL     OW 5533   0.578   6.336   5.979
 1545SOL    HW1 5534   0.532   6.340   5.891
 1545SOL    HW2 5535   0.669   6.296   5.968
 1546SOL     OW 5536   6.872   6.144   0.953
 1546SOL    HW1 5537   6.922   6.147   1.040
 1546SOL    HW2 5538   6.850   6.237   0.924
 1547SOL     OW 5539   2.747   6.652   0.613
 1547SOL    HW1 5540   2.762   6.568   0.561
 1547SOL    HW2 5541   2.739   6.730   0.551
 1548SOL     OW 5542   6.368   3.938   2.950
 1548SOL    HW1 5543   6.332   3.986   3.030
 1548SOL    HW2 5544   6.468   3.941   2.951
 1549SOL     OW 5545   6.022   1.910   1.580
 1549SOL    HW1 5546   5.928   1.894   1.551
 1549SOL    HW2 5547   6.022   1.954   1.670
 1550SOL     OW 5548   2.912   4.761   2.256
 1550SOL    HW1 5549   2.944   4.693   2.322
 1550SOL    HW2 5550   2.876   4.714   2.175
 1551SOL     OW 5551   1.086   1.705   2.206
 1551SOL    HW1 5552   1.115   1.760   2.127
 1551SOL    HW2 5553   1.031   1.627   2.174
 1552SOL     OW 5554   1.542   6.346   2.274
 1552SOL    HW1 5555   1.543   6.422   2.209
 1552SOL    HW2 5556   1.518   6.262   2.225
 1553SOL     OW 5557   6.071   1.597   5.249
 1553SOL    HW1 5558   6.159   1.632   5.216
 1553SOL    HW2 5559   6.019   1.561   5.171
 1554SOL     OW 5560   2.462   3.067   7.012
 1554SOL    HW1 5561   2.467   3.167   7.017
 1554SOL    HW2 5562   2.527   3.034   6.944
 1555SOL     OW 5563   4.411   1.049   1.363
 1555SOL    HW1 5564   4.350   1.047   1.442
 1555SOL    HW2 5565   4.357   1.065   1.280
 1556SOL     OW 5566   2.563   2.081   0.281
 1556SOL    HW1 5567   2.584   2.170   0.241
 1556SOL    HW2 5568   2.467   2.080   0.309
 1557SOL     OW 5569   2.480   2.168   1.158
 1557SOL    HW1 5570   2.446   2.214   1.076
 1557SOL    HW2 5571   2.487   2.235   1.233
 1558SOL     OW 5572   4.640   1.424   0.200
 1558SOL    HW1 5573   4.704   1.437   0.276
 1558SOL    HW2 5574   4.634   1.509   0.147
 1559SOL     OW 5575   2.492   5.964   3.775
 1559SOL    HW1 5576   2.465   5.868   3.771
 1559SOL    HW2 5577   2.416   6.019   3.810
 1560SOL     OW 5578   4.673   3.153   1.493
 1560SOL    HW1 5579   4.725   3.098   1.558
 1560SOL    HW2 5580   4.584   3.176   1.532
 1561SOL     OW 5581   5.858   6.826   1.097
 1561SOL    HW1 5582   5.905   6.817   1.185
 1561SOL    HW2 5583   5.924   6.814   1.023
 1562SOL     OW 5584   2.449   6.997   3.191
 1562SOL    HW1 5585   2.443   7.016   3.093
 1562SOL    HW2 5586   2.371   0.012   3.238
 1563SOL     OW 5587   2.526   4.578   4.200
 1563SOL    HW1 5588   2.522   4.546   4.294
 1563SOL    HW2 5589   2.491   4.507   4.139
 1564SOL     OW 5590   2.022   2.122   3.112
 1564SOL    HW1 5591   1.943   2.111   3.051
 1564SOL    HW2 5592   2.047   2.034   3.152
 1565SOL     OW 5593   5.841   1.953   5.503
 1565SOL    HW1 5594   5.771   1.882   5.515
 1565SOL    HW2 5595   5.897   1.930   5.424
 1566SOL     OW 5596   1.106   3.398   3.459
 1566SOL    HW1 5597   1.056   3.323   3.416
 1566SOL    HW2 5598   1.203   3.392   3.434
 1567SOL     OW 5599   5.368   1.146   3.600
 1567SOL    HW1 5600   5.369   1.211   3.676
 1567SOL    HW2 5601   5.388   1.194   3.515
 1568SOL     OW 5602   2.021   4.708   0.767
 1568SOL    HW1 5603   1.970   4.640   0.820
 1568SOL    HW2 5604   2.116   4.678   0.758
 1569SOL     OW 5605   2.281   1.122   2.246
 1569SOL    HW1 5606   2.354   1.085   2.305
 1569SOL    HW2 5607   2.223   1.183   2.300
 1570SOL     OW 5608   2.419   5.967   5.689
 1570SOL    HW1 5609   2.364   5.979   5.772
 1570SOL    HW2 5610   2.374   6.014   5.613
 1571SOL     OW 5611   1.634   1.879   4.328
 1571SOL    HW1 5612   1.712   1.885   4.391
 1571SOL    HW2 5613   1.583   1.795   4.347
 1572SOL     OW 5614   2.704   5.454   4.260
 1572SOL    HW1 5615   2.764   5.439   4.182
 1572SOL    HW2 5616   2.738   5.531   4.315
 1573SOL     OW 5617   5.865   5.906   6.704
 1573SOL    HW1 5618   5.918   5.958   6.770
 1573SOL    HW2 5619   5.824   5.968   6.637
 1574SOL     OW 5620   0.715   2.669   3.469
 1574SOL    HW1 5621   0.773   2.633   3.396
 1574SOL    HW2 5622   0.652   2.598   3.500
 1575SOL     OW 5623   6.685   2.237   0.658
 1575SOL    HW1 5624   6.680   2.278   0.567
 1575SOL    HW2 5625   6.712   2.141   0.650
 1576SOL     OW 5626   1.054   6.370   2.476
 1576SOL    HW1 5627   1.083   6.279   2.505
 1576SOL    HW2 5628   1.127   6.412   2.421
 1577SOL     OW 5629   4.659   5.858   4.042
 1577SOL    HW1 5630   4.617   5.767   4.038
 1577SOL    HW2 5631   4.680   5.880   4.138
 1578SOL     OW 5632   5.473   1.798   2.319
 1578SOL    HW1 5633   5.436   1.721   2.371
 1578SOL    HW2 5634   5.400   1.843   2.268
 1579SOL     OW 5635   2.004   3.998   2.517
 1579SOL    HW1 5636   2.056   3.968   2.438
 1579SOL    HW2 5637   2.062   3.994   2.599
 1580SOL     OW 5638   3.531   3.514   4.227
 1580SOL    HW1 5639   3.433   3.498   4.240
 1580SOL    HW2 5640   3.583   3.463   4.296
 1581SOL     OW 5641   5.507   4.056   5.060
 1581SOL    HW1 5642   5.557   3.982   5.104
 1581SOL    HW2 5643   5.427   4.019   5.012
 1582SOL     OW 5644   4.131   6.478   4.215
 1582SOL    HW1 5645   4.143   6.575   4.239
 1582SOL    HW2 5646   4.171   6.461   4.125
 1583SOL     OW 5647   0.249   4.812   4.288
 1583SOL    HW1 5648   0.331   4.852   4.247
 1583SOL    HW2 5649   0.214   4.739   4.229
 1584SOL     OW 5650   0.408   4.559   0.807
 1584SOL    HW1 5651   0.342   4.618   0.760
 1584SOL    HW2 5652   0.412   4.471   0.760
 1585SOL     OW 5653   4.125   6.331   4.477
 1585SOL    HW1 5654   4.132   6.330   4.377
 1585SOL    HW2 5655   4.066   6.406   4.506
 1586SOL     OW 5656   2.918   6.139   2.991
 1586SOL    HW1 5657   2.948   6.233   3.004
 1586SOL    HW2 5658   2.830   6.125   3.036
 1587SOL     OW 5659   4.422   0.623   0.037
 1587SOL    HW1 5660   4.385   0.544   7.015
 1587SOL    HW2 5661   4.522   0.617   0.038
 1588SOL     OW 5662   6.450   1.869   4.032
 1588SOL    HW1 5663   6.390   1.802   3.988
 1588SOL    HW2 5664   6.432   1.959   3.993
 1589SOL     OW 5665   6.954   1.015   3.778
 1589SOL    HW1 5666   6.934   0.918   3.763
 1589SOL    HW2 5667   6.922   1.041   3.869
 1590SOL     OW 5668   5.364   6.773   3.894
 1590SOL    HW1 5669   5.404   6.864   3.912
 1590SOL    HW2 5670   5.435   6.713   3.858
 1591SOL     OW 5671   6.500   4.848   0.682
 1591SOL    HW1 5672   6.547   4.805   0.605
 1591SOL    HW2 5673   6.420   4.899   0.648
 1592SOL     OW 5674   7.020   4.575   3.985
 1592SOL    HW1 5675   6.994   4.480   3.971
 1592SOL    HW2 5676   6.976   4.632   3.915
 1593SOL     OW 5677   4.154   4.920   1.182
 1593SOL    HW1 5678   4.252   4.909   1.166
 1593SOL    HW2 5679   4.117   4.987   1.118
 1594SOL     OW 5680   5.415   1.165   2.859
 1594SOL    HW1 5681   5.502   1.214   2.857
 1594SOL    HW2 5682   5.341   1.228   2.884
 1595SOL     OW 5683   0.098   4.013   0.743
 1595SOL    HW1 5684   0.031   3.955   0.697
 1595SOL    HW2 5685   0.051   4.088   0.790
 1596SOL     OW 5686   5.531   4.260   4.416
 1596SOL    HW1 5687   5.487   4.171   4.402
 1596SOL    HW2 5688   5.587   4.256   4.498
 1597SOL     OW 5689   4.013   6.666   1.206
 1597SOL    HW1 5690   4.063   6.588   1.245
 1597SOL    HW2 5691   4.015   6.743   1.270
 1598SOL     OW 5692   0.807   6.178   6.108
 1598SOL    HW1 5693   0.836   6.082   6.108
 1598SOL    HW2 5694   0.835   6.222   6.194
 1599SOL     OW 5695   4.950   5.673   4.022
 1599SOL    HW1 5696   5.027   5.687   3.960
 1599SOL    HW2 5697   4.888   5.751   4.018
 1600SOL     OW 5698   5.232   1.196   1.517
 1600SOL    HW1 5699   5.303   1.135   1.482
 1600SOL    HW2 5700   5.158   1.204   1.449
 1601SOL     OW 5701   6.054   0.819   5.421
 1601SOL    HW1 5702   5.972   0.846   5.471
 1601SOL    HW2 5703   6.031   0.801   5.326
 1602SOL     OW 5704   3.771   6.021   3.247
 1602SOL    HW1 5705   3.680   6.044   3.283
 1602SOL    HW2 5706   3.832   6.099   3.259
 1603SOL     OW 5707   2.925   5.501   1.401
 1603SOL    HW1 5708   2.867   5.420   1.412
 1603SOL    HW2 5709   2.943   5.540   1.491
 1604SOL     OW 5710   4.409   5.329   1.816
 1604SOL    HW1 5711   4.391   5.277   1.900
 1604SOL    HW2 5712   4.430   5.424   1.839
 1605SOL     OW 5713   3.612   4.770   0.033
 1605SOL    HW1 5714   3.571   4.780   0.124
 1605SOL    HW2 5715   3.680   4.697   0.035
 1606SOL     OW 5716   5.008   5.640   5.048
 1606SOL    HW1 5717   5.022   5.708   4.976
 1606SOL    HW2 5718   4.936   5.670   5.109
 1607SOL     OW 5719   4.446   4.486   3.871
 1607SOL    HW1 5720   4.456   4.536   3.785
 1607SOL    HW2 5721   4.500   4.402   3.867
 1608SOL     OW 5722   6.229   3.421   3.012
 1608SOL    HW1 5723   6.137   3.422   2.974
 1608SOL    HW2 5724   6.241   3.339   3.069
 1609SOL     OW 5725   1.037   0.034   0.810
 1609SOL    HW1 5726   1.105   7.002   0.854
 1609SOL    HW2 5727   0.946   0.015   0.848
 1610SOL     OW 5728   5.124   4.924   0.742
 1610SOL    HW1 5729   5.175   4.854   0.691
 1610SOL    HW2 5730   5.188   4.988   0.784
 1611SOL     OW 5731   0.882   4.623   0.202
 1611SOL    HW1 5732   0.819   4.691   0.163
 1611SOL    HW2 5733   0.911   4.653   0.292
 1612SOL     OW 5734   4.870   7.000   2.191
 1612SOL    HW1 5735   4.961   6.959   2.185
 1612SOL    HW2 5736   4.845   0.012   2.102
 1613SOL     OW 5737   6.494   6.214   2.813
 1613SOL    HW1 5738   6.584   6.213   2.856
 1613SOL    HW2 5739   6.470   6.308   2.789
 1614SOL     OW 5740   6.168   1.276   5.811
 1614SOL    HW1 5741   6.243   1.279   5.876
 1614SOL    HW2 5742   6.120   1.364   5.810
 1615SOL     OW 5743   6.344   3.515   5.929
 1615SOL    HW1 5744   6.246   3.512   5.953
 1615SOL    HW2 5745   6.393   3.446   5.982
 1616SOL     OW 5746   1.785   1.147   3.605
 1616SOL    HW1 5747   1.854   1.137   3.534
 1616SOL    HW2 5748   1.803   1.228   3.660
 1617SOL     OW 5749   6.979   6.416   4.291
 1617SOL    HW1 5750   6.968   6.339   4.354
 1617SOL    HW2 5751   0.049   6.432   4.273
 1618SOL     OW 5752   3.166   5.437   2.684
 1618SOL    HW1 5753   3.095   5.485   2.631
 1618SOL    HW2 5754   3.191   5.492   2.764
 1619SOL     OW 5755   1.311   4.248   6.293
 1619SOL    HW1 5756   1.282   4.170   6.237
 1619SOL    HW2 5757   1.319   4.329   6.234
 1620SOL     OW 5758   3.004   0.057   4.752
 1620SOL    HW1 5759   3.022   0.154   4.733
 1620SOL    HW2 5760   3.087   0.004   4.736
 1621SOL     OW 5761   4.946   4.858   0.929
 1621SOL    HW1 5762   4.865   4.808   0.898
 1621SOL    HW2 5763   5.011   4.867   0.853
 1622SOL     OW 5764   6.676   3.378   4.313
 1622SOL    HW1 5765   6.767   3.391   4.275
 1622SOL    HW2 5766   6.673   3.291   4.362
 1623SOL     OW 5767   0.429   2.163   4.241
 1623SOL    HW1 5768   0.466   2.120   4.324
 1623SOL    HW2 5769   0.352   2.109   4.207
 1624SOL     OW 5770   4.531   2.756   0.021
 1624SOL    HW1 5771   4.471   2.813   6.992
 1624SOL    HW2 5772   4.563   2.808   0.100
 1625SOL     OW 5773   1.019   6.304   0.366
 1625SOL    HW1 5774   0.966   6.261   0.293
 1625SOL    HW2 5775   1.037   6.400   0.341
 1626SOL     OW 5776   2.950   1.503   2.022
 1626SOL    HW1 5777   2.959   1.403   2.023
 1626SOL    HW2 5778   2.874   1.530   2.080
 1627SOL     OW 5779   4.445   0.881   6.024
 1627SOL    HW1 5780   4.501   0.822   5.966
 1627SOL    HW2 5781   4.395   0.946   5.967
 1628SOL     OW 5782   5.703   5.713   1.274
 1628SOL    HW1 5783   5.705   5.663   1.361
 1628SOL    HW2 5784   5.651   5.797   1.286
 1629SOL     OW 5785   1.714   6.194   2.040
 1629SOL    HW1 5786   1.669   6.270   1.993
 1629SOL    HW2 5787   1.799   6.172   1.992
 1630SOL     OW 5788   0.045   4.813   5.725
 1630SOL    HW1 5789   7.021   4.747   5.781
 1630SOL    HW2 5790   7.022   4.900   5.725
 1631SOL     OW 5791   5.086   4.410   6.364
 1631SOL    HW1 5792   5.078   4.320   6.323
 1631SOL    HW2 5793   5.008   4.466   6.336
 1632SOL     OW 5794   5.974   4.949   1.883
 1632SOL    HW1 5795   5.924   5.007   1.948
 1632SOL    HW2 5796   6.054   4.909   1.929
 1633SOL     OW 5797   6.448   4.376   5.437
 1633SOL    HW1 5798   6.408   4.336   5.519
 1633SOL    HW2 5799   6.414   4.470   5.427
 1634SOL     OW 5800   1.083   4.306   5.962
 1634SOL    HW1 5801   1.053   4.265   6.048
 1634SOL    HW2 5802   1.177   4.340   5.973
 1635SOL     OW 5803   2.978   1.239   4.068
 1635SOL    HW1 5804   3.036   1.216   3.990
 1635SOL    HW2 5805   3.029   1.297   4.132
 1636SOL     OW 5806   6.947   6.257   1.910
 1636SOL    HW1 5807   6.902   6.294   1.991
 1636SOL    HW2 5808   0.019   6.276   1.914
 1637SOL     OW 5809   1.653   1.026   1.561
 1637SOL    HW1 5810   1.631   0.940   1.514
 1637SOL    HW2 5811   1.577   1.090   1.551
 1638SOL     OW 5812   5.659   1.178   3.761
 1638SOL    HW1 5813   5.571   1.207   3.799
 1638SOL    HW2 5814   5.650   1.086   3.724
 1639SOL     OW 5815   5.108   2.258   1.040
 1639SOL    HW1 5816   5.009   2.252   1.031
 1639SOL    HW2 5817   5.132   2.346   1.082
 1640SOL     OW 5818   6.839   1.508   6.428
 1640SOL    HW1 5819   6.784   1.478   6.350
 1640SOL    HW2 5820   6.936   1.495   6.408
 1641SOL     OW 5821   6.098   1.190   2.515
 1641SOL    HW1 5822   6.063   1.204   2.607
 1641SOL    HW2 5823   6.099   1.277   2.466
 1642SOL     OW 5824   0.250   3.654   6.631
 1642SOL    HW1 5825   0.252   3.600   6.715
 1642SOL    HW2 5826   0.302   3.606   6.560
 1643SOL     OW 5827   2.370   5.329   4.288
 1643SOL    HW1 5828   2.404   5.235   4.299
 1643SOL    HW2 5829   2.431   5.380   4.228
 1644SOL     OW 5830   5.746   1.874   2.189
 1644SOL    HW1 5831   5.804   1.795   2.210
 1644SOL    HW2 5832   5.651   1.849   2.204
 1645SOL     OW 5833   2.149   1.213   4.160
 1645SOL    HW1 5834   2.234   1.263   4.178
 1645SOL    HW2 5835   2.072   1.264   4.199
 1646SOL     OW 5836   0.006   5.367   1.735
 1646SOL    HW1 5837   6.936   5.372   1.709
 1646SOL    HW2 5838   0.043   5.459   1.747
 1647SOL     OW 5839   6.689   4.231   5.361
 1647SOL    HW1 5840   6.595   4.260   5.380
 1647SOL    HW2 5841   6.749   4.312   5.361
 1648SOL     OW 5842   5.738   5.886   1.870
 1648SOL    HW1 5843   5.698   5.937   1.946
 1648SOL    HW2 5844   5.667   5.867   1.802
 1649SOL     OW 5845   3.453   0.998   3.601
 1649SOL    HW1 5846   3.376   0.936   3.583
 1649SOL    HW2 5847   3.489   0.980   3.692
 1650SOL     OW 5848   2.570   3.014   5.650
 1650SOL    HW1 5849   2.611   3.031   5.739
 1650SOL    HW2 5850   2.547   3.100   5.606
 1651SOL     OW 5851   1.860   2.217   4.547
 1651SOL    HW1 5852   1.881   2.253   4.456
 1651SOL    HW2 5853   1.922   2.258   4.614
 1652SOL     OW 5854   0.127   4.375   1.923
 1652SOL    HW1 5855   0.173   4.396   1.836
 1652SOL    HW2 5856   0.179   4.413   1.999
 1653SOL     OW 5857   5.630   3.978   1.455
 1653SOL    HW1 5858   5.675   4.054   1.502
 1653SOL    HW2 5859   5.642   3.894   1.508
 1654SOL     OW 5860   0.309   2.819   1.765
 1654SOL    HW1 5861   0.280   2.760   1.840
 1654SOL    HW2 5862   0.407   2.839   1.774
 1655SOL     OW 5863   6.700   0.748   5.948
 1655SOL    HW1 5864   6.708   0.716   6.043
 1655SOL    HW2 5865   6.604   0.766   5.927
 1656SOL     OW 5866   2.079   4.703   2.800
 1656SOL    HW1 5867   2.171   4.736   2.777
 1656SOL    HW2 5868   2.039   4.762   2.870
 1657SOL     OW 5869   0.480   1.916   6.277
 1657SOL    HW1 5870   0.529   1.854   6.338
 1657SOL    HW2 5871   0.382   1.901   6.286
 1658SOL     OW 5872   4.415   0.071   5.667
 1658SOL    HW1 5873   4.356   0.105   5.594
 1658SOL    HW2 5874   4.510   0.086   5.643
 1659SOL     OW 5875   2.562   0.968   6.915
 1659SOL    HW1 5876   2.563   0.970   7.015
 1659SOL    HW2 5877   2.649   0.931   6.882
 1660SOL     OW 5878   2.732   0.765   1.503
 1660SOL    HW1 5879   2.688   0.737   1.588
 1660SOL    HW2 5880   2.669   0.821   1.449
 1661SOL     OW 5881   4.451   5.056   3.046
 1661SOL    HW1 5882   4.413   4.983   2.989
 1661SOL    HW2 5883   4.439   5.033   3.143
 1662SOL     OW 5884   0.765   2.504   4.306
 1662SOL    HW1 5885   0.731   2.594   4.280
 1662SOL    HW2 5886   0.779   2.500   4.404
 1663SOL     OW 5887   6.648   3.941   1.439
 1663SOL    HW1 5888   6.719   3.892   1.388
 1663SOL    HW2 5889   6.613   3.882   1.512
 1664SOL     OW 5890   1.146   0.863   6.864
 1664SOL    HW1 5891   1.178   0.842   6.771
 1664SOL    HW2 5892   1.070   0.801   6.887
 1665SOL     OW 5893   1.648   3.184   0.659
 1665SOL    HW1 5894   1.730   3.193   0.603
 1665SOL    HW2 5895   1.657   3.242   0.740
 1666SOL     OW 5896   6.208   6.283   5.329
 1666SOL    HW1 5897   6.137   6.346   5.299
 1666SOL    HW2 5898   6.198   6.196   5.281
 1667SOL     OW 5899   6.501   5.761   1.161
 1667SOL    HW1 5900   6.412   5.722   1.136
 1667SOL    HW2 5901   6.542   5.805   1.080
 1668SOL     OW 5902   0.000   2.952   2.363
 1668SOL    HW1 5903   6.984   3.035   2.328
 1668SOL    HW2 5904   6.961   2.902   2.419
 1669SOL     OW 5905   6.456   2.747   5.478
 1669SOL    HW1 5906   6.463   2.789   5.569
 1669SOL    HW2 5907   6.447   2.648   5.487
 1670SOL     OW 5908   3.040   4.307   5.237
 1670SOL    HW1 5909   3.051   4.235   5.168
 1670SOL    HW2 5910   2.983   4.380   5.200
 1671SOL     OW 5911   5.814   2.658   0.411
 1671SOL    HW1 5912   5.913   2.657   0.428
 1671SOL    HW2 5913   5.792   2.588   0.343
 1672SOL     OW 5914   0.970   1.925   1.954
 1672SOL    HW1 5915   1.011   1.837   1.929
 1672SOL    HW2 5916   1.013   1.998   1.903
 1673SOL     OW 5917   0.894   0.615   6.524
 1673SOL    HW1 5918   0.982   0.623   6.571
 1673SOL    HW2 5919   0.908   0.581   6.431
 1674SOL     OW 5920   5.072   2.669   3.467
 1674SOL    HW1 5921   4.976   2.643   3.461
 1674SOL    HW2 5922   5.130   2.590   3.446
 1675SOL     OW 5923   5.083   0.982   2.084
 1675SOL    HW1 5924   5.022   1.014   2.011
 1675SOL    HW2 5925   5.120   1.060   2.134
 1676SOL     OW 5926   2.547   1.561   3.639
 1676SOL    HW1 5927   2.476   1.494   3.616
 1676SOL    HW2 5928   2.537   1.641   3.579
 1677SOL     OW 5929   2.802   3.146   1.770
 1677SOL    HW1 5930   2.741   3.225   1.768
 1677SOL    HW2 5931   2.864   3.153   1.847
 1678SOL     OW 5932   6.466   6.943   1.090
 1678SOL    HW1 5933   6.411   6.915   1.011
 1678SOL    HW2 5934   6.440   0.010   1.117
 1679SOL     OW 5935   6.620   2.136   6.841
 1679SOL    HW1 5936   6.613   2.151   6.940
 1679SOL    HW2 5937   6.706   2.089   6.821
 1680SOL     OW 5938   5.630   1.610   3.984
 1680SOL    HW1 5939   5.703   1.543   3.995
 1680SOL    HW2 5940   5.558   1.593   4.051
 1681SOL     OW 5941   4.727   6.758   4.113
 1681SOL    HW1 5942   4.821   6.781   4.090
 1681SOL    HW2 5943   4.672   6.842   4.114
 1682SOL     OW 5944   4.493   1.698   5.304
 1682SOL    HW1 5945   4.504   1.772   5.371
 1682SOL    HW2 5946   4.489   1.736   5.212
 1683SOL     OW 5947   1.215   4.341   4.049
 1683SOL    HW1 5948   1.195   4.324   4.145
 1683SOL    HW2 5949   1.161   4.418   4.016
 1684SOL     OW 5950   3.158   5.882   1.582
 1684SOL    HW1 5951   3.207   5.869   1.496
 1684SOL    HW2 5952   3.102   5.964   1.576
 1685SOL     OW 5953   6.722   1.785   5.847
 1685SOL    HW1 5954   6.784   1.777   5.769
 1685SOL    HW2 5955   6.686   1.695   5.871
 1686SOL     OW 5956   2.753   6.203   1.163
 1686SOL    HW1 5957   2.670   6.246   1.198
 1686SOL    HW2 5958   2.737   6.105   1.150
 1687SOL     OW 5959   4.734   4.223   6.839
 1687SOL    HW1 5960   4.831   4.243   6.828
 1687SOL    HW2 5961   4.707   4.152   6.775
 1688SOL     OW 5962   2.697   0.920   2.520
 1688SOL    HW1 5963   2.745   0.860   2.583
 1688SOL    HW2 5964   2.690   0.876   2.430
 1689SOL     OW 5965   4.382   1.197   2.117
 1689SOL    HW1 5966   4.426   1.253   2.047
 1689SOL    HW2 5967   4.420   1.104   2.114
 1690SOL     OW 5968   0.434   4.459   4.040
 1690SOL    HW1 5969   0.522   4.431   4.002
 1690SOL    HW2 5970   0.394   4.384   4.091
 1691SOL     OW 5971   4.880   2.806   5.357
 1691SOL    HW1 5972   4.876   2.901   5.327
 1691SOL    HW2 5973   4.892   2.746   5.278
 1692SOL     OW 5974   5.874   5.442   2.622
 1692SOL    HW1 5975   5.795   5.447   2.683
 1692SOL    HW2 5976   5.871   5.356   2.571
 1693SOL     OW 5977   5.579   0.328   6.110
 1693SOL    HW1 5978   5.677   0.344   6.100
 1693SOL    HW2 5979   5.532   0.360   6.027
 1694SOL     OW 5980   4.374   1.299   6.401
 1694SOL    HW1 5981   4.295   1.325   6.345
 1694SOL    HW2 5982   4.366   1.202   6.426
 1695SOL     OW 5983   5.813   1.127   5.762
 1695SOL    HW1 5984   5.792   1.056   5.829
 1695SOL    HW2 5985   5.770   1.213   5.790
 1696SOL     OW 5986   5.259   6.813   1.131
 1696SOL    HW1 5987   5.351   6.843   1.158
 1696SOL    HW2 5988   5.248   6.823   1.032
 1697SOL     OW 5989   4.031   3.915   1.765
 1697SOL    HW1 5990   3.969   3.937   1.841
 1697SOL    HW2 5991   3.988   3.847   1.706
 1698SOL     OW 5992   4.838   2.504   1.091
 1698SOL    HW1 5993   4.777   2.543   1.160
 1698SOL    HW2 5994   4.829   2.404   1.091
 1699SOL     OW 5995   1.609   0.480   0.699
 1699SOL    HW1 5996   1.642   0.406   0.641
 1699SOL    HW2 5997   1.546   0.444   0.767
 1700SOL     OW 5998   5.736   3.173   3.177
 1700SOL    HW1 5999   5.788   3.233   3.238
 1700SOL    HW2 6000   5.775   3.081   3.180
 1701SOL     OW 6001   1.246   5.992   5.048
 1701SOL    HW1 6002   1.327   5.944   5.014
 1701SOL    HW2 6003   1.164   5.949   5.013
 1702SOL     OW 6004   2.094   2.262   6.866
 1702SOL    HW1 6005   2.189   2.261   6.897
 1702SOL    HW2 6006   2.091   2.245   6.767
 1703SOL     OW 6007   1.997   1.317   1.835
 1703SOL    HW1 6008   2.006   1.266   1.750
 1703SOL    HW2 6009   2.085   1.317   1.884
 1704SOL     OW 6010   3.108   2.700   6.684
 1704SOL    HW1 6011   3.087   2.612   6.726
 1704SOL    HW2 6012   3.194   2.694   6.634
 1705SOL     OW 6013   5.898   3.107   1.066
 1705SOL    HW1 6014   5.910   3.114   1.165
 1705SOL    HW2 6015   5.866   3.016   1.042
 1706SOL     OW 6016   5.815   0.509   5.539
 1706SOL    HW1 6017   5.894   0.518   5.477
 1706SOL    HW2 6018   5.731   0.523   5.487
 1707SOL     OW 6019   2.907   1.360   2.620
 1707SOL    HW1 6020   2.892   1.338   2.523
 1707SOL    HW2 6021   2.877   1.283   2.676
 1708SOL     OW 6022   2.611   4.495   1.421
 1708SOL    HW1 6023   2.608   4.533   1.513
 1708SOL    HW2 6024   2.518   4.490   1.384
 1709SOL     OW 6025   5.916   5.109   2.136
 1709SOL    HW1 6026   5.945   5.116   2.232
 1709SOL    HW2 6027   5.817   5.095   2.132
 1710SOL     OW 6028   4.838   2.820   2.091
 1710SOL    HW1 6029   4.815   2.916   2.072
 1710SOL    HW2 6030   4.934   2.804   2.069
 1711SOL     OW 6031   3.888   5.253   0.546
 1711SOL    HW1 6032   3.984   5.233   0.530
 1711SOL    HW2 6033   3.843   5.276   0.460
 1712SOL     OW 6034   0.492   2.632   2.365
 1712SOL    HW1 6035   0.462   2.672   2.451
 1712SOL    HW2 6036   0.499   2.532   2.375
 1713SOL     OW 6037   2.770   1.580   2.718
 1713SOL    HW1 6038   2.809   1.608   2.805
 1713SOL    HW2 6039   2.825   1.508   2.677
 1714SOL     OW 6040   3.402   4.883   1.087
 1714SOL    HW1 6041   3.360   4.969   1.118
 1714SOL    HW2 6042   3.332   4.825   1.044
 1715SOL     OW 6043   1.336   5.736   0.941
 1715SOL    HW1 6044   1.304   5.665   0.878
 1715SOL    HW2 6045   1.257   5.788   0.976
 1716SOL     OW 6046   4.947   1.666   2.412
 1716SOL    HW1 6047   4.919   1.690   2.319
 1716SOL    HW2 6048   4.945   1.567   2.423
 1717SOL     OW 6049   3.734   6.894   4.185
 1717SOL    HW1 6050   3.834   6.905   4.192
 1717SOL    HW2 6051   3.692   6.984   4.174
 1718SOL     OW 6052   1.578   3.836   1.971
 1718SOL    HW1 6053   1.479   3.833   1.981
 1718SOL    HW2 6054   1.605   3.923   1.931
 1719SOL     OW 6055   1.353   4.981   2.993
 1719SOL    HW1 6056   1.452   4.972   2.982
 1719SOL    HW2 6057   1.314   5.025   2.911
 1720SOL     OW 6058   1.671   2.739   5.327
 1720SOL    HW1 6059   1.750   2.742   5.266
 1720SOL    HW2 6060   1.600   2.680   5.286
 1721SOL     OW 6061   2.012   2.294   0.323
 1721SOL    HW1 6062   2.013   2.284   0.224
 1721SOL    HW2 6063   1.920   2.273   0.357
 1722SOL     OW 6064   4.007   2.191   3.044
 1722SOL    HW1 6065   4.052   2.125   3.105
 1722SOL    HW2 6066   4.063   2.203   2.962
 1723SOL     OW 6067   6.262   5.741   1.771
 1723SOL    HW1 6068   6.314   5.823   1.798
 1723SOL    HW2 6069   6.170   5.767   1.743
 1724SOL     OW 6070   5.933   3.854   1.370
 1724SOL    HW1 6071   5.855   3.913   1.349
 1724SOL    HW2 6072   5.902   3.759   1.379
 1725SOL     OW 6073   1.936   6.474   4.683
 1725SOL    HW1 6074   1.991   6.427   4.614
 1725SOL    HW2 6075   1.998   6.520   4.748
 1726SOL     OW 6076   6.062   5.195   2.849
 1726SOL    HW1 6077   6.072   5.289   2.816
 1726SOL    HW2 6078   6.120   5.181   2.929
 1727SOL     OW 6079   2.998   3.617   4.032
 1727SOL    HW1 6080   3.015   3.519   4.024
 1727SOL    HW2 6081   3.082   3.667   4.010
 1728SOL     OW 6082   5.442   2.357   4.324
 1728SOL    HW1 6083   5.434   2.408   4.410
 1728SOL    HW2 6084   5.537   2.355   4.295
 1729SOL     OW 6085   1.766   3.414   2.485
 1729SOL    HW1 6086   1.776   3.493   2.424
 1729SOL    HW2 6087   1.706   3.439   2.561
 1730SOL     OW 6088   3.079   0.610   4.354
 1730SOL    HW1 6089   3.040   0.688   4.306
 1730SOL    HW2 6090   3.010   0.538   4.364
 1731SOL     OW 6091   6.763   4.956   2.879
 1731SOL    HW1 6092   6.745   5.023   2.808
 1731SOL    HW2 6093   6.689   4.956   2.946
 1732SOL     OW 6094   3.687   2.913   4.791
 1732SOL    HW1 6095   3.653   2.823   4.763
 1732SOL    HW2 6096   3.694   2.916   4.891
 1733SOL     OW 6097   1.209   1.931   0.050
 1733SOL    HW1 6098   1.160   2.001   7.023
 1733SOL    HW2 6099   1.246   1.973   0.133
 1734SOL     OW 6100   0.716   4.683   2.382
 1734SOL    HW1 6101   0.814   4.666   2.373
 1734SOL    HW2 6102   0.686   4.655   2.473
 1735SOL     OW 6103   3.230   5.725   5.556
 1735SOL    HW1 6104   3.315   5.690   5.517
 1735SOL    HW2 6105   3.226   5.824   5.545
 1736SOL     OW 6106   4.293   1.954   5.045
 1736SOL    HW1 6107   4.245   1.870   5.020
 1736SOL    HW2 6108   4.367   1.971   4.979
 1737SOL     OW 6109   1.801   0.331   6.876
 1737SOL    HW1 6110   1.819   0.268   6.951
 1737SOL    HW2 6111   1.869   0.404   6.878
 1738SOL     OW 6112   1.111   3.296   2.141
 1738SOL    HW1 6113   1.130   3.313   2.238
 1738SOL    HW2 6114   1.013   3.308   2.123
 1739SOL     OW 6115   4.563   5.898   2.848
 1739SOL    HW1 6116   4.647   5.896   2.902
 1739SOL    HW2 6117   4.547   5.991   2.815
 1740SOL     OW 6118   0.236   2.295   5.069
 1740SOL    HW1 6119   0.258   2.264   4.976
 1740SOL    HW2 6120   0.161   2.239   5.105
 1741SOL     OW 6121   1.312   2.000   4.489
 1741SOL    HW1 6122   1.290   1.947   4.407
 1741SOL    HW2 6123   1.382   2.068   4.466
 1742SOL     OW 6124   6.160   0.593   6.228
 1742SOL    HW1 6125   6.089   0.653   6.190
 1742SOL    HW2 6126   6.131   0.498   6.218
 1743SOL     OW 6127   0.968   2.202   2.799
 1743SOL    HW1 6128   1.065   2.211   2.774
 1743SOL    HW2 6129   0.927   2.128   2.746
 1744SOL     OW 6130   2.843   1.803   5.551
 1744SOL    HW1 6131   2.878   1.893   5.577
 1744SOL    HW2 6132   2.775   1.813   5.479
 1745SOL     OW 6133   5.546   6.986   0.999
 1745SOL    HW1 6134   5.553   6.899   1.049
 1745SOL    HW2 6135   5.578   0.034   1.057
 1746SOL     OW 6136   2.866   5.322   2.110
 1746SOL    HW1 6137   2.814   5.279   2.185
 1746SOL    HW2 6138   2.810   5.393   2.068
 1747SOL     OW 6139   2.574   6.337   2.053
 1747SOL    HW1 6140   2.590   6.425   2.097
 1747SOL    HW2 6141   2.498   6.289   2.099
 1748SOL     OW 6142   6.544   1.115   4.263
 1748SOL    HW1 6143   6.598   1.031   4.252
 1748SOL    HW2 6144   6.568   1.179   4.189
 1749SOL     OW 6145   6.547   5.471   2.160
 1749SOL    HW1 6146   6.467   5.513   2.118
 1749SOL    HW2 6147   6.622   5.469   2.093
 1750SOL     OW 6148   2.778   2.047   0.476
 1750SOL    HW1 6149   2.730   2.092   0.552
 1750SOL    HW2 6150   2.748   2.088   0.389
 1751SOL     OW 6151   6.557   4.131   4.319
 1751SOL    HW1 6152   6.524   4.085   4.402
 1751SOL    HW2 6153   6.494   4.205   4.295
 1752SOL     OW 6154   6.247   0.170   2.891
 1752SOL    HW1 6155   6.343   0.143   2.886
 1752SOL    HW2 6156   6.220   0.181   2.987
 1753SOL     OW 6157   0.010   1.503   0.753
 1753SOL    HW1 6158   0.052   1.508   0.662
 1753SOL    HW2 6159   6.955   1.445   0.748
 1754SOL     OW 6160   2.013   4.575   3.790
 1754SOL    HW1 6161   1.988   4.561   3.886
 1754SOL    HW2 6162   2.072   4.655   3.782
 1755SOL     OW 6163   5.090   0.126   5.283
 1755SOL    HW1 6164   5.101   0.029   5.265
 1755SOL    HW2 6165   5.065   0.139   5.379
 1756SOL     OW 6166   4.511   5.425   1.154
 1756SOL    HW1 6167   4.474   5.370   1.229
 1756SOL    HW2 6168   4.461   5.405   1.070
 1757SOL     OW 6169   2.846   5.225   5.266
 1757SOL    HW1 6170   2.748   5.216   5.283
 1757SOL    HW2 6171   2.880   5.144   5.218
 1758SOL     OW 6172   0.007   6.269   3.926
 1758SOL    HW1 6173   0.016   6.178   3.967
 1758SOL    HW2 6174   0.086   6.325   3.951
 1759SOL     OW 6175   1.638   5.790   6.100
 1759SOL    HW1 6176   1.729   5.781   6.060
 1759SOL    HW2 6177   1.574   5.820   6.030
 1760SOL     OW 6178   5.883   1.255   4.199
 1760SOL    HW1 6179   5.804   1.220   4.147
 1760SOL    HW2 6180   5.958   1.275   4.136
 1761SOL     OW 6181   4.722   2.345   4.387
 1761SOL    HW1 6182   4.694   2.249   4.386
 1761SOL    HW2 6183   4.805   2.355   4.442
 1762SOL     OW 6184   0.964   1.427   5.182
 1762SOL    HW1 6185   0.969   1.449   5.279
 1762SOL    HW2 6186   1.050   1.451   5.137
 1763SOL     OW 6187   1.201   5.168   4.454
 1763SOL    HW1 6188   1.160   5.240   4.398
 1763SOL    HW2 6189   1.238   5.097   4.394
 1764SOL     OW 6190   0.634   5.097   2.967
 1764SOL    HW1 6191   0.630   5.125   3.063
 1764SOL    HW2 6192   0.661   5.176   2.911
 1765SOL     OW 6193   5.158   3.775   2.561
 1765SOL    HW1 6194   5.119   3.866   2.554
 1765SOL    HW2 6195   5.216   3.757   2.482
 1766SOL     OW 6196   3.896   4.927   3.729
 1766SOL    HW1 6197   3.823   4.932   3.797
 1766SOL    HW2 6198   3.863   4.880   3.647
 1767SOL     OW 6199   2.547   4.571   1.687
 1767SOL    HW1 6200   2.621   4.625   1.727
 1767SOL    HW2 6201   2.471   4.566   1.750
 1768SOL     OW 6202   3.821   5.429   2.261
 1768SOL    HW1 6203   3.837   5.499   2.190
 1768SOL    HW2 6204   3.812   5.339   2.217
 1769SOL     OW 6205   5.176   0.141   0.092
 1769SOL    HW1 6206   5.138   0.159   0.001
 1769SOL    HW2 6207   5.106   0.097   0.149
 1770SOL     OW 6208   2.135   3.094   0.208
 1770SOL    HW1 6209   2.086   3.008   0.227
 1770SOL    HW2 6210   2.214   3.101   0.269
 1771SOL     OW 6211   1.700   3.217   6.469
 1771SOL    HW1 6212   1.750   3.168   6.540
 1771SOL    HW2 6213   1.642   3.153   6.419
 1772SOL     OW 6214   2.551   5.064   1.568
 1772SOL    HW1 6215   2.615   5.002   1.523
 1772SOL    HW2 6216   2.601   5.128   1.626
 1773SOL     OW 6217   1.999   5.784   4.592
 1773SOL    HW1 6218   2.081   5.734   4.566
 1773SOL    HW2 6219   1.919   5.740   4.550
 1774SOL     OW 6220   5.746   4.708   1.834
 1774SOL    HW1 6221   5.827   4.667   1.875
 1774SOL    HW2 6222   5.664   4.666   1.874
 1775SOL     OW 6223   1.948   6.453   0.714
 1775SOL    HW1 6224   1.899   6.366   0.711
 1775SOL    HW2 6225   1.978   6.478   0.622
 1776SOL     OW 6226   4.521   3.165   5.825
 1776SOL    HW1 6227   4.471   3.249   5.803
 1776SOL    HW2 6228   4.531   3.157   5.924
 1777SOL     OW 6229   4.732   5.123   6.058
 1777SOL    HW1 6230   4.747   5.209   6.010
 1777SOL    HW2 6231   4.724   5.141   6.156
 1778SOL     OW 6232   6.912   0.211   2.680
 1778SOL    HW1 6233   6.938   0.128   2.631
 1778SOL    HW2 6234   6.980   0.231   2.751
 1779SOL     OW 6235   6.860   6.323   5.009
 1779SOL    HW1 6236   6.844   6.421   4.993
 1779SOL    HW2 6237   6.934   6.291   4.950
 1780SOL     OW 6238   2.613   6.873   4.878
 1780SOL    HW1 6239   2.548   6.933   4.925
 1780SOL    HW2 6240   2.597   6.877   4.780
 1781SOL     OW 6241   3.779   1.112   5.437
 1781SOL    HW1 6242   3.738   1.074   5.355
 1781SOL    HW2 6243   3.721   1.093   5.516
 1782SOL     OW 6244   6.130   0.130   2.206
 1782SOL    HW1 6245   6.213   0.142   2.152
 1782SOL    HW2 6246   6.052   0.115   2.145
 1783SOL     OW 6247   1.056   3.037   6.846
 1783SOL    HW1 6248   1.046   3.108   6.777
 1783SOL    HW2 6249   1.100   2.957   6.805
 1784SOL     OW 6250   1.769   6.116   1.197
 1784SOL    HW1 6251   1.742   6.212   1.199
 1784SOL    HW2 6252   1.825   6.096   1.277
 1785SOL     OW 6253   2.468   5.193   5.132
 1785SOL    HW1 6254   2.478   5.213   5.229
 1785SOL    HW2 6255   2.558   5.193   5.088
 1786SOL     OW 6256   0.496   5.488   2.315
 1786SOL    HW1 6257   0.531   5.422   2.381
 1786SOL    HW2 6258   0.410   5.454   2.276
 1787SOL     OW 6259   2.648   1.494   6.229
 1787SOL    HW1 6260   2.699   1.408   6.232
 1787SOL    HW2 6261   2.585   1.498   6.307
 1788SOL     OW 6262   3.872   4.144   0.524
 1788SOL    HW1 6263   3.913   4.230   0.554
 1788SOL    HW2 6264   3.773   4.156   0.513
 1789SOL     OW 6265   6.172   3.288   3.853
 1789SOL    HW1 6266   6.075   3.271   3.837
 1789SOL    HW2 6267   6.190   3.294   3.951
 1790SOL     OW 6268   2.576   2.365   4.745
 1790SOL    HW1 6269   2.504   2.414   4.697
 1790SOL    HW2 6270   2.651   2.345   4.682
 1791SOL     OW 6271   6.413   0.524   3.006
 1791SOL    HW1 6272   6.459   0.520   2.917
 1791SOL    HW2 6273   6.314   0.531   2.993
 1792SOL     OW 6274   0.319   3.557   5.982
 1792SOL    HW1 6275   0.407   3.569   6.029
 1792SOL    HW2 6276   0.248   3.536   6.049
 1793SOL     OW 6277   1.013   2.405   5.319
 1793SOL    HW1 6278   1.061   2.454   5.246
 1793SOL    HW2 6279   1.037   2.308   5.315
 1794SOL     OW 6280   6.941   2.403   6.658
 1794SOL    HW1 6281   6.938   2.338   6.582
 1794SOL    HW2 6282   0.010   2.418   6.684
 1795SOL     OW 6283   5.638   3.560   1.032
 1795SOL    HW1 6284   5.601   3.512   0.952
 1795SOL    HW2 6285   5.735   3.576   1.019
 1796SOL     OW 6286   6.302   6.417   6.289
 1796SOL    HW1 6287   6.349   6.480   6.227
 1796SOL    HW2 6288   6.337   6.427   6.381
 1797SOL     OW 6289   3.056   6.606   5.343
 1797SOL    HW1 6290   3.147   6.636   5.370
 1797SOL    HW2 6291   2.991   6.629   5.415
 1798SOL     OW 6292   2.302   4.523   6.872
 1798SOL    HW1 6293   2.364   4.552   6.945
 1798SOL    HW2 6294   2.346   4.539   6.784
 1799SOL     OW 6295   3.690   1.790   1.677
 1799SOL    HW1 6296   3.789   1.796   1.690
 1799SOL    HW2 6297   3.644   1.858   1.734
 1800SOL     OW 6298   5.458   2.429   5.946
 1800SOL    HW1 6299   5.457   2.357   5.876
 1800SOL    HW2 6300   5.552   2.448   5.972
 1801SOL     OW 6301   1.245   2.215   2.725
 1801SOL    HW1 6302   1.229   2.117   2.708
 1801SOL    HW2 6303   1.316   2.248   2.662
 1802SOL     OW 6304   6.103   4.345   4.875
 1802SOL    HW1 6305   6.170   4.418   4.863
 1802SOL    HW2 6306   6.094   4.324   4.973
 1803SOL     OW 6307   5.805   6.298   3.561
 1803SOL    HW1 6308   5.814   6.266   3.467
 1803SOL    HW2 6309   5.801   6.220   3.623
 1804SOL     OW 6310   1.521   3.106   5.983
 1804SOL    HW1 6311   1.529   3.008   6.002
 1804SOL    HW2 6312   1.536   3.122   5.885
 1805SOL     OW 6313   6.759   5.246   5.951
 1805SOL    HW1 6314   6.774   5.148   5.939
 1805SOL    HW2 6315   6.728   5.286   5.864
 1806SOL     OW 6316   0.285   1.137   2.548
 1806SOL    HW1 6317   0.208   1.191   2.580
 1806SOL    HW2 6318   0.265   1.100   2.458
 1807SOL     OW 6319   6.749   2.896   2.532
 1807SOL    HW1 6320   6.676   2.889   2.600
 1807SOL    HW2 6321   6.777   2.805   2.502
 1808SOL     OW 6322   5.392   1.230   7.012
 1808SOL    HW1 6323   5.471   1.261   6.959
 1808SOL    HW2 6324   5.349   1.309   0.030
 1809SOL     OW 6325   4.392   0.856   4.952
 1809SOL    HW1 6326   4.391   0.930   5.019
 1809SOL    HW2 6327   4.429   0.889   4.865
 1810SOL     OW 6328   0.891   0.919   4.061
 1810SOL    HW1 6329   0.838   0.892   3.981
 1810SOL    HW2 6330   0.974   0.966   4.031
 1811SOL     OW 6331   2.812   5.260   1.422
 1811SOL    HW1 6332   2.863   5.207   1.489
 1811SOL    HW2 6333   2.754   5.199   1.368
 1812SOL     OW 6334   3.577   0.573   6.403
 1812SOL    HW1 6335   3.481   0.557   6.379
 1812SOL    HW2 6336   3.635   0.510   6.352
 1813SOL     OW 6337   5.382   3.308   1.647
 1813SOL    HW1 6338   5.470   3.337   1.610
 1813SOL    HW2 6339   5.396   3.264   1.736
 1814SOL     OW 6340   6.462   5.827   1.438
 1814SOL    HW1 6341   6.487   5.824   1.342
 1814SOL    HW2 6342   6.442   5.735   1.470
 1815SOL     OW 6343   6.318   6.030   1.049
 1815SOL    HW1 6344   6.373   5.962   1.001
 1815SOL    HW2 6345   6.268   5.986   1.124
 1816SOL     OW 6346   3.702   5.348   4.904
 1816SOL    HW1 6347   3.694   5.445   4.928
 1816SOL    HW2 6348   3.629   5.297   4.950
 1817SOL     OW 6349   6.662   2.600   4.671
 1817SOL    HW1 6350   6.699   2.546   4.746
 1817SOL    HW2 6351   6.614   2.679   4.707
 1818SOL     OW 6352   2.279   2.412   0.238
 1818SOL    HW1 6353   2.190   2.387   0.277
 1818SOL    HW2 6354   2.351   2.391   0.303
 1819SOL     OW 6355   0.981   3.355   0.617
 1819SOL    HW1 6356   0.938   3.344   0.528
 1819SOL    HW2 6357   0.934   3.427   0.668
 1820SOL     OW 6358   3.500   6.607   4.461
 1820SOL    HW1 6359   3.549   6.617   4.375
 1820SOL    HW2 6360   3.516   6.516   4.499
 1821SOL     OW 6361   4.026   1.390   2.785
 1821SOL    HW1 6362   3.956   1.323   2.807
 1821SOL    HW2 6363   4.001   1.478   2.825
 1822SOL     OW 6364   2.508   4.579   5.190
 1822SOL    HW1 6365   2.468   4.499   5.144
 1822SOL    HW2 6366   2.512   4.656   5.126
 1823SOL     OW 6367   4.889   7.015   4.631
 1823SOL    HW1 6368   4.802   7.026   4.678
 1823SOL    HW2 6369   4.877   7.024   4.533
 1824SOL     OW 6370   4.601   2.832   1.745
 1824SOL    HW1 6371   4.612   2.915   1.798
 1824SOL    HW2 6372   4.526   2.844   1.679
 1825SOL     OW 6373   1.547   3.383   0.259
 1825SOL    HW1 6374   1.613   3.429   0.318
 1825SOL    HW2 6375   1.470   3.350   0.313
 1826SOL     OW 6376   4.221   3.091   7.017
 1826SOL    HW1 6377   4.138   3.038   0.008
 1826SOL    HW2 6378   4.222   3.173   0.048
 1827SOL     OW 6379   5.301   4.433   0.542
 1827SOL    HW1 6380   5.355   4.492   0.481
 1827SOL    HW2 6381   5.204   4.440   0.519
 1828SOL     OW 6382   2.514   6.175   5.127
 1828SOL    HW1 6383   2.537   6.130   5.214
 1828SOL    HW2 6384   2.524   6.110   5.052
 1829SOL     OW 6385   2.317   5.917   2.596
 1829SOL    HW1 6386   2.406   5.954   2.622
 1829SOL    HW2 6387   2.326   5.861   2.514
 1830SOL     OW 6388   4.352   1.744   6.589
 1830SOL    HW1 6389   4.295   1.798   6.528
 1830SOL    HW2 6390   4.337   1.647   6.571
 1831SOL     OW 6391   3.309   3.899   6.754
 1831SOL    HW1 6392   3.407   3.888   6.771
 1831SOL    HW2 6393   3.260   3.892   6.841
 1832SOL     OW 6394   2.320   2.216   5.703
 1832SOL    HW1 6395   2.345   2.217   5.800
 1832SOL    HW2 6396   2.297   2.309   5.674
 1833SOL     OW 6397   5.728   1.765   0.282
 1833SOL    HW1 6398   5.681   1.787   0.368
 1833SOL    HW2 6399   5.727   1.845   0.222
 1834SOL     OW 6400   1.268   3.697   6.444
 1834SOL    HW1 6401   1.362   3.722   6.465
 1834SOL    HW2 6402   1.258   3.598   6.450
 1835SOL     OW 6403   6.307   0.908   6.221
 1835SOL    HW1 6404   6.377   0.837   6.208
 1835SOL    HW2 6405   6.221   0.878   6.180
 1836SOL     OW 6406   5.597   0.621   5.360
 1836SOL    HW1 6407   5.501   0.628   5.334
 1836SOL    HW2 6408   5.625   0.706   5.406
 1837SOL     OW 6409   1.331   1.711   1.547
 1837SOL    HW1 6410   1.298   1.646   1.479
 1837SOL    HW2 6411   1.427   1.732   1.529
 1838SOL     OW 6412   4.741   0.608   0.025
 1838SOL    HW1 6413   4.747   0.527   6.992
 1838SOL    HW2 6414   4.819   0.667   0.009
 1839SOL     OW 6415   0.196   2.391   6.714
 1839SOL    HW1 6416   0.291   2.407   6.690
 1839SOL    HW2 6417   0.176   2.293   6.710
 1840SOL     OW 6418   1.788   6.710   5.486
 1840SOL    HW1 6419   1.861   6.687   5.421
 1840SOL    HW2 6420   1.749   6.799   5.462
 1841SOL     OW 6421   1.887   0.163   1.434
 1841SOL    HW1 6422   1.944   0.097   1.483
 1841SOL    HW2 6423   1.919   0.256   1.455
 1842SOL     OW 6424   0.453   4.789   1.594
 1842SOL    HW1 6425   0.544   4.772   1.555
 1842SOL    HW2 6426   0.461   4.799   1.693
 1843SOL     OW 6427   3.540   0.503   6.752
 1843SOL    HW1 6428   3.580   0.462   6.834
 1843SOL    HW2 6429   3.498   0.431   6.697
 1844SOL     OW 6430   5.090   2.978   1.517
 1844SOL    HW1 6431   5.096   3.045   1.592
 1844SOL    HW2 6432   5.080   3.026   1.430
 1845SOL     OW 6433   0.566   2.548   4.734
 1845SOL    HW1 6434   0.493   2.479   4.732
 1845SOL    HW2 6435   0.537   2.628   4.680
 1846SOL     OW 6436   3.766   0.786   1.914
 1846SOL    HW1 6437   3.838   0.763   1.979
 1846SOL    HW2 6438   3.785   0.744   1.826
 1847SOL     OW 6439   2.766   6.013   6.963
 1847SOL    HW1 6440   2.688   6.064   6.925
 1847SOL    HW2 6441   2.844   6.022   6.901
 1848SOL     OW 6442   2.777   5.817   4.646
 1848SOL    HW1 6443   2.737   5.862   4.726
 1848SOL    HW2 6444   2.873   5.842   4.637
 1849SOL     OW 6445   4.812   2.905   2.579
 1849SOL    HW1 6446   4.899   2.941   2.545
 1849SOL    HW2 6447   4.770   2.848   2.508
 1850SOL     OW 6448   4.779   1.246   0.587
 1850SOL    HW1 6449   4.772   1.281   0.680
 1850SOL    HW2 6450   4.694   1.198   0.563
 1851SOL     OW 6451   2.034   4.892   3.467
 1851SOL    HW1 6452   2.057   4.941   3.383
 1851SOL    HW2 6453   1.938   4.864   3.463
 1852SOL     OW 6454   0.216   0.619   4.600
 1852SOL    HW1 6455   0.224   0.655   4.507
 1852SOL    HW2 6456   0.121   0.590   4.617
 1853SOL     OW 6457   0.890   2.068   4.751
 1853SOL    HW1 6458   0.816   2.112   4.802
 1853SOL    HW2 6459   0.977   2.108   4.778
 1854SOL     OW 6460   1.354   6.805   3.815
 1854SOL    HW1 6461   1.399   6.722   3.847
 1854SOL    HW2 6462   1.256   6.800   3.835
 1855SOL     OW 6463   6.180   1.309   5.199
 1855SOL    HW1 6464   6.201   1.358   5.283
 1855SOL    HW2 6465   6.249   1.330   5.130
 1856SOL     OW 6466   4.489   3.793   6.822
 1856SOL    HW1 6467   4.569   3.740   6.852
 1856SOL    HW2 6468   4.427   3.805   6.899
 1857SOL     OW 6469   4.491   1.319   6.681
 1857SOL    HW1 6470   4.469   1.326   6.584
 1857SOL    HW2 6471   4.417   1.358   6.735
 1858SOL     OW 6472   4.073   1.860   4.684
 1858SOL    HW1 6473   4.139   1.932   4.667
 1858SOL    HW2 6474   4.121   1.773   4.697
 1859SOL     OW 6475   6.704   5.958   3.470
 1859SOL    HW1 6476   6.684   5.860   3.481
 1859SOL    HW2 6477   6.770   5.986   3.540
 1860SOL     OW 6478   1.353   6.923   0.165
 1860SOL    HW1 6479   1.342   6.835   0.120
 1860SOL    HW2 6480   1.385   6.909   0.259
 1861SOL     OW 6481   6.427   0.034   5.179
 1861SOL    HW1 6482   6.465   0.044   5.087
 1861SOL    HW2 6483   6.345   7.004   5.174
 1862SOL     OW 6484   4.244   4.809   4.813
 1862SOL    HW1 6485   4.275   4.719   4.847
 1862SOL    HW2 6486   4.209   4.863   4.890
 1863SOL     OW 6487   6.820   1.356   0.817
 1863SOL    HW1 6488   6.868   1.268   0.821
 1863SOL    HW2 6489   6.722   1.340   0.813
 1864SOL     OW 6490   2.707   5.565   2.843
 1864SOL    HW1 6491   2.657   5.488   2.883
 1864SOL    HW2 6492   2.664   5.592   2.757
 1865SOL     OW 6493   6.089   2.693   6.320
 1865SOL    HW1 6494   6.166   2.638   6.290
 1865SOL    HW2 6495   6.023   2.703   6.245
 1866SOL     OW 6496   6.962   4.468   5.171
 1866SOL    HW1 6497   0.016   4.521   5.199
 1866SOL    HW2 6498   6.971   4.374   5.203
 1867SOL     OW 6499   1.300   6.899   0.432
 1867SOL    HW1 6500   1.345   6.986   0.416
 1867SOL    HW2 6501   1.201   6.913   0.441
 1868SOL     OW 6502   6.074   3.623   6.105
 1868SOL    HW1 6503   6.007   3.550   6.110
 1868SOL    HW2 6504   6.054   3.682   6.026
 1869SOL     OW 6505   4.285   1.211   5.477
 1869SOL    HW1 6506   4.301   1.260   5.391
 1869SOL    HW2 6507   4.187   1.212   5.498
 1870SOL     OW 6508   5.437   1.769   6.025
 1870SOL    HW1 6509   5.477   1.858   6.000
 1870SOL    HW2 6510   5.501   1.696   6.001
 1871SOL     OW 6511   2.822   4.459   0.088
 1871SOL    HW1 6512   2.895   4.504   0.140
 1871SOL    HW2 6513   2.776   4.526   0.030
 1872SOL     OW 6514   2.018   3.863   6.481
 1872SOL    HW1 6515   2.108   3.852   6.439
 1872SOL    HW2 6516   1.975   3.947   6.449
 1873SOL     OW 6517   5.592   1.049   2.170
 1873SOL    HW1 6518   5.558   1.142   2.156
 1873SOL    HW2 6519   5.532   1.002   2.235
 1874SOL     OW 6520   2.198   5.124   6.478
 1874SOL    HW1 6521   2.266   5.061   6.514
 1874SOL    HW2 6522   2.134   5.149   6.550
 1875SOL     OW 6523   1.525   6.575   2.120
 1875SOL    HW1 6524   1.566   6.632   2.192
 1875SOL    HW2 6525   1.486   6.633   2.049
 1876SOL     OW 6526   1.646   4.954   5.234
 1876SOL    HW1 6527   1.704   5.036   5.235
 1876SOL    HW2 6528   1.688   4.884   5.177
 1877SOL     OW 6529   0.162   1.262   3.840
 1877SOL    HW1 6530   0.127   1.194   3.776
 1877SOL    HW2 6531   0.233   1.221   3.898
 1878SOL     OW 6532   5.444   4.052   3.124
 1878SOL    HW1 6533   5.449   3.965   3.173
 1878SOL    HW2 6534   5.531   4.070   3.079
 1879SOL     OW 6535   3.761   6.526   4.998
 1879SOL    HW1 6536   3.778   6.520   5.096
 1879SOL    HW2 6537   3.725   6.438   4.965
 1880SOL     OW 6538   2.173   3.828   3.967
 1880SOL    HW1 6539   2.177   3.738   3.923
 1880SOL    HW2 6540   2.177   3.899   3.896
 1881SOL     OW 6541   3.140   2.093   2.834
 1881SOL    HW1 6542   3.137   2.171   2.897
 1881SOL    HW2 6543   3.110   2.122   2.743
 1882SOL     OW 6544   4.340   0.384   6.360
 1882SOL    HW1 6545   4.336   0.333   6.446
 1882SOL    HW2 6546   4.327   0.481   6.379
 1883SOL     OW 6547   2.053   3.839   3.013
 1883SOL    HW1 6548   2.061   3.895   3.095
 1883SOL    HW2 6549   2.075   3.896   2.933
 1884SOL     OW 6550   4.693   0.765   0.627
 1884SOL    HW1 6551   4.658   0.757   0.534
 1884SOL    HW2 6552   4.792   0.778   0.624
 1885SOL     OW 6553   6.807   1.907   1.195
 1885SOL    HW1 6554   6.863   1.948   1.267
 1885SOL    HW2 6555   6.717   1.884   1.231
 1886SOL     OW 6556   3.891   2.949   5.171
 1886SOL    HW1 6557   3.797   2.949   5.138
 1886SOL    HW2 6558   3.913   2.860   5.211
 1887SOL     OW 6559   0.724   6.051   5.518
 1887SOL    HW1 6560   0.756   5.984   5.586
 1887SOL    HW2 6561   0.671   6.004   5.447
 1888SOL     OW 6562   2.403   1.501   5.353
 1888SOL    HW1 6563   2.413   1.510   5.452
 1888SOL    HW2 6564   2.307   1.479   5.332
 1889SOL     OW 6565   3.841   3.603   6.756
 1889SOL    HW1 6566   3.921   3.550   6.782
 1889SOL    HW2 6567   3.822   3.672   6.826
 1890SOL     OW 6568   6.363   7.006   6.116
 1890SOL    HW1 6569   6.401   6.946   6.187
 1890SOL    HW2 6570   6.408   6.989   6.029
 1891SOL     OW 6571   5.245   3.462   0.109
 1891SOL    HW1 6572   5.264   3.442   0.012
 1891SOL    HW2 6573   5.283   3.389   0.166
 1892SOL     OW 6574   2.566   0.317   3.355
 1892SOL    HW1 6575   2.650   0.312   3.409
 1892SOL    HW2 6576   2.583   0.367   3.270
 1893SOL     OW 6577   2.894   2.865   6.685
 1893SOL    HW1 6578   2.974   2.805   6.691
 1893SOL    HW2 6579   2.813   2.815   6.715
 1894SOL     OW 6580   5.402   3.260   1.068
 1894SOL    HW1 6581   5.303   3.267   1.065
 1894SOL    HW2 6582   5.440   3.279   0.978
 1895SOL     OW 6583   4.403   6.365   2.999
 1895SOL    HW1 6584   4.335   6.294   3.016
 1895SOL    HW2 6585   4.366   6.433   2.936
 1896SOL     OW 6586   0.199   2.045   4.151
 1896SOL    HW1 6587   0.110   2.089   4.147
 1896SOL    HW2 6588   0.204   1.975   4.080
 1897SOL     OW 6589   5.350   5.597   3.480
 1897SOL    HW1 6590   5.268   5.543   3.459
 1897SOL    HW2 6591   5.422   5.536   3.512
 1898SOL     OW 6592   5.053   6.144   0.050
 1898SOL    HW1 6593   5.046   6.046   0.063
 1898SOL    HW2 6594   5.000   6.191   0.121
 1899SOL     OW 6595   1.590   3.302   4.080
 1899SOL    HW1 6596   1.565   3.247   4.000
 1899SOL    HW2 6597   1.634   3.244   4.148
 1900SOL     OW 6598   2.508   5.506   1.438
 1900SOL    HW1 6599   2.500   5.431   1.504
 1900SOL    HW2 6600   2.418   5.546   1.422
 1901SOL     OW 6601   0.360   1.545   0.002
 1901SOL    HW1 6602   0.337   1.525   0.097
 1901SOL    HW2 6603   0.312   1.627   6.999
 1902SOL     OW 6604   1.895   2.895   4.908
 1902SOL    HW1 6605   1.984   2.852   4.897
 1902SOL    HW2 6606   1.827   2.827   4.933
 1903SOL     OW 6607   6.992   5.991   4.022
 1903SOL    HW1 6608   0.050   5.945   3.997
 1903SOL    HW2 6609   6.926   5.984   3.947
 1904SOL     OW 6610   0.669   0.954   3.903
 1904SOL    HW1 6611   0.693   1.034   3.847
 1904SOL    HW2 6612   0.650   0.983   3.997
 1905SOL     OW 6613   5.909   3.054   6.368
 1905SOL    HW1 6614   6.005   3.031   6.352
 1905SOL    HW2 6615   5.885   3.036   6.464
 1906SOL     OW 6616   2.425   5.741   6.160
 1906SOL    HW1 6617   2.443   5.803   6.236
 1906SOL    HW2 6618   2.504   5.740   6.098
 1907SOL     OW 6619   4.096   0.839   2.416
 1907SOL    HW1 6620   4.005   0.877   2.432
 1907SOL    HW2 6621   4.138   0.886   2.338
 1908SOL     OW 6622   5.795   4.462   0.760
 1908SOL    HW1 6623   5.882   4.424   0.791
 1908SOL    HW2 6624   5.811   4.552   0.719
 1909SOL     OW 6625   4.910   5.243   4.503
 1909SOL    HW1 6626   4.915   5.342   4.521
 1909SOL    HW2 6627   4.876   5.197   4.585
 1910SOL     OW 6628   4.845   4.240   4.340
 1910SOL    HW1 6629   4.821   4.147   4.313
 1910SOL    HW2 6630   4.940   4.242   4.372
 1911SOL     OW 6631   0.863   2.555   5.834
 1911SOL    HW1 6632   0.903   2.465   5.850
 1911SOL    HW2 6633   0.887   2.616   5.911
 1912SOL     OW 6634   3.636   0.476   2.128
 1912SOL    HW1 6635   3.618   0.571   2.104
 1912SOL    HW2 6636   3.729   0.467   2.164
 1913SOL     OW 6637   2.961   3.519   6.991
 1913SOL    HW1 6638   3.046   3.468   6.999
 1913SOL    HW2 6639   2.926   3.539   0.056
 1914SOL     OW 6640   4.593   1.369   5.253
 1914SOL    HW1 6641   4.621   1.416   5.337
 1914SOL    HW2 6642   4.592   1.434   5.177
 1915SOL     OW 6643   2.663   6.597   4.917
 1915SOL    HW1 6644   2.753   6.608   4.875
 1915SOL    HW2 6645   2.598   6.657   4.872
 1916SOL     OW 6646   3.626   6.927   2.901
 1916SOL    HW1 6647   3.619   6.832   2.872
 1916SOL    HW2 6648   3.718   6.943   2.938
 1917SOL     OW 6649   3.661   4.132   3.330
 1917SOL    HW1 6650   3.562   4.126   3.327
 1917SOL    HW2 6651   3.690   4.167   3.419
 1918SOL     OW 6652   0.722   6.891   6.313
 1918SOL    HW1 6653   0.667   6.842   6.246
 1918SOL    HW2 6654   0.756   6.827   6.382
 1919SOL     OW 6655   5.257   0.847   1.633
 1919SOL    HW1 6656   5.322   0.885   1.699
 1919SOL    HW2 6657   5.178   0.908   1.624
 1920SOL     OW 6658   5.849   6.288   4.441
 1920SOL    HW1 6659   5.823   6.226   4.515
 1920SOL    HW2 6660   5.773   6.349   4.419
 1921SOL     OW 6661   2.314   6.944   0.255
 1921SOL    HW1 6662   2.266   6.886   0.321
 1921SOL    HW2 6663   2.254   7.018   0.225
 1922SOL     OW 6664   3.543   5.025   6.969
 1922SOL    HW1 6665   3.532   4.926   6.968
 1922SOL    HW2 6666   3.514   5.062   0.031
 1923SOL     OW 6667   1.464   2.552   1.574
 1923SOL    HW1 6668   1.435   2.498   1.652
 1923SOL    HW2 6669   1.461   2.649   1.598
 1924SOL     OW 6670   1.162   3.595   1.994
 1924SOL    HW1 6671   1.226   3.523   2.021
 1924SOL    HW2 6672   1.126   3.575   1.903
 1925SOL     OW 6673   2.905   4.822   0.340
 1925SOL    HW1 6674   2.864   4.868   0.261
 1925SOL    HW2 6675   2.970   4.752   0.308
 1926SOL     OW 6676   0.097   0.080   2.891
 1926SOL    HW1 6677   0.180   0.089   2.836
 1926SOL    HW2 6678   0.089   7.012   2.924
 1927SOL     OW 6679   5.458   3.042   1.208
 1927SOL    HW1 6680   5.382   3.018   1.268
 1927SOL    HW2 6681   5.437   3.126   1.158
 1928SOL     OW 6682   0.181   4.881   4.644
 1928SOL    HW1 6683   0.085   4.870   4.668
 1928SOL    HW2 6684   0.216   4.795   4.608
 1929SOL     OW 6685   1.783   4.545   3.061
 1929SOL    HW1 6686   1.815   4.579   2.973
 1929SOL    HW2 6687   1.828   4.458   3.081
 1930SOL     OW 6688   6.089   6.166   6.487
 1930SOL    HW1 6689   6.175   6.175   6.438
 1930SOL    HW2 6690   6.042   6.083   6.457
 1931SOL     OW 6691   2.292   2.846   3.661
 1931SOL    HW1 6692   2.287   2.788   3.580
 1931SOL    HW2 6693   2.259   2.938   3.639
 1932SOL     OW 6694   5.863   2.523   2.981
 1932SOL    HW1 6695   5.832   2.435   2.948
 1932SOL    HW2 6696   5.962   2.521   2.994
 1933SOL     OW 6697   2.324   5.033   0.396
 1933SOL    HW1 6698   2.363   5.119   0.363
 1933SOL    HW2 6699   2.306   5.041   0.494
 1934SOL     OW 6700   0.212   6.239   3.009
 1934SOL    HW1 6701   0.208   6.331   3.049
 1934SOL    HW2 6702   0.306   6.218   2.984
 1935SOL     OW 6703   0.693   1.454   2.373
 1935SOL    HW1 6704   0.630   1.414   2.306
 1935SOL    HW2 6705   0.651   1.452   2.464
 1936SOL     OW 6706   0.202   5.973   4.984
 1936SOL    HW1 6707   0.110   6.009   4.999
 1936SOL    HW2 6708   0.204   5.923   4.897
 1937SOL     OW 6709   5.015   1.825   3.642
 1937SOL    HW1 6710   5.007   1.925   3.634
 1937SOL    HW2 6711   5.102   1.795   3.602
 1938SOL     OW 6712   4.343   0.345   3.685
 1938SOL    HW1 6713   4.325   0.336   3.783
 1938SOL    HW2 6714   4.433   0.306   3.664
 1939SOL     OW 6715   2.482   1.134   4.221
 1939SOL    HW1 6716   2.427   1.217   4.230
 1939SOL    HW2 6717   2.509   1.101   4.311
 1940SOL     OW 6718   6.730   0.975   6.634
 1940SOL    HW1 6719   6.643   1.012   6.668
 1940SOL    HW2 6720   6.718   0.878   6.611
 1941SOL     OW 6721   4.553   4.779   2.578
 1941SOL    HW1 6722   4.490   4.708   2.611
 1941SOL    HW2 6723   4.615   4.741   2.510
 1942SOL     OW 6724   0.175   3.318   2.599
 1942SOL    HW1 6725   0.225   3.402   2.580
 1942SOL    HW2 6726   0.174   3.302   2.698
 1943SOL     OW 6727   3.878   5.199   3.549
 1943SOL    HW1 6728   3.893   5.122   3.610
 1943SOL    HW2 6729   3.943   5.193   3.473
 1944SOL     OW 6730   6.375   6.517   1.962
 1944SOL    HW1 6731   6.346   6.421   1.962
 1944SOL    HW2 6732   6.469   6.523   1.930
 1945SOL     OW 6733   3.474   5.329   2.523
 1945SOL    HW1 6734   3.401   5.281   2.474
 1945SOL    HW2 6735   3.518   5.266   2.586
 1946SOL     OW 6736   1.244   6.477   6.559
 1946SOL    HW1 6737   1.205   6.566   6.537
 1946SOL    HW2 6738   1.319   6.457   6.496
 1947SOL     OW 6739   4.301   1.418   3.988
 1947SOL    HW1 6740   4.298   1.472   3.903
 1947SOL    HW2 6741   4.381   1.358   3.987
 1948SOL     OW 6742   6.572   2.833   5.246
 1948SOL    HW1 6743   6.572   2.763   5.175
 1948SOL    HW2 6744   6.526   2.798   5.328
 1949SOL     OW 6745   4.701   3.717   6.996
 1949SOL    HW1 6746   4.785   3.754   6.956
 1949SOL    HW2 6747   4.666   3.780   0.040
 1950SOL     OW 6748   2.410   4.784   1.004
 1950SOL    HW1 6749   2.321   4.815   1.038
 1950SOL    HW2 6750   2.397   4.710   0.938
 1951SOL     OW 6751   5.552   2.949   6.656
 1951SOL    HW1 6752   5.485   2.998   6.712
 1951SOL    HW2 6753   5.505   2.879   6.602
 1952SOL     OW 6754   2.967   3.166   3.185
 1952SOL    HW1 6755   3.029   3.090   3.167
 1952SOL    HW2 6756   2.981   3.199   3.279
 1953SOL     OW 6757   1.275   2.195   4.784
 1953SOL    HW1 6758   1.180   2.208   4.814
 1953SOL    HW2 6759   1.275   2.160   4.690
 1954SOL     OW 6760   2.507   1.755   3.908
 1954SOL    HW1 6761   2.568   1.761   3.829
 1954SOL    HW2 6762   2.478   1.661   3.922
 1955SOL     OW 6763   6.675   5.506   3.001
 1955SOL    HW1 6764   6.721   5.421   2.977
 1955SOL    HW2 6765   6.582   5.487   3.033
 1956SOL     OW 6766   3.819   6.297   3.746
 1956SOL    HW1 6767   3.871   6.382   3.748
 1956SOL    HW2 6768   3.862   6.230   3.806
 1957SOL     OW 6769   2.461   6.347   5.899
 1957SOL    HW1 6770   2.416   6.422   5.850
 1957SOL    HW2 6771   2.392   6.282   5.931
 1958SOL     OW 6772   4.105   3.577   5.887
 1958SOL    HW1 6773   4.081   3.482   5.866
 1958SOL    HW2 6774   4.171   3.579   5.962
 1959SOL     OW 6775   3.448   0.018   0.832
 1959SOL    HW1 6776   3.407   0.013   0.923
 1959SOL    HW2 6777   3.414   6.969   0.775
 1960SOL     OW 6778   4.603   5.583   3.052
 1960SOL    HW1 6779   4.569   5.493   3.026
 1960SOL    HW2 6780   4.687   5.602   3.002
 1961SOL     OW 6781   6.040   5.264   5.463
 1961SOL    HW1 6782   6.073   5.339   5.406
 1961SOL    HW2 6783   6.047   5.177   5.413
 1962SOL     OW 6784   0.441   6.552   4.369
 1962SOL    HW1 6785   0.461   6.593   4.458
 1962SOL    HW2 6786   0.527   6.532   4.322
 1963SOL     OW 6787   2.761   1.918   3.947
 1963SOL    HW1 6788   2.722   1.992   3.891
 1963SOL    HW2 6789   2.760   1.946   4.043
 1964SOL     OW 6790   6.635   2.606   2.424
 1964SOL    HW1 6791   6.538   2.596   2.445
 1964SOL    HW2 6792   6.650   2.589   2.327
 1965SOL     OW 6793   1.526   6.273   3.339
 1965SOL    HW1 6794   1.579   6.281   3.424
 1965SOL    HW2 6795   1.506   6.364   3.304
 1966SOL     OW 6796   6.852   6.284   0.418
 1966SOL    HW1 6797   6.798   6.317   0.496
 1966SOL    HW2 6798   6.815   6.196   0.388
 1967SOL     OW 6799   7.000   2.561   4.846
 1967SOL    HW1 6800   6.955   2.613   4.774
 1967SOL    HW2 6801   0.008   2.475   4.808
 1968SOL     OW 6802   4.656   5.646   4.708
 1968SOL    HW1 6803   4.676   5.658   4.805
 1968SOL    HW2 6804   4.560   5.618   4.697
 1969SOL     OW 6805   5.953   1.039   1.171
 1969SOL    HW1 6806   6.039   1.066   1.213
 1969SOL    HW2 6807   5.972   0.989   1.086
 1970SOL     OW 6808   2.082   1.313   4.723
 1970SOL    HW1 6809   2.005   1.328   4.662
 1970SOL    HW2 6810   2.155   1.378   4.702
 1971SOL     OW 6811   0.088   1.513   5.611
 1971SOL    HW1 6812   0.124   1.449   5.543
 1971SOL    HW2 6813   0.146   1.594   5.615
 1972SOL     OW 6814   0.908   6.264   4.145
 1972SOL    HW1 6815   1.004   6.293   4.147
 1972SOL    HW2 6816   0.854   6.320   4.206
 1973SOL     OW 6817   3.820   2.637   0.105
 1973SOL    HW1 6818   3.763   2.566   0.063
 1973SOL    HW2 6819   3.909   2.597   0.130
 1974SOL     OW 6820   6.123   6.221   3.975
 1974SOL    HW1 6821   6.045   6.158   3.968
 1974SOL    HW2 6822   6.119   6.287   3.901
 1975SOL     OW 6823   2.322   0.318   3.700
 1975SOL    HW1 6824   2.229   0.322   3.736
 1975SOL    HW2 6825   2.341   0.400   3.646
 1976SOL     OW 6826   6.170   4.345   6.461
 1976SOL    HW1 6827   6.250   4.404   6.473
 1976SOL    HW2 6828   6.095   4.399   6.421
 1977SOL     OW 6829   3.055   2.109   5.275
 1977SOL    HW1 6830   3.130   2.175   5.269
 1977SOL    HW2 6831   3.014   2.097   5.184
 1978SOL     OW 6832   0.424   2.745   5.107
 1978SOL    HW1 6833   0.513   2.732   5.064
 1978SOL    HW2 6834   0.358   2.681   5.068
 1979SOL     OW 6835   6.660   4.310   2.335
 1979SOL    HW1 6836   6.635   4.213   2.325
 1979SOL    HW2 6837   6.760   4.318   2.338
 1980SOL     OW 6838   2.729   0.760   2.814
 1980SOL    HW1 6839   2.770   0.824   2.878
 1980SOL    HW2 6840   2.665   0.701   2.863
 1981SOL     OW 6841   5.630   3.192   2.665
 1981SOL    HW1 6842   5.592   3.258   2.730
 1981SOL    HW2 6843   5.681   3.122   2.714
 1982SOL     OW 6844   0.237   6.792   5.234
 1982SOL    HW1 6845   0.298   6.714   5.247
 1982SOL    HW2 6846   0.210   6.829   5.322
 1983SOL     OW 6847   1.078   5.103   1.377
 1983SOL    HW1 6848   1.136   5.028   1.346
 1983SOL    HW2 6849   1.055   5.089   1.474
 1984SOL     OW 6850   3.858   0.434   5.711
 1984SOL    HW1 6851   3.784   0.483   5.665
 1984SOL    HW2 6852   3.859   0.459   5.807
 1985SOL     OW 6853   1.260   5.076   2.003
 1985SOL    HW1 6854   1.305   4.987   1.993
 1985SOL    HW2 6855   1.327   5.149   1.991
 1986SOL     OW 6856   5.566   2.275   1.569
 1986SOL    HW1 6857   5.476   2.306   1.601
 1986SOL    HW2 6858   5.554   2.208   1.497
 1987SOL     OW 6859   1.703   2.866   0.694
 1987SOL    HW1 6860   1.699   2.963   0.669
 1987SOL    HW2 6861   1.709   2.857   0.794
 1988SOL     OW 6862   5.247   2.461   1.457
 1988SOL    HW1 6863   5.213   2.553   1.477
 1988SOL    HW2 6864   5.272   2.415   1.542
 1989SOL     OW 6865   2.385   2.156   3.177
 1989SOL    HW1 6866   2.291   2.183   3.199
 1989SOL    HW2 6867   2.433   2.130   3.260
 1990SOL     OW 6868   1.399   6.600   2.991
 1990SOL    HW1 6869   1.416   6.697   3.009
 1990SOL    HW2 6870   1.320   6.570   3.045
 1991SOL     OW 6871   5.201   5.611   2.553
 1991SOL    HW1 6872   5.285   5.559   2.571
 1991SOL    HW2 6873   5.223   5.691   2.498
 1992SOL     OW 6874   2.237   6.016   5.479
 1992SOL    HW1 6875   2.175   6.036   5.555
 1992SOL    HW2 6876   2.261   5.919   5.480
 1993SOL     OW 6877   3.604   3.430   3.982
 1993SOL    HW1 6878   3.607   3.513   3.925
 1993SOL    HW2 6879   3.548   3.448   4.063
 1994SOL     OW 6880   6.350   1.966   1.310
 1994SOL    HW1 6881   6.412   1.895   1.344
 1994SOL    HW2 6882   6.279   1.924   1.253
 1995SOL     OW 6883   4.088   2.844   1.738
 1995SOL    HW1 6884   4.046   2.935   1.735
 1995SOL    HW2 6885   4.032   2.780   1.685
 1996SOL     OW 6886   2.206   5.590   6.082
 1996SOL    HW1 6887   2.293   5.633   6.107
 1996SOL    HW2 6888   2.218   5.537   5.998
 1997SOL     OW 6889   6.099   6.450   4.804
 1997SOL    HW1 6890   6.019   6.485   4.854
 1997SOL    HW2 6891   6.173   6.431   4.869
 1998SOL     OW 6892   3.422   5.173   4.758
 1998SOL    HW1 6893   3.447   5.076   4.769
 1998SOL    HW2 6894   3.427   5.218   4.847
 1999SOL     OW 6895   3.349   0.948   2.137
 1999SOL    HW1 6896   3.429   0.986   2.185
 1999SOL    HW2 6897   3.273   0.938   2.202
 2000SOL     OW 6898   3.036   0.934   6.190
 2000SOL    HW1 6899   2.998   0.845   6.213
 2000SOL    HW2 6900   3.036   0.992   6.272
 2001SOL     OW 6901   1.926   3.196   0.019
 2001SOL    HW1 6902   1.953   3.200   6.950
 2001SOL    HW2 6903   2.005   3.171   0.075
 2002SOL     OW 6904   2.076   4.936   5.026
 2002SOL    HW1 6905   2.141   4.860   5.028
 2002SOL    HW2 6906   2.124   5.021   5.046
 2003SOL     OW 6907   6.129   4.012   3.892
 2003SOL    HW1 6908   6.043   4.062   3.878
 2003SOL    HW2 6909   6.206   4.073   3.877
 2004SOL     OW 6910   3.185   6.738   6.573
 2004SOL    HW1 6911   3.154   6.649   6.606
 2004SOL    HW2 6912   3.282   6.749   6.596
 2005SOL     OW 6913   2.592   7.009   5.320
 2005SOL    HW1 6914   2.656   6.998   5.396
 2005SOL    HW2 6915   2.519   6.941   5.328
 2006SOL     OW 6916   5.104   0.220   2.421
 2006SOL    HW1 6917   5.141   0.290   2.482
 2006SOL    HW2 6918   5.089   0.260   2.330
 2007SOL     OW 6919   6.520   5.365   0.391
 2007SOL    HW1 6920   6.509   5.401   0.299
 2007SOL    HW2 6921   6.524   5.265   0.388
 2008SOL     OW 6922   0.063   5.784   5.831
 2008SOL    HW1 6923   0.126   5.855   5.798
 2008SOL    HW2 6924   0.102   5.741   5.913
 2009SOL     OW 6925   1.021   0.048   6.973
 2009SOL    HW1 6926   1.055   0.137   7.003
 2009SOL    HW2 6927   1.098   7.017   6.944
 2010SOL     OW 6928   2.901   0.732   0.829
 2010SOL    HW1 6929   2.839   0.692   0.762
 2010SOL    HW2 6930   2.948   0.659   0.879
 2011SOL     OW 6931   0.083   1.856   4.828
 2011SOL    HW1 6932   0.118   1.876   4.919
 2011SOL    HW2 6933   7.010   1.861   4.829
 2012SOL     OW 6934   0.137   3.226   2.333
 2012SOL    HW1 6935   0.040   3.211   2.313
 2012SOL    HW2 6936   0.149   3.240   2.431
 2013SOL     OW 6937   3.371   2.376   1.753
 2013SOL    HW1 6938   3.415   2.314   1.818
 2013SOL    HW2 6939   3.440   2.414   1.692
 2014SOL     OW 6940   3.828   4.848   3.484
 2014SOL    HW1 6941   3.742   4.816   3.445
 2014SOL    HW2 6942   3.895   4.861   3.411
 2015SOL     OW 6943   2.974   5.148   6.867
 2015SOL    HW1 6944   2.918   5.066   6.879
 2015SOL    HW2 6945   3.029   5.164   6.949
 2016SOL     OW 6946   6.487   5.535   5.212
 2016SOL    HW1 6947   6.441   5.452   5.243
 2016SOL    HW2 6948   6.545   5.513   5.134
 2017SOL     OW 6949   2.170   5.046   1.899
 2017SOL    HW1 6950   2.252   5.098   1.925
 2017SOL    HW2 6951   2.184   4.949   1.919
 2018SOL     OW 6952   0.495   4.566   4.939
 2018SOL    HW1 6953   0.593   4.582   4.930
 2018SOL    HW2 6954   0.468   4.494   4.875
 2019SOL     OW 6955   5.657   0.936   2.628
 2019SOL    HW1 6956   5.738   0.995   2.623
 2019SOL    HW2 6957   5.672   0.855   2.571
 2020SOL     OW 6958   2.148   5.234   3.210
 2020SOL    HW1 6959   2.085   5.238   3.288
 2020SOL    HW2 6960   2.105   5.277   3.131
 2021SOL     OW 6961   1.553   6.345   1.571
 2021SOL    HW1 6962   1.641   6.353   1.524
 2021SOL    HW2 6963   1.482   6.324   1.504
 2022SOL     OW 6964   3.999   5.401   1.552
 2022SOL    HW1 6965   3.902   5.377   1.556
 2022SOL    HW2 6966   4.050   5.340   1.613
 2023SOL     OW 6967   0.136   2.589   5.983
 2023SOL    HW1 6968   0.212   2.528   6.005
 2023SOL    HW2 6969   0.170   2.683   5.978
 2024SOL     OW 6970   5.495   6.564   3.598
 2024SOL    HW1 6971   5.531   6.647   3.555
 2024SOL    HW2 6972   5.567   6.521   3.653
 2025SOL     OW 6973   6.251   1.060   0.972
 2025SOL    HW1 6974   6.246   1.061   1.072
 2025SOL    HW2 6975   6.333   1.012   0.943
 2026SOL     OW 6976   2.340   1.992   4.943
 2026SOL    HW1 6977   2.258   2.004   4.998
 2026SOL    HW2 6978   2.316   1.956   4.853
 2027SOL     OW 6979   6.384   6.952   2.206
 2027SOL    HW1 6980   6.383   6.956   2.306
 2027SOL    HW2 6981   6.413   0.014   2.170
 2028SOL     OW 6982   3.816   4.208   5.848
 2028SOL    HW1 6983   3.734   4.152   5.851
 2028SOL    HW2 6984   3.793   4.299   5.813
 2029SOL     OW 6985   2.150   0.434   6.726
 2029SOL    HW1 6986   2.075   0.499   6.738
 2029SOL    HW2 6987   2.181   0.402   6.815
 2030SOL     OW 6988   2.198   2.782   2.791
 2030SOL    HW1 6989   2.147   2.716   2.737
 2030SOL    HW2 6990   2.295   2.756   2.793
 2031SOL     OW 6991   6.099   6.918   2.456
 2031SOL    HW1 6992   6.059   6.969   2.532
 2031SOL    HW2 6993   6.065   6.956   2.369
 2032SOL     OW 6994   4.448   6.312   2.364
 2032SOL    HW1 6995   4.428   6.214   2.371
 2032SOL    HW2 6996   4.401   6.361   2.437
 2033SOL     OW 6997   0.385   4.958   0.053
 2033SOL    HW1 6998   0.359   4.930   0.146
 2033SOL    HW2 6999   0.374   5.057   0.044
 2034SOL     OW 7000   1.971   5.494   3.877
 2034SOL    HW1 7001   1.879   5.517   3.848
 2034SOL    HW2 7002   1.974   5.400   3.910
 2035SOL     OW 7003   0.722   0.860   2.794
 2035SOL    HW1 7004   0.787   0.914   2.740
 2035SOL    HW2 7005   0.753   0.765   2.799
 2036SOL     OW 7006   1.161   4.071   2.030
 2036SOL    HW1 7007   1.082   4.047   2.086
 2036SOL    HW2 7008   1.130   4.104   1.941
 2037SOL     OW 7009   1.115   2.940   5.952
 2037SOL    HW1 7010   1.066   2.875   6.010
 2037SOL    HW2 7011   1.058   2.963   5.872
 2038SOL     OW 7012   1.752   6.338   5.022
 2038SOL    HW1 7013   1.835   6.387   5.049
 2038SOL    HW2 7014   1.776   6.264   4.959
 2039SOL     OW 7015   1.239   5.067   1.679
 2039SOL    HW1 7016   1.147   5.078   1.643
 2039SOL    HW2 7017   1.238   5.077   1.778
 2040SOL     OW 7018   3.847   3.085   4.582
 2040SOL    HW1 7019   3.880   3.159   4.640
 2040SOL    HW2 7020   3.810   3.011   4.639
 2041SOL     OW 7021   5.152   3.212   0.444
 2041SOL    HW1 7022   5.114   3.123   0.416
 2041SOL    HW2 7023   5.220   3.197   0.516
 2042SOL     OW 7024   3.643   6.731   0.291
 2042SOL    HW1 7025   3.623   6.639   0.326
 2042SOL    HW2 7026   3.742   6.747   0.295
 2043SOL     OW 7027   4.905   5.100   2.571
 2043SOL    HW1 7028   4.940   5.138   2.485
 2043SOL    HW2 7029   4.920   5.001   2.571
 2044SOL     OW 7030   6.061   0.893   1.764
 2044SOL    HW1 7031   5.965   0.870   1.782
 2044SOL    HW2 7032   6.066   0.958   1.688
 2045SOL     OW 7033   3.571   6.723   5.450
 2045SOL    HW1 7034   3.634   6.735   5.527
 2045SOL    HW2 7035   3.477   6.722   5.484
 2046SOL     OW 7036   6.314   0.826   5.474
 2046SOL    HW1 7037   6.215   0.828   5.459
 2046SOL    HW2 7038   6.338   0.892   5.546
 2047SOL     OW 7039   5.597   3.329   0.229
 2047SOL    HW1 7040   5.593   3.407   0.292
 2047SOL    HW2 7041   5.514   3.273   0.240
 2048SOL     OW 7042   4.731   6.353   5.267
 2048SOL    HW1 7043   4.693   6.268   5.231
 2048SOL    HW2 7044   4.690   6.372   5.357
 2049SOL     OW 7045   5.643   5.751   6.868
 2049SOL    HW1 7046   5.666   5.654   6.875
 2049SOL    HW2 7047   5.683   5.788   6.784
 2050SOL     OW 7048   5.705   0.895   3.888
 2050SOL    HW1 7049   5.800   0.864   3.880
 2050SOL    HW2 7050   5.655   0.870   3.805
 2051SOL     OW 7051   3.048   6.013   0.907
 2051SOL    HW1 7052   3.024   5.924   0.869
 2051SOL    HW2 7053   3.009   6.022   0.998
 2052SOL     OW 7054   1.056   2.203   1.142
 2052SOL    HW1 7055   1.017   2.220   1.052
 2052SOL    HW2 7056   1.142   2.253   1.152
 2053SOL     OW 7057   5.266   0.554   0.131
 2053SOL    HW1 7058   5.295   0.650   0.132
 2053SOL    HW2 7059   5.238   0.529   0.038
 2054SOL     OW 7060   0.725   2.745   0.445
 2054SOL    HW1 7061   0.758   2.660   0.406
 2054SOL    HW2 7062   0.742   2.820   0.381
 2055SOL     OW 7063   6.274   1.040   4.630
 2055SOL    HW1 7064   6.228   1.126   4.609
 2055SOL    HW2 7065   6.355   1.058   4.685
 2056SOL     OW 7066   6.831   6.914   2.094
 2056SOL    HW1 7067   6.831   6.992   2.157
 2056SOL    HW2 7068   6.873   6.835   2.139
 2057SOL     OW 7069   4.827   3.086   4.010
 2057SOL    HW1 7070   4.834   3.044   3.919
 2057SOL    HW2 7071   4.799   3.016   4.076
 2058SOL     OW 7072   1.108   1.005   1.633
 2058SOL    HW1 7073   1.026   0.948   1.639
 2058SOL    HW2 7074   1.168   0.985   1.710
 2059SOL     OW 7075   1.832   0.132   0.014
 2059SOL    HW1 7076   1.913   0.100   0.063
 2059SOL    HW2 7077   1.752   0.084   0.048
 2060SOL     OW 7078   0.904   4.877   3.434
 2060SOL    HW1 7079   0.907   4.937   3.514
 2060SOL    HW2 7080   0.922   4.931   3.352
 2061SOL     OW 7081   1.198   0.573   0.295
 2061SOL    HW1 7082   1.212   0.597   0.199
 2061SOL    HW2 7083   1.280   0.594   0.347
 2062SOL     OW 7084   3.788   0.288   3.583
 2062SOL    HW1 7085   3.777   0.210   3.522
 2062SOL    HW2 7086   3.777   0.373   3.531
 2063SOL     OW 7087   2.519   3.109   1.130
 2063SOL    HW1 7088   2.556   3.166   1.203
 2063SOL    HW2 7089   2.551   3.015   1.140
 2064SOL     OW 7090   0.602   1.643   1.035
 2064SOL    HW1 7091   0.610   1.606   1.127
 2064SOL    HW2 7092   0.509   1.679   1.021
 2065SOL     OW 7093   0.118   3.183   3.167
 2065SOL    HW1 7094   0.131   3.173   3.265
 2065SOL    HW2 7095   0.154   3.271   3.138
 2066SOL     OW 7096   0.511   5.883   3.440
 2066SOL    HW1 7097   0.597   5.856   3.395
 2066SOL    HW2 7098   0.435   5.870   3.377
 2067SOL     OW 7099   6.761   0.425   0.919
 2067SOL    HW1 7100   6.671   0.443   0.879
 2067SOL    HW2 7101   6.821   0.387   0.850
 2068SOL     OW 7102   2.402   2.111   5.440
 2068SOL    HW1 7103   2.486   2.060   5.457
 2068SOL    HW2 7104   2.371   2.154   5.525
 2069SOL     OW 7105   1.936   1.986   1.851
 2069SOL    HW1 7106   1.910   2.005   1.757
 2069SOL    HW2 7107   1.979   1.896   1.857
 2070SOL     OW 7108   0.623   1.792   2.662
 2070SOL    HW1 7109   0.569   1.809   2.580
 2070SOL    HW2 7110   0.692   1.864   2.672
 2071SOL     OW 7111   2.897   6.184   5.541
 2071SOL    HW1 7112   2.823   6.251   5.535
 2071SOL    HW2 7113   2.876   6.118   5.613
 2072SOL     OW 7114   5.517   4.048   2.772
 2072SOL    HW1 7115   5.423   4.052   2.805
 2072SOL    HW2 7116   5.526   4.104   2.690
 2073SOL     OW 7117   3.495   6.750   4.968
 2073SOL    HW1 7118   3.542   6.709   5.047
 2073SOL    HW2 7119   3.547   6.830   4.938
 2074SOL     OW 7120   4.607   1.868   3.490
 2074SOL    HW1 7121   4.686   1.808   3.501
 2074SOL    HW2 7122   4.615   1.919   3.404
 2075SOL     OW 7123   3.906   2.770   5.859
 2075SOL    HW1 7124   3.809   2.778   5.837
 2075SOL    HW2 7125   3.959   2.830   5.799
 2076SOL     OW 7126   4.892   6.473   0.497
 2076SOL    HW1 7127   4.868   6.513   0.408
 2076SOL    HW2 7128   4.860   6.379   0.500
 2077SOL     OW 7129   3.721   1.260   5.016
 2077SOL    HW1 7130   3.729   1.281   4.918
 2077SOL    HW2 7131   3.749   1.340   5.069
 2078SOL     OW 7132   4.021   6.548   3.785
 2078SOL    HW1 7133   4.105   6.589   3.823
 2078SOL    HW2 7134   3.942   6.580   3.837
 2079SOL     OW 7135   5.218   6.935   3.725
 2079SOL    HW1 7136   5.264   6.869   3.784
 2079SOL    HW2 7137   5.197   7.018   3.778
 2080SOL     OW 7138   3.257   1.842   2.867
 2080SOL    HW1 7139   3.261   1.822   2.965
 2080SOL    HW2 7140   3.211   1.930   2.853
 2081SOL     OW 7141   1.237   5.675   3.320
 2081SOL    HW1 7142   1.325   5.704   3.357
 2081SOL    HW2 7143   1.170   5.748   3.332
 2082SOL     OW 7144   4.527   0.810   2.788
 2082SOL    HW1 7145   4.612   0.861   2.795
 2082SOL    HW2 7146   4.462   0.862   2.732
 2083SOL     OW 7147   3.927   4.609   5.888
 2083SOL    HW1 7148   3.857   4.607   5.817
 2083SOL    HW2 7149   4.017   4.621   5.846
 2084SOL     OW 7150   0.337   2.339   3.368
 2084SOL    HW1 7151   0.271   2.406   3.401
 2084SOL    HW2 7152   0.426   2.383   3.356
 2085SOL     OW 7153   6.078   6.854   0.367
 2085SOL    HW1 7154   6.062   6.821   0.460
 2085SOL    HW2 7155   6.122   6.944   0.371
 2086SOL     OW 7156   3.487   5.967   6.760
 2086SOL    HW1 7157   3.481   6.039   6.691
 2086SOL    HW2 7158   3.452   6.002   6.847
 2087SOL     OW 7159   6.113   5.445   2.772
 2087SOL    HW1 7160   6.135   5.514   2.841
 2087SOL    HW2 7161   6.027   5.469   2.727
 2088SOL     OW 7162   2.156   6.557   0.906
 2088SOL    HW1 7163   2.118   6.491   0.842
 2088SOL    HW2 7164   2.132   6.530   1.000
 2089SOL     OW 7165   2.287   0.978   6.799
 2089SOL    HW1 7166   2.218   0.988   6.870
 2089SOL    HW2 7167   2.375   0.957   6.841
 2090SOL     OW 7168   2.932   3.512   3.425
 2090SOL    HW1 7169   2.983   3.552   3.349
 2090SOL    HW2 7170   2.920   3.581   3.497
 2091SOL     OW 7171   2.397   4.041   1.472
 2091SOL    HW1 7172   2.410   4.104   1.396
 2091SOL    HW2 7173   2.479   4.040   1.530
 2092SOL     OW 7174   6.051   0.139   0.436
 2092SOL    HW1 7175   6.144   0.128   0.469
 2092SOL    HW2 7176   5.987   0.123   0.511
 2093SOL     OW 7177   1.283   1.308   1.897
 2093SOL    HW1 7178   1.364   1.291   1.952
 2093SOL    HW2 7179   1.290   1.398   1.854
 2094SOL     OW 7180   0.356   0.871   2.387
 2094SOL    HW1 7181   0.324   0.923   2.307
 2094SOL    HW2 7182   0.278   0.853   2.447
 2095SOL     OW 7183   6.468   4.239   5.050
 2095SOL    HW1 7184   6.436   4.176   5.120
 2095SOL    HW2 7185   6.560   4.271   5.073
 2096SOL     OW 7186   5.015   4.413   3.632
 2096SOL    HW1 7187   5.003   4.357   3.715
 2096SOL    HW2 7188   4.929   4.458   3.610
 2097SOL     OW 7189   6.851   3.556   5.335
 2097SOL    HW1 7190   6.880   3.571   5.240
 2097SOL    HW2 7191   6.829   3.460   5.348
 2098SOL     OW 7192   4.580   0.301   4.483
 2098SOL    HW1 7193   4.622   0.278   4.571
 2098SOL    HW2 7194   4.640   0.362   4.433
 2099SOL     OW 7195   2.841   1.665   3.992
 2099SOL    HW1 7196   2.938   1.653   4.017
 2099SOL    HW2 7197   2.819   1.762   3.988
 2100SOL     OW 7198   4.753   4.297   5.590
 2100SOL    HW1 7199   4.801   4.246   5.661
 2100SOL    HW2 7200   4.707   4.233   5.529
 2101SOL     OW 7201   5.583   0.149   1.778
 2101SOL    HW1 7202   5.503   0.129   1.721
 2101SOL    HW2 7203   5.567   0.117   1.871
 2102SOL     OW 7204   7.021   5.167   0.955
 2102SOL    HW1 7205   0.065   5.163   1.025
 2102SOL    HW2 7206   6.967   5.250   0.965
 2103SOL     OW 7207   3.696   3.675   6.555
 2103SOL    HW1 7208   3.771   3.657   6.619
 2103SOL    HW2 7209   3.734   3.702   6.466
 2104SOL     OW 7210   0.415   5.079   6.395
 2104SOL    HW1 7211   0.460   5.159   6.357
 2104SOL    HW2 7212   0.402   5.010   6.323
 2105SOL     OW 7213   4.885   6.321   2.011
 2105SOL    HW1 7214   4.976   6.281   2.024
 2105SOL    HW2 7215   4.819   6.248   1.994
 2106SOL     OW 7216   6.451   6.568   6.683
 2106SOL    HW1 7217   6.432   6.477   6.644
 2106SOL    HW2 7218   6.375   6.630   6.663
 2107SOL     OW 7219   2.485   5.126   6.812
 2107SOL    HW1 7220   2.439   5.139   6.900
 2107SOL    HW2 7221   2.548   5.201   6.796
 2108SOL     OW 7222   5.484   4.657   6.729
 2108SOL    HW1 7223   5.501   4.716   6.650
 2108SOL    HW2 7224   5.552   4.675   6.800
 2109SOL     OW 7225   5.405   5.638   2.825
 2109SOL    HW1 7226   5.408   5.718   2.766
 2109SOL    HW2 7227   5.340   5.654   2.900
 2110SOL     OW 7228   1.279   5.369   5.830
 2110SOL    HW1 7229   1.370   5.409   5.819
 2110SOL    HW2 7230   1.285   5.289   5.891
 2111SOL     OW 7231   1.703   1.691   6.734
 2111SOL    HW1 7232   1.719   1.624   6.663
 2111SOL    HW2 7233   1.693   1.782   6.693
 2112SOL     OW 7234   5.062   3.875   0.264
 2112SOL    HW1 7235   5.112   3.898   0.181
 2112SOL    HW2 7236   4.977   3.829   0.240
 2113SOL     OW 7237   6.582   1.295   4.069
 2113SOL    HW1 7238   6.647   1.335   4.133
 2113SOL    HW2 7239   6.591   1.340   3.980
 2114SOL     OW 7240   1.341   3.756   6.164
 2114SOL    HW1 7241   1.304   3.750   6.257
 2114SOL    HW2 7242   1.400   3.677   6.147
 2115SOL     OW 7243   3.975   5.082   1.643
 2115SOL    HW1 7244   4.047   5.132   1.691
 2115SOL    HW2 7245   3.890   5.134   1.647
 2116SOL     OW 7246   0.831   4.129   4.356
 2116SOL    HW1 7247   0.750   4.174   4.318
 2116SOL    HW2 7248   0.892   4.199   4.395
 2117SOL     OW 7249   6.096   5.801   5.962
 2117SOL    HW1 7250   6.149   5.852   6.030
 2117SOL    HW2 7251   6.156   5.734   5.917
 2118SOL     OW 7252   0.270   2.974   2.478
 2118SOL    HW1 7253   0.326   2.902   2.437
 2118SOL    HW2 7254   0.188   2.989   2.423
 2119SOL     OW 7255   3.964   6.921   0.024
 2119SOL    HW1 7256   4.051   6.877   0.042
 2119SOL    HW2 7257   3.945   6.918   6.952
 2120SOL     OW 7258   6.477   4.016   2.108
 2120SOL    HW1 7259   6.478   4.077   2.029
 2120SOL    HW2 7260   6.547   4.045   2.173
 2121SOL     OW 7261   0.815   3.648   4.315
 2121SOL    HW1 7262   0.913   3.664   4.327
 2121SOL    HW2 7263   0.764   3.728   4.347
 2122SOL     OW 7264   3.801   5.390   5.620
 2122SOL    HW1 7265   3.717   5.443   5.634
 2122SOL    HW2 7266   3.782   5.315   5.557
 2123SOL     OW 7267   3.955   6.200   3.334
 2123SOL    HW1 7268   3.902   6.285   3.339
 2123SOL    HW2 7269   4.052   6.220   3.348
 2124SOL     OW 7270   2.375   2.443   1.762
 2124SOL    HW1 7271   2.412   2.410   1.675
 2124SOL    HW2 7272   2.327   2.369   1.809
 2125SOL     OW 7273   5.162   5.962   6.812
 2125SOL    HW1 7274   5.238   5.972   6.748
 2125SOL    HW2 7275   5.199   5.953   6.905
 2126SOL     OW 7276   3.023   1.582   1.354
 2126SOL    HW1 7277   2.974   1.601   1.270
 2126SOL    HW2 7278   2.959   1.578   1.431
 2127SOL     OW 7279   5.824   2.401   4.576
 2127SOL    HW1 7280   5.894   2.457   4.621
 2127SOL    HW2 7281   5.867   2.341   4.509
 2128SOL     OW 7282   1.154   3.502   4.785
 2128SOL    HW1 7283   1.197   3.576   4.837
 2128SOL    HW2 7284   1.055   3.506   4.797
 2129SOL     OW 7285   4.457   2.393   5.032
 2129SOL    HW1 7286   4.361   2.415   5.016
 2129SOL    HW2 7287   4.474   2.389   5.131
 2130SOL     OW 7288   4.369   6.330   2.645
 2130SOL    HW1 7289   4.399   6.235   2.639
 2130SOL    HW2 7290   4.275   6.333   2.680
 2131SOL     OW 7291   4.803   1.816   6.688
 2131SOL    HW1 7292   4.830   1.735   6.740
 2131SOL    HW2 7293   4.841   1.810   6.595
 2132SOL     OW 7294   0.618   2.799   1.603
 2132SOL    HW1 7295   0.637   2.719   1.546
 2132SOL    HW2 7296   0.564   2.865   1.550
 2133SOL     OW 7297   2.365   4.262   5.745
 2133SOL    HW1 7298   2.327   4.175   5.775
 2133SOL    HW2 7299   2.423   4.300   5.817
 2134SOL     OW 7300   0.217   6.842   0.685
 2134SOL    HW1 7301   0.265   6.838   0.598
 2134SOL    HW2 7302   0.180   6.934   0.698
 2135SOL     OW 7303   6.419   5.247   5.695
 2135SOL    HW1 7304   6.424   5.157   5.651
 2135SOL    HW2 7305   6.509   5.291   5.689
 2136SOL     OW 7306   1.799   5.071   0.013
 2136SOL    HW1 7307   1.722   5.112   6.990
 2136SOL    HW2 7308   1.778   4.975   0.033
 2137SOL     OW 7309   1.644   6.263   3.592
 2137SOL    HW1 7310   1.740   6.286   3.576
 2137SOL    HW2 7311   1.634   6.221   3.682
 2138SOL     OW 7312   4.900   2.110   1.690
 2138SOL    HW1 7313   4.802   2.092   1.702
 2138SOL    HW2 7314   4.927   2.086   1.597
 2139SOL     OW 7315   2.473   6.221   5.466
 2139SOL    HW1 7316   2.384   6.177   5.473
 2139SOL    HW2 7317   2.534   6.167   5.408
 2140SOL     OW 7318   2.089   2.520   3.378
 2140SOL    HW1 7319   2.082   2.459   3.299
 2140SOL    HW2 7320   2.124   2.609   3.348
 2141SOL     OW 7321   6.602   3.147   2.787
 2141SOL    HW1 7322   6.507   3.174   2.776
 2141SOL    HW2 7323   6.656   3.225   2.819
 2142SOL     OW 7324   2.161   1.556   1.717
 2142SOL    HW1 7325   2.089   1.488   1.703
 2142SOL    HW2 7326   2.213   1.568   1.632
 2143SOL     OW 7327   6.899   5.255   5.524
 2143SOL    HW1 7328   6.873   5.233   5.430
 2143SOL    HW2 7329   6.993   5.287   5.527
 2144SOL     OW 7330   6.065   4.539   2.935
 2144SOL    HW1 7331   6.053   4.440   2.919
 2144SOL    HW2 7332   6.067   4.557   3.033
 2145SOL     OW 7333   3.475   1.009   3.099
 2145SOL    HW1 7334   3.506   0.963   3.017
 2145SOL    HW2 7335   3.416   1.086   3.074
 2146SOL     OW 7336   1.776   1.421   0.080
 2146SOL    HW1 7337   1.816   1.511   0.061
 2146SOL    HW2 7338   1.699   1.405   0.018
 2147SOL     OW 7339   5.855   0.046   5.056
 2147SOL    HW1 7340   5.883   7.019   5.136
 2147SOL    HW2 7341   5.786   7.023   5.005
 2148SOL     OW 7342   2.117   2.371   5.268
 2148SOL    HW1 7343   2.180   2.294   5.258
 2148SOL    HW2 7344   2.168   2.454   5.290
 2149SOL     OW 7345   0.041   6.715   0.064
 2149SOL    HW1 7346   7.005   6.637   0.058
 2149SOL    HW2 7347   0.032   6.771   7.007
 2150SOL     OW 7348   1.132   2.323   0.256
 2150SOL    HW1 7349   1.133   2.262   0.176
 2150SOL    HW2 7350   1.201   2.293   0.322
 2151SOL     OW 7351   0.801   5.362   0.050
 2151SOL    HW1 7352   0.750   5.388   0.132
 2151SOL    HW2 7353   0.759   5.403   6.996
 2152SOL     OW 7354   5.258   6.163   3.841
 2152SOL    HW1 7355   5.226   6.228   3.773
 2152SOL    HW2 7356   5.330   6.205   3.896
 2153SOL     OW 7357   4.593   0.256   3.624
 2153SOL    HW1 7358   4.640   0.293   3.544
 2153SOL    HW2 7359   4.646   0.180   3.662
 2154SOL     OW 7360   2.273   6.482   2.008
 2154SOL    HW1 7361   2.340   6.481   1.933
 2154SOL    HW2 7362   2.228   6.571   2.010
 2155SOL     OW 7363   5.243   0.848   0.522
 2155SOL    HW1 7364   5.231   0.905   0.603
 2155SOL    HW2 7365   5.194   0.889   0.445
 2156SOL     OW 7366   6.597   1.745   4.232
 2156SOL    HW1 7367   6.656   1.818   4.267
 2156SOL    HW2 7368   6.525   1.785   4.176
 2157SOL     OW 7369   4.311   6.114   3.142
 2157SOL    HW1 7370   4.310   6.114   3.242
 2157SOL    HW2 7371   4.404   6.132   3.109
 2158SOL     OW 7372   3.389   0.346   0.245
 2158SOL    HW1 7373   3.314   0.339   0.311
 2158SOL    HW2 7374   3.464   0.285   0.273
 2159SOL     OW 7375   0.938   2.265   5.789
 2159SOL    HW1 7376   0.935   2.237   5.885
 2159SOL    HW2 7377   1.001   2.206   5.739
 2160SOL     OW 7378   5.606   6.659   6.587
 2160SOL    HW1 7379   5.530   6.685   6.528
 2160SOL    HW2 7380   5.656   6.741   6.615
 2161SOL     OW 7381   1.395   3.487   0.068
 2161SOL    HW1 7382   1.461   3.456   0.136
 2161SOL    HW2 7383   1.346   3.567   0.102
 2162SOL     OW 7384   1.591   6.683   0.304
 2162SOL    HW1 7385   1.617   6.724   0.216
 2162SOL    HW2 7386   1.656   6.711   0.374
 2163SOL     OW 7387   0.765   3.204   4.443
 2163SOL    HW1 7388   0.844   3.141   4.446
 2163SOL    HW2 7389   0.709   3.183   4.363
 2164SOL     OW 7390   1.541   4.721   1.757
 2164SOL    HW1 7391   1.631   4.764   1.744
 2164SOL    HW2 7392   1.550   4.622   1.748
 2165SOL     OW 7393   6.193   1.895   5.673
 2165SOL    HW1 7394   6.179   1.981   5.721
 2165SOL    HW2 7395   6.253   1.836   5.728
 2166SOL     OW 7396   6.543   2.292   2.036
 2166SOL    HW1 7397   6.478   2.368   2.042
 2166SOL    HW2 7398   6.567   2.262   2.128
 2167SOL     OW 7399   1.525   2.300   2.841
 2167SOL    HW1 7400   1.503   2.373   2.777
 2167SOL    HW2 7401   1.560   2.340   2.926
 2168SOL     OW 7402   1.260   2.153   3.864
 2168SOL    HW1 7403   1.356   2.127   3.881
 2168SOL    HW2 7404   1.258   2.236   3.809
 2169SOL     OW 7405   6.307   6.945   0.796
 2169SOL    HW1 7406   6.338   6.880   0.728
 2169SOL    HW2 7407   6.207   6.941   0.804
 2170SOL     OW 7408   2.018   2.915   6.121
 2170SOL    HW1 7409   1.949   2.867   6.066
 2170SOL    HW2 7410   2.103   2.923   6.069
 2171SOL     OW 7411   5.806   6.944   1.576
 2171SOL    HW1 7412   5.765   6.968   1.664
 2171SOL    HW2 7413   5.862   7.020   1.543
 2172SOL     OW 7414   2.567   2.569   4.955
 2172SOL    HW1 7415   2.572   2.494   4.889
 2172SOL    HW2 7416   2.651   2.623   4.951
 2173SOL     OW 7417   4.172   0.751   4.815
 2173SOL    HW1 7418   4.155   0.816   4.741
 2173SOL    HW2 7419   4.249   0.784   4.870
 2174SOL     OW 7420   5.169   6.911   5.475
 2174SOL    HW1 7421   5.239   6.896   5.405
 2174SOL    HW2 7422   5.212   6.907   5.566
 2175SOL     OW 7423   3.212   2.630   5.767
 2175SOL    HW1 7424   3.264   2.636   5.852
 2175SOL    HW2 7425   3.139   2.699   5.768
 2176SOL     OW 7426   6.914   1.773   2.802
 2176SOL    HW1 7427   6.905   1.849   2.866
 2176SOL    HW2 7428   7.009   1.768   2.770
 2177SOL     OW 7429   0.753   0.401   4.647
 2177SOL    HW1 7430   0.840   0.375   4.606
 2177SOL    HW2 7431   0.771   0.461   4.726
 2178SOL     OW 7432   1.960   3.520   2.044
 2178SOL    HW1 7433   2.041   3.474   2.007
 2178SOL    HW2 7434   1.896   3.452   2.080
 2179SOL     OW 7435   1.324   4.187   6.576
 2179SOL    HW1 7436   1.342   4.209   6.480
 2179SOL    HW2 7437   1.406   4.146   6.617
 2180SOL     OW 7438   0.224   5.126   2.521
 2180SOL    HW1 7439   0.166   5.096   2.596
 2180SOL    HW2 7440   0.310   5.075   2.523
 2181SOL     OW 7441   4.347   4.843   2.910
 2181SOL    HW1 7442   4.288   4.812   2.836
 2181SOL    HW2 7443   4.333   4.785   2.991
 2182SOL     OW 7444   0.082   6.727   1.040
 2182SOL    HW1 7445   7.022   6.704   1.085
 2182SOL    HW2 7446   0.083   6.687   0.948
 2183SOL     OW 7447   4.068   2.782   6.716
 2183SOL    HW1 7448   4.013   2.842   6.774
 2183SOL    HW2 7449   4.056   2.809   6.621
 2184SOL     OW 7450   6.351   2.160   6.764
 2184SOL    HW1 7451   6.450   2.157   6.772
 2184SOL    HW2 7452   6.314   2.067   6.765
 2185SOL     OW 7453   6.968   1.734   6.290
 2185SOL    HW1 7454   6.911   1.675   6.347
 2185SOL    HW2 7455   6.928   1.742   6.199
 2186SOL     OW 7456   6.906   6.200   5.967
 2186SOL    HW1 7457   6.810   6.170   5.967
 2186SOL    HW2 7458   6.923   6.254   6.049
 2187SOL     OW 7459   5.893   3.599   1.456
 2187SOL    HW1 7460   5.876   3.545   1.373
 2187SOL    HW2 7461   5.986   3.581   1.488
 2188SOL     OW 7462   3.002   1.869   0.930
 2188SOL    HW1 7463   3.082   1.826   0.887
 2188SOL    HW2 7464   3.033   1.945   0.988
 2189SOL     OW 7465   2.272   0.654   2.236
 2189SOL    HW1 7466   2.192   0.714   2.239
 2189SOL    HW2 7467   2.338   0.691   2.171
 2190SOL     OW 7468   6.850   4.727   1.649
 2190SOL    HW1 7469   6.809   4.697   1.735
 2190SOL    HW2 7470   6.872   4.648   1.593
 2191SOL     OW 7471   3.274   0.302   6.584
 2191SOL    HW1 7472   3.287   0.216   6.534
 2191SOL    HW2 7473   3.235   0.370   6.522
 2192SOL     OW 7474   5.207   1.979   1.827
 2192SOL    HW1 7475   5.136   1.960   1.759
 2192SOL    HW2 7476   5.166   2.024   1.906
 2193SOL     OW 7477   1.926   0.235   5.844
 2193SOL    HW1 7478   1.856   0.277   5.786
 2193SOL    HW2 7479   1.980   0.307   5.888
 2194SOL     OW 7480   1.041   4.712   5.414
 2194SOL    HW1 7481   1.082   4.803   5.421
 2194SOL    HW2 7482   1.072   4.655   5.490
 2195SOL     OW 7483   0.535   4.225   5.457
 2195SOL    HW1 7484   0.559   4.146   5.401
 2195SOL    HW2 7485   0.579   4.217   5.546
 2196SOL     OW 7486   3.838   1.174   6.644
 2196SOL    HW1 7487   3.807   1.139   6.556
 2196SOL    HW2 7488   3.787   1.257   6.668
 2197SOL     OW 7489   4.006   4.946   6.845
 2197SOL    HW1 7490   4.019   4.867   6.904
 2197SOL    HW2 7491   3.912   4.948   6.810
 2198SOL     OW 7492   1.332   0.692   6.156
 2198SOL    HW1 7493   1.428   0.664   6.159
 2198SOL    HW2 7494   1.309   0.739   6.240
 2199SOL     OW 7495   4.570   6.099   3.271
 2199SOL    HW1 7496   4.610   6.040   3.341
 2199SOL    HW2 7497   4.562   6.192   3.307
 2200SOL     OW 7498   2.738   1.827   5.215
 2200SOL    HW1 7499   2.683   1.867   5.142
 2200SOL    HW2 7500   2.687   1.753   5.259
 2201SOL     OW 7501   5.845   3.308   4.414
 2201SOL    HW1 7502   5.850   3.251   4.332
 2201SOL    HW2 7503   5.873   3.254   4.494
 2202SOL     OW 7504   4.791   0.299   4.690
 2202SOL    HW1 7505   4.880   0.264   4.719
 2202SOL    HW2 7506   4.805   0.373   4.624
 2203SOL     OW 7507   2.040   6.116   1.025
 2203SOL    HW1 7508   1.957   6.064   1.048
 2203SOL    HW2 7509   2.035   6.147   0.931
 2204SOL     OW 7510   4.851   3.683   0.212
 2204SOL    HW1 7511   4.753   3.699   0.202
 2204SOL    HW2 7512   4.878   3.602   0.161
 2205SOL     OW 7513   5.118   5.192   1.299
 2205SOL    HW1 7514   5.088   5.249   1.222
 2205SOL    HW2 7515   5.092   5.235   1.385
 2206SOL     OW 7516   3.026   3.293   5.195
 2206SOL    HW1 7517   3.106   3.354   5.199
 2206SOL    HW2 7518   3.057   3.200   5.171
 2207SOL     OW 7519   4.678   4.690   1.188
 2207SOL    HW1 7520   4.640   4.664   1.099
 2207SOL    HW2 7521   4.777   4.673   1.189
 2208SOL     OW 7522   6.637   5.892   3.023
 2208SOL    HW1 7523   6.705   5.962   3.006
 2208SOL    HW2 7524   6.631   5.831   2.943
 2209SOL     OW 7525   2.380   5.701   3.850
 2209SOL    HW1 7526   2.350   5.693   3.945
 2209SOL    HW2 7527   2.300   5.708   3.790
 2210SOL     OW 7528   5.319   6.510   2.140
 2210SOL    HW1 7529   5.236   6.541   2.187
 2210SOL    HW2 7530   5.336   6.414   2.164
 2211SOL     OW 7531   1.756   0.964   1.130
 2211SOL    HW1 7532   1.720   0.917   1.049
 2211SOL    HW2 7533   1.816   1.038   1.102
 2212SOL     OW 7534   2.735   6.433   6.209
 2212SOL    HW1 7535   2.782   6.499   6.268
 2212SOL    HW2 7536   2.685   6.368   6.265
 2213SOL     OW 7537   3.513   2.005   4.184
 2213SOL    HW1 7538   3.533   2.051   4.270
 2213SOL    HW2 7539   3.415   2.007   4.166
 2214SOL     OW 7540   4.046   4.727   7.006
 2214SOL    HW1 7541   4.109   4.686   6.941
 2214SOL    HW2 7542   3.982   4.658   0.013
 2215SOL     OW 7543   0.060   5.336   6.946
 2215SOL    HW1 7544   0.066   5.322   6.848
 2215SOL    HW2 7545   0.094   5.427   6.970
 2216SOL     OW 7546   0.453   6.190   0.349
 2216SOL    HW1 7547   0.383   6.123   0.371
 2216SOL    HW2 7548   0.410   6.281   0.341
 2217SOL     OW 7549   4.067   1.387   4.110
 2217SOL    HW1 7550   4.160   1.355   4.090
 2217SOL    HW2 7551   4.072   1.478   4.152
 2218SOL     OW 7552   5.923   5.216   5.869
 2218SOL    HW1 7553   6.016   5.254   5.872
 2218SOL    HW2 7554   5.904   5.167   5.954
 2219SOL     OW 7555   5.308   2.392   0.544
 2219SOL    HW1 7556   5.217   2.391   0.503
 2219SOL    HW2 7557   5.301   2.401   0.643
 2220SOL     OW 7558   6.499   6.892   4.451
 2220SOL    HW1 7559   6.434   6.854   4.517
 2220SOL    HW2 7560   6.583   6.918   4.498
 2221SOL     OW 7561   4.969   0.015   3.332
 2221SOL    HW1 7562   5.058   0.036   3.372
 2221SOL    HW2 7563   4.944   0.087   3.267
 2222SOL     OW 7564   3.874   0.384   4.333
 2222SOL    HW1 7565   3.911   0.475   4.351
 2222SOL    HW2 7566   3.774   0.388   4.334
 2223SOL     OW 7567   0.792   0.257   5.711
 2223SOL    HW1 7568   0.777   0.301   5.799
 2223SOL    HW2 7569   0.802   0.327   5.640
 2224SOL     OW 7570   4.932   4.969   6.501
 2224SOL    HW1 7571   4.833   4.952   6.502
 2224SOL    HW2 7572   4.981   4.884   6.519
 2225SOL     OW 7573   6.500   0.793   0.626
 2225SOL    HW1 7574   6.593   0.819   0.600
 2225SOL    HW2 7575   6.475   0.709   0.579
 2226SOL     OW 7576   2.629   3.357   6.599
 2226SOL    HW1 7577   2.686   3.336   6.679
 2226SOL    HW2 7578   2.576   3.276   6.574
 2227SOL     OW 7579   4.534   1.875   1.396
 2227SOL    HW1 7580   4.459   1.924   1.351
 2227SOL    HW2 7581   4.498   1.814   1.466
 2228SOL     OW 7582   4.775   6.633   6.758
 2228SOL    HW1 7583   4.720   6.716   6.745
 2228SOL    HW2 7584   4.833   6.618   6.679
 2229SOL     OW 7585   3.633   2.989   4.336
 2229SOL    HW1 7586   3.724   3.017   4.368
 2229SOL    HW2 7587   3.580   2.955   4.413
 2230SOL     OW 7588   6.917   2.030   6.286
 2230SOL    HW1 7589   6.934   1.949   6.231
 2230SOL    HW2 7590   6.840   2.081   6.248
 2231SOL     OW 7591   1.008   6.951   5.546
 2231SOL    HW1 7592   0.997   6.851   5.544
 2231SOL    HW2 7593   1.075   6.978   5.476
 2232SOL     OW 7594   1.206   0.611   7.019
 2232SOL    HW1 7595   1.283   0.625   6.957
 2232SOL    HW2 7596   1.145   0.690   7.015
 2233SOL     OW 7597   3.360   5.518   0.741
 2233SOL    HW1 7598   3.370   5.420   0.758
 2233SOL    HW2 7599   3.425   5.569   0.797
 2234SOL     OW 7600   5.254   1.896   2.201
 2234SOL    HW1 7601   5.245   1.978   2.144
 2234SOL    HW2 7602   5.196   1.905   2.281
 2235SOL     OW 7603   1.313   2.080   4.129
 2235SOL    HW1 7604   1.263   2.116   4.050
 2235SOL    HW2 7605   1.279   1.989   4.152
 2236SOL     OW 7606   2.714   5.137   4.860
 2236SOL    HW1 7607   2.729   5.040   4.875
 2236SOL    HW2 7608   2.642   5.150   4.792
 2237SOL     OW 7609   6.244   6.869   6.524
 2237SOL    HW1 7610   6.216   6.774   6.539
 2237SOL    HW2 7611   6.164   6.924   6.498
 2238SOL     OW 7612   5.382   4.086   1.566
 2238SOL    HW1 7613   5.298   4.040   1.538
 2238SOL    HW2 7614   5.455   4.063   1.502
 2239SOL     OW 7615   3.317   0.436   2.651
 2239SOL    HW1 7616   3.242   0.405   2.710
 2239SOL    HW2 7617   3.282   0.450   2.558
 2240SOL     OW 7618   4.885   5.200   3.020
 2240SOL    HW1 7619   4.931   5.283   2.988
 2240SOL    HW2 7620   4.827   5.163   2.947
 2241SOL     OW 7621   1.490   2.096   3.151
 2241SOL    HW1 7622   1.585   2.084   3.178
 2241SOL    HW2 7623   1.456   2.013   3.106
 2242SOL     OW 7624   5.255   2.410   3.958
 2242SOL    HW1 7625   5.352   2.391   3.974
 2242SOL    HW2 7626   5.200   2.339   4.002
 2243SOL     OW 7627   2.402   0.352   0.141
 2243SOL    HW1 7628   2.413   0.414   0.064
 2243SOL    HW2 7629   2.483   0.293   0.147
 2244SOL     OW 7630   2.100   2.023   1.095
 2244SOL    HW1 7631   2.122   2.075   1.178
 2244SOL    HW2 7632   2.033   2.073   1.040
 2245SOL     OW 7633   6.747   1.356   0.015
 2245SOL    HW1 7634   6.735   1.422   0.089
 2245SOL    HW2 7635   6.845   1.346   7.021
 2246SOL     OW 7636   5.669   0.622   5.930
 2246SOL    HW1 7637   5.585   0.569   5.939
 2246SOL    HW2 7638   5.647   0.720   5.922
 2247SOL     OW 7639   3.801   3.466   1.694
 2247SOL    HW1 7640   3.853   3.481   1.778
 2247SOL    HW2 7641   3.772   3.371   1.689
 2248SOL     OW 7642   5.049   3.027   4.293
 2248SOL    HW1 7643   5.064   3.098   4.224
 2248SOL    HW2 7644   5.067   3.065   4.384
 2249SOL     OW 7645   2.588   6.257   3.640
 2249SOL    HW1 7646   2.673   6.210   3.616
 2249SOL    HW2 7647   2.609   6.340   3.690
 2250SOL     OW 7648   4.210   5.917   6.036
 2250SOL    HW1 7649   4.218   5.829   5.990
 2250SOL    HW2 7650   4.201   5.903   6.134
 2251SOL     OW 7651   3.790   6.695   4.750
 2251SOL    HW1 7652   3.864   6.754   4.781
 2251SOL    HW2 7653   3.755   6.641   4.826
 2252SOL     OW 7654   3.702   1.668   2.306
 2252SOL    HW1 7655   3.665   1.653   2.214
 2252SOL    HW2 7656   3.796   1.701   2.299
 2253SOL     OW 7657   1.121   2.103   1.822
 2253SOL    HW1 7658   1.188   2.036   1.792
 2253SOL    HW2 7659   1.051   2.116   1.751
 2254SOL     OW 7660   3.472   3.016   2.436
 2254SOL    HW1 7661   3.501   3.110   2.422
 2254SOL    HW2 7662   3.401   2.992   2.371
 2255SOL     OW 7663   1.819   1.849   6.328
 2255SOL    HW1 7664   1.803   1.923   6.262
 2255SOL    HW2 7665   1.814   1.886   6.420
 2256SOL     OW 7666   4.815   0.123   1.252
 2256SOL    HW1 7667   4.830   0.175   1.168
 2256SOL    HW2 7668   4.717   0.120   1.271
 2257SOL     OW 7669   0.127   1.242   6.417
 2257SOL    HW1 7670   0.084   1.229   6.328
 2257SOL    HW2 7671   0.183   1.161   6.439
 2258SOL     OW 7672   1.767   0.383   3.552
 2258SOL    HW1 7673   1.843   0.445   3.568
 2258SOL    HW2 7674   1.734   0.393   3.458
 2259SOL     OW 7675   6.246   6.890   5.150
 2259SOL    HW1 7676   6.150   6.911   5.170
 2259SOL    HW2 7677   6.267   6.797   5.181
 2260SOL     OW 7678   1.417   3.267   1.288
 2260SOL    HW1 7679   1.488   3.213   1.243
 2260SOL    HW2 7680   1.434   3.365   1.271
 2261SOL     OW 7681   4.223   4.651   6.527
 2261SOL    HW1 7682   4.247   4.592   6.450
 2261SOL    HW2 7683   4.300   4.655   6.590
 2262SOL     OW 7684   6.744   0.861   3.669
 2262SOL    HW1 7685   6.804   0.895   3.596
 2262SOL    HW2 7686   6.676   0.931   3.690
 2263SOL     OW 7687   2.250   4.237   6.834
 2263SOL    HW1 7688   2.265   4.335   6.847
 2263SOL    HW2 7689   2.338   4.190   6.830
 2264SOL     OW 7690   1.924   0.618   6.691
 2264SOL    HW1 7691   1.956   0.705   6.654
 2264SOL    HW2 7692   1.935   0.617   6.790
 2265SOL     OW 7693   0.105   6.612   3.799
 2265SOL    HW1 7694   0.080   6.527   3.755
 2265SOL    HW2 7695   0.024   6.671   3.807
 2266SOL     OW 7696   4.101   3.916   6.728
 2266SOL    HW1 7697   4.011   3.959   6.719
 2266SOL    HW2 7698   4.142   3.942   6.815
 2267SOL     OW 7699   5.678   3.054   4.904
 2267SOL    HW1 7700   5.621   2.983   4.945
 2267SOL    HW2 7701   5.627   3.101   4.833
 2268SOL     OW 7702   1.085   6.037   4.767
 2268SOL    HW1 7703   1.007   5.974   4.755
 2268SOL    HW2 7704   1.069   6.094   4.848
 2269SOL     OW 7705   1.593   2.232   5.481
 2269SOL    HW1 7706   1.676   2.283   5.462
 2269SOL    HW2 7707   1.516   2.295   5.493
 2270SOL     OW 7708   4.047   1.491   6.508
 2270SOL    HW1 7709   4.110   1.547   6.454
 2270SOL    HW2 7710   3.973   1.548   6.542
 2271SOL     OW 7711   4.110   5.707   5.428
 2271SOL    HW1 7712   4.072   5.800   5.422
 2271SOL    HW2 7713   4.037   5.641   5.411
 2272SOL     OW 7714   5.793   1.392   6.088
 2272SOL    HW1 7715   5.761   1.310   6.135
 2272SOL    HW2 7716   5.877   1.424   6.131
 2273SOL     OW 7717   2.003   2.257   4.317
 2273SOL    HW1 7718   1.995   2.269   4.218
 2273SOL    HW2 7719   2.041   2.166   4.336
 2274SOL     OW 7720   1.081   1.040   0.199
 2274SOL    HW1 7721   1.114   0.994   0.281
 2274SOL    HW2 7722   1.112   1.135   0.200
 2275SOL     OW 7723   5.325   3.545   2.939
 2275SOL    HW1 7724   5.398   3.612   2.954
 2275SOL    HW2 7725   5.244   3.592   2.903
 2276SOL     OW 7726   1.893   1.552   1.596
 2276SOL    HW1 7727   1.902   1.574   1.693
 2276SOL    HW2 7728   1.828   1.615   1.554
 2277SOL     OW 7729   4.048   3.183   3.326
 2277SOL    HW1 7730   4.072   3.279   3.337
 2277SOL    HW2 7731   4.044   3.139   3.416
 2278SOL     OW 7732   6.545   3.747   3.768
 2278SOL    HW1 7733   6.455   3.753   3.810
 2278SOL    HW2 7734   6.613   3.790   3.828
 2279SOL     OW 7735   0.631   5.584   5.863
 2279SOL    HW1 7736   0.722   5.548   5.843
 2279SOL    HW2 7737   0.603   5.555   5.955
 2280SOL     OW 7738   5.163   2.637   5.194
 2280SOL    HW1 7739   5.168   2.697   5.274
 2280SOL    HW2 7740   5.070   2.636   5.159
 2281SOL     OW 7741   5.362   6.550   2.433
 2281SOL    HW1 7742   5.389   6.535   2.528
 2281SOL    HW2 7743   5.442   6.578   2.380
 2282SOL     OW 7744   3.592   5.308   5.884
 2282SOL    HW1 7745   3.549   5.377   5.826
 2282SOL    HW2 7746   3.689   5.300   5.861
 2283SOL     OW 7747   6.804   0.490   5.344
 2283SOL    HW1 7748   6.900   0.468   5.359
 2283SOL    HW2 7749   6.795   0.587   5.321
 2284SOL     OW 7750   1.590   4.215   6.057
 2284SOL    HW1 7751   1.582   4.193   6.155
 2284SOL    HW2 7752   1.666   4.280   6.044
 2285SOL     OW 7753   1.745   5.195   0.272
 2285SOL    HW1 7754   1.659   5.144   0.271
 2285SOL    HW2 7755   1.802   5.168   0.194
 2286SOL     OW 7756   4.766   4.499   2.179
 2286SOL    HW1 7757   4.800   4.532   2.092
 2286SOL    HW2 7758   4.830   4.433   2.218
 2287SOL     OW 7759   2.165   1.517   3.915
 2287SOL    HW1 7760   2.104   1.544   3.989
 2287SOL    HW2 7761   2.257   1.553   3.932
 2288SOL     OW 7762   6.586   4.703   3.011
 2288SOL    HW1 7763   6.506   4.749   2.973
 2288SOL    HW2 7764   6.628   4.646   2.940
 2289SOL     OW 7765   0.511   4.398   0.323
 2289SOL    HW1 7766   0.508   4.334   0.400
 2289SOL    HW2 7767   0.606   4.414   0.297
 2290SOL     OW 7768   0.985   5.159   0.032
 2290SOL    HW1 7769   0.913   5.224   0.056
 2290SOL    HW2 7770   0.945   5.068   0.022
 2291SOL     OW 7771   1.814   1.103   0.271
 2291SOL    HW1 7772   1.839   1.138   0.361
 2291SOL    HW2 7773   1.754   1.167   0.225
 2292SOL     OW 7774   2.123   0.957   4.865
 2292SOL    HW1 7775   2.103   1.000   4.953
 2292SOL    HW2 7776   2.109   0.858   4.872
 2293SOL     OW 7777   5.185   4.197   3.336
 2293SOL    HW1 7778   5.193   4.181   3.237
 2293SOL    HW2 7779   5.110   4.142   3.372
 2294SOL     OW 7780   4.041   0.014   6.511
 2294SOL    HW1 7781   3.966   0.007   6.445
 2294SOL    HW2 7782   4.112   0.073   6.474
 2295SOL     OW 7783   0.672   0.771   1.839
 2295SOL    HW1 7784   0.761   0.741   1.804
 2295SOL    HW2 7785   0.634   0.840   1.778
 2296SOL     OW 7786   3.159   6.284   6.506
 2296SOL    HW1 7787   3.215   6.209   6.471
 2296SOL    HW2 7788   3.065   6.253   6.517
 2297SOL     OW 7789   4.156   5.892   6.286
 2297SOL    HW1 7790   4.078   5.937   6.330
 2297SOL    HW2 7791   4.153   5.795   6.306
 2298SOL     OW 7792   4.623   2.763   6.579
 2298SOL    HW1 7793   4.699   2.813   6.621
 2298SOL    HW2 7794   4.602   2.682   6.633
 2299SOL     OW 7795   5.054   0.353   1.639
 2299SOL    HW1 7796   5.149   0.378   1.620
 2299SOL    HW2 7797   5.023   0.285   1.572
 2300SOL     OW 7798   0.908   4.625   1.148
 2300SOL    HW1 7799   0.881   4.531   1.168
 2300SOL    HW2 7800   0.872   4.652   1.058
 2301SOL     OW 7801   3.737   2.554   1.294
 2301SOL    HW1 7802   3.752   2.643   1.338
 2301SOL    HW2 7803   3.664   2.563   1.227
 2302SOL     OW 7804   3.166   5.473   2.973
 2302SOL    HW1 7805   3.262   5.461   2.946
 2302SOL    HW2 7806   3.126   5.384   2.994
 2303SOL     OW 7807   0.776   3.576   5.915
 2303SOL    HW1 7808   0.742   3.543   5.827
 2303SOL    HW2 7809   0.873   3.553   5.923
 2304SOL     OW 7810   1.808   0.984   4.495
 2304SOL    HW1 7811   1.901   0.949   4.508
 2304SOL    HW2 7812   1.765   0.999   4.585
 2305SOL     OW 7813   4.238   4.908   1.640
 2305SOL    HW1 7814   4.151   4.934   1.596
 2305SOL    HW2 7815   4.283   4.838   1.585
 2306SOL     OW 7816   0.101   4.661   0.436
 2306SOL    HW1 7817   0.101   4.594   0.511
 2306SOL    HW2 7818   0.036   4.735   0.458
 2307SOL     OW 7819   0.352   1.031   3.057
 2307SOL    HW1 7820   0.408   1.062   2.981
 2307SOL    HW2 7821   0.311   1.110   3.103
 2308SOL     OW 7822   0.787   0.351   0.122
 2308SOL    HW1 7823   0.808   0.374   0.217
 2308SOL    HW2 7824   0.733   0.424   0.081
 2309SOL     OW 7825   2.059   5.238   6.264
 2309SOL    HW1 7826   2.126   5.203   6.329
 2309SOL    HW2 7827   2.092   5.221   6.170
 2310SOL     OW 7828   5.700   1.324   3.538
 2310SOL    HW1 7829   5.695   1.284   3.629
 2310SOL    HW2 7830   5.707   1.251   3.470
 2311SOL     OW 7831   2.892   6.727   2.784
 2311SOL    HW1 7832   2.917   6.635   2.753
 2311SOL    HW2 7833   2.792   6.734   2.789
 2312SOL     OW 7834   2.479   0.662   2.045
 2312SOL    HW1 7835   2.412   0.687   1.975
 2312SOL    HW2 7836   2.475   0.563   2.061
 2313SOL     OW 7837   4.764   4.876   1.375
 2313SOL    HW1 7838   4.697   4.813   1.336
 2313SOL    HW2 7839   4.724   4.921   1.455
 2314SOL     OW 7840   6.918   5.824   2.939
 2314SOL    HW1 7841   6.845   5.757   2.925
 2314SOL    HW2 7842   6.945   5.824   3.035
 2315SOL     OW 7843   5.028   6.663   4.993
 2315SOL    HW1 7844   5.071   6.609   4.920
 2315SOL    HW2 7845   5.016   6.606   5.074
 2316SOL     OW 7846   3.966   2.607   6.417
 2316SOL    HW1 7847   3.889   2.665   6.389
 2316SOL    HW2 7848   4.051   2.658   6.408
 2317SOL     OW 7849   0.274   5.044   2.068
 2317SOL    HW1 7850   0.229   4.957   2.087
 2317SOL    HW2 7851   0.352   5.056   2.129
 2318SOL     OW 7852   1.192   4.640   3.864
 2318SOL    HW1 7853   1.289   4.648   3.885
 2318SOL    HW2 7854   1.176   4.663   3.768
 2319SOL     OW 7855   2.807   4.958   3.014
 2319SOL    HW1 7856   2.865   4.914   2.945
 2319SOL    HW2 7857   2.824   4.917   3.103
 2320SOL     OW 7858   1.543   2.139   5.065
 2320SOL    HW1 7859   1.499   2.229   5.068
 2320SOL    HW2 7860   1.626   2.144   5.011
 2321SOL     OW 7861   1.921   5.349   5.322
 2321SOL    HW1 7862   1.985   5.325   5.249
 2321SOL    HW2 7863   1.854   5.275   5.332
 2322SOL     OW 7864   1.720   3.179   1.864
 2322SOL    HW1 7865   1.625   3.153   1.847
 2322SOL    HW2 7866   1.766   3.107   1.915
 2323SOL     OW 7867   2.200   6.003   6.353
 2323SOL    HW1 7868   2.120   5.943   6.357
 2323SOL    HW2 7869   2.282   5.948   6.338
 2324SOL     OW 7870   6.383   4.522   2.627
 2324SOL    HW1 7871   6.406   4.522   2.530
 2324SOL    HW2 7872   6.283   4.524   2.637
 2325SOL     OW 7873   6.695   3.833   2.609
 2325SOL    HW1 7874   6.637   3.755   2.633
 2325SOL    HW2 7875   6.753   3.809   2.531
 2326SOL     OW 7876   2.208   0.173   0.249
 2326SOL    HW1 7877   2.168   0.158   0.159
 2326SOL    HW2 7878   2.273   0.249   0.244
 2327SOL     OW 7879   6.236   6.285   1.986
 2327SOL    HW1 7880   6.142   6.310   1.967
 2327SOL    HW2 7881   6.259   6.200   1.938
 2328SOL     OW 7882   2.103   3.950   2.266
 2328SOL    HW1 7883   2.097   4.011   2.187
 2328SOL    HW2 7884   2.116   3.856   2.235
 2329SOL     OW 7885   0.996   4.812   1.727
 2329SOL    HW1 7886   0.944   4.817   1.812
 2329SOL    HW2 7887   0.993   4.901   1.682
 2330SOL     OW 7888   6.082   3.483   1.900
 2330SOL    HW1 7889   6.001   3.511   1.950
 2330SOL    HW2 7890   6.058   3.410   1.835
 2331SOL     OW 7891   4.831   5.358   1.715
 2331SOL    HW1 7892   4.790   5.388   1.630
 2331SOL    HW2 7893   4.926   5.389   1.720
 2332SOL     OW 7894   5.944   0.125   6.256
 2332SOL    HW1 7895   5.935   0.224   6.264
 2332SOL    HW2 7896   5.865   0.088   6.207
 2333SOL     OW 7897   1.442   4.613   2.394
 2333SOL    HW1 7898   1.462   4.519   2.366
 2333SOL    HW2 7899   1.511   4.675   2.356
 2334SOL     OW 7900   3.532   1.226   6.002
 2334SOL    HW1 7901   3.535   1.323   5.979
 2334SOL    HW2 7902   3.440   1.190   5.983
 2335SOL     OW 7903   6.009   0.409   3.650
 2335SOL    HW1 7904   5.933   0.362   3.693
 2335SOL    HW2 7905   6.085   0.416   3.714
 2336SOL     OW 7906   1.788   1.713   2.966
 2336SOL    HW1 7907   1.757   1.660   3.045
 2336SOL    HW2 7908   1.866   1.667   2.924
 2337SOL     OW 7909   4.288   1.410   2.259
 2337SOL    HW1 7910   4.305   1.320   2.219
 2337SOL    HW2 7911   4.192   1.435   2.246
 2338SOL     OW 7912   7.003   3.675   3.890
 2338SOL    HW1 7913   6.910   3.712   3.889
 2338SOL    HW2 7914   0.042   3.751   3.887
 2339SOL     OW 7915   3.149   3.135   2.268
 2339SOL    HW1 7916   3.150   3.036   2.250
 2339SOL    HW2 7917   3.098   3.153   2.351
 2340SOL     OW 7918   1.904   4.069   6.305
 2340SOL    HW1 7919   1.807   4.093   6.313
 2340SOL    HW2 7920   1.914   3.988   6.248
 2341SOL     OW 7921   3.230   4.993   4.190
 2341SOL    HW1 7922   3.261   5.067   4.250
 2341SOL    HW2 7923   3.300   4.976   4.121
 2342SOL     OW 7924   3.608   1.798   4.490
 2342SOL    HW1 7925   3.612   1.898   4.498
 2342SOL    HW2 7926   3.700   1.761   4.494
 2343SOL     OW 7927   6.782   6.954   0.714
 2343SOL    HW1 7928   6.744   6.892   0.782
 2343SOL    HW2 7929   6.814   0.011   0.759
 2344SOL     OW 7930   6.105   4.639   0.175
 2344SOL    HW1 7931   6.022   4.585   0.187
 2344SOL    HW2 7932   6.080   4.736   0.164
 2345SOL     OW 7933   3.507   6.496   3.837
 2345SOL    HW1 7934   3.499   6.446   3.751
 2345SOL    HW2 7935   3.533   6.433   3.910
 2346SOL     OW 7936   4.864   3.622   0.479
 2346SOL    HW1 7937   4.885   3.524   0.480
 2346SOL    HW2 7938   4.870   3.657   0.385
 2347SOL     OW 7939   1.695   1.349   1.094
 2347SOL    HW1 7940   1.685   1.322   1.190
 2347SOL    HW2 7941   1.774   1.303   1.055
 2348SOL     OW 7942   0.161   5.707   2.599
 2348SOL    HW1 7943   0.214   5.622   2.592
 2348SOL    HW2 7944   0.069   5.686   2.631
 2349SOL     OW 7945   0.775   4.971   4.633
 2349SOL    HW1 7946   0.802   4.941   4.541
 2349SOL    HW2 7947   0.757   5.070   4.631
 2350SOL     OW 7948   5.633   3.921   0.591
 2350SOL    HW1 7949   5.713   3.980   0.606
 2350SOL    HW2 7950   5.662   3.826   0.582
 2351SOL     OW 7951   2.557   6.143   1.616
 2351SOL    HW1 7952   2.488   6.152   1.544
 2351SOL    HW2 7953   2.516   6.167   1.704
 2352SOL     OW 7954   6.782   2.285   3.295
 2352SOL    HW1 7955   6.856   2.226   3.328
 2352SOL    HW2 7956   6.816   2.377   3.279
 2353SOL     OW 7957   3.120   6.399   4.070
 2353SOL    HW1 7958   3.068   6.483   4.084
 2353SOL    HW2 7959   3.102   6.336   4.146
 2354SOL     OW 7960   2.692   2.375   4.239
 2354SOL    HW1 7961   2.731   2.390   4.330
 2354SOL    HW2 7962   2.762   2.335   4.179
 2355SOL     OW 7963   2.371   5.554   4.664
 2355SOL    HW1 7964   2.434   5.489   4.622
 2355SOL    HW2 7965   2.326   5.608   4.593
 2356SOL     OW 7966   6.976   2.528   0.037
 2356SOL    HW1 7967   6.958   2.583   6.982
 2356SOL    HW2 7968   6.891   2.485   0.068
 2357SOL     OW 7969   2.292   6.540   2.950
 2357SOL    HW1 7970   2.259   6.602   3.021
 2357SOL    HW2 7971   2.306   6.592   2.865
 2358SOL     OW 7972   4.520   5.515   5.925
 2358SOL    HW1 7973   4.526   5.609   5.960
 2358SOL    HW2 7974   4.450   5.465   5.975
 2359SOL     OW 7975   1.375   0.098   5.265
 2359SOL    HW1 7976   1.308   0.169   5.287
 2359SOL    HW2 7977   1.444   0.135   5.203
 2360SOL     OW 7978   7.023   3.536   7.022
 2360SOL    HW1 7979   0.031   3.623   6.986
 2360SOL    HW2 7980   0.018   3.529   0.093
 2361SOL     OW 7981   3.112   0.919   0.397
 2361SOL    HW1 7982   3.030   0.958   0.438
 2361SOL    HW2 7983   3.168   0.992   0.359
 2362SOL     OW 7984   3.079   5.214   3.018
 2362SOL    HW1 7985   3.022   5.179   2.944
 2362SOL    HW2 7986   3.031   5.204   3.105
 2363SOL     OW 7987   3.686   0.554   3.536
 2363SOL    HW1 7988   3.701   0.649   3.564
 2363SOL    HW2 7989   3.644   0.504   3.611
 2364SOL     OW 7990   1.086   2.327   1.426
 2364SOL    HW1 7991   1.178   2.365   1.438
 2364SOL    HW2 7992   1.090   2.252   1.360
 2365SOL     OW 7993   5.486   2.052   0.647
 2365SOL    HW1 7994   5.519   2.087   0.559
 2365SOL    HW2 7995   5.491   2.126   0.715
 2366SOL     OW 7996   4.480   5.611   0.539
 2366SOL    HW1 7997   4.538   5.533   0.517
 2366SOL    HW2 7998   4.384   5.587   0.527
 2367SOL     OW 7999   2.374   3.470   6.006
 2367SOL    HW1 8000   2.327   3.542   6.056
 2367SOL    HW2 8001   2.466   3.458   6.043
 2368SOL     OW 8002   5.571   6.054   2.006
 2368SOL    HW1 8003   5.558   6.146   2.041
 2368SOL    HW2 8004   5.517   6.041   1.923
 2369SOL     OW 8005   2.480   1.584   3.223
 2369SOL    HW1 8006   2.473   1.586   3.323
 2369SOL    HW2 8007   2.397   1.543   3.185
 2370SOL     OW 8008   5.832   2.802   6.243
 2370SOL    HW1 8009   5.833   2.748   6.327
 2370SOL    HW2 8010   5.887   2.884   6.255
 2371SOL     OW 8011   1.381   5.726   1.927
 2371SOL    HW1 8012   1.401   5.757   2.020
 2371SOL    HW2 8013   1.294   5.677   1.926
 2372SOL     OW 8014   6.516   2.288   3.332
 2372SOL    HW1 8015   6.466   2.205   3.308
 2372SOL    HW2 8016   6.603   2.263   3.374
 2373SOL     OW 8017   2.342   3.900   6.516
 2373SOL    HW1 8018   2.415   3.953   6.473
 2373SOL    HW2 8019   2.353   3.803   6.496
 2374SOL     OW 8020   5.164   2.294   4.992
 2374SOL    HW1 8021   5.223   2.368   4.961
 2374SOL    HW2 8022   5.077   2.298   4.943
 2375SOL     OW 8023   1.104   7.014   5.277
 2375SOL    HW1 8024   1.201   0.010   5.273
 2375SOL    HW2 8025   1.082   6.949   5.204
 2376SOL     OW 8026   0.192   2.380   4.001
 2376SOL    HW1 8027   0.134   2.349   4.077
 2376SOL    HW2 8028   0.196   2.308   3.931
 2377SOL     OW 8029   3.701   2.898   4.058
 2377SOL    HW1 8030   3.713   2.884   4.157
 2377SOL    HW2 8031   3.757   2.976   4.029
 2378SOL     OW 8032   5.382   1.988   0.956
 2378SOL    HW1 8033   5.307   2.038   1.000
 2378SOL    HW2 8034   5.353   1.956   0.866
 2379SOL     OW 8035   6.690   0.106   6.149
 2379SOL    HW1 8036   6.633   0.173   6.197
 2379SOL    HW2 8037   6.645   0.078   6.065
 2380SOL     OW 8038   6.066   1.952   3.596
 2380SOL    HW1 8039   6.091   1.885   3.525
 2380SOL    HW2 8040   6.113   2.038   3.579
 2381SOL     OW 8041   1.765   6.091   2.403
 2381SOL    HW1 8042   1.784   6.133   2.314
 2381SOL    HW2 8043   1.839   6.113   2.467
 2382SOL     OW 8044   1.936   2.424   5.919
 2382SOL    HW1 8045   1.877   2.392   5.845
 2382SOL    HW2 8046   1.917   2.373   6.003
 2383SOL     OW 8047   5.724   5.264   1.578
 2383SOL    HW1 8048   5.793   5.273   1.506
 2383SOL    HW2 8049   5.769   5.257   1.667
 2384SOL     OW 8050   4.280   1.472   1.676
 2384SOL    HW1 8051   4.349   1.531   1.635
 2384SOL    HW2 8052   4.323   1.387   1.708
 2385SOL     OW 8053   1.173   2.861   0.201
 2385SOL    HW1 8054   1.094   2.851   0.140
 2385SOL    HW2 8055   1.250   2.900   0.151
 2386SOL     OW 8056   4.358   4.539   2.809
 2386SOL    HW1 8057   4.425   4.523   2.735
 2386SOL    HW2 8058   4.384   4.486   2.889
 2387SOL     OW 8059   1.272   1.316   2.425
 2387SOL    HW1 8060   1.335   1.269   2.363
 2387SOL    HW2 8061   1.234   1.251   2.490
 2388SOL     OW 8062   6.707   1.499   4.311
 2388SOL    HW1 8063   6.659   1.497   4.399
 2388SOL    HW2 8064   6.678   1.580   4.259
 2389SOL     OW 8065   3.491   6.755   2.187
 2389SOL    HW1 8066   3.576   6.800   2.161
 2389SOL    HW2 8067   3.445   6.721   2.105
 2390SOL     OW 8068   3.172   4.735   0.962
 2390SOL    HW1 8069   3.215   4.651   0.994
 2390SOL    HW2 8070   3.127   4.719   0.874
 2391SOL     OW 8071   4.088   5.214   4.464
 2391SOL    HW1 8072   4.012   5.257   4.415
 2391SOL    HW2 8073   4.112   5.271   4.543
 2392SOL     OW 8074   3.979   1.069   6.860
 2392SOL    HW1 8075   4.036   0.996   6.823
 2392SOL    HW2 8076   3.918   1.104   6.789
 2393SOL     OW 8077   3.628   5.579   4.980
 2393SOL    HW1 8078   3.570   5.646   4.934
 2393SOL    HW2 8079   3.661   5.617   5.066
 2394SOL     OW 8080   0.443   5.139   5.265
 2394SOL    HW1 8081   0.424   5.100   5.356
 2394SOL    HW2 8082   0.387   5.092   5.197
 2395SOL     OW 8083   4.663   6.090   6.257
 2395SOL    HW1 8084   4.692   6.185   6.267
 2395SOL    HW2 8085   4.565   6.086   6.241
 2396SOL     OW 8086   2.755   6.453   0.410
 2396SOL    HW1 8087   2.756   6.458   0.310
 2396SOL    HW2 8088   2.790   6.364   0.439
 2397SOL     OW 8089   0.540   3.168   4.650
 2397SOL    HW1 8090   0.628   3.128   4.673
 2397SOL    HW2 8091   0.543   3.208   4.558
 2398SOL     OW 8092   5.204   3.775   5.455
 2398SOL    HW1 8093   5.161   3.694   5.494
 2398SOL    HW2 8094   5.133   3.843   5.433
 2399SOL     OW 8095   4.907   2.601   1.606
 2399SOL    HW1 8096   4.874   2.620   1.699
 2399SOL    HW2 8097   4.893   2.682   1.549
 2400SOL     OW 8098   1.439   4.115   6.897
 2400SOL    HW1 8099   1.446   4.065   6.983
 2400SOL    HW2 8100   1.509   4.186   6.894
 2401SOL     OW 8101   6.280   6.065   6.950
 2401SOL    HW1 8102   6.209   6.028   6.889
 2401SOL    HW2 8103   6.338   6.128   6.899
 2402SOL     OW 8104   6.895   6.748   3.845
 2402SOL    HW1 8105   6.862   6.746   3.940
 2402SOL    HW2 8106   6.818   6.737   3.783
 2403SOL     OW 8107   1.317   0.734   3.501
 2403SOL    HW1 8108   1.365   0.699   3.421
 2403SOL    HW2 8109   1.289   0.829   3.484
 2404SOL     OW 8110   1.183   0.221   0.114
 2404SOL    HW1 8111   1.128   0.266   0.184
 2404SOL    HW2 8112   1.263   0.277   0.093
 2405SOL     OW 8113   3.226   4.563   1.327
 2405SOL    HW1 8114   3.279   4.481   1.310
 2405SOL    HW2 8115   3.286   4.643   1.327
 2406SOL     OW 8116   4.875   1.652   1.398
 2406SOL    HW1 8117   4.796   1.602   1.363
 2406SOL    HW2 8118   4.903   1.721   1.332
 2407SOL     OW 8119   4.849   6.847   3.521
 2407SOL    HW1 8120   4.895   6.840   3.609
 2407SOL    HW2 8121   4.906   6.897   3.456
 2408SOL     OW 8122   4.098   4.743   2.078
 2408SOL    HW1 8123   4.168   4.712   2.142
 2408SOL    HW2 8124   4.012   4.756   2.126
 2409SOL     OW 8125   1.421   3.839   0.854
 2409SOL    HW1 8126   1.436   3.755   0.802
 2409SOL    HW2 8127   1.330   3.875   0.834
 2410SOL     OW 8128   4.161   3.564   2.649
 2410SOL    HW1 8129   4.069   3.570   2.611
 2410SOL    HW2 8130   4.164   3.491   2.718
 2411SOL     OW 8131   3.681   0.513   5.528
 2411SOL    HW1 8132   3.650   0.601   5.564
 2411SOL    HW2 8133   3.732   0.528   5.444
 2412SOL     OW 8134   4.429   3.450   1.032
 2412SOL    HW1 8135   4.373   3.474   1.111
 2412SOL    HW2 8136   4.435   3.350   1.024
 2413SOL     OW 8137   3.315   0.564   2.969
 2413SOL    HW1 8138   3.246   0.504   2.929
 2413SOL    HW2 8139   3.306   0.656   2.930
 2414SOL     OW 8140   4.826   2.876   4.358
 2414SOL    HW1 8141   4.800   2.855   4.264
 2414SOL    HW2 8142   4.902   2.941   4.358
 2415SOL     OW 8143   3.615   0.175   2.864
 2415SOL    HW1 8144   3.534   0.224   2.895
 2415SOL    HW2 8145   3.610   0.080   2.895
 2416SOL     OW 8146   5.439   2.065   6.186
 2416SOL    HW1 8147   5.420   2.163   6.183
 2416SOL    HW2 8148   5.497   2.045   6.265
 2417SOL     OW 8149   2.985   3.744   5.641
 2417SOL    HW1 8150   2.956   3.826   5.592
 2417SOL    HW2 8151   2.983   3.762   5.740
 2418SOL     OW 8152   3.680   2.835   2.424
 2418SOL    HW1 8153   3.602   2.898   2.425
 2418SOL    HW2 8154   3.659   2.756   2.367
 2419SOL     OW 8155   6.889   0.439   4.168
 2419SOL    HW1 8156   6.839   0.525   4.165
 2419SOL    HW2 8157   6.964   0.446   4.235
 2420SOL     OW 8158   2.069   0.254   1.760
 2420SOL    HW1 8159   1.973   0.284   1.769
 2420SOL    HW2 8160   2.126   0.307   1.823
 2421SOL     OW 8161   4.628   2.463   3.229
 2421SOL    HW1 8162   4.542   2.450   3.278
 2421SOL    HW2 8163   4.613   2.448   3.131
 2422SOL     OW 8164   5.403   1.755   1.374
 2422SOL    HW1 8165   5.410   1.756   1.473
 2422SOL    HW2 8166   5.314   1.718   1.347
 2423SOL     OW 8167   1.312   5.014   2.390
 2423SOL    HW1 8168   1.286   4.927   2.347
 2423SOL    HW2 8169   1.305   5.005   2.489
 2424SOL     OW 8170   6.477   6.946   6.832
 2424SOL    HW1 8171   6.529   6.880   6.886
 2424SOL    HW2 8172   6.382   6.915   6.825
 2425SOL     OW 8173   6.988   6.924   4.432
 2425SOL    HW1 8174   6.899   6.883   4.415
 2425SOL    HW2 8175   0.023   6.856   4.471
 2426SOL     OW 8176   1.447   5.549   4.583
 2426SOL    HW1 8177   1.428   5.587   4.492
 2426SOL    HW2 8178   1.450   5.449   4.578
 2427SOL     OW 8179   5.998   0.744   5.155
 2427SOL    HW1 8180   5.988   0.833   5.111
 2427SOL    HW2 8181   5.920   0.686   5.132
 2428SOL     OW 8182   5.826   2.332   0.482
 2428SOL    HW1 8183   5.835   2.392   0.561
 2428SOL    HW2 8184   5.733   2.297   0.477
 2429SOL     OW 8185   4.685   4.247   2.493
 2429SOL    HW1 8186   4.763   4.308   2.509
 2429SOL    HW2 8187   4.642   4.271   2.406
 2430SOL     OW 8188   5.483   0.064   2.025
 2430SOL    HW1 8189   5.438   7.003   2.009
 2430SOL    HW2 8190   5.419   0.126   2.071
 2431SOL     OW 8191   4.426   6.871   2.150
 2431SOL    HW1 8192   4.348   6.807   2.145
 2431SOL    HW2 8193   4.447   6.904   2.058
 2432SOL     OW 8194   2.644   5.595   2.543
 2432SOL    HW1 8195   2.631   5.693   2.528
 2432SOL    HW2 8196   2.741   5.575   2.551
 2433SOL     OW 8197   5.030   0.122   0.523
 2433SOL    HW1 8198   4.936   0.136   0.492
 2433SOL    HW2 8199   5.056   0.027   0.507
 2434SOL     OW 8200   3.386   2.932   5.077
 2434SOL    HW1 8201   3.311   2.883   5.122
 2434SOL    HW2 8202   3.363   2.948   4.981
 2435SOL     OW 8203   5.423   5.092   6.741
 2435SOL    HW1 8204   5.369   5.155   6.686
 2435SOL    HW2 8205   5.473   5.143   6.811
 2436SOL     OW 8206   3.594   4.479   0.537
 2436SOL    HW1 8207   3.574   4.532   0.619
 2436SOL    HW2 8208   3.513   4.427   0.510
 2437SOL     OW 8209   0.257   1.103   5.426
 2437SOL    HW1 8210   0.344   1.054   5.421
 2437SOL    HW2 8211   0.220   1.096   5.518
 2438SOL     OW 8212   3.708   3.562   0.510
 2438SOL    HW1 8213   3.808   3.565   0.505
 2438SOL    HW2 8214   3.671   3.655   0.513
 2439SOL     OW 8215   6.379   3.914   6.469
 2439SOL    HW1 8216   6.452   3.982   6.482
 2439SOL    HW2 8217   6.403   3.853   6.394
 2440SOL     OW 8218   6.372   5.091   6.091
 2440SOL    HW1 8219   6.307   5.044   6.032
 2440SOL    HW2 8220   6.358   5.190   6.083
 2441SOL     OW 8221   6.452   2.116   0.531
 2441SOL    HW1 8222   6.473   2.025   0.567
 2441SOL    HW2 8223   6.429   2.178   0.606
 2442SOL     OW 8224   6.733   1.997   4.606
 2442SOL    HW1 8225   6.670   1.956   4.540
 2442SOL    HW2 8226   6.787   1.925   4.650
 2443SOL     OW 8227   3.082   4.792   6.665
 2443SOL    HW1 8228   3.175   4.777   6.634
 2443SOL    HW2 8229   3.026   4.824   6.588
 2444SOL     OW 8230   3.730   2.797   6.371
 2444SOL    HW1 8231   3.747   2.818   6.467
 2444SOL    HW2 8232   3.804   2.836   6.316
 2445SOL     OW 8233   0.841   0.769   0.639
 2445SOL    HW1 8234   0.894   0.716   0.573
 2445SOL    HW2 8235   0.879   0.862   0.646
 2446SOL     OW 8236   5.170   2.824   6.375
 2446SOL    HW1 8237   5.110   2.848   6.299
 2446SOL    HW2 8238   5.261   2.801   6.339
 2447SOL     OW 8239   0.845   3.463   6.735
 2447SOL    HW1 8240   0.821   3.495   6.827
 2447SOL    HW2 8241   0.787   3.508   6.668
 2448SOL     OW 8242   6.173   0.401   5.041
 2448SOL    HW1 8243   6.169   0.501   5.030
 2448SOL    HW2 8244   6.129   0.358   4.962
 2449SOL     OW 8245   7.017   3.208   5.845
 2449SOL    HW1 8246   0.087   3.224   5.823
 2449SOL    HW2 8247   7.001   3.110   5.856
 2450SOL     OW 8248   2.849   2.834   1.156
 2450SOL    HW1 8249   2.883   2.886   1.233
 2450SOL    HW2 8250   2.754   2.859   1.137
 2451SOL     OW 8251   2.068   6.201   3.690
 2451SOL    HW1 8252   2.107   6.186   3.600
 2451SOL    HW2 8253   1.977   6.241   3.681
 2452SOL     OW 8254   3.117   1.639   4.157
 2452SOL    HW1 8255   3.109   1.710   4.227
 2452SOL    HW2 8256   3.134   1.551   4.201
 2453SOL     OW 8257   0.651   3.891   1.213
 2453SOL    HW1 8258   0.583   3.861   1.146
 2453SOL    HW2 8259   0.605   3.924   1.295
 2454SOL     OW 8260   0.132   6.957   2.282
 2454SOL    HW1 8261   0.085   6.870   2.270
 2454SOL    HW2 8262   0.216   6.957   2.227
 2455SOL     OW 8263   5.285   3.748   1.329
 2455SOL    HW1 8264   5.270   3.675   1.395
 2455SOL    HW2 8265   5.249   3.834   1.366
 2456SOL     OW 8266   2.836   6.503   1.341
 2456SOL    HW1 8267   2.868   6.542   1.255
 2456SOL    HW2 8268   2.778   6.424   1.322
 2457SOL     OW 8269   5.084   6.075   0.419
 2457SOL    HW1 8270   5.139   6.155   0.441
 2457SOL    HW2 8271   5.141   5.994   0.419
 2458SOL     OW 8272   0.351   6.686   1.799
 2458SOL    HW1 8273   0.444   6.720   1.804
 2458SOL    HW2 8274   0.300   6.736   1.729
 2459SOL     OW 8275   1.384   2.252   0.401
 2459SOL    HW1 8276   1.338   2.263   0.489
 2459SOL    HW2 8277   1.443   2.331   0.384
 2460SOL     OW 8278   1.883   4.111   0.828
 2460SOL    HW1 8279   1.788   4.099   0.799
 2460SOL    HW2 8280   1.941   4.048   0.777
 2461SOL     OW 8281   4.435   1.117   3.131
 2461SOL    HW1 8282   4.358   1.063   3.163
 2461SOL    HW2 8283   4.504   1.057   3.091
 2462SOL     OW 8284   3.082   5.160   6.623
 2462SOL    HW1 8285   3.166   5.116   6.655
 2462SOL    HW2 8286   3.013   5.157   6.695
 2463SOL     OW 8287   2.078   3.381   5.513
 2463SOL    HW1 8288   2.112   3.408   5.423
 2463SOL    HW2 8289   2.091   3.283   5.526
 2464SOL     OW 8290   0.869   3.500   0.834
 2464SOL    HW1 8291   0.944   3.565   0.847
 2464SOL    HW2 8292   0.789   3.531   0.884
 2465SOL     OW 8293   6.320   4.318   3.017
 2465SOL    HW1 8294   6.254   4.318   2.942
 2465SOL    HW2 8295   6.336   4.224   3.047
 2466SOL     OW 8296   3.998   1.768   1.701
 2466SOL    HW1 8297   4.056   1.741   1.777
 2466SOL    HW2 8298   4.052   1.767   1.616
 2467SOL     OW 8299   1.360   1.365   4.258
 2467SOL    HW1 8300   1.418   1.381   4.178
 2467SOL    HW2 8301   1.376   1.273   4.294
 2468SOL     OW 8302   6.770   4.716   6.830
 2468SOL    HW1 8303   6.806   4.799   6.873
 2468SOL    HW2 8304   6.701   4.675   6.889
 2469SOL     OW 8305   2.681   2.034   6.615
 2469SOL    HW1 8306   2.778   2.007   6.615
 2469SOL    HW2 8307   2.674   2.134   6.611
 2470SOL     OW 8308   5.154   3.042   0.776
 2470SOL    HW1 8309   5.081   3.002   0.720
 2470SOL    HW2 8310   5.183   2.976   0.845
 2471SOL     OW 8311   0.785   1.515   3.197
 2471SOL    HW1 8312   0.820   1.441   3.140
 2471SOL    HW2 8313   0.862   1.573   3.227
 2472SOL     OW 8314   6.718   0.570   4.548
 2472SOL    HW1 8315   6.780   0.642   4.514
 2472SOL    HW2 8316   6.633   0.612   4.580
 2473SOL     OW 8317   0.469   5.302   4.628
 2473SOL    HW1 8318   0.432   5.221   4.584
 2473SOL    HW2 8319   0.433   5.310   4.721
 2474SOL     OW 8320   5.638   6.879   4.133
 2474SOL    HW1 8321   5.577   6.912   4.061
 2474SOL    HW2 8322   5.722   6.842   4.092
 2475SOL     OW 8323   3.745   2.813   6.634
 2475SOL    HW1 8324   3.779   2.865   6.713
 2475SOL    HW2 8325   3.703   2.728   6.666
 2476SOL     OW 8326   0.470   1.683   3.748
 2476SOL    HW1 8327   0.385   1.631   3.752
 2476SOL    HW2 8328   0.535   1.646   3.814
 2477SOL     OW 8329   4.748   4.431   1.863
 2477SOL    HW1 8330   4.680   4.369   1.900
 2477SOL    HW2 8331   4.751   4.422   1.763
 2478SOL     OW 8332   6.881   0.642   1.828
 2478SOL    HW1 8333   6.812   0.694   1.879
 2478SOL    HW2 8334   6.956   0.617   1.890
 2479SOL     OW 8335   1.294   3.316   0.405
 2479SOL    HW1 8336   1.358   3.239   0.402
 2479SOL    HW2 8337   1.216   3.296   0.346
 2480SOL     OW 8338   6.391   4.832   0.293
 2480SOL    HW1 8339   6.429   4.756   0.344
 2480SOL    HW2 8340   6.427   4.831   0.200
 2481SOL     OW 8341   4.083   4.957   2.514
 2481SOL    HW1 8342   4.055   4.978   2.608
 2481SOL    HW2 8343   4.039   5.021   2.451
 2482SOL     OW 8344   3.817   2.166   4.604
 2482SOL    HW1 8345   3.783   2.091   4.660
 2482SOL    HW2 8346   3.917   2.162   4.600
 2483SOL     OW 8347   0.715   2.960   6.743
 2483SOL    HW1 8348   0.730   2.932   6.838
 2483SOL    HW2 8349   0.800   3.000   6.707
 2484SOL     OW 8350   3.436   4.319   5.320
 2484SOL    HW1 8351   3.380   4.241   5.292
 2484SOL    HW2 8352   3.377   4.393   5.350
 2485SOL     OW 8353   0.722   4.848   0.602
 2485SOL    HW1 8354   0.739   4.944   0.625
 2485SOL    HW2 8355   0.648   4.813   0.659
 2486SOL     OW 8356   0.299   5.177   3.793
 2486SOL    HW1 8357   0.355   5.174   3.710
 2486SOL    HW2 8358   0.246   5.262   3.794
 2487SOL     OW 8359   2.663   1.380   1.133
 2487SOL    HW1 8360   2.583   1.352   1.186
 2487SOL    HW2 8361   2.660   1.479   1.118
 2488SOL     OW 8362   2.598   5.753   6.623
 2488SOL    HW1 8363   2.535   5.682   6.593
 2488SOL    HW2 8364   2.573   5.784   6.714
 2489SOL     OW 8365   6.502   5.276   4.845
 2489SOL    HW1 8366   6.418   5.300   4.892
 2489SOL    HW2 8367   6.503   5.178   4.825
 2490SOL     OW 8368   5.935   3.032   1.394
 2490SOL    HW1 8369   5.956   3.056   1.489
 2490SOL    HW2 8370   5.916   2.934   1.388
 2491SOL     OW 8371   0.113   3.777   2.379
 2491SOL    HW1 8372   0.095   3.868   2.416
 2491SOL    HW2 8373   0.028   3.734   2.352
 2492SOL     OW 8374   4.033   1.716   0.617
 2492SOL    HW1 8375   4.090   1.721   0.535
 2492SOL    HW2 8376   4.087   1.678   0.693
 2493SOL     OW 8377   6.326   0.800   5.890
 2493SOL    HW1 8378   6.359   0.720   5.840
 2493SOL    HW2 8379   6.259   0.772   5.958
 2494SOL     OW 8380   5.787   5.590   0.857
 2494SOL    HW1 8381   5.830   5.603   0.768
 2494SOL    HW2 8382   5.693   5.560   0.845
 2495SOL     OW 8383   6.849   1.329   2.953
 2495SOL    HW1 8384   6.944   1.308   2.978
 2495SOL    HW2 8385   6.806   1.247   2.915
 2496SOL     OW 8386   1.631   4.596   0.761
 2496SOL    HW1 8387   1.669   4.688   0.751
 2496SOL    HW2 8388   1.615   4.557   0.670
 2497SOL     OW 8389   6.075   1.437   6.157
 2497SOL    HW1 8390   6.062   1.440   6.058
 2497SOL    HW2 8391   6.091   1.530   6.191
 2498SOL     OW 8392   1.561   3.431   4.570
 2498SOL    HW1 8393   1.494   3.467   4.506
 2498SOL    HW2 8394   1.647   3.482   4.561
 2499SOL     OW 8395   4.965   0.221   6.902
 2499SOL    HW1 8396   4.952   0.129   6.864
 2499SOL    HW2 8397   4.893   0.281   6.868
 2500SOL     OW 8398   4.935   2.894   6.169
 2500SOL    HW1 8399   4.855   2.890   6.229
 2500SOL    HW2 8400   4.993   2.971   6.195
 2501SOL     OW 8401   5.773   5.184   0.712
 2501SOL    HW1 8402   5.817   5.272   0.726
 2501SOL    HW2 8403   5.724   5.157   0.794
 2502SOL     OW 8404   0.979   6.743   2.903
 2502SOL    HW1 8405   0.963   6.644   2.906
 2502SOL    HW2 8406   1.059   6.761   2.847
 2503SOL     OW 8407   5.661   5.702   3.595
 2503SOL    HW1 8408   5.628   5.779   3.541
 2503SOL    HW2 8409   5.605   5.693   3.678
 2504SOL     OW 8410   3.218   4.915   2.710
 2504SOL    HW1 8411   3.259   4.866   2.633
 2504SOL    HW2 8412   3.214   5.012   2.689
 2505SOL     OW 8413   4.946   3.624   4.569
 2505SOL    HW1 8414   4.896   3.604   4.653
 2505SOL    HW2 8415   4.915   3.562   4.496
 2506SOL     OW 8416   1.529   1.206   0.199
 2506SOL    HW1 8417   1.511   1.249   0.111
 2506SOL    HW2 8418   1.492   1.113   0.198
 2507SOL     OW 8419   6.504   5.408   1.087
 2507SOL    HW1 8420   6.563   5.480   1.125
 2507SOL    HW2 8421   6.424   5.396   1.146
 2508SOL     OW 8422   1.505   1.426   1.412
 2508SOL    HW1 8423   1.459   1.498   1.362
 2508SOL    HW2 8424   1.439   1.357   1.442
 2509SOL     OW 8425   6.236   0.034   3.718
 2509SOL    HW1 8426   6.293   0.026   3.799
 2509SOL    HW2 8427   6.286   0.080   3.645
 2510SOL     OW 8428   3.680   6.039   2.846
 2510SOL    HW1 8429   3.621   6.103   2.896
 2510SOL    HW2 8430   3.742   6.092   2.788
 2511SOL     OW 8431   0.866   5.226   4.294
 2511SOL    HW1 8432   0.893   5.168   4.218
 2511SOL    HW2 8433   0.768   5.216   4.311
 2512SOL     OW 8434   5.927   3.213   4.714
 2512SOL    HW1 8435   6.021   3.243   4.700
 2512SOL    HW2 8436   5.899   3.234   4.808
 2513SOL     OW 8437   0.909   4.344   1.604
 2513SOL    HW1 8438   0.857   4.425   1.630
 2513SOL    HW2 8439   1.002   4.369   1.581
 2514SOL     OW 8440   0.070   2.311   4.790
 2514SOL    HW1 8441   0.010   2.258   4.849
 2514SOL    HW2 8442   0.165   2.286   4.807
 2515SOL     OW 8443   0.138   4.862   6.441
 2515SOL    HW1 8444   0.231   4.897   6.438
 2515SOL    HW2 8445   0.123   4.801   6.364
 2516SOL     OW 8446   5.101   6.513   4.776
 2516SOL    HW1 8447   5.005   6.534   4.758
 2516SOL    HW2 8448   5.149   6.495   4.690
 2517SOL     OW 8449   2.825   5.900   6.538
 2517SOL    HW1 8450   2.762   5.839   6.587
 2517SOL    HW2 8451   2.868   5.850   6.463
 2518SOL     OW 8452   2.037   2.344   0.784
 2518SOL    HW1 8453   2.104   2.416   0.794
 2518SOL    HW2 8454   2.079   2.265   0.738
 2519SOL     OW 8455   5.670   4.132   4.116
 2519SOL    HW1 8456   5.616   4.080   4.182
 2519SOL    HW2 8457   5.758   4.157   4.157
 2520SOL     OW 8458   4.656   5.520   0.826
 2520SOL    HW1 8459   4.562   5.545   0.804
 2520SOL    HW2 8460   4.658   5.425   0.858
 2521SOL     OW 8461   5.467   6.153   5.827
 2521SOL    HW1 8462   5.560   6.189   5.833
 2521SOL    HW2 8463   5.405   6.226   5.797
 2522SOL     OW 8464   3.774   5.409   4.589
 2522SOL    HW1 8465   3.748   5.369   4.677
 2522SOL    HW2 8466   3.699   5.464   4.553
 2523SOL     OW 8467   1.091   2.054   6.881
 2523SOL    HW1 8468   1.077   1.998   6.799
 2523SOL    HW2 8469   1.011   2.112   6.896
 2524SOL     OW 8470   1.984   0.142   4.456
 2524SOL    HW1 8471   1.949   0.190   4.536
 2524SOL    HW2 8472   2.040   0.205   4.402
 2525SOL     OW 8473   2.983   4.986   2.415
 2525SOL    HW1 8474   2.971   4.931   2.333
 2525SOL    HW2 8475   2.960   5.082   2.395
 2526SOL     OW 8476   2.087   3.185   5.235
 2526SOL    HW1 8477   2.140   3.102   5.254
 2526SOL    HW2 8478   2.111   3.220   5.145
 2527SOL     OW 8479   6.727   7.004   4.061
 2527SOL    HW1 8480   6.780   0.012   3.984
 2527SOL    HW2 8481   6.664   6.933   4.029
 2528SOL     OW 8482   5.640   4.717   2.668
 2528SOL    HW1 8483   5.619   4.787   2.600
 2528SOL    HW2 8484   5.556   4.689   2.715
 2529SOL     OW 8485   5.019   5.869   4.892
 2529SOL    HW1 8486   5.100   5.927   4.899
 2529SOL    HW2 8487   5.036   5.796   4.825
 2530SOL     OW 8488   1.276   6.693   3.492
 2530SOL    HW1 8489   1.353   6.635   3.518
 2530SOL    HW2 8490   1.191   6.654   3.527
 2531SOL     OW 8491   5.029   2.668   6.013
 2531SOL    HW1 8492   5.009   2.726   6.091
 2531SOL    HW2 8493   4.944   2.641   5.968
 2532SOL     OW 8494   6.403   5.291   6.827
 2532SOL    HW1 8495   6.359   5.360   6.886
 2532SOL    HW2 8496   6.488   5.329   6.791
 2533SOL     OW 8497   4.654   0.464   3.816
 2533SOL    HW1 8498   4.578   0.519   3.852
 2533SOL    HW2 8499   4.619   0.401   3.746
 2534SOL     OW 8500   6.700   0.605   2.421
 2534SOL    HW1 8501   6.663   0.599   2.328
 2534SOL    HW2 8502   6.698   0.514   2.463
 2535SOL     OW 8503   2.871   1.136   1.284
 2535SOL    HW1 8504   2.891   1.100   1.375
 2535SOL    HW2 8505   2.850   1.234   1.291
 2536SOL     OW 8506   0.489   6.923   2.920
 2536SOL    HW1 8507   0.564   6.959   2.975
 2536SOL    HW2 8508   0.460   6.992   2.854
 2537SOL     OW 8509   2.368   6.566   1.733
 2537SOL    HW1 8510   2.357   6.662   1.706
 2537SOL    HW2 8511   2.279   6.521   1.734
 2538SOL     OW 8512   0.141   5.215   4.987
 2538SOL    HW1 8513   0.221   5.155   4.997
 2538SOL    HW2 8514   0.127   5.266   5.072
 2539SOL     OW 8515   0.428   7.013   5.263
 2539SOL    HW1 8516   0.516   6.973   5.240
 2539SOL    HW2 8517   0.357   6.973   5.205
 2540SOL     OW 8518   5.703   3.040   2.159
 2540SOL    HW1 8519   5.638   2.996   2.097
 2540SOL    HW2 8520   5.711   2.987   2.243
 2541SOL     OW 8521   1.931   0.576   6.944
 2541SOL    HW1 8522   1.866   0.621   7.006
 2541SOL    HW2 8523   2.014   0.552   6.996
 2542SOL     OW 8524   4.201   2.151   2.740
 2542SOL    HW1 8525   4.259   2.232   2.740
 2542SOL    HW2 8526   4.239   2.083   2.804
 2543SOL     OW 8527   5.820   6.600   5.429
 2543SOL    HW1 8528   5.730   6.633   5.403
 2543SOL    HW2 8529   5.857   6.655   5.504
 2544SOL     OW 8530   0.226   0.738   0.434
 2544SOL    HW1 8531   0.209   0.824   0.387
 2544SOL    HW2 8532   0.261   0.671   0.368
 2545SOL     OW 8533   1.001   1.563   0.432
 2545SOL    HW1 8534   0.930   1.600   0.491
 2545SOL    HW2 8535   1.091   1.584   0.470
 2546SOL     OW 8536   6.081   2.884   3.669
 2546SOL    HW1 8537   6.110   2.956   3.732
 2546SOL    HW2 8538   6.100   2.795   3.710
 2547SOL     OW 8539   6.546   3.384   0.681
 2547SOL    HW1 8540   6.643   3.360   0.679
 2547SOL    HW2 8541   6.499   3.339   0.605
 2548SOL     OW 8542   5.640   0.177   5.488
 2548SOL    HW1 8543   5.730   0.222   5.495
 2548SOL    HW2 8544   5.651   0.087   5.446
 2549SOL     OW 8545   2.907   4.068   6.667
 2549SOL    HW1 8546   2.993   4.058   6.618
 2549SOL    HW2 8547   2.912   4.148   6.727
 2550SOL     OW 8548   3.792   0.933   1.653
 2550SOL    HW1 8549   3.815   0.970   1.563
 2550SOL    HW2 8550   3.694   0.913   1.656
 2551SOL     OW 8551   2.513   4.742   0.630
 2551SOL    HW1 8552   2.576   4.735   0.553
 2551SOL    HW2 8553   2.533   4.670   0.696
 2552SOL     OW 8554   3.147   5.278   0.809
 2552SOL    HW1 8555   3.109   5.192   0.846
 2552SOL    HW2 8556   3.246   5.275   0.816
 2553SOL     OW 8557   3.887   2.019   1.601
 2553SOL    HW1 8558   3.874   2.107   1.647
 2553SOL    HW2 8559   3.933   1.956   1.663
 2554SOL     OW 8560   1.059   5.350   1.003
 2554SOL    HW1 8561   1.052   5.252   0.988
 2554SOL    HW2 8562   0.977   5.384   1.050
 2555SOL     OW 8563   0.206   5.837   4.728
 2555SOL    HW1 8564   0.117   5.883   4.727
 2555SOL    HW2 8565   0.209   5.768   4.656
 2556SOL     OW 8566   5.512   0.581   6.931
 2556SOL    HW1 8567   5.608   0.603   6.942
 2556SOL    HW2 8568   5.488   0.505   6.991
 2557SOL     OW 8569   2.580   1.305   0.670
 2557SOL    HW1 8570   2.545   1.252   0.747
 2557SOL    HW2 8571   2.678   1.324   0.684
 2558SOL     OW 8572   5.690   2.916   1.754
 2558SOL    HW1 8573   5.777   2.873   1.775
 2558SOL    HW2 8574   5.705   3.013   1.732
 2559SOL     OW 8575   6.874   6.031   3.286
 2559SOL    HW1 8576   6.793   6.009   3.341
 2559SOL    HW2 8577   6.924   5.947   3.267
 2560SOL     OW 8578   3.948   3.090   1.732
 2560SOL    HW1 8579   3.861   3.137   1.717
 2560SOL    HW2 8580   4.023   3.156   1.730
 2561SOL     OW 8581   3.590   0.840   4.713
 2561SOL    HW1 8582   3.665   0.785   4.677
 2561SOL    HW2 8583   3.592   0.839   4.813
 2562SOL     OW 8584   0.826   6.540   4.684
 2562SOL    HW1 8585   0.918   6.576   4.699
 2562SOL    HW2 8586   0.759   6.613   4.695
 2563SOL     OW 8587   4.395   1.605   0.192
 2563SOL    HW1 8588   4.487   1.596   0.229
 2563SOL    HW2 8589   4.370   1.520   0.145
 2564SOL     OW 8590   1.930   0.544   1.724
 2564SOL    HW1 8591   2.001   0.573   1.787
 2564SOL    HW2 8592   1.880   0.467   1.764
 2565SOL     OW 8593   5.891   0.546   0.353
 2565SOL    HW1 8594   5.905   0.537   0.451
 2565SOL    HW2 8595   5.858   0.639   0.332
 2566SOL     OW 8596   2.818   1.498   0.697
 2566SOL    HW1 8597   2.815   1.598   0.700
 2566SOL    HW2 8598   2.837   1.464   0.789
 2567SOL     OW 8599   1.915   0.606   6.264
 2567SOL    HW1 8600   1.918   0.631   6.168
 2567SOL    HW2 8601   1.887   0.511   6.273
 2568SOL     OW 8602   3.266   6.441   6.985
 2568SOL    HW1 8603   3.291   6.513   0.024
 2568SOL    HW2 8604   3.200   6.478   6.920
 2569SOL     OW 8605   3.288   6.523   6.282
 2569SOL    HW1 8606   3.332   6.492   6.367
 2569SOL    HW2 8607   3.216   6.588   6.303
 2570SOL     OW 8608   0.029   0.403   3.552
 2570SOL    HW1 8609   0.110   0.457   3.574
 2570SOL    HW2 8610   0.041   0.309   3.586
 2571SOL     OW 8611   3.302   3.431   2.254
 2571SOL    HW1 8612   3.306   3.389   2.345
 2571SOL    HW2 8613   3.393   3.462   2.227
 2572SOL     OW 8614   2.526   6.299   2.461
 2572SOL    HW1 8615   2.492   6.393   2.452
 2572SOL    HW2 8616   2.618   6.294   2.422
 2573SOL     OW 8617   6.230   0.285   2.410
 2573SOL    HW1 8618   6.320   0.263   2.447
 2573SOL    HW2 8619   6.204   0.215   2.342
 2574SOL     OW 8620   0.767   4.583   1.711
 2574SOL    HW1 8621   0.734   4.584   1.805
 2574SOL    HW2 8622   0.841   4.649   1.700
 2575SOL     OW 8623   4.280   3.463   5.270
 2575SOL    HW1 8624   4.234   3.550   5.252
 2575SOL    HW2 8625   4.379   3.475   5.261
 2576SOL     OW 8626   1.392   0.689   3.759
 2576SOL    HW1 8627   1.450   0.757   3.803
 2576SOL    HW2 8628   1.378   0.715   3.663
 2577SOL     OW 8629   1.467   4.554   0.139
 2577SOL    HW1 8630   1.408   4.622   0.184
 2577SOL    HW2 8631   1.413   4.498   0.078
 2578SOL     OW 8632   5.268   1.118   5.248
 2578SOL    HW1 8633   5.321   1.045   5.205
 2578SOL    HW2 8634   5.297   1.130   5.343
 2579SOL     OW 8635   0.245   2.541   6.392
 2579SOL    HW1 8636   0.301   2.462   6.418
 2579SOL    HW2 8637   0.296   2.625   6.411
 2580SOL     OW 8638   1.847   2.487   5.571
 2580SOL    HW1 8639   1.897   2.403   5.549
 2580SOL    HW2 8640   1.885   2.563   5.519
 2581SOL     OW 8641   4.960   6.869   4.035
 2581SOL    HW1 8642   4.958   6.942   4.103
 2581SOL    HW2 8643   5.042   6.812   4.049
 2582SOL     OW 8644   6.815   4.543   2.495
 2582SOL    HW1 8645   6.908   4.519   2.469
 2582SOL    HW2 8646   6.816   4.587   2.585
 2583SOL     OW 8647   2.785   0.374   0.005
 2583SOL    HW1 8648   2.771   0.473   0.014
 2583SOL    HW2 8649   2.860   0.346   0.065
 2584SOL     OW 8650   3.721   1.135   4.329
 2584SOL    HW1 8651   3.760   1.150   4.238
 2584SOL    HW2 8652   3.644   1.197   4.343
 2585SOL     OW 8653   3.732   0.724   3.050
 2585SOL    HW1 8654   3.738   0.680   2.961
 2585SOL    HW2 8655   3.635   0.743   3.071
 2586SOL     OW 8656   1.857   1.926   4.473
 2586SOL    HW1 8657   1.940   1.946   4.421
 2586SOL    HW2 8658   1.844   1.996   4.543
 2587SOL     OW 8659   6.755   4.736   3.452
 2587SOL    HW1 8660   6.719   4.772   3.366
 2587SOL    HW2 8661   6.803   4.650   3.435
 2588SOL     OW 8662   2.878   0.059   2.575
 2588SOL    HW1 8663   2.934   0.100   2.503
 2588SOL    HW2 8664   2.912   6.994   2.595
 2589SOL     OW 8665   5.183   6.697   1.970
 2589SOL    HW1 8666   5.256   6.631   1.989
 2589SOL    HW2 8667   5.101   6.647   1.942
 2590SOL     OW 8668   4.242   6.355   3.727
 2590SOL    HW1 8669   4.200   6.310   3.648
 2590SOL    HW2 8670   4.176   6.415   3.771
 2591SOL     OW 8671   5.237   0.468   0.752
 2591SOL    HW1 8672   5.149   0.501   0.786
 2591SOL    HW2 8673   5.308   0.536   0.772
 2592SOL     OW 8674   2.812   5.779   1.929
 2592SOL    HW1 8675   2.818   5.857   1.991
 2592SOL    HW2 8676   2.901   5.763   1.887
 2593SOL     OW 8677   2.900   0.354   4.378
 2593SOL    HW1 8678   2.918   0.353   4.280
 2593SOL    HW2 8679   2.900   0.260   4.412
 2594SOL     OW 8680   1.722   5.938   6.540
 2594SOL    HW1 8681   1.779   5.874   6.592
 2594SOL    HW2 8682   1.646   5.969   6.597
 2595SOL     OW 8683   0.414   3.149   5.404
 2595SOL    HW1 8684   0.344   3.219   5.387
 2595SOL    HW2 8685   0.444   3.111   5.316
 2596SOL     OW 8686   4.241   1.675   0.832
 2596SOL    HW1 8687   4.265   1.718   0.919
 2596SOL    HW2 8688   4.287   1.587   0.825
 2597SOL     OW 8689   2.749   1.941   5.848
 2597SOL    HW1 8690   2.839   1.978   5.869
 2597SOL    HW2 8691   2.714   1.985   5.765
 2598SOL     OW 8692   6.889   1.169   3.329
 2598SOL    HW1 8693   6.906   1.071   3.328
 2598SOL    HW2 8694   6.805   1.189   3.276
 2599SOL     OW 8695   5.110   5.854   6.002
 2599SOL    HW1 8696   5.121   5.897   6.092
 2599SOL    HW2 8697   5.187   5.878   5.944
 2600SOL     OW 8698   0.088   3.471   5.182
 2600SOL    HW1 8699   0.050   3.406   5.117
 2600SOL    HW2 8700   0.188   3.466   5.181
 2601SOL     OW 8701   4.120   4.380   5.299
 2601SOL    HW1 8702   4.174   4.405   5.218
 2601SOL    HW2 8703   4.047   4.317   5.272
 2602SOL     OW 8704   6.000   0.293   0.237
 2602SOL    HW1 8705   5.997   0.239   0.321
 2602SOL    HW2 8706   5.978   0.389   0.258
 2603SOL     OW 8707   1.835   1.657   6.989
 2603SOL    HW1 8708   1.927   1.635   6.957
 2603SOL    HW2 8709   1.772   1.657   6.911
 2604SOL     OW 8710   5.956   1.167   0.611
 2604SOL    HW1 8711   5.945   1.172   0.711
 2604SOL    HW2 8712   6.050   1.191   0.587
 2605SOL     OW 8713   5.705   1.705   5.554
 2605SOL    HW1 8714   5.635   1.742   5.615
 2605SOL    HW2 8715   5.662   1.674   5.469
 2606SOL     OW 8716   6.341   4.443   1.056
 2606SOL    HW1 8717   6.361   4.390   1.139
 2606SOL    HW2 8718   6.321   4.538   1.081
 2607SOL     OW 8719   0.594   0.436   3.146
 2607SOL    HW1 8720   0.529   0.393   3.083
 2607SOL    HW2 8721   0.676   0.464   3.096
 2608SOL     OW 8722   4.570   0.839   0.217
 2608SOL    HW1 8723   4.652   0.884   0.252
 2608SOL    HW2 8724   4.566   0.848   0.117
 2609SOL     OW 8725   0.924   4.260   3.613
 2609SOL    HW1 8726   0.943   4.338   3.672
 2609SOL    HW2 8727   1.004   4.199   3.612
 2610SOL     OW 8728   5.709   4.822   4.815
 2610SOL    HW1 8729   5.675   4.838   4.722
 2610SOL    HW2 8730   5.735   4.727   4.825
 2611SOL     OW 8731   3.026   6.468   1.534
 2611SOL    HW1 8732   3.051   6.372   1.523
 2611SOL    HW2 8733   2.960   6.494   1.464
 2612SOL     OW 8734   0.455   7.007   3.862
 2612SOL    HW1 8735   0.523   7.026   3.933
 2612SOL    HW2 8736   0.365   0.014   3.892
 2613SOL     OW 8737   3.967   1.618   0.111
 2613SOL    HW1 8738   3.962   1.546   0.181
 2613SOL    HW2 8739   3.995   1.578   0.024
 2614SOL     OW 8740   6.202   6.879   6.842
 2614SOL    HW1 8741   6.117   6.871   6.894
 2614SOL    HW2 8742   6.181   6.896   6.746
 2615SOL     OW 8743   0.016   4.500   1.488
 2615SOL    HW1 8744   6.964   4.478   1.547
 2615SOL    HW2 8745   7.016   4.574   1.425
 2616SOL     OW 8746   3.907   3.798   1.532
 2616SOL    HW1 8747   3.816   3.759   1.544
 2616SOL    HW2 8748   3.961   3.739   1.472
 2617SOL     OW 8749   2.962   6.862   0.501
 2617SOL    HW1 8750   2.941   6.885   0.596
 2617SOL    HW2 8751   3.002   6.771   0.496
 2618SOL     OW 8752   1.374   5.610   0.113
 2618SOL    HW1 8753   1.369   5.704   0.078
 2618SOL    HW2 8754   1.354   5.610   0.211
 2619SOL     OW 8755   5.918   0.862   2.855
 2619SOL    HW1 8756   5.874   0.860   2.945
 2619SOL    HW2 8757   5.893   0.946   2.807
 2620SOL     OW 8758   1.901   6.012   3.863
 2620SOL    HW1 8759   1.978   6.054   3.814
 2620SOL    HW2 8760   1.879   6.068   3.943
 2621SOL     OW 8761   1.521   5.889   4.521
 2621SOL    HW1 8762   1.446   5.944   4.558
 2621SOL    HW2 8763   1.526   5.902   4.422
 2622SOL     OW 8764   2.364   2.766   4.195
 2622SOL    HW1 8765   2.368   2.756   4.095
 2622SOL    HW2 8766   2.410   2.688   4.238
 2623SOL     OW 8767   3.095   0.088   5.307
 2623SOL    HW1 8768   3.057   0.032   5.234
 2623SOL    HW2 8769   3.037   0.168   5.322
 2624SOL     OW 8770   4.691   1.667   4.417
 2624SOL    HW1 8771   4.642   1.614   4.486
 2624SOL    HW2 8772   4.625   1.714   4.358
 2625SOL     OW 8773   1.544   0.352   5.484
 2625SOL    HW1 8774   1.595   0.284   5.432
 2625SOL    HW2 8775   1.467   0.307   5.530
 2626SOL     OW 8776   2.974   6.866   3.210
 2626SOL    HW1 8777   2.946   6.960   3.230
 2626SOL    HW2 8778   3.040   6.836   3.279
 2627SOL     OW 8779   1.327   7.022   4.121
 2627SOL    HW1 8780   1.249   6.960   4.121
 2627SOL    HW2 8781   1.358   0.009   4.027
 2628SOL     OW 8782   4.637   4.923   6.857
 2628SOL    HW1 8783   4.571   4.939   6.784
 2628SOL    HW2 8784   4.724   4.966   6.834
 2629SOL     OW 8785   2.977   4.118   1.760
 2629SOL    HW1 8786   2.942   4.095   1.669
 2629SOL    HW2 8787   3.010   4.212   1.760
 2630SOL     OW 8788   3.413   1.517   2.625
 2630SOL    HW1 8789   3.433   1.585   2.555
 2630SOL    HW2 8790   3.317   1.491   2.620
 2631SOL     OW 8791   3.245   6.397   3.428
 2631SOL    HW1 8792   3.238   6.489   3.391
 2631SOL    HW2 8793   3.325   6.391   3.488
 2632SOL     OW 8794   4.872   1.625   0.705
 2632SOL    HW1 8795   4.902   1.665   0.792
 2632SOL    HW2 8796   4.911   1.534   0.695
 2633SOL     OW 8797   0.227   2.211   0.116
 2633SOL    HW1 8798   0.288   2.180   0.188
 2633SOL    HW2 8799   0.268   2.289   0.069
 2634SOL     OW 8800   2.336   5.147   0.026
 2634SOL    HW1 8801   2.242   5.175   0.041
 2634SOL    HW2 8802   2.348   5.052   0.053
 2635SOL     OW 8803   6.113   4.100   3.465
 2635SOL    HW1 8804   6.016   4.084   3.448
 2635SOL    HW2 8805   6.132   4.198   3.458
 2636SOL     OW 8806   5.143   4.758   5.898
 2636SOL    HW1 8807   5.227   4.770   5.845
 2636SOL    HW2 8808   5.155   4.799   5.989
 2637SOL     OW 8809   5.226   5.011   1.929
 2637SOL    HW1 8810   5.310   4.961   1.951
 2637SOL    HW2 8811   5.248   5.089   1.871
 2638SOL     OW 8812   4.658   5.408   0.307
 2638SOL    HW1 8813   4.742   5.382   0.260
 2638SOL    HW2 8814   4.673   5.403   0.406
 2639SOL     OW 8815   6.061   0.731   0.201
 2639SOL    HW1 8816   6.063   0.830   0.194
 2639SOL    HW2 8817   6.001   0.704   0.277
 2640SOL     OW 8818   6.617   6.317   1.169
 2640SOL    HW1 8819   6.526   6.307   1.128
 2640SOL    HW2 8820   6.672   6.378   1.114
 2641SOL     OW 8821   6.742   5.683   1.389
 2641SOL    HW1 8822   6.776   5.776   1.378
 2641SOL    HW2 8823   6.662   5.668   1.331
 2642SOL     OW 8824   6.687   6.698   4.088
 2642SOL    HW1 8825   6.734   6.611   4.074
 2642SOL    HW2 8826   6.640   6.696   4.176
 2643SOL     OW 8827   1.245   0.460   2.141
 2643SOL    HW1 8828   1.266   0.400   2.218
 2643SOL    HW2 8829   1.247   0.556   2.171
 2644SOL     OW 8830   6.090   6.297   4.585
 2644SOL    HW1 8831   5.995   6.282   4.559
 2644SOL    HW2 8832   6.095   6.366   4.657
 2645SOL     OW 8833   5.842   6.212   6.563
 2645SOL    HW1 8834   5.932   6.246   6.537
 2645SOL    HW2 8835   5.811   6.259   6.645
 2646SOL     OW 8836   5.805   5.197   5.608
 2646SOL    HW1 8837   5.811   5.219   5.705
 2646SOL    HW2 8838   5.887   5.228   5.561
 2647SOL     OW 8839   3.061   4.218   0.732
 2647SOL    HW1 8840   3.008   4.292   0.690
 2647SOL    HW2 8841   3.130   4.186   0.668
 2648SOL     OW 8842   4.479   1.236   3.380
 2648SOL    HW1 8843   4.570   1.275   3.387
 2648SOL    HW2 8844   4.461   1.210   3.285
 2649SOL     OW 8845   2.921   3.885   5.109
 2649SOL    HW1 8846   2.829   3.903   5.142
 2649SOL    HW2 8847   2.978   3.850   5.183
 2650SOL     OW 8848   6.949   6.647   2.524
 2650SOL    HW1 8849   6.910   6.707   2.593
 2650SOL    HW2 8850   6.972   6.559   2.566
 2651SOL     OW 8851   1.878   0.464   2.691
 2651SOL    HW1 8852   1.806   0.443   2.757
 2651SOL    HW2 8853   1.887   0.388   2.626
 2652SOL     OW 8854   3.289   2.061   1.739
 2652SOL    HW1 8855   3.246   2.074   1.829
 2652SOL    HW2 8856   3.318   2.150   1.704
 2653SOL     OW 8857   5.352   0.009   0.835
 2653SOL    HW1 8858   5.428   7.024   0.899
 2653SOL    HW2 8859   5.317   0.102   0.841
 2654SOL     OW 8860   0.354   3.487   5.705
 2654SOL    HW1 8861   0.362   3.498   5.804
 2654SOL    HW2 8862   0.382   3.572   5.659
 2655SOL     OW 8863   5.498   4.727   3.728
 2655SOL    HW1 8864   5.399   4.712   3.730
 2655SOL    HW2 8865   5.526   4.754   3.636
 2656SOL     OW 8866   6.230   3.863   5.154
 2656SOL    HW1 8867   6.213   3.845   5.251
 2656SOL    HW2 8868   6.274   3.783   5.113
 2657SOL     OW 8869   4.209   2.008   5.498
 2657SOL    HW1 8870   4.297   1.961   5.506
 2657SOL    HW2 8871   4.205   2.059   5.412
 2658SOL     OW 8872   0.199   4.107   5.988
 2658SOL    HW1 8873   0.208   4.042   5.913
 2658SOL    HW2 8874   0.287   4.119   6.034
 2659SOL     OW 8875   5.950   0.725   3.384
 2659SOL    HW1 8876   6.043   0.693   3.395
 2659SOL    HW2 8877   5.944   0.783   3.303
 2660SOL     OW 8878   1.270   1.564   3.875
 2660SOL    HW1 8879   1.278   1.663   3.881
 2660SOL    HW2 8880   1.233   1.529   3.961
 2661SOL     OW 8881   3.683   6.806   3.225
 2661SOL    HW1 8882   3.657   6.712   3.249
 2661SOL    HW2 8883   3.727   6.806   3.135
 2662SOL     OW 8884   4.383   1.248   4.792
 2662SOL    HW1 8885   4.294   1.233   4.833
 2662SOL    HW2 8886   4.423   1.161   4.763
 2663SOL     OW 8887   1.246   4.335   3.324
 2663SOL    HW1 8888   1.262   4.258   3.386
 2663SOL    HW2 8889   1.177   4.395   3.363
 2664SOL     OW 8890   4.902   4.113   1.958
 2664SOL    HW1 8891   4.861   4.108   2.049
 2664SOL    HW2 8892   4.831   4.108   1.888
 2665SOL     OW 8893   3.812   0.541   5.294
 2665SOL    HW1 8894   3.848   0.633   5.278
 2665SOL    HW2 8895   3.887   0.475   5.292
 2666SOL     OW 8896   4.596   6.149   1.736
 2666SOL    HW1 8897   4.623   6.245   1.743
 2666SOL    HW2 8898   4.626   6.099   1.817
 2667SOL     OW 8899   1.840   5.136   2.814
 2667SOL    HW1 8900   1.828   5.176   2.723
 2667SOL    HW2 8901   1.834   5.209   2.883
 2668SOL     OW 8902   0.539   2.843   5.364
 2668SOL    HW1 8903   0.546   2.837   5.264
 2668SOL    HW2 8904   0.523   2.751   5.401
 2669SOL     OW 8905   4.193   5.287   4.721
 2669SOL    HW1 8906   4.115   5.272   4.782
 2669SOL    HW2 8907   4.188   5.380   4.683
 2670SOL     OW 8908   1.935   6.908   4.501
 2670SOL    HW1 8909   1.954   7.005   4.481
 2670SOL    HW2 8910   1.992   6.850   4.443
 2671SOL     OW 8911   2.699   3.633   6.679
 2671SOL    HW1 8912   2.788   3.593   6.701
 2671SOL    HW2 8913   2.637   3.560   6.648
 2672SOL     OW 8914   1.300   4.363   0.700
 2672SOL    HW1 8915   1.355   4.307   0.639
 2672SOL    HW2 8916   1.316   4.335   0.795
 2673SOL     OW 8917   4.367   2.414   3.353
 2673SOL    HW1 8918   4.330   2.437   3.264
 2673SOL    HW2 8919   4.310   2.345   3.397
 2674SOL     OW 8920   4.740   5.823   5.537
 2674SOL    HW1 8921   4.780   5.857   5.622
 2674SOL    HW2 8922   4.735   5.898   5.471
 2675SOL     OW 8923   0.282   5.232   5.669
 2675SOL    HW1 8924   0.357   5.271   5.723
 2675SOL    HW2 8925   0.233   5.305   5.623
 2676SOL     OW 8926   4.704   0.155   1.583
 2676SOL    HW1 8927   4.720   0.250   1.609
 2676SOL    HW2 8928   4.748   0.094   1.649
 2677SOL     OW 8929   2.339   4.654   2.256
 2677SOL    HW1 8930   2.275   4.642   2.180
 2677SOL    HW2 8931   2.431   4.631   2.226
 2678SOL     OW 8932   1.033   6.124   0.094
 2678SOL    HW1 8933   0.991   6.199   0.043
 2678SOL    HW2 8934   1.133   6.128   0.082
 2679SOL     OW 8935   2.252   5.127   0.951
 2679SOL    HW1 8936   2.205   5.048   0.991
 2679SOL    HW2 8937   2.348   5.126   0.979
 2680SOL     OW 8938   6.642   2.229   0.941
 2680SOL    HW1 8939   6.613   2.316   0.982
 2680SOL    HW2 8940   6.654   2.241   0.842
 2681SOL     OW 8941   1.586   1.831   1.469
 2681SOL    HW1 8942   1.663   1.772   1.444
 2681SOL    HW2 8943   1.583   1.909   1.406
 2682SOL     OW 8944   0.613   2.921   3.509
 2682SOL    HW1 8945   0.642   2.825   3.502
 2682SOL    HW2 8946   0.603   2.959   3.417
 2683SOL     OW 8947   1.825   0.223   1.168
 2683SOL    HW1 8948   1.902   0.271   1.126
 2683SOL    HW2 8949   1.847   0.200   1.262
 2684SOL     OW 8950   3.604   4.883   3.315
 2684SOL    HW1 8951   3.538   4.901   3.243
 2684SOL    HW2 8952   3.561   4.893   3.405
 2685SOL     OW 8953   5.315   4.792   5.662
 2685SOL    HW1 8954   5.369   4.736   5.725
 2685SOL    HW2 8955   5.298   4.740   5.578
 2686SOL     OW 8956   1.437   3.887   3.944
 2686SOL    HW1 8957   1.368   3.817   3.928
 2686SOL    HW2 8958   1.430   3.959   3.874
 2687SOL     OW 8959   4.748   5.150   2.802
 2687SOL    HW1 8960   4.808   5.153   2.722
 2687SOL    HW2 8961   4.666   5.097   2.780
 2688SOL     OW 8962   3.212   4.503   5.367
 2688SOL    HW1 8963   3.161   4.423   5.334
 2688SOL    HW2 8964   3.150   4.579   5.383
 2689SOL     OW 8965   6.000   1.027   4.297
 2689SOL    HW1 8966   6.099   1.032   4.294
 2689SOL    HW2 8967   5.961   1.116   4.272
 2690SOL     OW 8968   3.519   4.110   3.690
 2690SOL    HW1 8969   3.427   4.092   3.655
 2690SOL    HW2 8970   3.513   4.142   3.784
 2691SOL     OW 8971   1.073   6.202   1.459
 2691SOL    HW1 8972   1.051   6.135   1.530
 2691SOL    HW2 8973   0.990   6.248   1.428
 2692SOL     OW 8974   0.282   4.046   4.330
 2692SOL    HW1 8975   0.257   3.972   4.392
 2692SOL    HW2 8976   0.249   4.024   4.238
 2693SOL     OW 8977   2.056   3.319   2.617
 2693SOL    HW1 8978   2.035   3.338   2.521
 2693SOL    HW2 8979   2.078   3.405   2.664
 2694SOL     OW 8980   2.043   1.623   2.879
 2694SOL    HW1 8981   2.106   1.700   2.870
 2694SOL    HW2 8982   2.009   1.596   2.789
 2695SOL     OW 8983   3.913   2.265   1.768
 2695SOL    HW1 8984   3.824   2.292   1.806
 2695SOL    HW2 8985   3.958   2.202   1.832
 2696SOL     OW 8986   3.262   3.465   6.671
 2696SOL    HW1 8987   3.329   3.505   6.733
 2696SOL    HW2 8988   3.258   3.366   6.686
 2697SOL     OW 8989   2.218   1.036   5.330
 2697SOL    HW1 8990   2.276   0.955   5.338
 2697SOL    HW2 8991   2.122   1.009   5.336
 2698SOL     OW 8992   2.076   2.115   0.067
 2698SOL    HW1 8993   2.068   2.191   0.003
 2698SOL    HW2 8994   2.159   2.127   0.122
 2699SOL     OW 8995   1.679   4.176   3.717
 2699SOL    HW1 8996   1.701   4.080   3.738
 2699SOL    HW2 8997   1.683   4.230   3.801
 2700SOL     OW 8998   2.065   4.577   3.188
 2700SOL    HW1 8999   2.035   4.657   3.138
 2700SOL    HW2 9000   2.035   4.583   3.283
 2701SOL     OW 9001   1.114   0.629   4.868
 2701SOL    HW1 9002   1.040   0.563   4.854
 2701SOL    HW2 9003   1.200   0.580   4.878
 2702SOL     OW 9004   5.756   5.788   2.273
 2702SOL    HW1 9005   5.722   5.880   2.293
 2702SOL    HW2 9006   5.727   5.726   2.346
 2703SOL     OW 9007   2.049   2.847   2.442
 2703SOL    HW1 9008   2.042   2.934   2.491
 2703SOL    HW2 9009   2.133   2.800   2.468
 2704SOL     OW 9010   0.459   6.098   0.650
 2704SOL    HW1 9011   0.460   6.087   0.550
 2704SOL    HW2 9012   0.513   6.024   0.691
 2705SOL     OW 9013   0.047   2.904   3.289
 2705SOL    HW1 9014   0.105   2.905   3.371
 2705SOL    HW2 9015   0.099   2.871   3.211
 2706SOL     OW 9016   6.878   2.060   3.411
 2706SOL    HW1 9017   6.789   2.027   3.382
 2706SOL    HW2 9018   6.950   2.006   3.368
 2707SOL     OW 9019   3.555   0.616   0.454
 2707SOL    HW1 9020   3.651   0.634   0.475
 2707SOL    HW2 9021   3.497   0.687   0.495
 2708SOL     OW 9022   1.089   4.880   6.703
 2708SOL    HW1 9023   1.103   4.975   6.675
 2708SOL    HW2 9024   1.112   4.871   6.800
 2709SOL     OW 9025   3.678   0.382   1.844
 2709SOL    HW1 9026   3.769   0.415   1.820
 2709SOL    HW2 9027   3.681   0.338   1.934
 2710SOL     OW 9028   5.791   3.812   3.081
 2710SOL    HW1 9029   5.886   3.831   3.108
 2710SOL    HW2 9030   5.741   3.898   3.071
 2711SOL     OW 9031   6.950   6.568   2.015
 2711SOL    HW1 9032   0.011   6.617   2.024
 2711SOL    HW2 9033   6.934   6.546   1.918
 2712SOL     OW 9034   3.824   5.577   2.843
 2712SOL    HW1 9035   3.847   5.521   2.923
 2712SOL    HW2 9036   3.900   5.575   2.778
 2713SOL     OW 9037   2.719   2.760   5.597
 2713SOL    HW1 9038   2.666   2.677   5.576
 2713SOL    HW2 9039   2.656   2.833   5.623
 2714SOL     OW 9040   5.798   0.247   6.614
 2714SOL    HW1 9041   5.880   0.229   6.668
 2714SOL    HW2 9042   5.774   0.166   6.561
 2715SOL     OW 9043   6.000   6.942   6.453
 2715SOL    HW1 9044   5.985   7.021   6.394
 2715SOL    HW2 9045   5.946   6.864   6.420
 2716SOL     OW 9046   6.035   6.608   2.115
 2716SOL    HW1 9047   6.099   6.642   2.047
 2716SOL    HW2 9048   6.083   6.547   2.178
 2717SOL     OW 9049   6.952   6.864   3.156
 2717SOL    HW1 9050   0.002   6.834   3.099
 2717SOL    HW2 9051   6.954   6.964   3.164
 2718SOL     OW 9052   6.796   3.734   3.248
 2718SOL    HW1 9053   6.871   3.671   3.270
 2718SOL    HW2 9054   6.774   3.727   3.151
 2719SOL     OW 9055   4.713   4.129   3.335
 2719SOL    HW1 9056   4.711   4.220   3.294
 2719SOL    HW2 9057   4.632   4.078   3.306
 2720SOL     OW 9058   0.213   0.041   3.942
 2720SOL    HW1 9059   0.212   6.973   3.975
 2720SOL    HW2 9060   0.139   0.093   3.985
 2721SOL     OW 9061   4.723   5.897   2.503
 2721SOL    HW1 9062   4.666   5.861   2.429
 2721SOL    HW2 9063   4.760   5.822   2.557
 2722SOL     OW 9064   0.372   5.848   2.524
 2722SOL    HW1 9065   0.274   5.830   2.521
 2722SOL    HW2 9066   0.417   5.800   2.448
 2723SOL     OW 9067   2.673   1.783   4.804
 2723SOL    HW1 9068   2.766   1.782   4.769
 2723SOL    HW2 9069   2.668   1.842   4.885
 2724SOL     OW 9070   4.599   5.857   5.830
 2724SOL    HW1 9071   4.565   5.795   5.900
 2724SOL    HW2 9072   4.698   5.863   5.835
 2725SOL     OW 9073   1.459   5.705   2.195
 2725SOL    HW1 9074   1.445   5.638   2.267
 2725SOL    HW2 9075   1.539   5.761   2.215
 2726SOL     OW 9076   4.278   6.117   2.444
 2726SOL    HW1 9077   4.242   6.088   2.532
 2726SOL    HW2 9078   4.232   6.066   2.371
 2727SOL     OW 9079   2.374   5.358   3.999
 2727SOL    HW1 9080   2.323   5.323   4.078
 2727SOL    HW2 9081   2.449   5.297   3.977
 2728SOL     OW 9082   2.218   6.525   5.022
 2728SOL    HW1 9083   2.304   6.571   5.044
 2728SOL    HW2 9084   2.222   6.429   5.051
 2729SOL     OW 9085   6.816   3.755   2.372
 2729SOL    HW1 9086   6.842   3.664   2.405
 2729SOL    HW2 9087   6.823   3.757   2.272
 2730SOL     OW 9088   1.686   2.989   1.592
 2730SOL    HW1 9089   1.627   2.924   1.641
 2730SOL    HW2 9090   1.773   2.998   1.642
 2731SOL     OW 9091   1.545   3.543   6.203
 2731SOL    HW1 9092   1.551   3.485   6.123
 2731SOL    HW2 9093   1.636   3.556   6.243
 2732SOL     OW 9094   5.524   2.984   4.507
 2732SOL    HW1 9095   5.433   2.969   4.469
 2732SOL    HW2 9096   5.516   3.044   4.587
 2733SOL     OW 9097   2.202   0.470   6.446
 2733SOL    HW1 9098   2.148   0.540   6.399
 2733SOL    HW2 9099   2.192   0.481   6.545
 2734SOL     OW 9100   2.200   0.056   3.986
 2734SOL    HW1 9101   2.109   0.090   3.963
 2734SOL    HW2 9102   2.246   0.025   3.902
 2735SOL     OW 9103   1.473   6.123   1.186
 2735SOL    HW1 9104   1.452   6.170   1.100
 2735SOL    HW2 9105   1.554   6.066   1.175
 2736SOL     OW 9106   4.374   0.762   6.732
 2736SOL    HW1 9107   4.462   0.786   6.690
 2736SOL    HW2 9108   4.386   0.681   6.789
 2737SOL     OW 9109   4.215   3.972   5.346
 2737SOL    HW1 9110   4.189   3.875   5.341
 2737SOL    HW2 9111   4.312   3.982   5.328
 2738SOL     OW 9112   0.495   3.714   5.581
 2738SOL    HW1 9113   0.594   3.697   5.579
 2738SOL    HW2 9114   0.472   3.763   5.664
 2739SOL     OW 9115   3.849   4.044   6.738
 2739SOL    HW1 9116   3.772   4.013   6.683
 2739SOL    HW2 9117   3.834   4.139   6.766
 2740SOL     OW 9118   6.542   2.802   4.802
 2740SOL    HW1 9119   6.590   2.844   4.879
 2740SOL    HW2 9120   6.468   2.862   4.773
 2741SOL     OW 9121   2.431   3.104   6.241
 2741SOL    HW1 9122   2.510   3.125   6.299
 2741SOL    HW2 9123   2.451   3.131   6.147
 2742SOL     OW 9124   2.411   5.896   5.005
 2742SOL    HW1 9125   2.378   5.841   5.082
 2742SOL    HW2 9126   2.496   5.856   4.970
 2743SOL     OW 9127   5.444   3.703   6.684
 2743SOL    HW1 9128   5.361   3.687   6.631
 2743SOL    HW2 9129   5.495   3.780   6.645
 2744SOL     OW 9130   4.817   6.562   1.191
 2744SOL    HW1 9131   4.840   6.486   1.130
 2744SOL    HW2 9132   4.872   6.642   1.166
 2745SOL     OW 9133   3.367   5.484   3.174
 2745SOL    HW1 9134   3.325   5.446   3.257
 2745SOL    HW2 9135   3.426   5.415   3.132
 2746SOL     OW 9136   1.219   2.246   0.001
 2746SOL    HW1 9137   1.178   2.328   6.987
 2746SOL    HW2 9138   1.224   2.173   6.958
 2747SOL     OW 9139   4.464   6.335   3.389
 2747SOL    HW1 9140   4.482   6.361   3.484
 2747SOL    HW2 9141   4.463   6.417   3.331
 2748SOL     OW 9142   5.716   0.814   5.009
 2748SOL    HW1 9143   5.716   0.722   5.047
 2748SOL    HW2 9144   5.667   0.876   5.070
 2749SOL     OW 9145   6.535   5.355   2.677
 2749SOL    HW1 9146   6.625   5.311   2.677
 2749SOL    HW2 9147   6.508   5.374   2.582
 2750SOL     OW 9148   0.780   0.395   0.423
 2750SOL    HW1 9149   0.769   0.492   0.399
 2750SOL    HW2 9150   0.805   0.387   0.519
 2751SOL     OW 9151   0.823   0.043   0.253
 2751SOL    HW1 9152   0.860   0.126   0.211
 2751SOL    HW2 9153   0.746   0.010   0.199
 2752SOL     OW 9154   0.487   6.719   6.176
 2752SOL    HW1 9155   0.449   6.661   6.103
 2752SOL    HW2 9156   0.418   6.785   6.205
 2753SOL     OW 9157   3.366   5.655   4.237
 2753SOL    HW1 9158   3.291   5.680   4.298
 2753SOL    HW2 9159   3.393   5.736   4.183
 2754SOL     OW 9160   0.910   5.244   3.841
 2754SOL    HW1 9161   0.906   5.172   3.910
 2754SOL    HW2 9162   0.818   5.258   3.803
 2755SOL     OW 9163   4.366   0.056   2.567
 2755SOL    HW1 9164   4.373   0.073   2.469
 2755SOL    HW2 9165   4.371   6.983   2.584
 2756SOL     OW 9166   0.238   3.057   4.924
 2756SOL    HW1 9167   0.164   3.113   4.888
 2756SOL    HW2 9168   0.280   3.005   4.849
 2757SOL     OW 9169   5.387   3.894   5.611
 2757SOL    HW1 9170   5.305   3.853   5.572
 2757SOL    HW2 9171   5.385   3.993   5.595
 2758SOL     OW 9172   6.868   6.730   1.178
 2758SOL    HW1 9173   6.863   6.830   1.184
 2758SOL    HW2 9174   6.786   6.690   1.221
 2759SOL     OW 9175   3.890   3.865   4.026
 2759SOL    HW1 9176   3.801   3.841   4.064
 2759SOL    HW2 9177   3.959   3.800   4.058
 2760SOL     OW 9178   5.326   5.833   3.280
 2760SOL    HW1 9179   5.361   5.796   3.194
 2760SOL    HW2 9180   5.378   5.794   3.357
 2761SOL     OW 9181   2.161   3.273   4.421
 2761SOL    HW1 9182   2.139   3.222   4.338
 2761SOL    HW2 9183   2.180   3.368   4.398
 2762SOL     OW 9184   4.477   1.937   2.708
 2762SOL    HW1 9185   4.412   1.914   2.636
 2762SOL    HW2 9186   4.461   1.879   2.788
 2763SOL     OW 9187   5.157   0.592   3.316
 2763SOL    HW1 9188   5.229   0.648   3.358
 2763SOL    HW2 9189   5.167   0.497   3.346
 2764SOL     OW 9190   0.191   1.754   2.711
 2764SOL    HW1 9191   0.212   1.721   2.803
 2764SOL    HW2 9192   0.203   1.853   2.708
 2765SOL     OW 9193   6.703   6.820   6.390
 2765SOL    HW1 9194   6.778   6.886   6.398
 2765SOL    HW2 9195   6.697   6.788   6.296
 2766SOL     OW 9196   5.389   0.315   7.016
 2766SOL    HW1 9197   5.309   0.284   0.041
 2766SOL    HW2 9198   5.470   0.311   0.049
 2767SOL     OW 9199   6.950   6.527   6.753
 2767SOL    HW1 9200   6.876   6.551   6.691
 2767SOL    HW2 9201   6.960   6.427   6.756
 2768SOL     OW 9202   4.211   0.440   1.787
 2768SOL    HW1 9203   4.246   0.487   1.706
 2768SOL    HW2 9204   4.154   0.363   1.758
 2769SOL     OW 9205   0.614   5.468   6.133
 2769SOL    HW1 9206   0.699   5.434   6.092
 2769SOL    HW2 9207   0.588   5.409   6.209
 2770SOL     OW 9208   1.660   6.731   0.032
 2770SOL    HW1 9209   1.598   6.724   6.980
 2770SOL    HW2 9210   1.749   6.692   0.009
 2771SOL     OW 9211   4.073   6.381   5.620
 2771SOL    HW1 9212   4.110   6.289   5.629
 2771SOL    HW2 9213   3.975   6.375   5.599
 2772SOL     OW 9214   6.287   1.890   2.999
 2772SOL    HW1 9215   6.234   1.822   2.949
 2772SOL    HW2 9216   6.333   1.846   3.076
 2773SOL     OW 9217   4.572   0.411   6.146
 2773SOL    HW1 9218   4.486   0.370   6.174
 2773SOL    HW2 9219   4.592   0.491   6.204
 2774SOL     OW 9220   6.255   6.805   3.645
 2774SOL    HW1 9221   6.232   6.884   3.701
 2774SOL    HW2 9222   6.194   6.729   3.667
 2775SOL     OW 9223   0.205   2.643   4.598
 2775SOL    HW1 9224   0.224   2.564   4.657
 2775SOL    HW2 9225   0.112   2.675   4.614
 2776SOL     OW 9226   5.392   3.948   5.963
 2776SOL    HW1 9227   5.478   3.904   5.988
 2776SOL    HW2 9228   5.333   3.883   5.916
 2777SOL     OW 9229   1.541   1.672   0.848
 2777SOL    HW1 9230   1.456   1.724   0.842
 2777SOL    HW2 9231   1.593   1.683   0.764
 2778SOL     OW 9232   2.719   6.437   5.477
 2778SOL    HW1 9233   2.703   6.433   5.379
 2778SOL    HW2 9234   2.657   6.374   5.524
 2779SOL     OW 9235   5.207   1.487   3.516
 2779SOL    HW1 9236   5.230   1.507   3.611
 2779SOL    HW2 9237   5.176   1.392   3.508
 2780SOL     OW 9238   0.569   6.905   5.580
 2780SOL    HW1 9239   0.645   6.953   5.624
 2780SOL    HW2 9240   0.591   6.888   5.484
 2781SOL     OW 9241   6.961   6.846   2.740
 2781SOL    HW1 9242   7.023   6.911   2.695
 2781SOL    HW2 9243   6.883   6.895   2.778
 2782SOL     OW 9244   5.740   6.446   4.900
 2782SOL    HW1 9245   5.671   6.423   4.831
 2782SOL    HW2 9246   5.720   6.397   4.985
 2783SOL     OW 9247   0.096   1.968   1.825
 2783SOL    HW1 9248   0.118   1.996   1.918
 2783SOL    HW2 9249   7.023   1.959   1.815
 2784SOL     OW 9250   1.404   1.994   2.467
 2784SOL    HW1 9251   1.398   2.001   2.367
 2784SOL    HW2 9252   1.417   1.898   2.493
 2785SOL     OW 9253   5.471   3.161   3.897
 2785SOL    HW1 9254   5.394   3.224   3.907
 2785SOL    HW2 9255   5.525   3.161   3.981
 2786SOL     OW 9256   0.133   6.349   1.509
 2786SOL    HW1 9257   0.142   6.250   1.514
 2786SOL    HW2 9258   0.204   6.392   1.564
 2787SOL     OW 9259   6.892   6.508   5.849
 2787SOL    HW1 9260   6.930   6.465   5.767
 2787SOL    HW2 9261   6.845   6.592   5.824
 2788SOL     OW 9262   3.081   6.741   6.307
 2788SOL    HW1 9263   3.077   6.809   6.234
 2788SOL    HW2 9264   3.111   6.784   6.392
 2789SOL     OW 9265   2.339   2.232   4.309
 2789SOL    HW1 9266   2.278   2.300   4.348
 2789SOL    HW2 9267   2.363   2.258   4.215
 2790SOL     OW 9268   1.155   4.778   0.830
 2790SOL    HW1 9269   1.194   4.806   0.918
 2790SOL    HW2 9270   1.055   4.773   0.839
 2791SOL     OW 9271   0.840   4.429   5.924
 2791SOL    HW1 9272   0.940   4.422   5.926
 2791SOL    HW2 9273   0.813   4.521   5.898
 2792SOL     OW 9274   2.812   2.749   0.205
 2792SOL    HW1 9275   2.750   2.813   0.160
 2792SOL    HW2 9276   2.774   2.724   0.295
 2793SOL     OW 9277   4.095   3.984   6.230
 2793SOL    HW1 9278   4.169   4.007   6.293
 2793SOL    HW2 9279   4.010   3.971   6.281
 2794SOL     OW 9280   1.514   1.825   0.335
 2794SOL    HW1 9281   1.591   1.876   0.296
 2794SOL    HW2 9282   1.494   1.746   0.277
 2795SOL     OW 9283   1.038   0.369   0.270
 2795SOL    HW1 9284   1.103   0.444   0.280
 2795SOL    HW2 9285   0.971   0.373   0.344
 2796SOL     OW 9286   2.969   6.014   6.747
 2796SOL    HW1 9287   3.057   5.999   6.703
 2796SOL    HW2 9288   2.895   5.992   6.682
 2797SOL     OW 9289   4.780   3.859   5.165
 2797SOL    HW1 9290   4.714   3.849   5.240
 2797SOL    HW2 9291   4.800   3.769   5.126
 2798SOL     OW 9292   5.684   2.190   2.353
 2798SOL    HW1 9293   5.761   2.181   2.290
 2798SOL    HW2 9294   5.670   2.286   2.375
 2799SOL     OW 9295   3.358   0.318   4.062
 2799SOL    HW1 9296   3.453   0.286   4.054
 2799SOL    HW2 9297   3.353   0.391   4.130
 2800SOL     OW 9298   4.613   1.603   0.784
 2800SOL    HW1 9299   4.693   1.642   0.738
 2800SOL    HW2 9300   4.641   1.525   0.839
 2801SOL     OW 9301   0.508   4.435   3.076
 2801SOL    HW1 9302   0.408   4.435   3.085
 2801SOL    HW2 9303   0.545   4.351   3.114
 2802SOL     OW 9304   2.322   4.232   4.548
 2802SOL    HW1 9305   2.245   4.241   4.611
 2802SOL    HW2 9306   2.406   4.262   4.593
 2803SOL     OW 9307   2.857   3.001   7.020
 2803SOL    HW1 9308   2.801   2.992   6.937
 2803SOL    HW2 9309   2.937   3.058   7.000
 2804SOL     OW 9310   5.627   2.561   3.764
 2804SOL    HW1 9311   5.643   2.491   3.695
 2804SOL    HW2 9312   5.595   2.645   3.720
 2805SOL     OW 9313   3.342   5.401   0.051
 2805SOL    HW1 9314   3.434   5.439   0.060
 2805SOL    HW2 9315   3.314   5.402   6.982
 2806SOL     OW 9316   1.336   3.306   4.995
 2806SOL    HW1 9317   1.356   3.298   4.897
 2806SOL    HW2 9318   1.373   3.391   5.031
 2807SOL     OW 9319   5.208   1.144   3.956
 2807SOL    HW1 9320   5.119   1.104   3.977
 2807SOL    HW2 9321   5.280   1.085   3.992
 2808SOL     OW 9322   0.538   6.418   0.049
 2808SOL    HW1 9323   0.618   6.444   0.103
 2808SOL    HW2 9324   0.481   6.498   0.032
 2809SOL     OW 9325   0.581   6.239   1.078
 2809SOL    HW1 9326   0.612   6.307   1.013
 2809SOL    HW2 9327   0.650   6.226   1.149
 2810SOL     OW 9328   6.819   6.363   2.135
 2810SOL    HW1 9329   6.857   6.450   2.101
 2810SOL    HW2 9330   6.828   6.360   2.235
 2811SOL     OW 9331   0.388   6.813   0.430
 2811SOL    HW1 9332   0.460   6.763   0.383
 2811SOL    HW2 9333   0.298   6.784   0.395
 2812SOL     OW 9334   2.021   0.594   0.629
 2812SOL    HW1 9335   2.073   0.677   0.646
 2812SOL    HW2 9336   2.059   0.545   0.551
 2813SOL     OW 9337   5.272   2.289   2.312
 2813SOL    HW1 9338   5.251   2.240   2.228
 2813SOL    HW2 9339   5.276   2.224   2.389
 2814SOL     OW 9340   2.181   4.116   6.592
 2814SOL    HW1 9341   2.197   4.139   6.688
 2814SOL    HW2 9342   2.235   4.036   6.567
 2815SOL     OW 9343   6.258   6.347   4.978
 2815SOL    HW1 9344   6.285   6.433   5.020
 2815SOL    HW2 9345   6.331   6.279   4.990
 2816SOL     OW 9346   1.008   5.370   5.473
 2816SOL    HW1 9347   0.940   5.345   5.404
 2816SOL    HW2 9348   1.098   5.378   5.430
 2817SOL     OW 9349   2.799   0.507   1.130
 2817SOL    HW1 9350   2.888   0.526   1.172
 2817SOL    HW2 9351   2.812   0.442   1.055
 2818SOL     OW 9352   1.909   0.203   0.381
 2818SOL    HW1 9353   1.995   0.191   0.332
 2818SOL    HW2 9354   1.859   0.117   0.383
 2819SOL     OW 9355   6.415   0.664   6.757
 2819SOL    HW1 9356   6.362   0.580   6.749
 2819SOL    HW2 9357   6.448   0.675   6.851
 2820SOL     OW 9358   1.696   1.977   0.241
 2820SOL    HW1 9359   1.730   2.051   0.299
 2820SOL    HW2 9360   1.760   1.962   0.165
 2821SOL     OW 9361   3.940   2.870   6.202
 2821SOL    HW1 9362   4.005   2.946   6.203
 2821SOL    HW2 9363   3.983   2.790   6.160
 2822SOL     OW 9364   4.153   3.931   1.248
 2822SOL    HW1 9365   4.121   3.958   1.338
 2822SOL    HW2 9366   4.242   3.886   1.256
 2823SOL     OW 9367   5.324   4.345   3.799
 2823SOL    HW1 9368   5.394   4.293   3.750
 2823SOL    HW2 9369   5.234   4.322   3.763
 2824SOL     OW 9370   0.849   4.705   5.742
 2824SOL    HW1 9371   0.937   4.657   5.742
 2824SOL    HW2 9372   0.843   4.764   5.662
 2825SOL     OW 9373   5.005   2.438   5.478
 2825SOL    HW1 9374   4.972   2.371   5.545
 2825SOL    HW2 9375   4.991   2.402   5.386
 2826SOL     OW 9376   2.931   2.538   6.383
 2826SOL    HW1 9377   2.971   2.490   6.305
 2826SOL    HW2 9378   3.003   2.567   6.446
 2827SOL     OW 9379   7.003   2.035   0.564
 2827SOL    HW1 9380   0.018   2.124   0.586
 2827SOL    HW2 9381   0.049   1.970   0.542
 2828SOL     OW 9382   2.095   3.842   6.973
 2828SOL    HW1 9383   2.035   3.790   6.912
 2828SOL    HW2 9384   2.127   3.782   0.020
 2829SOL     OW 9385   3.654   4.522   0.949
 2829SOL    HW1 9386   3.697   4.475   0.872
 2829SOL    HW2 9387   3.612   4.607   0.917
 2830SOL     OW 9388   2.702   5.178   4.262
 2830SOL    HW1 9389   2.730   5.273   4.250
 2830SOL    HW2 9390   2.754   5.119   4.199
 2831SOL     OW 9391   5.453   1.928   1.923
 2831SOL    HW1 9392   5.367   1.940   1.874
 2831SOL    HW2 9393   5.436   1.935   2.021
 2832SOL     OW 9394   1.687   3.277   1.135
 2832SOL    HW1 9395   1.627   3.343   1.180
 2832SOL    HW2 9396   1.782   3.297   1.158
 2833SOL     OW 9397   6.570   2.181   2.853
 2833SOL    HW1 9398   6.523   2.268   2.834
 2833SOL    HW2 9399   6.650   2.199   2.910
 2834SOL     OW 9400   2.757   0.249   4.010
 2834SOL    HW1 9401   2.688   0.220   4.076
 2834SOL    HW2 9402   2.730   0.220   3.918
 2835SOL     OW 9403   6.177   1.328   0.541
 2835SOL    HW1 9404   6.147   1.422   0.528
 2835SOL    HW2 9405   6.238   1.302   0.466
 2836SOL     OW 9406   2.845   6.353   1.910
 2836SOL    HW1 9407   2.820   6.449   1.898
 2836SOL    HW2 9408   2.773   6.306   1.961
 2837SOL     OW 9409   5.091   4.570   3.385
 2837SOL    HW1 9410   5.164   4.634   3.407
 2837SOL    HW2 9411   5.074   4.511   3.464
 2838SOL     OW 9412   0.108   5.095   6.167
 2838SOL    HW1 9413   0.125   5.095   6.068
 2838SOL    HW2 9414   0.046   5.019   6.189
 2839SOL     OW 9415   5.559   2.290   6.639
 2839SOL    HW1 9416   5.564   2.389   6.652
 2839SOL    HW2 9417   5.645   2.257   6.599
 2840SOL     OW 9418   6.458   5.775   5.036
 2840SOL    HW1 9419   6.518   5.715   5.089
 2840SOL    HW2 9420   6.366   5.736   5.035
 2841SOL     OW 9421   5.464   3.323   2.849
 2841SOL    HW1 9422   5.448   3.257   2.922
 2841SOL    HW2 9423   5.415   3.408   2.870
 2842SOL     OW 9424   1.175   5.743   3.892
 2842SOL    HW1 9425   1.209   5.671   3.832
 2842SOL    HW2 9426   1.159   5.706   3.984
 2843SOL     OW 9427   1.195   2.799   3.854
 2843SOL    HW1 9428   1.158   2.831   3.767
 2843SOL    HW2 9429   1.160   2.708   3.874
 2844SOL     OW 9430   5.536   3.986   0.857
 2844SOL    HW1 9431   5.607   3.970   0.926
 2844SOL    HW2 9432   5.565   3.948   0.769
 2845SOL     OW 9433   3.454   1.543   1.348
 2845SOL    HW1 9434   3.371   1.492   1.328
 2845SOL    HW2 9435   3.440   1.600   1.429
 2846SOL     OW 9436   5.859   0.700   6.104
 2846SOL    HW1 9437   5.825   0.697   6.198
 2846SOL    HW2 9438   5.786   0.674   6.041
 2847SOL     OW 9439   6.184   5.188   2.570
 2847SOL    HW1 9440   6.175   5.156   2.664
 2847SOL    HW2 9441   6.158   5.285   2.565
 2848SOL     OW 9442   6.830   3.907   0.347
 2848SOL    HW1 9443   6.867   3.815   0.359
 2848SOL    HW2 9444   6.743   3.902   0.297
 2849SOL     OW 9445   5.161   1.077   0.652
 2849SOL    HW1 9446   5.106   1.110   0.575
 2849SOL    HW2 9447   5.257   1.100   0.637
 2850SOL     OW 9448   6.647   0.989   1.042
 2850SOL    HW1 9449   6.673   1.085   1.051
 2850SOL    HW2 9450   6.718   0.931   1.084
 2851SOL     OW 9451   3.585   2.941   2.111
 2851SOL    HW1 9452   3.492   2.978   2.121
 2851SOL    HW2 9453   3.651   3.010   2.139
 2852SOL     OW 9454   1.685   4.675   4.963
 2852SOL    HW1 9455   1.759   4.725   5.006
 2852SOL    HW2 9456   1.690   4.686   4.864
 2853SOL     OW 9457   6.479   5.294   5.324
 2853SOL    HW1 9458   6.552   5.307   5.392
 2853SOL    HW2 9459   6.512   5.235   5.251
 2854SOL     OW 9460   3.266   0.885   6.928
 2854SOL    HW1 9461   3.304   0.975   6.907
 2854SOL    HW2 9462   3.340   0.822   6.948
 2855SOL     OW 9463   3.076   2.208   4.337
 2855SOL    HW1 9464   3.153   2.197   4.400
 2855SOL    HW2 9465   2.992   2.177   4.382
 2856SOL     OW 9466   1.276   5.209   4.740
 2856SOL    HW1 9467   1.232   5.130   4.782
 2856SOL    HW2 9468   1.251   5.213   4.643
 2857SOL     OW 9469   1.061   4.372   0.166
 2857SOL    HW1 9470   1.023   4.461   0.189
 2857SOL    HW2 9471   1.113   4.379   0.081
 2858SOL     OW 9472   5.250   4.710   4.276
 2858SOL    HW1 9473   5.223   4.646   4.204
 2858SOL    HW2 9474   5.260   4.801   4.237
 2859SOL     OW 9475   0.352   4.862   1.836
 2859SOL    HW1 9476   0.258   4.828   1.837
 2859SOL    HW2 9477   0.360   4.942   1.897
 2860SOL     OW 9478   1.207   6.571   2.083
 2860SOL    HW1 9479   1.247   6.514   2.155
 2860SOL    HW2 9480   1.108   6.577   2.095
 2861SOL     OW 9481   5.915   3.063   5.059
 2861SOL    HW1 9482   5.827   3.075   5.012
 2861SOL    HW2 9483   5.904   3.081   5.156
 2862SOL     OW 9484   4.186   1.115   1.152
 2862SOL    HW1 9485   4.187   1.015   1.147
 2862SOL    HW2 9486   4.158   1.152   1.063
 2863SOL     OW 9487   5.306   1.735   6.248
 2863SOL    HW1 9488   5.349   1.750   6.159
 2863SOL    HW2 9489   5.371   1.761   6.320
 2864SOL     OW 9490   4.680   4.380   0.295
 2864SOL    HW1 9491   4.768   4.418   0.325
 2864SOL    HW2 9492   4.606   4.440   0.325
 2865SOL     OW 9493   5.419   4.400   6.634
 2865SOL    HW1 9494   5.466   4.481   6.669
 2865SOL    HW2 9495   5.392   4.416   6.539
 2866SOL     OW 9496   5.166   6.485   0.677
 2866SOL    HW1 9497   5.091   6.550   0.661
 2866SOL    HW2 9498   5.221   6.516   0.754
 2867SOL     OW 9499   0.728   6.103   3.516
 2867SOL    HW1 9500   0.650   6.164   3.529
 2867SOL    HW2 9501   0.697   6.016   3.477
 2868SOL     OW 9502   6.285   6.640   5.225
 2868SOL    HW1 9503   6.327   6.626   5.315
 2868SOL    HW2 9504   6.201   6.587   5.218
 2869SOL     OW 9505   6.019   4.517   5.428
 2869SOL    HW1 9506   6.107   4.561   5.448
 2869SOL    HW2 9507   5.971   4.497   5.513
 2870SOL     OW 9508   0.411   1.341   1.597
 2870SOL    HW1 9509   0.416   1.296   1.507
 2870SOL    HW2 9510   0.329   1.310   1.645
 2871SOL     OW 9511   4.863   1.794   3.269
 2871SOL    HW1 9512   4.862   1.893   3.287
 2871SOL    HW2 9513   4.882   1.745   3.354
 2872SOL     OW 9514   3.291   1.389   2.271
 2872SOL    HW1 9515   3.260   1.439   2.352
 2872SOL    HW2 9516   3.271   1.442   2.189
 2873SOL     OW 9517   0.137   0.425   2.510
 2873SOL    HW1 9518   0.040   0.446   2.524
 2873SOL    HW2 9519   0.179   0.497   2.455
 2874SOL     OW 9520   0.908   0.385   2.072
 2874SOL    HW1 9521   0.813   0.414   2.080
 2874SOL    HW2 9522   0.950   0.432   1.994
 2875SOL     OW 9523   3.097   1.213   2.201
 2875SOL    HW1 9524   3.168   1.271   2.239
 2875SOL    HW2 9525   3.104   1.121   2.241
 2876SOL     OW 9526   0.804   0.059   0.519
 2876SOL    HW1 9527   0.818   0.037   0.422
 2876SOL    HW2 9528   0.775   0.154   0.527
 2877SOL     OW 9529   1.287   3.159   6.469
 2877SOL    HW1 9530   1.317   3.223   6.399
 2877SOL    HW2 9531   1.189   3.139   6.457
 2878SOL     OW 9532   4.062   3.800   4.373
 2878SOL    HW1 9533   4.053   3.727   4.305
 2878SOL    HW2 9534   4.022   3.884   4.337
 2879SOL     OW 9535   6.969   6.621   0.343
 2879SOL    HW1 9536   7.017   6.708   0.349
 2879SOL    HW2 9537   0.007   6.546   0.358
 2880SOL     OW 9538   1.563   0.985   2.353
 2880SOL    HW1 9539   1.658   0.955   2.345
 2880SOL    HW2 9540   1.555   1.082   2.331
 2881SOL     OW 9541   5.218   5.727   0.031
 2881SOL    HW1 9542   5.143   5.782   0.066
 2881SOL    HW2 9543   5.305   5.768   0.058
 2882SOL     OW 9544   4.473   6.465   0.667
 2882SOL    HW1 9545   4.406   6.539   0.672
 2882SOL    HW2 9546   4.451   6.395   0.736
 2883SOL     OW 9547   5.637   6.014   2.731
 2883SOL    HW1 9548   5.704   5.975   2.795
 2883SOL    HW2 9549   5.562   5.949   2.719
 2884SOL     OW 9550   5.819   5.177   3.387
 2884SOL    HW1 9551   5.872   5.103   3.348
 2884SOL    HW2 9552   5.876   5.259   3.396
 2885SOL     OW 9553   0.350   4.589   3.748
 2885SOL    HW1 9554   0.267   4.641   3.766
 2885SOL    HW2 9555   0.378   4.604   3.653
 2886SOL     OW 9556   1.853   4.763   5.148
 2886SOL    HW1 9557   1.887   4.839   5.203
 2886SOL    HW2 9558   1.926   4.729   5.089
 2887SOL     OW 9559   0.321   4.793   2.389
 2887SOL    HW1 9560   0.357   4.700   2.399
 2887SOL    HW2 9561   0.290   4.806   2.294
 2888SOL     OW 9562   4.565   5.826   6.759
 2888SOL    HW1 9563   4.556   5.742   6.706
 2888SOL    HW2 9564   4.625   5.890   6.710
 2889SOL     OW 9565   4.276   5.009   3.732
 2889SOL    HW1 9566   4.253   4.935   3.669
 2889SOL    HW2 9567   4.315   4.970   3.816
 2890SOL     OW 9568   1.595   1.268   0.842
 2890SOL    HW1 9569   1.647   1.331   0.784
 2890SOL    HW2 9570   1.594   1.303   0.936
 2891SOL     OW 9571   1.675   1.651   5.539
 2891SOL    HW1 9572   1.584   1.648   5.497
 2891SOL    HW2 9573   1.744   1.657   5.468
 2892SOL     OW 9574   5.863   4.600   2.394
 2892SOL    HW1 9575   5.792   4.545   2.350
 2892SOL    HW2 9576   5.898   4.551   2.473
 2893SOL     OW 9577   6.664   6.046   5.068
 2893SOL    HW1 9578   6.570   6.076   5.052
 2893SOL    HW2 9579   6.677   6.030   5.166
 2894SOL     OW 9580   1.545   5.755   1.565
 2894SOL    HW1 9581   1.481   5.825   1.597
 2894SOL    HW2 9582   1.496   5.687   1.511
 2895SOL     OW 9583   5.064   6.186   6.241
 2895SOL    HW1 9584   5.001   6.241   6.186
 2895SOL    HW2 9585   5.113   6.245   6.305
 2896SOL     OW 9586   6.540   0.475   6.534
 2896SOL    HW1 9587   6.487   0.478   6.618
 2896SOL    HW2 9588   6.617   0.413   6.545
 2897SOL     OW 9589   2.975   6.018   3.638
 2897SOL    HW1 9590   2.949   6.044   3.545
 2897SOL    HW2 9591   2.896   6.028   3.698
 2898SOL     OW 9592   5.116   2.889   2.698
 2898SOL    HW1 9593   5.116   2.955   2.623
 2898SOL    HW2 9594   5.208   2.884   2.738
 2899SOL     OW 9595   6.210   3.100   1.313
 2899SOL    HW1 9596   6.234   3.137   1.403
 2899SOL    HW2 9597   6.122   3.053   1.318
 2900SOL     OW 9598   3.258   2.929   4.761
 2900SOL    HW1 9599   3.225   2.834   4.768
 2900SOL    HW2 9600   3.299   2.944   4.672
 2901SOL     OW 9601   1.574   2.271   1.573
 2901SOL    HW1 9602   1.585   2.364   1.539
 2901SOL    HW2 9603   1.571   2.273   1.673
 2902SOL     OW 9604   5.023   6.273   3.261
 2902SOL    HW1 9605   5.008   6.324   3.176
 2902SOL    HW2 9606   5.121   6.263   3.278
 2903SOL     OW 9607   0.577   4.800   2.165
 2903SOL    HW1 9608   0.629   4.777   2.247
 2903SOL    HW2 9609   0.526   4.885   2.180
 2904SOL     OW 9610   3.538   4.997   4.447
 2904SOL    HW1 9611   3.445   4.996   4.482
 2904SOL    HW2 9612   3.599   4.951   4.512
 2905SOL     OW 9613   2.255   3.781   1.440
 2905SOL    HW1 9614   2.315   3.849   1.482
 2905SOL    HW2 9615   2.187   3.750   1.507
 2906SOL     OW 9616   6.178   6.610   6.570
 2906SOL    HW1 9617   6.102   6.618   6.634
 2906SOL    HW2 9618   6.149   6.555   6.491
 2907SOL     OW 9619   0.377   1.662   6.436
 2907SOL    HW1 9620   0.460   1.607   6.449
 2907SOL    HW2 9621   0.305   1.605   6.395
 2908SOL     OW 9622   3.575   5.886   3.802
 2908SOL    HW1 9623   3.521   5.907   3.720
 2908SOL    HW2 9624   3.653   5.829   3.776
 2909SOL     OW 9625   6.875   6.139   0.668
 2909SOL    HW1 9626   6.873   6.102   0.761
 2909SOL    HW2 9627   6.940   6.215   0.664
 2910SOL     OW 9628   1.440   0.025   3.893
 2910SOL    HW1 9629   1.398   0.087   3.826
 2910SOL    HW2 9630   1.409   6.958   3.874
 2911SOL     OW 9631   6.514   3.587   3.421
 2911SOL    HW1 9632   6.494   3.652   3.347
 2911SOL    HW2 9633   6.593   3.532   3.396
 2912SOL     OW 9634   0.270   1.293   3.180
 2912SOL    HW1 9635   0.321   1.372   3.214
 2912SOL    HW2 9636   0.177   1.294   3.218
 2913SOL     OW 9637   0.739   6.478   4.264
 2913SOL    HW1 9638   0.797   6.554   4.234
 2913SOL    HW2 9639   0.763   6.453   4.357
 2914SOL     OW 9640   3.767   4.378   0.746
 2914SOL    HW1 9641   3.847   4.352   0.799
 2914SOL    HW2 9642   3.796   4.416   0.658
 2915SOL     OW 9643   1.721   6.755   3.375
 2915SOL    HW1 9644   1.681   6.846   3.377
 2915SOL    HW2 9645   1.744   6.731   3.281
 2916SOL     OW 9646   0.182   6.269   6.832
 2916SOL    HW1 9647   0.245   6.197   6.858
 2916SOL    HW2 9648   0.207   6.354   6.878
 2917SOL     OW 9649   2.540   2.173   4.092
 2917SOL    HW1 9650   2.541   2.116   4.010
 2917SOL    HW2 9651   2.601   2.133   4.161
 2918SOL     OW 9652   4.915   0.978   1.332
 2918SOL    HW1 9653   4.956   0.898   1.376
 2918SOL    HW2 9654   4.938   0.979   1.235
 2919SOL     OW 9655   1.056   5.213   5.710
 2919SOL    HW1 9656   1.102   5.286   5.760
 2919SOL    HW2 9657   1.059   5.232   5.612
 2920SOL     OW 9658   2.731   2.664   1.599
 2920SOL    HW1 9659   2.780   2.744   1.634
 2920SOL    HW2 9660   2.770   2.581   1.640
 2921SOL     OW 9661   0.099   4.749   3.387
 2921SOL    HW1 9662   0.184   4.711   3.350
 2921SOL    HW2 9663   0.045   4.787   3.313
 2922SOL     OW 9664   3.946   5.382   3.989
 2922SOL    HW1 9665   3.905   5.432   3.913
 2922SOL    HW2 9666   3.976   5.292   3.957
 2923SOL     OW 9667   1.709   4.372   3.917
 2923SOL    HW1 9668   1.798   4.394   3.878
 2923SOL    HW2 9669   1.720   4.305   3.990
 2924SOL     OW 9670   4.246   1.867   6.826
 2924SOL    HW1 9671   4.204   1.955   6.802
 2924SOL    HW2 9672   4.293   1.830   6.745
 2925SOL     OW 9673   5.616   6.460   4.320
 2925SOL    HW1 9674   5.644   6.555   4.334
 2925SOL    HW2 9675   5.516   6.454   4.327
 2926SOL     OW 9676   6.954   2.761   5.185
 2926SOL    HW1 9677   6.908   2.824   5.247
 2926SOL    HW2 9678   6.957   2.799   5.093
 2927SOL     OW 9679   1.457   1.795   3.018
 2927SOL    HW1 9680   1.499   1.729   3.080
 2927SOL    HW2 9681   1.511   1.801   2.934
 2928SOL     OW 9682   5.423   4.731   0.065
 2928SOL    HW1 9683   5.348   4.673   0.098
 2928SOL    HW2 9684   5.386   4.805   0.010
 2929SOL     OW 9685   1.779   1.194   2.489
 2929SOL    HW1 9686   1.752   1.290   2.498
 2929SOL    HW2 9687   1.794   1.155   2.580
 2930SOL     OW 9688   0.827   3.060   3.669
 2930SOL    HW1 9689   0.900   3.125   3.651
 2930SOL    HW2 9690   0.839   2.979   3.611
 2931SOL     OW 9691   5.531   4.389   5.742
 2931SOL    HW1 9692   5.611   4.328   5.741
 2931SOL    HW2 9693   5.453   4.341   5.782
 2932SOL     OW 9694   6.477   7.013   0.258
 2932SOL    HW1 9695   6.415   6.969   0.193
 2932SOL    HW2 9696   6.450   0.082   0.271
 2933SOL     OW 9697   0.363   1.086   6.644
 2933SOL    HW1 9698   0.420   1.118   6.568
 2933SOL    HW2 9699   0.299   1.017   6.611
 2934SOL     OW 9700   5.083   5.450   2.900
 2934SOL    HW1 9701   5.136   5.532   2.922
 2934SOL    HW2 9702   5.146   5.377   2.869
 2935SOL     OW 9703   0.124   4.667   6.194
 2935SOL    HW1 9704   0.134   4.615   6.278
 2935SOL    HW2 9705   0.062   4.619   6.132
 2936SOL     OW 9706   4.957   6.222   2.689
 2936SOL    HW1 9707   4.956   6.314   2.729
 2936SOL    HW2 9708   4.988   6.228   2.593
 2937SOL     OW 9709   6.310   3.211   3.547
 2937SOL    HW1 9710   6.335   3.160   3.629
 2937SOL    HW2 9711   6.355   3.171   3.467
 2938SOL     OW 9712   0.018   5.507   1.122
 2938SOL    HW1 9713   0.065   5.538   1.039
 2938SOL    HW2 9714   6.961   5.458   1.097
 2939SOL     OW 9715   6.376   5.983   1.831
 2939SOL    HW1 9716   6.471   5.954   1.822
 2939SOL    HW2 9717   6.359   6.061   1.771
 2940SOL     OW 9718   4.928   5.974   3.181
 2940SOL    HW1 9719   5.023   6.005   3.172
 2940SOL    HW2 9720   4.873   6.016   3.109
 2941SOL     OW 9721   2.997   5.125   1.656
 2941SOL    HW1 9722   3.014   5.034   1.617
 2941SOL    HW2 9723   2.964   5.115   1.749
 2942SOL     OW 9724   2.635   1.792   0.390
 2942SOL    HW1 9725   2.707   1.768   0.325
 2942SOL    HW2 9726   2.633   1.891   0.404
 2943SOL     OW 9727   0.450   4.635   3.470
 2943SOL    HW1 9728   0.529   4.694   3.456
 2943SOL    HW2 9729   0.389   4.641   3.391
 2944SOL     OW 9730   0.673   5.207   3.689
 2944SOL    HW1 9731   0.598   5.150   3.656
 2944SOL    HW2 9732   0.754   5.193   3.632
 2945SOL     OW 9733   6.008   3.486   0.242
 2945SOL    HW1 9734   5.956   3.447   0.318
 2945SOL    HW2 9735   6.081   3.545   0.278
 2946SOL     OW 9736   3.142   3.619   4.433
 2946SOL    HW1 9737   3.137   3.533   4.484
 2946SOL    HW2 9738   3.079   3.685   4.474
 2947SOL     OW 9739   6.741   6.698   0.210
 2947SOL    HW1 9740   6.734   6.636   0.132
 2947SOL    HW2 9741   6.819   6.671   0.267
 2948SOL     OW 9742   6.269   5.202   0.722
 2948SOL    HW1 9743   6.293   5.111   0.690
 2948SOL    HW2 9744   6.225   5.196   0.812
 2949SOL     OW 9745   1.132   5.601   0.698
 2949SOL    HW1 9746   1.095   5.621   0.789
 2949SOL    HW2 9747   1.100   5.670   0.634
 2950SOL     OW 9748   5.047   4.962   2.842
 2950SOL    HW1 9749   4.969   4.937   2.900
 2950SOL    HW2 9750   5.106   5.026   2.891
 2951SOL     OW 9751   1.241   3.288   0.653
 2951SOL    HW1 9752   1.141   3.294   0.646
 2951SOL    HW2 9753   1.281   3.298   0.562
 2952SOL     OW 9754   1.370   1.122   4.097
 2952SOL    HW1 9755   1.346   1.032   4.133
 2952SOL    HW2 9756   1.288   1.167   4.062
 2953SOL     OW 9757   1.135   5.454   3.215
 2953SOL    HW1 9758   1.179   5.544   3.219
 2953SOL    HW2 9759   1.202   5.386   3.183
 2954SOL     OW 9760   0.120   4.659   5.505
 2954SOL    HW1 9761   0.123   4.566   5.540
 2954SOL    HW2 9762   0.084   4.720   5.576
 2955SOL     OW 9763   1.024   5.059   5.953
 2955SOL    HW1 9764   0.948   5.112   5.990
 2955SOL    HW2 9765   1.059   5.104   5.871
 2956SOL     OW 9766   6.412   3.804   4.867
 2956SOL    HW1 9767   6.483   3.773   4.803
 2956SOL    HW2 9768   6.367   3.724   4.908
 2957SOL     OW 9769   1.196   4.643   1.784
 2957SOL    HW1 9770   1.281   4.691   1.805
 2957SOL    HW2 9771   1.126   4.709   1.757
 2958SOL     OW 9772   2.074   3.108   1.411
 2958SOL    HW1 9773   2.034   3.114   1.503
 2958SOL    HW2 9774   2.062   3.015   1.376
 2959SOL     OW 9775   1.192   3.972   4.222
 2959SOL    HW1 9776   1.241   4.028   4.155
 2959SOL    HW2 9777   1.258   3.924   4.280
 2960SOL     OW 9778   5.519   6.026   0.402
 2960SOL    HW1 9779   5.440   6.036   0.463
 2960SOL    HW2 9780   5.500   6.070   0.314
 2961SOL     OW 9781   5.780   1.723   1.074
 2961SOL    HW1 9782   5.691   1.768   1.085
 2961SOL    HW2 9783   5.778   1.666   0.992
 2962SOL     OW 9784   6.420   0.749   4.301
 2962SOL    HW1 9785   6.414   0.785   4.394
 2962SOL    HW2 9786   6.328   0.732   4.266
 2963SOL     OW 9787   2.035   0.992   6.325
 2963SOL    HW1 9788   2.039   1.091   6.336
 2963SOL    HW2 9789   2.128   0.955   6.328
 2964SOL     OW 9790   0.868   0.624   5.928
 2964SOL    HW1 9791   0.941   0.568   5.889
 2964SOL    HW2 9792   0.779   0.585   5.903
 2965SOL     OW 9793   6.812   1.195   6.431
 2965SOL    HW1 9794   6.835   1.278   6.483
 2965SOL    HW2 9795   6.830   1.114   6.487
 2966SOL     OW 9796   3.842   0.363   2.607
 2966SOL    HW1 9797   3.918   0.423   2.582
 2966SOL    HW2 9798   3.831   0.361   2.706
 2967SOL     OW 9799   4.904   6.577   5.231
 2967SOL    HW1 9800   4.817   6.529   5.243
 2967SOL    HW2 9801   4.968   6.549   5.301
 2968SOL     OW 9802   1.843   3.784   2.067
 2968SOL    HW1 9803   1.878   3.690   2.064
 2968SOL    HW2 9804   1.746   3.784   2.042
 2969SOL     OW 9805   3.884   1.762   5.016
 2969SOL    HW1 9806   3.977   1.757   4.978
 2969SOL    HW2 9807   3.854   1.857   5.019
 2970SOL     OW 9808   2.371   2.851   6.687
 2970SOL    HW1 9809   2.319   2.849   6.772
 2970SOL    HW2 9810   2.421   2.766   6.677
 2971SOL     OW 9811   4.010   4.147   5.644
 2971SOL    HW1 9812   3.935   4.157   5.710
 2971SOL    HW2 9813   4.094   4.184   5.683
 2972SOL     OW 9814   0.165   6.100   0.386
 2972SOL    HW1 9815   0.159   6.013   0.436
 2972SOL    HW2 9816   0.110   6.169   0.434
 2973SOL     OW 9817   5.031   0.551   4.927
 2973SOL    HW1 9818   5.094   0.486   4.885
 2973SOL    HW2 9819   4.937   0.518   4.918
 2974SOL     OW 9820   5.207   5.037   2.625
 2974SOL    HW1 9821   5.126   4.984   2.603
 2974SOL    HW2 9822   5.215   5.045   2.725
 2975SOL     OW 9823   0.862   3.836   5.220
 2975SOL    HW1 9824   0.902   3.873   5.304
 2975SOL    HW2 9825   0.785   3.777   5.243
 2976SOL     OW 9826   4.044   6.937   1.713
 2976SOL    HW1 9827   4.142   6.925   1.729
 2976SOL    HW2 9828   4.006   6.853   1.674
 2977SOL     OW 9829   1.338   1.573   2.277
 2977SOL    HW1 9830   1.262   1.638   2.275
 2977SOL    HW2 9831   1.304   1.484   2.307
 2978SOL     OW 9832   3.547   5.830   0.405
 2978SOL    HW1 9833   3.500   5.742   0.395
 2978SOL    HW2 9834   3.530   5.866   0.496
 2979SOL     OW 9835   2.017   1.541   5.573
 2979SOL    HW1 9836   2.080   1.504   5.505
 2979SOL    HW2 9837   1.970   1.620   5.536
 2980SOL     OW 9838   3.398   3.174   2.731
 2980SOL    HW1 9839   3.488   3.213   2.751
 2980SOL    HW2 9840   3.352   3.230   2.662
 2981SOL     OW 9841   2.065   1.434   1.408
 2981SOL    HW1 9842   2.154   1.471   1.432
 2981SOL    HW2 9843   1.994   1.482   1.458
 2982SOL     OW 9844   0.472   0.630   2.296
 2982SOL    HW1 9845   0.506   0.586   2.379
 2982SOL    HW2 9846   0.460   0.728   2.313
 2983SOL     OW 9847   6.624   2.444   6.237
 2983SOL    HW1 9848   6.542   2.501   6.234
 2983SOL    HW2 9849   6.676   2.465   6.320
 2984SOL     OW 9850   0.703   5.932   1.272
 2984SOL    HW1 9851   0.656   5.933   1.184
 2984SOL    HW2 9852   0.684   6.017   1.321
 2985SOL     OW 9853   0.647   6.975   5.921
 2985SOL    HW1 9854   0.708   6.989   5.843
 2985SOL    HW2 9855   0.579   6.906   5.897
 2986SOL     OW 9856   3.697   4.042   2.336
 2986SOL    HW1 9857   3.687   4.106   2.412
 2986SOL    HW2 9858   3.607   4.019   2.299
 2987SOL     OW 9859   2.472   6.893   5.946
 2987SOL    HW1 9860   2.504   6.885   5.852
 2987SOL    HW2 9861   2.471   6.802   5.988
 2988SOL     OW 9862   0.962   1.523   6.383
 2988SOL    HW1 9863   1.060   1.537   6.365
 2988SOL    HW2 9864   0.951   1.470   6.467
 2989SOL     OW 9865   5.425   3.497   5.738
 2989SOL    HW1 9866   5.478   3.573   5.776
 2989SOL    HW2 9867   5.448   3.413   5.787
 2990SOL     OW 9868   5.023   1.934   4.947
 2990SOL    HW1 9869   4.967   2.016   4.957
 2990SOL    HW2 9870   5.085   1.945   4.869
 2991SOL     OW 9871   6.386   2.732   0.479
 2991SOL    HW1 9872   6.483   2.725   0.454
 2991SOL    HW2 9873   6.374   2.803   0.548
 2992SOL     OW 9874   2.126   4.199   4.743
 2992SOL    HW1 9875   2.167   4.197   4.834
 2992SOL    HW2 9876   2.089   4.109   4.721
 2993SOL     OW 9877   4.197   5.394   6.884
 2993SOL    HW1 9878   4.105   5.431   6.872
 2993SOL    HW2 9879   4.193   5.316   6.946
 2994SOL     OW 9880   2.903   5.348   4.881
 2994SOL    HW1 9881   2.993   5.326   4.844
 2994SOL    HW2 9882   2.848   5.265   4.886
 2995SOL     OW 9883   6.006   0.383   2.589
 2995SOL    HW1 9884   6.059   0.342   2.514
 2995SOL    HW2 9885   5.910   0.357   2.579
 2996SOL     OW 9886   6.681   0.283   4.615
 2996SOL    HW1 9887   6.601   0.232   4.584
 2996SOL    HW2 9888   6.688   0.369   4.565
 2997SOL     OW 9889   5.000   6.414   3.843
 2997SOL    HW1 9890   4.982   6.461   3.756
 2997SOL    HW2 9891   4.913   6.395   3.888
 2998SOL     OW 9892   2.676   0.411   1.359
 2998SOL    HW1 9893   2.671   0.314   1.337
 2998SOL    HW2 9894   2.702   0.463   1.277
 2999SOL     OW 9895   2.424   5.334   0.210
 2999SOL    HW1 9896   2.430   5.433   0.198
 2999SOL    HW2 9897   2.372   5.294   0.134
 3000SOL     OW 9898   1.978   4.345   6.490
 3000SOL    HW1 9899   1.999   4.264   6.436
 3000SOL    HW2 9900   1.964   4.318   6.586
 3001SOL     OW 9901   2.770   0.305   5.739
 3001SOL    HW1 9902   2.715   0.222   5.750
 3001SOL    HW2 9903   2.867   0.281   5.733
 3002SOL     OW 9904   2.024   1.893   1.513
 3002SOL    HW1 9905   1.966   1.815   1.493
 3002SOL    HW2 9906   1.969   1.966   1.554
 3003SOL     OW 9907   1.036   5.868   0.258
 3003SOL    HW1 9908   0.998   5.794   0.314
 3003SOL    HW2 9909   0.975   5.886   0.181
 3004SOL     OW 9910   2.960   1.291   4.765
 3004SOL    HW1 9911   3.051   1.248   4.768
 3004SOL    HW2 9912   2.896   1.235   4.818
 3005SOL     OW 9913   2.877   1.396   6.785
 3005SOL    HW1 9914   2.844   1.461   6.718
 3005SOL    HW2 9915   2.970   1.421   6.813
 3006SOL     OW 9916   5.379   1.361   6.092
 3006SOL    HW1 9917   5.326   1.400   6.017
 3006SOL    HW2 9918   5.356   1.265   6.103
 3007SOL     OW 9919   6.412   5.525   6.338
 3007SOL    HW1 9920   6.414   5.451   6.406
 3007SOL    HW2 9921   6.501   5.570   6.336
 3008SOL     OW 9922   5.490   3.279   5.568
 3008SOL    HW1 9923   5.469   3.260   5.664
 3008SOL    HW2 9924   5.417   3.335   5.529
 3009SOL     OW 9925   5.952   4.382   1.438
 3009SOL    HW1 9926   5.889   4.452   1.472
 3009SOL    HW2 9927   5.941   4.371   1.340
 3010SOL     OW 9928   4.511   4.030   1.570
 3010SOL    HW1 9929   4.446   4.005   1.642
 3010SOL    HW2 9930   4.499   4.126   1.545
 3011SOL     OW 9931   5.043   0.730   1.331
 3011SOL    HW1 9932   5.067   0.710   1.236
 3011SOL    HW2 9933   5.112   0.691   1.392
 3012SOL     OW 9934   2.001   2.609   4.685
 3012SOL    HW1 9935   2.037   2.646   4.771
 3012SOL    HW2 9936   2.064   2.631   4.610
 3013SOL     OW 9937   0.754   5.985   5.871
 3013SOL    HW1 9938   0.827   5.930   5.911
 3013SOL    HW2 9939   0.722   5.942   5.786
 3014SOL     OW 9940   3.806   6.786   1.039
 3014SOL    HW1 9941   3.812   6.882   1.065
 3014SOL    HW2 9942   3.871   6.733   1.093
 3015SOL     OW 9943   2.347   6.557   5.789
 3015SOL    HW1 9944   2.377   6.614   5.865
 3015SOL    HW2 9945   2.376   6.599   5.702
 3016SOL     OW 9946   3.424   1.208   4.685
 3016SOL    HW1 9947   3.428   1.305   4.708
 3016SOL    HW2 9948   3.474   1.155   4.754
 3017SOL     OW 9949   1.956   6.289   6.645
 3017SOL    HW1 9950   1.918   6.381   6.638
 3017SOL    HW2 9951   2.029   6.277   6.578
 3018SOL     OW 9952   2.133   2.856   1.955
 3018SOL    HW1 9953   2.176   2.880   2.042
 3018SOL    HW2 9954   2.203   2.828   1.889
 3019SOL     OW 9955   0.786   1.215   5.100
 3019SOL    HW1 9956   0.837   1.302   5.094
 3019SOL    HW2 9957   0.850   1.139   5.097
 3020SOL     OW 9958   5.316   4.171   6.781
 3020SOL    HW1 9959   5.395   4.150   6.840
 3020SOL    HW2 9960   5.339   4.248   6.721
 3021SOL     OW 9961   3.779   6.233   4.134
 3021SOL    HW1 9962   3.805   6.319   4.178
 3021SOL    HW2 9963   3.765   6.163   4.203
 3022SOL     OW 9964   3.857   6.380   1.953
 3022SOL    HW1 9965   3.848   6.308   1.884
 3022SOL    HW2 9966   3.769   6.425   1.966
 3023SOL     OW 9967   6.346   4.276   5.685
 3023SOL    HW1 9968   6.254   4.279   5.725
 3023SOL    HW2 9969   6.400   4.207   5.734
 3024SOL     OW 9970   6.287   2.092   6.029
 3024SOL    HW1 9971   6.382   2.065   6.046
 3024SOL    HW2 9972   6.227   2.045   6.093
 3025SOL     OW 9973   3.673   5.243   0.977
 3025SOL    HW1 9974   3.680   5.309   1.052
 3025SOL    HW2 9975   3.736   5.269   0.904
 3026SOL     OW 9976   6.994   5.341   2.742
 3026SOL    HW1 9977   0.066   5.343   2.725
 3026SOL    HW2 9978   6.977   5.348   2.840
 3027SOL     OW 9979   4.001   0.289   1.118
 3027SOL    HW1 9980   3.993   0.252   1.025
 3027SOL    HW2 9981   3.929   0.357   1.132
 3028SOL     OW 9982   3.407   3.674   3.615
 3028SOL    HW1 9983   3.321   3.701   3.572
 3028SOL    HW2 9984   3.482   3.684   3.550
 3029SOL     OW 9985   0.182   2.726   5.286
 3029SOL    HW1 9986   0.249   2.714   5.213
 3029SOL    HW2 9987   0.091   2.734   5.246
 3030SOL     OW 9988   0.445   3.819   6.123
 3030SOL    HW1 9989   0.499   3.736   6.109
 3030SOL    HW2 9990   0.482   3.870   6.200
 3031SOL     OW 9991   0.570   4.171   0.126
 3031SOL    HW1 9992   0.642   4.215   0.180
 3031SOL    HW2 9993   0.543   4.231   0.052
 3032SOL     OW 9994   3.368   0.365   3.346
 3032SOL    HW1 9995   3.442   0.432   3.355
 3032SOL    HW2 9996   3.283   0.412   3.323
 3033SOL     OW 9997   1.889   0.658   5.985
 3033SOL    HW1 9998   1.942   0.737   5.951
 3033SOL    HW2 9999   1.929   0.574   5.948
 3034SOL     OW10000   5.129   3.707   3.267
 3034SOL    HW110001   5.073   3.629   3.238
 3034SOL    HW210002   5.171   3.748   3.186
 3035SOL     OW10003   5.743   4.230   0.037
 3035SOL    HW110004   5.691   4.310   0.006
 3035SOL    HW210005   5.764   4.239   0.134
 3036SOL     OW10006   2.650   2.685   6.763
 3036SOL    HW110007   2.567   2.642   6.799
 3036SOL    HW210008   2.670   2.648   6.672
 3037SOL     OW10009   0.486   5.380   6.390
 3037SOL    HW110010   0.397   5.409   6.357
 3037SOL    HW210011   0.532   5.456   6.435
 3038SOL     OW10012   6.185   5.327   5.877
 3038SOL    HW110013   6.267   5.314   5.821
 3038SOL    HW210014   6.210   5.328   5.974
 3039SOL     OW10015   6.088   3.304   6.419
 3039SOL    HW110016   6.133   3.389   6.392
 3039SOL    HW210017   6.152   3.227   6.409
 3040SOL     OW10018   3.465   6.812   6.565
 3040SOL    HW110019   3.476   6.853   6.655
 3040SOL    HW210020   3.532   6.739   6.552
 3041SOL     OW10021   1.870   5.839   5.790
 3041SOL    HW110022   1.872   5.739   5.794
 3041SOL    HW210023   1.791   5.873   5.840
 3042SOL     OW10024   6.735   5.819   4.898
 3042SOL    HW110025   6.705   5.893   4.958
 3042SOL    HW210026   6.708   5.840   4.804
 3043SOL     OW10027   2.463   3.609   1.669
 3043SOL    HW110028   2.448   3.530   1.729
 3043SOL    HW210029   2.556   3.643   1.682
 3044SOL     OW10030   3.986   3.960   3.783
 3044SOL    HW110031   4.001   4.058   3.789
 3044SOL    HW210032   3.967   3.923   3.874
 3045SOL     OW10033   5.576   6.854   3.482
 3045SOL    HW110034   5.630   6.822   3.405
 3045SOL    HW210035   5.634   6.861   3.563
 3046SOL     OW10036   6.083   6.085   1.732
 3046SOL    HW110037   6.069   6.033   1.816
 3046SOL    HW210038   6.171   6.132   1.736
 3047SOL     OW10039   4.378   1.466   3.724
 3047SOL    HW110040   4.426   1.552   3.740
 3047SOL    HW210041   4.445   1.393   3.709
 3048SOL     OW10042   4.524   4.596   0.441
 3048SOL    HW110043   4.523   4.552   0.531
 3048SOL    HW210044   4.527   4.695   0.451
 3049SOL     OW10045   6.772   0.438   1.307
 3049SOL    HW110046   6.859   0.420   1.260
 3049SOL    HW210047   6.782   0.516   1.368
 3050SOL     OW10048   4.330   3.346   5.747
 3050SOL    HW110049   4.246   3.328   5.797
 3050SOL    HW210050   4.311   3.349   5.649
 3051SOL     OW10051   2.496   4.643   5.799
 3051SOL    HW110052   2.482   4.565   5.861
 3051SOL    HW210053   2.587   4.682   5.816
 3052SOL     OW10054   6.227   0.077   4.085
 3052SOL    HW110055   6.292   0.124   4.144
 3052SOL    HW210056   6.258   7.009   4.069
 3053SOL     OW10057   0.558   5.637   5.605
 3053SOL    HW110058   0.643   5.690   5.613
 3053SOL    HW210059   0.536   5.596   5.693
 3054SOL     OW10060   6.406   6.076   3.509
 3054SOL    HW110061   6.463   6.060   3.429
 3054SOL    HW210062   6.455   6.050   3.591
 3055SOL     OW10063   5.346   5.933   0.728
 3055SOL    HW110064   5.330   5.896   0.636
 3055SOL    HW210065   5.397   6.019   0.721
 3056SOL     OW10066   4.706   2.622   1.303
 3056SOL    HW110067   4.717   2.575   1.390
 3056SOL    HW210068   4.723   2.720   1.315
 3057SOL     OW10069   0.238   2.040   2.715
 3057SOL    HW110070   0.305   2.064   2.645
 3057SOL    HW210071   0.154   2.091   2.700
 3058SOL     OW10072   5.393   4.455   6.341
 3058SOL    HW110073   5.416   4.529   6.278
 3058SOL    HW210074   5.295   4.438   6.337
 3059SOL     OW10075   1.409   2.770   3.050
 3059SOL    HW110076   1.350   2.787   3.129
 3059SOL    HW210077   1.441   2.858   3.013
 3060SOL     OW10078   6.552   2.748   3.830
 3060SOL    HW110079   6.479   2.693   3.789
 3060SOL    HW210080   6.610   2.785   3.757
 3061SOL     OW10081   5.195   5.547   2.135
 3061SOL    HW110082   5.213   5.471   2.073
 3061SOL    HW210083   5.282   5.589   2.162
 3062SOL     OW10084   4.114   4.941   6.578
 3062SOL    HW110085   4.145   4.852   6.546
 3062SOL    HW210086   4.076   4.931   6.671
 3063SOL     OW10087   5.940   6.167   1.153
 3063SOL    HW110088   5.928   6.069   1.138
 3063SOL    HW210089   5.968   6.183   1.247
 3064SOL     OW10090   4.842   0.633   5.947
 3064SOL    HW110091   4.883   0.694   5.879
 3064SOL    HW210092   4.859   0.670   6.039
 3065SOL     OW10093   4.745   1.887   6.278
 3065SOL    HW110094   4.773   1.969   6.328
 3065SOL    HW210095   4.703   1.822   6.341
 3066SOL     OW10096   4.922   6.969   6.792
 3066SOL    HW110097   4.869   6.928   6.718
 3066SOL    HW210098   4.911   6.915   6.875
 3067SOL     OW10099   1.582   1.912   4.763
 3067SOL    HW110100   1.497   1.862   4.747
 3067SOL    HW210101   1.577   2.001   4.718
 3068SOL     OW10102   6.631   0.213   0.483
 3068SOL    HW110103   6.709   0.156   0.457
 3068SOL    HW210104   6.588   0.174   0.565
 3069SOL     OW10105   4.978   5.959   4.280
 3069SOL    HW110106   5.042   5.897   4.326
 3069SOL    HW210107   5.016   5.987   4.192
 3070SOL     OW10108   2.388   1.625   0.369
 3070SOL    HW110109   2.474   1.675   0.357
 3070SOL    HW210110   2.395   1.565   0.449
 3071SOL     OW10111   6.163   4.238   4.619
 3071SOL    HW110112   6.151   4.267   4.713
 3071SOL    HW210113   6.092   4.173   4.593
 3072SOL     OW10114   2.088   6.755   3.948
 3072SOL    HW110115   1.997   6.769   3.988
 3072SOL    HW210116   2.158   6.774   4.016
 3073SOL     OW10117   0.972   5.083   3.254
 3073SOL    HW110118   1.039   5.136   3.305
 3073SOL    HW210119   0.995   5.084   3.157
 3074SOL     OW10120   2.839   3.738   1.465
 3074SOL    HW110121   2.883   3.648   1.469
 3074SOL    HW210122   2.740   3.727   1.473
 3075SOL     OW10123   3.890   4.743   0.773
 3075SOL    HW110124   3.923   4.671   0.834
 3075SOL    HW210125   3.790   4.742   0.772
 3076SOL     OW10126   2.655   1.363   4.693
 3076SOL    HW110127   2.599   1.439   4.724
 3076SOL    HW210128   2.606   1.277   4.705
 3077SOL     OW10129   0.152   3.286   2.868
 3077SOL    HW110130   0.219   3.343   2.917
 3077SOL    HW210131   0.171   3.190   2.886
 3078SOL     OW10132   6.260   4.906   1.374
 3078SOL    HW110133   6.348   4.945   1.398
 3078SOL    HW210134   6.187   4.960   1.415
 3079SOL     OW10135   0.100   4.129   2.388
 3079SOL    HW110136   0.197   4.121   2.409
 3079SOL    HW210137   0.051   4.167   2.466
 3080SOL     OW10138   3.325   5.064   1.504
 3080SOL    HW110139   3.403   5.005   1.526
 3080SOL    HW210140   3.240   5.017   1.528
 3081SOL     OW10141   2.471   2.189   5.948
 3081SOL    HW110142   2.496   2.235   6.033
 3081SOL    HW210143   2.536   2.213   5.877
 3082SOL     OW10144   6.261   3.307   4.385
 3082SOL    HW110145   6.189   3.307   4.455
 3082SOL    HW210146   6.317   3.390   4.395
 3083SOL     OW10147   4.569   5.515   2.014
 3083SOL    HW110148   4.561   5.469   2.102
 3083SOL    HW210149   4.568   5.614   2.028
 3084SOL     OW10150   0.027   5.420   4.433
 3084SOL    HW110151   7.009   5.354   4.493
 3084SOL    HW210152   0.101   5.375   4.382
 3085SOL     OW10153   6.521   5.846   5.787
 3085SOL    HW110154   6.486   5.806   5.702
 3085SOL    HW210155   6.616   5.819   5.800
 3086SOL     OW10156   5.962   6.365   6.002
 3086SOL    HW110157   5.933   6.457   6.027
 3086SOL    HW210158   6.047   6.370   5.949
 3087SOL     OW10159   2.385   0.056   1.443
 3087SOL    HW110160   2.385   0.128   1.512
 3087SOL    HW210161   2.351   0.094   1.356
 3088SOL     OW10162   1.955   2.801   5.248
 3088SOL    HW110163   2.046   2.837   5.268
 3088SOL    HW210164   1.898   2.873   5.208
 3089SOL     OW10165   4.334   0.064   0.688
 3089SOL    HW110166   4.243   0.101   0.670
 3089SOL    HW210167   4.396   0.138   0.712
 3090SOL     OW10168   0.480   2.060   3.254
 3090SOL    HW110169   0.566   2.055   3.203
 3090SOL    HW210170   0.404   2.032   3.195
 3091SOL     OW10171   1.720   1.755   5.977
 3091SOL    HW110172   1.678   1.841   6.008
 3091SOL    HW210173   1.816   1.754   6.003
 3092SOL     OW10174   4.967   1.904   4.122
 3092SOL    HW110175   4.985   1.821   4.069
 3092SOL    HW210176   4.887   1.951   4.086
 3093SOL     OW10177   6.549   6.399   0.478
 3093SOL    HW110178   6.466   6.346   0.491
 3093SOL    HW210179   6.583   6.385   0.385
 3094SOL     OW10180   1.148   0.493   6.158
 3094SOL    HW110181   1.206   0.571   6.134
 3094SOL    HW210182   1.126   0.442   6.075
 3095SOL     OW10183   2.257   3.750   5.991
 3095SOL    HW110184   2.272   3.810   6.070
 3095SOL    HW210185   2.159   3.736   5.977
 3096SOL     OW10186   1.876   3.541   3.968
 3096SOL    HW110187   1.837   3.577   3.883
 3096SOL    HW210188   1.805   3.540   4.039
 3097SOL     OW10189   5.178   2.147   6.433
 3097SOL    HW110190   5.210   2.221   6.373
 3097SOL    HW210191   5.125   2.185   6.508
 3098SOL     OW10192   2.047   4.398   2.970
 3098SOL    HW110193   1.990   4.325   3.007
 3098SOL    HW210194   2.060   4.469   3.039
 3099SOL     OW10195   0.477   1.454   5.398
 3099SOL    HW110196   0.531   1.443   5.315
 3099SOL    HW210197   0.380   1.456   5.375
 3100SOL     OW10198   6.043   4.265   2.906
 3100SOL    HW110199   6.034   4.195   2.836
 3100SOL    HW210200   6.012   4.229   2.994
 3101SOL     OW10201   4.740   0.492   4.918
 3101SOL    HW110202   4.641   0.502   4.927
 3101SOL    HW210203   4.761   0.439   4.836
 3102SOL     OW10204   5.346   2.888   2.880
 3102SOL    HW110205   5.417   2.853   2.819
 3102SOL    HW210206   5.387   2.949   2.947
 3103SOL     OW10207   1.398   0.874   2.545
 3103SOL    HW110208   1.301   0.880   2.523
 3103SOL    HW210209   1.452   0.914   2.471
 3104SOL     OW10210   5.906   2.190   6.185
 3104SOL    HW110211   5.974   2.117   6.188
 3104SOL    HW210212   5.952   2.278   6.195
 3105SOL     OW10213   5.565   4.666   0.843
 3105SOL    HW110214   5.617   4.698   0.764
 3105SOL    HW210215   5.618   4.596   0.891
 3106SOL     OW10216   5.218   1.647   4.986
 3106SOL    HW110217   5.250   1.741   4.998
 3106SOL    HW210218   5.171   1.638   4.899
 3107SOL     OW10219   4.860   1.360   4.704
 3107SOL    HW110220   4.862   1.300   4.784
 3107SOL    HW210221   4.855   1.305   4.621
 3108SOL     OW10222   2.895   5.154   4.450
 3108SOL    HW110223   2.803   5.136   4.416
 3108SOL    HW210224   2.953   5.184   4.374
 3109SOL     OW10225   6.969   4.912   3.943
 3109SOL    HW110226   0.005   4.900   3.866
 3109SOL    HW210227   7.019   4.955   4.019
 3110SOL     OW10228   2.396   4.735   3.844
 3110SOL    HW110229   2.454   4.814   3.866
 3110SOL    HW210230   2.451   4.652   3.848
 3111SOL     OW10231   0.399   3.428   4.393
 3111SOL    HW110232   0.490   3.425   4.435
 3111SOL    HW210233   0.355   3.514   4.417
 3112SOL     OW10234   4.534   0.592   0.799
 3112SOL    HW110235   4.593   0.647   0.741
 3112SOL    HW210236   4.469   0.542   0.742
 3113SOL     OW10237   1.102   6.528   3.849
 3113SOL    HW110238   1.172   6.473   3.802
 3113SOL    HW210239   1.018   6.476   3.856
 3114SOL     OW10240   5.297   4.905   4.998
 3114SOL    HW110241   5.284   4.806   5.006
 3114SOL    HW210242   5.209   4.948   4.976
 3115SOL     OW10243   5.757   5.203   4.320
 3115SOL    HW110244   5.731   5.183   4.226
 3115SOL    HW210245   5.682   5.251   4.366
 3116SOL     OW10246   0.923   2.744   6.059
 3116SOL    HW110247   0.965   2.765   6.148
 3116SOL    HW210248   0.826   2.724   6.073
 3117SOL     OW10249   4.287   0.253   2.100
 3117SOL    HW110250   4.316   0.346   2.123
 3117SOL    HW210251   4.189   0.244   2.118
 3118SOL     OW10252   0.958   1.840   3.482
 3118SOL    HW110253   0.966   1.940   3.481
 3118SOL    HW210254   0.946   1.809   3.576
 3119SOL     OW10255   4.399   6.685   3.013
 3119SOL    HW110256   4.411   6.784   3.020
 3119SOL    HW210257   4.398   6.658   2.917
 3120SOL     OW10258   3.891   6.262   6.432
 3120SOL    HW110259   3.855   6.337   6.376
 3120SOL    HW210260   3.911   6.296   6.524
 3121SOL     OW10261   4.005   1.317   3.108
 3121SOL    HW110262   3.963   1.259   3.039
 3121SOL    HW210263   4.050   1.260   3.177
 3122SOL     OW10264   5.220   3.148   6.785
 3122SOL    HW110265   5.304   3.165   6.734
 3122SOL    HW210266   5.149   3.112   6.724
 3123SOL     OW10267   2.220   3.087   2.546
 3123SOL    HW110268   2.311   3.113   2.578
 3123SOL    HW210269   2.151   3.115   2.613
 3124SOL     OW10270   5.067   6.181   5.814
 3124SOL    HW110271   5.011   6.151   5.736
 3124SOL    HW210272   5.164   6.170   5.792
 3125SOL     OW10273   2.252   1.550   4.642
 3125SOL    HW110274   2.210   1.628   4.687
 3125SOL    HW210275   2.349   1.546   4.665
 3126SOL     OW10276   5.279   3.907   4.977
 3126SOL    HW110277   5.244   3.878   5.066
 3126SOL    HW210278   5.230   3.859   4.905
 3127SOL     OW10279   6.965   2.288   6.397
 3127SOL    HW110280   6.936   2.208   6.345
 3127SOL    HW210281   6.977   2.365   6.336
 3128SOL     OW10282   4.374   2.206   1.612
 3128SOL    HW110283   4.361   2.116   1.652
 3128SOL    HW210284   4.343   2.276   1.677
 3129SOL     OW10285   4.000   4.923   0.285
 3129SOL    HW110286   4.084   4.910   0.233
 3129SOL    HW210287   3.999   4.863   0.365
 3130SOL     OW10288   6.438   5.666   3.146
 3130SOL    HW110289   6.359   5.721   3.119
 3130SOL    HW210290   6.517   5.693   3.091
 3131SOL     OW10291   0.717   1.575   3.473
 3131SOL    HW110292   0.731   1.548   3.378
 3131SOL    HW210293   0.693   1.672   3.477
 3132SOL     OW10294   4.411   4.237   6.022
 3132SOL    HW110295   4.341   4.285   6.075
 3132SOL    HW210296   4.497   4.237   6.073
 3133SOL     OW10297   5.307   6.555   4.552
 3133SOL    HW110298   5.244   6.589   4.482
 3133SOL    HW210299   5.381   6.621   4.565
 3134SOL     OW10300   3.911   5.471   3.084
 3134SOL    HW110301   4.000   5.431   3.063
 3134SOL    HW210302   3.866   5.417   3.155
 3135SOL     OW10303   4.049   0.661   6.340
 3135SOL    HW110304   4.149   0.669   6.339
 3135SOL    HW210305   4.024   0.569   6.372
 3136SOL     OW10306   5.927   5.758   2.059
 3136SOL    HW110307   5.870   5.801   1.990
 3136SOL    HW210308   5.879   5.757   2.147
 3137SOL     OW10309   5.197   3.880   0.003
 3137SOL    HW110310   5.273   3.816   7.021
 3137SOL    HW210311   5.177   3.920   6.940
 3138SOL     OW10312   6.550   6.516   5.865
 3138SOL    HW110313   6.545   6.452   5.789
 3138SOL    HW210314   6.462   6.563   5.874
 3139SOL     OW10315   1.451   4.830   2.029
 3139SOL    HW110316   1.486   4.781   1.949
 3139SOL    HW210317   1.521   4.893   2.063
 3140SOL     OW10318   4.415   5.562   6.813
 3140SOL    HW110319   4.352   5.486   6.828
 3140SOL    HW210320   4.382   5.619   6.738
 3141SOL     OW10321   5.842   2.556   0.682
 3141SOL    HW110322   5.760   2.596   0.642
 3141SOL    HW210323   5.923   2.588   0.634
 3142SOL     OW10324   4.169   0.506   4.071
 3142SOL    HW110325   4.158   0.416   4.113
 3142SOL    HW210326   4.265   0.519   4.047
 3143SOL     OW10327   5.651   1.314   6.902
 3143SOL    HW110328   5.708   1.303   6.984
 3143SOL    HW210329   5.702   1.363   6.832
 3144SOL     OW10330   3.764   5.035   6.458
 3144SOL    HW110331   3.790   4.960   6.398
 3144SOL    HW210332   3.787   5.012   6.553
 3145SOL     OW10333   1.175   6.350   5.240
 3145SOL    HW110334   1.243   6.409   5.282
 3145SOL    HW210335   1.181   6.258   5.279
 3146SOL     OW10336   6.366   1.376   5.001
 3146SOL    HW110337   6.353   1.458   4.946
 3146SOL    HW210338   6.420   1.309   4.949
 3147SOL     OW10339   4.776   0.608   0.976
 3147SOL    HW110340   4.768   0.637   1.071
 3147SOL    HW210341   4.687   0.617   0.931
 3148SOL     OW10342   5.703   4.687   0.421
 3148SOL    HW110343   5.699   4.783   0.449
 3148SOL    HW210344   5.786   4.671   0.369
 3149SOL     OW10345   4.370   2.907   6.885
 3149SOL    HW110346   4.319   2.974   6.940
 3149SOL    HW210347   4.397   2.948   6.798
 3150SOL     OW10348   6.835   0.766   5.334
 3150SOL    HW110349   6.769   0.840   5.337
 3150SOL    HW210350   6.927   0.804   5.320
 3151SOL     OW10351   0.860   1.395   0.028
 3151SOL    HW110352   0.953   1.416   0.057
 3151SOL    HW210353   0.847   1.296   0.026
 3152SOL     OW10354   3.049   1.354   5.520
 3152SOL    HW110355   2.991   1.427   5.482
 3152SOL    HW210356   2.992   1.291   5.573
 3153SOL     OW10357   5.377   5.701   1.167
 3153SOL    HW110358   5.425   5.613   1.171
 3153SOL    HW210359   5.438   5.772   1.201
 3154SOL     OW10360   4.038   2.221   0.666
 3154SOL    HW110361   4.101   2.145   0.649
 3154SOL    HW210362   4.054   2.258   0.757
 3155SOL     OW10363   6.825   6.455   6.372
 3155SOL    HW110364   6.799   6.361   6.390
 3155SOL    HW210365   6.784   6.515   6.441
 3156SOL     OW10366   2.748   4.621   0.845
 3156SOL    HW110367   2.665   4.566   0.838
 3156SOL    HW210368   2.827   4.561   0.861
 3157SOL     OW10369   1.556   1.421   3.236
 3157SOL    HW110370   1.589   1.365   3.312
 3157SOL    HW210371   1.585   1.380   3.150
 3158SOL     OW10372   1.602   0.619   6.119
 3158SOL    HW110373   1.686   0.672   6.133
 3158SOL    HW210374   1.625   0.523   6.104
 3159SOL     OW10375   4.932   5.123   0.807
 3159SOL    HW110376   4.838   5.111   0.839
 3159SOL    HW210377   4.975   5.034   0.797
 3160SOL     OW10378   2.200   1.044   5.820
 3160SOL    HW110379   2.248   1.013   5.901
 3160SOL    HW210380   2.114   0.994   5.811
 3161SOL     OW10381   2.005   2.216   2.002
 3161SOL    HW110382   1.981   2.132   1.954
 3161SOL    HW210383   1.934   2.285   1.986
 3162SOL     OW10384   1.191   5.722   2.345
 3162SOL    HW110385   1.132   5.652   2.305
 3162SOL    HW210386   1.251   5.759   2.274
 3163SOL     OW10387   5.514   4.936   1.138
 3163SOL    HW110388   5.544   4.870   1.207
 3163SOL    HW210389   5.451   4.892   1.074
 3164SOL     OW10390   2.274   6.799   2.589
 3164SOL    HW110391   2.266   6.739   2.510
 3164SOL    HW210392   2.333   6.877   2.566
 3165SOL     OW10393   6.482   5.629   0.210
 3165SOL    HW110394   6.404   5.614   0.270
 3165SOL    HW210395   6.482   5.723   0.179
 3166SOL     OW10396   3.707   1.931   4.717
 3166SOL    HW110397   3.702   1.959   4.813
 3166SOL    HW210398   3.687   1.833   4.709
 3167SOL     OW10399   6.624   2.633   2.874
 3167SOL    HW110400   6.627   2.587   2.963
 3167SOL    HW210401   6.644   2.567   2.802
 3168SOL     OW10402   6.045   1.637   1.087
 3168SOL    HW110403   5.951   1.668   1.082
 3168SOL    HW210404   6.106   1.708   1.052
 3169SOL     OW10405   1.455   2.273   2.518
 3169SOL    HW110406   1.466   2.174   2.527
 3169SOL    HW210407   1.435   2.297   2.423
 3170SOL     OW10408   2.794   5.062   4.026
 3170SOL    HW110409   2.834   5.119   3.954
 3170SOL    HW210410   2.863   4.999   4.061
 3171SOL     OW10411   6.812   2.311   4.419
 3171SOL    HW110412   6.712   2.320   4.421
 3171SOL    HW210413   6.853   2.402   4.412
 3172SOL     OW10414   6.451   4.298   0.819
 3172SOL    HW110415   6.408   4.349   0.894
 3172SOL    HW210416   6.489   4.212   0.855
 3173SOL     OW10417   5.298   4.140   0.907
 3173SOL    HW110418   5.305   4.234   0.875
 3173SOL    HW210419   5.381   4.090   0.881
 3174SOL     OW10420   2.488   3.423   6.289
 3174SOL    HW110421   2.480   3.351   6.220
 3174SOL    HW210422   2.581   3.459   6.289
 3175SOL     OW10423   6.018   5.777   4.976
 3175SOL    HW110424   6.100   5.731   4.941
 3175SOL    HW210425   6.010   5.758   5.074
 3176SOL     OW10426   6.777   4.963   3.633
 3176SOL    HW110427   6.781   4.933   3.728
 3176SOL    HW210428   6.789   4.884   3.573
 3177SOL     OW10429   5.440   2.275   2.001
 3177SOL    HW110430   5.532   2.291   1.965
 3177SOL    HW210431   5.391   2.362   2.007
 3178SOL     OW10432   1.690   0.606   2.381
 3178SOL    HW110433   1.688   0.572   2.287
 3178SOL    HW210434   1.755   0.683   2.388
 3179SOL     OW10435   0.476   4.535   2.821
 3179SOL    HW110436   0.470   4.454   2.763
 3179SOL    HW210437   0.483   4.507   2.917
 3180SOL     OW10438   6.239   0.174   6.260
 3180SOL    HW110439   6.270   0.100   6.200
 3180SOL    HW210440   6.141   0.163   6.278
 3181SOL     OW10441   6.690   6.575   4.577
 3181SOL    HW110442   6.622   6.572   4.650
 3181SOL    HW210443   6.667   6.507   4.508
 3182SOL     OW10444   1.103   6.815   1.477
 3182SOL    HW110445   1.055   6.902   1.488
 3182SOL    HW210446   1.063   6.764   1.401
 3183SOL     OW10447   4.112   4.122   0.209
 3183SOL    HW110448   4.207   4.155   0.210
 3183SOL    HW210449   4.099   4.057   0.284
 3184SOL     OW10450   6.383   0.444   4.545
 3184SOL    HW110451   6.393   0.348   4.519
 3184SOL    HW210452   6.304   0.484   4.498
 3185SOL     OW10453   1.049   0.105   6.398
 3185SOL    HW110454   1.078   0.130   6.306
 3185SOL    HW210455   0.970   0.161   6.425
 3186SOL     OW10456   0.901   2.187   6.087
 3186SOL    HW110457   0.911   2.164   6.184
 3186SOL    HW210458   0.829   2.130   6.047
 3187SOL     OW10459   5.202   0.318   3.005
 3187SOL    HW110460   5.285   0.347   2.956
 3187SOL    HW210461   5.153   0.251   2.949
 3188SOL     OW10462   0.672   6.867   1.504
 3188SOL    HW110463   0.591   6.867   1.446
 3188SOL    HW210464   0.705   6.774   1.515
 3189SOL     OW10465   2.874   1.584   6.057
 3189SOL    HW110466   2.787   1.585   6.106
 3189SOL    HW210467   2.869   1.519   5.982
 3190SOL     OW10468   6.497   5.411   4.554
 3190SOL    HW110469   6.496   5.375   4.647
 3190SOL    HW210470   6.583   5.458   4.537
 3191SOL     OW10471   4.324   5.076   0.333
 3191SOL    HW110472   4.303   5.031   0.245
 3191SOL    HW210473   4.383   5.155   0.317
 3192SOL     OW10474   4.892   0.683   3.293
 3192SOL    HW110475   4.883   0.778   3.264
 3192SOL    HW210476   4.989   0.659   3.300
 3193SOL     OW10477   4.254   5.758   4.949
 3193SOL    HW110478   4.266   5.750   5.048
 3193SOL    HW210479   4.157   5.769   4.927
 3194SOL     OW10480   2.559   6.816   5.683
 3194SOL    HW110481   2.493   6.844   5.614
 3194SOL    HW210482   2.638   6.775   5.639
 3195SOL     OW10483   6.860   6.076   1.719
 3195SOL    HW110484   6.761   6.064   1.713
 3195SOL    HW210485   6.881   6.155   1.776
 3196SOL     OW10486   5.801   0.903   3.098
 3196SOL    HW110487   5.829   0.952   3.181
 3196SOL    HW210488   5.703   0.918   3.083
 3197SOL     OW10489   3.075   0.676   0.334
 3197SOL    HW110490   3.045   0.770   0.353
 3197SOL    HW210491   3.116   0.672   0.243
 3198SOL     OW10492   5.959   4.235   3.851
 3198SOL    HW110493   6.042   4.261   3.901
 3198SOL    HW210494   5.882   4.291   3.883
 3199SOL     OW10495   5.396   3.424   4.385
 3199SOL    HW110496   5.484   3.399   4.345
 3199SOL    HW210497   5.342   3.476   4.318
 3200SOL     OW10498   6.451   3.364   5.137
 3200SOL    HW110499   6.510   3.284   5.125
 3200SOL    HW210500   6.490   3.442   5.089
 3201SOL     OW10501   6.227   3.081   2.509
 3201SOL    HW110502   6.316   3.035   2.508
 3201SOL    HW210503   6.237   3.173   2.472
 3202SOL     OW10504   3.882   3.140   5.786
 3202SOL    HW110505   3.869   3.101   5.694
 3202SOL    HW210506   3.829   3.086   5.852
 3203SOL     OW10507   3.224   6.617   1.657
 3203SOL    HW110508   3.171   6.549   1.607
 3203SOL    HW210509   3.163   6.680   1.704
 3204SOL     OW10510   5.784   0.300   3.348
 3204SOL    HW110511   5.873   0.338   3.374
 3204SOL    HW210512   5.735   0.368   3.294
 3205SOL     OW10513   5.624   3.027   0.662
 3205SOL    HW110514   5.653   3.083   0.739
 3205SOL    HW210515   5.601   2.935   0.694
 3206SOL     OW10516   3.670   5.396   0.111
 3206SOL    HW110517   3.755   5.448   0.118
 3206SOL    HW210518   3.662   5.355   0.020
 3207SOL     OW10519   1.679   5.838   2.281
 3207SOL    HW110520   1.692   5.922   2.333
 3207SOL    HW210521   1.704   5.759   2.338
 3208SOL     OW10522   0.426   4.016   6.919
 3208SOL    HW110523   0.375   3.989   7.000
 3208SOL    HW210524   0.388   3.970   6.839
 3209SOL     OW10525   4.891   0.117   4.948
 3209SOL    HW110526   4.830   0.079   4.878
 3209SOL    HW210527   4.838   0.160   5.020
 3210SOL     OW10528   4.931   4.912   2.228
 3210SOL    HW110529   4.988   4.848   2.176
 3210SOL    HW210530   4.904   4.988   2.168
 3211SOL     OW10531   2.424   0.274   6.394
 3211SOL    HW110532   2.487   0.310   6.462
 3211SOL    HW210533   2.362   0.347   6.364
 3212SOL     OW10534   3.700   0.078   3.811
 3212SOL    HW110535   3.744   0.115   3.729
 3212SOL    HW210536   3.771   0.049   3.876
 3213SOL     OW10537   1.367   0.210   5.684
 3213SOL    HW110538   1.434   0.238   5.753
 3213SOL    HW210539   1.276   0.242   5.711
 3214SOL     OW10540   2.006   0.092   2.819
 3214SOL    HW110541   1.978   0.185   2.841
 3214SOL    HW210542   2.104   0.088   2.804
 3215SOL     OW10543   2.014   3.174   1.705
 3215SOL    HW110544   2.112   3.192   1.714
 3215SOL    HW210545   1.969   3.188   1.793
 3216SOL     OW10546   0.246   4.091   1.614
 3216SOL    HW110547   0.297   4.168   1.653
 3216SOL    HW210548   0.152   4.119   1.596
 3217SOL     OW10549   6.079   5.637   4.204
 3217SOL    HW110550   6.074   5.722   4.152
 3217SOL    HW210551   6.162   5.638   4.261
 3218SOL     OW10552   5.839   1.533   3.239
 3218SOL    HW110553   5.883   1.572   3.158
 3218SOL    HW210554   5.785   1.453   3.212
 3219SOL     OW10555   4.227   1.555   4.319
 3219SOL    HW110556   4.211   1.610   4.237
 3219SOL    HW210557   4.140   1.521   4.354
 3220SOL     OW10558   0.474   4.153   6.071
 3220SOL    HW110559   0.492   4.065   6.027
 3220SOL    HW210560   0.561   4.197   6.094
 3221SOL     OW10561   3.944   1.722   2.433
 3221SOL    HW110562   3.989   1.811   2.429
 3221SOL    HW210563   3.911   1.705   2.526
 3222SOL     OW10564   2.843   0.939   3.004
 3222SOL    HW110565   2.937   0.909   3.019
 3222SOL    HW210566   2.795   0.944   3.091
 3223SOL     OW10567   2.089   5.259   0.791
 3223SOL    HW110568   2.154   5.214   0.853
 3223SOL    HW210569   2.034   5.324   0.843
 3224SOL     OW10570   4.597   2.512   4.123
 3224SOL    HW110571   4.668   2.446   4.145
 3224SOL    HW210572   4.560   2.551   4.208
 3225SOL     OW10573   2.809   1.094   4.916
 3225SOL    HW110574   2.824   1.013   4.860
 3225SOL    HW210575   2.725   1.139   4.888
 3226SOL     OW10576   5.219   1.034   0.006
 3226SOL    HW110577   5.162   1.003   6.956
 3226SOL    HW210578   5.277   1.109   7.000
 3227SOL     OW10579   6.112   4.302   5.812
 3227SOL    HW110580   6.162   4.301   5.898
 3227SOL    HW210581   6.071   4.392   5.797
 3228SOL     OW10582   1.682   4.255   1.127
 3228SOL    HW110583   1.658   4.336   1.073
 3228SOL    HW210584   1.600   4.218   1.170
 3229SOL     OW10585   0.768   1.141   0.024
 3229SOL    HW110586   0.734   1.151   6.957
 3229SOL    HW210587   0.764   1.045   0.051
 3230SOL     OW10588   4.076   7.020   5.162
 3230SOL    HW110589   4.002   0.048   5.202
 3230SOL    HW210590   4.140   6.993   5.233
 3231SOL     OW10591   2.772   1.994   2.634
 3231SOL    HW110592   2.865   2.001   2.599
 3231SOL    HW210593   2.753   2.071   2.695
 3232SOL     OW10594   3.281   5.372   3.405
 3232SOL    HW110595   3.244   5.304   3.468
 3232SOL    HW210596   3.316   5.449   3.456
 3233SOL     OW10597   2.245   6.785   4.587
 3233SOL    HW110598   2.173   6.804   4.655
 3233SOL    HW210599   2.202   6.762   4.500
 3234SOL     OW10600   3.624   3.825   0.615
 3234SOL    HW110601   3.637   3.913   0.570
 3234SOL    HW210602   3.638   3.836   0.714
 3235SOL     OW10603   0.170   1.712   3.004
 3235SOL    HW110604   0.219   1.681   3.086
 3235SOL    HW210605   0.103   1.782   3.030
 3236SOL     OW10606   5.843   6.499   0.813
 3236SOL    HW110607   5.911   6.482   0.741
 3236SOL    HW210608   5.877   6.462   0.899
 3237SOL     OW10609   6.071   2.720   5.622
 3237SOL    HW110610   6.014   2.702   5.541
 3237SOL    HW210611   6.039   2.803   5.667
 3238SOL     OW10612   0.771   4.561   0.767
 3238SOL    HW110613   0.826   4.536   0.687
 3238SOL    HW210614   0.720   4.481   0.798
 3239SOL     OW10615   6.454   1.465   4.690
 3239SOL    HW110616   6.532   1.520   4.660
 3239SOL    HW210617   6.436   1.394   4.622
 3240SOL     OW10618   1.052   1.222   1.462
 3240SOL    HW110619   1.066   1.140   1.516
 3240SOL    HW210620   0.961   1.219   1.420
 3241SOL     OW10621   6.962   2.746   5.741
 3241SOL    HW110622   6.863   2.732   5.745
 3241SOL    HW210623   7.006   2.700   5.819
 3242SOL     OW10624   6.865   4.858   5.449
 3242SOL    HW110625   6.933   4.902   5.508
 3242SOL    HW210626   6.786   4.831   5.504
 3243SOL     OW10627   6.309   4.745   4.948
 3243SOL    HW110628   6.356   4.816   5.000
 3243SOL    HW210629   6.223   4.782   4.913
 3244SOL     OW10630   4.845   6.811   7.007
 3244SOL    HW110631   4.805   6.879   0.042
 3244SOL    HW210632   4.838   6.720   0.023
 3245SOL     OW10633   1.708   6.216   4.472
 3245SOL    HW110634   1.711   6.183   4.378
 3245SOL    HW210635   1.751   6.149   4.532
 3246SOL     OW10636   6.385   5.079   2.014
 3246SOL    HW110637   6.482   5.074   2.036
 3246SOL    HW210638   6.349   4.987   1.999
 3247SOL     OW10639   2.160   3.885   4.801
 3247SOL    HW110640   2.121   3.795   4.822
 3247SOL    HW210641   2.194   3.927   4.885
 3248SOL     OW10642   5.929   2.534   4.180
 3248SOL    HW110643   5.853   2.514   4.242
 3248SOL    HW210644   6.014   2.499   4.219
 3249SOL     OW10645   3.896   4.064   4.240
 3249SOL    HW110646   3.964   4.070   4.166
 3249SOL    HW210647   3.805   4.083   4.203
 3250SOL     OW10648   4.399   5.091   3.357
 3250SOL    HW110649   4.491   5.127   3.373
 3250SOL    HW210650   4.336   5.129   3.426
 3251SOL     OW10651   2.474   2.461   2.015
 3251SOL    HW110652   2.456   2.462   1.917
 3251SOL    HW210653   2.426   2.537   2.059
 3252SOL     OW10654   1.825   1.391   2.831
 3252SOL    HW110655   1.786   1.332   2.761
 3252SOL    HW210656   1.851   1.479   2.791
 3253SOL     OW10657   6.724   3.305   1.365
 3253SOL    HW110658   6.800   3.370   1.368
 3253SOL    HW210659   6.637   3.355   1.367
 3254SOL     OW10660   5.638   0.306   0.663
 3254SOL    HW110661   5.718   0.253   0.690
 3254SOL    HW210662   5.580   0.251   0.603
 3255SOL     OW10663   3.509   4.958   2.165
 3255SOL    HW110664   3.550   4.922   2.082
 3255SOL    HW210665   3.409   4.948   2.160
 3256SOL     OW10666   5.212   2.774   2.439
 3256SOL    HW110667   5.119   2.807   2.457
 3256SOL    HW210668   5.221   2.680   2.472
 3257SOL     OW10669   3.132   1.629   2.372
 3257SOL    HW110670   3.199   1.694   2.339
 3257SOL    HW210671   3.163   1.588   2.458
 3258SOL     OW10672   0.213   5.633   4.543
 3258SOL    HW110673   0.293   5.574   4.552
 3258SOL    HW210674   0.154   5.598   4.470
 3259SOL     OW10675   6.188   5.504   2.478
 3259SOL    HW110676   6.126   5.524   2.403
 3259SOL    HW210677   6.135   5.481   2.560
 3260SOL     OW10678   2.931   4.787   3.530
 3260SOL    HW110679   2.852   4.758   3.583
 3260SOL    HW210680   3.015   4.769   3.582
 3261SOL     OW10681   5.955   0.592   4.203
 3261SOL    HW110682   5.983   0.550   4.117
 3261SOL    HW210683   5.856   0.581   4.215
 3262SOL     OW10684   3.052   2.224   2.613
 3262SOL    HW110685   3.127   2.290   2.621
 3262SOL    HW210686   3.005   2.238   2.526
 3263SOL     OW10687   5.607   0.519   0.942
 3263SOL    HW110688   5.631   0.569   0.858
 3263SOL    HW210689   5.534   0.454   0.921
 3264SOL     OW10690   1.588   5.227   6.898
 3264SOL    HW110691   1.514   5.255   6.837
 3264SOL    HW210692   1.570   5.263   6.990
 3265SOL     OW10693   6.654   5.704   5.354
 3265SOL    HW110694   6.638   5.803   5.358
 3265SOL    HW210695   6.575   5.659   5.314
 3266SOL     OW10696   3.124   4.522   6.514
 3266SOL    HW110697   3.188   4.561   6.580
 3266SOL    HW210698   3.044   4.582   6.505
 3267SOL     OW10699   2.907   0.269   0.280
 3267SOL    HW110700   2.991   0.287   0.332
 3267SOL    HW210701   2.853   0.200   0.328
 3268SOL     OW10702   5.488   3.708   2.674
 3268SOL    HW110703   5.453   3.655   2.596
 3268SOL    HW210704   5.434   3.792   2.683
 3269SOL     OW10705   2.254   5.679   0.499
 3269SOL    HW110706   2.345   5.687   0.457
 3269SOL    HW210707   2.264   5.641   0.591
 3270SOL     OW10708   1.841   3.559   6.275
 3270SOL    HW110709   1.867   3.517   6.188
 3270SOL    HW210710   1.881   3.508   6.350
 3271SOL     OW10711   1.287   3.835   1.946
 3271SOL    HW110712   1.222   3.898   1.987
 3271SOL    HW210713   1.258   3.741   1.963
 3272SOL     OW10714   3.774   7.010   0.571
 3272SOL    HW110715   3.864   6.967   0.569
 3272SOL    HW210716   3.709   6.952   0.620
 3273SOL     OW10717   4.252   3.701   6.652
 3273SOL    HW110718   4.343   3.739   6.637
 3273SOL    HW210719   4.188   3.775   6.674
 3274SOL     OW10720   5.032   0.196   1.999
 3274SOL    HW110721   4.961   0.133   1.971
 3274SOL    HW210722   4.999   0.290   1.989
 3275SOL     OW10723   4.723   0.393   1.675
 3275SOL    HW110724   4.630   0.403   1.709
 3275SOL    HW210725   4.750   0.475   1.625
 3276SOL     OW10726   6.572   6.297   0.781
 3276SOL    HW110727   6.590   6.393   0.758
 3276SOL    HW210728   6.541   6.249   0.699
 3277SOL     OW10729   5.242   1.164   2.216
 3277SOL    HW110730   5.214   1.128   2.305
 3277SOL    HW210731   5.310   1.104   2.175
 3278SOL     OW10732   4.915   1.175   6.687
 3278SOL    HW110733   4.943   1.262   6.726
 3278SOL    HW210734   4.820   1.155   6.713
 3279SOL     OW10735   4.105   0.393   2.338
 3279SOL    HW110736   4.139   0.312   2.387
 3279SOL    HW210737   4.103   0.471   2.401
 3280SOL     OW10738   0.532   2.111   4.479
 3280SOL    HW110739   0.630   2.106   4.500
 3280SOL    HW210740   0.496   2.200   4.509
 3281SOL     OW10741   5.958   2.599   2.211
 3281SOL    HW110742   5.938   2.620   2.307
 3281SOL    HW210743   5.874   2.576   2.164
 3282SOL     OW10744   6.649   4.853   5.600
 3282SOL    HW110745   6.617   4.767   5.640
 3282SOL    HW210746   6.572   4.900   5.557
 3283SOL     OW10747   3.391   1.480   0.670
 3283SOL    HW110748   3.302   1.442   0.644
 3283SOL    HW210749   3.404   1.471   0.768
 3284SOL     OW10750   2.318   0.795   5.701
 3284SOL    HW110751   2.339   0.871   5.763
 3284SOL    HW210752   2.396   0.781   5.639
 3285SOL     OW10753   4.189   1.600   4.757
 3285SOL    HW110754   4.188   1.503   4.779
 3285SOL    HW210755   4.230   1.614   4.667
 3286SOL     OW10756   1.801   3.958   3.238
 3286SOL    HW110757   1.718   3.985   3.289
 3286SOL    HW210758   1.779   3.882   3.178
 3287SOL     OW10759   3.130   1.441   0.833
 3287SOL    HW110760   3.055   1.409   0.891
 3287SOL    HW210761   3.216   1.437   0.884
 3288SOL     OW10762   2.903   5.351   0.991
 3288SOL    HW110763   2.935   5.257   0.980
 3288SOL    HW210764   2.957   5.396   1.062
 3289SOL     OW10765   5.514   6.822   6.994
 3289SOL    HW110766   5.612   6.824   6.974
 3289SOL    HW210767   5.491   6.898   0.029
 3290SOL     OW10768   0.647   3.953   0.380
 3290SOL    HW110769   0.648   3.936   0.281
 3290SOL    HW210770   0.690   3.876   0.427
 3291SOL     OW10771   5.293   6.877   5.801
 3291SOL    HW110772   5.272   6.975   5.800
 3291SOL    HW210773   5.248   6.834   5.879
 3292SOL     OW10774   0.473   2.744   0.561
 3292SOL    HW110775   0.419   2.812   0.510
 3292SOL    HW210776   0.566   2.741   0.524
 3293SOL     OW10777   0.101   4.709   1.785
 3293SOL    HW110778   0.051   4.687   1.701
 3293SOL    HW210779   0.168   4.637   1.804
 3294SOL     OW10780   4.078   2.908   5.435
 3294SOL    HW110781   4.162   2.952   5.404
 3294SOL    HW210782   4.057   2.831   5.375
 3295SOL     OW10783   1.950   3.508   3.332
 3295SOL    HW110784   1.873   3.444   3.335
 3295SOL    HW210785   1.938   3.577   3.403
 3296SOL     OW10786   2.341   0.643   0.091
 3296SOL    HW110787   2.422   0.642   0.150
 3296SOL    HW210788   2.279   0.716   0.121
 3297SOL     OW10789   2.927   1.002   5.943
 3297SOL    HW110790   2.944   0.982   6.039
 3297SOL    HW210791   2.927   0.917   5.890
 3298SOL     OW10792   3.872   4.054   6.408
 3298SOL    HW110793   3.777   4.086   6.413
 3298SOL    HW210794   3.934   4.132   6.410
 3299SOL     OW10795   2.538   6.920   3.883
 3299SOL    HW110796   2.492   6.986   3.823
 3299SOL    HW210797   2.621   6.887   3.839
 3300SOL     OW10798   2.237   1.254   2.958
 3300SOL    HW110799   2.142   1.225   2.949
 3300SOL    HW210800   2.248   1.306   3.043
 3301SOL     OW10801   0.982   0.514   1.845
 3301SOL    HW110802   0.956   0.585   1.779
 3301SOL    HW210803   1.082   0.509   1.850
 3302SOL     OW10804   1.847   5.441   4.630
 3302SOL    HW110805   1.867   5.487   4.544
 3302SOL    HW210806   1.765   5.482   4.671
 3303SOL     OW10807   4.378   4.169   0.260
 3303SOL    HW110808   4.456   4.195   0.316
 3303SOL    HW210809   4.394   4.196   0.165
 3304SOL     OW10810   2.745   3.858   0.872
 3304SOL    HW110811   2.791   3.826   0.954
 3304SOL    HW210812   2.773   3.952   0.853
 3305SOL     OW10813   3.278   2.678   0.033
 3305SOL    HW110814   3.234   2.761   7.025
 3305SOL    HW210815   3.208   2.609   0.051
 3306SOL     OW10816   2.811   0.483   0.624
 3306SOL    HW110817   2.808   0.397   0.674
 3306SOL    HW210818   2.906   0.503   0.598
 3307SOL     OW10819   1.961   5.771   5.235
 3307SOL    HW110820   1.939   5.727   5.149
 3307SOL    HW210821   1.957   5.870   5.224
 3308SOL     OW10822   5.279   4.735   1.786
 3308SOL    HW110823   5.237   4.709   1.700
 3308SOL    HW210824   5.243   4.823   1.816
 3309SOL     OW10825   5.851   3.187   4.161
 3309SOL    HW110826   5.752   3.184   4.148
 3309SOL    HW210827   5.895   3.124   4.096
 3310SOL     OW10828   6.102   4.329   0.067
 3310SOL    HW110829   6.088   4.234   0.096
 3310SOL    HW210830   6.057   4.391   0.131
 3311SOL     OW10831   0.863   2.964   1.035
 3311SOL    HW110832   0.958   2.967   1.004
 3311SOL    HW210833   0.820   3.053   1.017
 3312SOL     OW10834   5.475   3.918   0.153
 3312SOL    HW110835   5.447   3.825   0.175
 3312SOL    HW210836   5.504   3.923   0.058
 3313SOL     OW10837   0.486   6.212   4.190
 3313SOL    HW110838   0.424   6.136   4.212
 3313SOL    HW210839   0.561   6.214   4.255
 3314SOL     OW10840   3.537   6.149   3.348
 3314SOL    HW110841   3.446   6.109   3.345
 3314SOL    HW210842   3.573   6.144   3.441
 3315SOL     OW10843   0.847   6.416   3.868
 3315SOL    HW110844   0.806   6.348   3.929
 3315SOL    HW210845   0.816   6.507   3.894
 3316SOL     OW10846   3.878   1.962   0.771
 3316SOL    HW110847   3.953   1.974   0.836
 3316SOL    HW210848   3.873   1.866   0.743
 3317SOL     OW10849   5.733   2.499   1.581
 3317SOL    HW110850   5.695   2.407   1.580
 3317SOL    HW210851   5.832   2.494   1.598
 3318SOL     OW10852   4.242   2.922   0.457
 3318SOL    HW110853   4.149   2.884   0.459
 3318SOL    HW210854   4.255   2.982   0.536
 3319SOL     OW10855   6.452   6.485   3.822
 3319SOL    HW110856   6.361   6.472   3.782
 3319SOL    HW210857   6.514   6.416   3.786
 3320SOL     OW10858   6.184   0.638   3.225
 3320SOL    HW110859   6.216   0.716   3.278
 3320SOL    HW210860   6.173   0.665   3.129
 3321SOL     OW10861   4.624   1.702   6.440
 3321SOL    HW110862   4.610   1.650   6.525
 3321SOL    HW210863   4.607   1.643   6.362
 3322SOL     OW10864   5.797   3.560   1.941
 3322SOL    HW110865   5.772   3.481   1.884
 3322SOL    HW210866   5.790   3.535   2.037
 3323SOL     OW10867   0.120   0.594   2.276
 3323SOL    HW110868   0.182   0.672   2.264
 3323SOL    HW210869   0.169   0.509   2.254
 3324SOL     OW10870   6.217   5.792   6.383
 3324SOL    HW110871   6.307   5.757   6.358
 3324SOL    HW210872   6.184   5.743   6.464
 3325SOL     OW10873   2.359   5.674   6.514
 3325SOL    HW110874   2.267   5.661   6.551
 3325SOL    HW210875   2.357   5.665   6.415
 3326SOL     OW10876   4.055   1.347   1.567
 3326SOL    HW110877   4.138   1.395   1.594
 3326SOL    HW210878   3.987   1.414   1.535
 3327SOL     OW10879   1.748   6.168   5.952
 3327SOL    HW110880   1.694   6.199   5.873
 3327SOL    HW210881   1.714   6.212   6.035
 3328SOL     OW10882   4.060   2.631   5.558
 3328SOL    HW110883   4.049   2.657   5.462
 3328SOL    HW210884   4.052   2.712   5.616
 3329SOL     OW10885   0.158   6.508   5.362
 3329SOL    HW110886   0.231   6.452   5.403
 3329SOL    HW210887   0.136   6.472   5.271
 3330SOL     OW10888   6.729   3.193   3.405
 3330SOL    HW110889   6.670   3.198   3.486
 3330SOL    HW210890   6.824   3.192   3.434
 3331SOL     OW10891   2.010   3.693   0.717
 3331SOL    HW110892   2.097   3.678   0.669
 3331SOL    HW210893   2.025   3.751   0.797
 3332SOL     OW10894   6.814   4.057   1.890
 3332SOL    HW110895   6.817   4.156   1.903
 3332SOL    HW210896   6.720   4.028   1.875
 3333SOL     OW10897   2.970   6.366   5.248
 3333SOL    HW110898   3.011   6.452   5.281
 3333SOL    HW210899   2.871   6.373   5.253
 3334SOL     OW10900   1.538   2.749   1.052
 3334SOL    HW110901   1.452   2.714   1.015
 3334SOL    HW210902   1.524   2.781   1.146
 3335SOL     OW10903   5.601   4.152   5.289
 3335SOL    HW110904   5.546   4.104   5.220
 3335SOL    HW210905   5.602   4.250   5.268
 3336SOL     OW10906   3.267   5.981   5.454
 3336SOL    HW110907   3.239   6.059   5.398
 3336SOL    HW210908   3.363   5.990   5.478
 3337SOL     OW10909   3.820   0.960   1.086
 3337SOL    HW110910   3.850   1.055   1.099
 3337SOL    HW210911   3.744   0.958   1.022
 3338SOL     OW10912   6.449   6.074   0.324
 3338SOL    HW110913   6.459   5.994   0.265
 3338SOL    HW210914   6.441   6.157   0.269
 3339SOL     OW10915   0.357   5.238   0.020
 3339SOL    HW110916   0.258   5.249   0.020
 3339SOL    HW210917   0.399   5.314   0.069
 3340SOL     OW10918   4.226   0.993   1.586
 3340SOL    HW110919   4.185   0.933   1.654
 3340SOL    HW210920   4.154   1.039   1.533
 3341SOL     OW10921   1.305   0.120   6.444
 3341SOL    HW110922   1.357   0.185   6.388
 3341SOL    HW210923   1.207   0.137   6.434
 3342SOL     OW10924   1.232   6.909   4.861
 3342SOL    HW110925   1.278   6.821   4.869
 3342SOL    HW210926   1.152   6.911   4.922
 3343SOL     OW10927   0.425   2.128   0.980
 3343SOL    HW110928   0.467   2.134   0.890
 3343SOL    HW210929   0.476   2.186   1.044
 3344SOL     OW10930   1.382   1.894   6.862
 3344SOL    HW110931   1.474   1.928   6.885
 3344SOL    HW210932   1.325   1.896   6.944
 3345SOL     OW10933   3.128   3.163   6.935
 3345SOL    HW110934   3.184   3.136   6.856
 3345SOL    HW210935   3.172   3.238   6.983
 3346SOL     OW10936   2.975   5.653   2.905
 3346SOL    HW110937   2.889   5.612   2.874
 3346SOL    HW210938   3.036   5.582   2.940
 3347SOL     OW10939   5.625   3.840   3.540
 3347SOL    HW110940   5.532   3.813   3.563
 3347SOL    HW210941   5.689   3.773   3.577
 3348SOL     OW10942   4.085   3.734   3.355
 3348SOL    HW110943   4.035   3.820   3.343
 3348SOL    HW210944   4.124   3.705   3.268
 3349SOL     OW10945   5.182   2.660   0.793
 3349SOL    HW110946   5.088   2.693   0.800
 3349SOL    HW210947   5.194   2.581   0.854
 3350SOL     OW10948   2.495   2.603   1.445
 3350SOL    HW110949   2.566   2.631   1.510
 3350SOL    HW210950   2.420   2.669   1.448
 3351SOL     OW10951   6.289   3.133   1.049
 3351SOL    HW110952   6.375   3.087   1.030
 3351SOL    HW210953   6.256   3.106   1.140
 3352SOL     OW10954   0.348   4.046   0.890
 3352SOL    HW110955   0.302   4.054   0.978
 3352SOL    HW210956   0.281   4.030   0.818
 3353SOL     OW10957   1.179   6.185   6.368
 3353SOL    HW110958   1.249   6.222   6.307
 3353SOL    HW210959   1.091   6.229   6.348
 3354SOL     OW10960   0.158   6.305   2.322
 3354SOL    HW110961   0.061   6.330   2.331
 3354SOL    HW210962   0.207   6.333   2.404
 3355SOL     OW10963   5.666   1.314   2.905
 3355SOL    HW110964   5.711   1.289   2.991
 3355SOL    HW210965   5.688   1.408   2.881
 3356SOL     OW10966   1.477   3.780   6.776
 3356SOL    HW110967   1.527   3.713   6.722
 3356SOL    HW210968   1.379   3.766   6.764
 3357SOL     OW10969   2.865   6.053   2.709
 3357SOL    HW110970   2.812   5.970   2.727
 3357SOL    HW210971   2.893   6.094   2.796
 3358SOL     OW10972   0.377   3.602   3.375
 3358SOL    HW110973   0.462   3.570   3.419
 3358SOL    HW210974   0.398   3.636   3.284
 3359SOL     OW10975   2.706   1.885   1.767
 3359SOL    HW110976   2.712   1.977   1.806
 3359SOL    HW210977   2.788   1.866   1.713
 3360SOL     OW10978   2.310   1.040   6.112
 3360SOL    HW110979   2.338   0.975   6.182
 3360SOL    HW210980   2.391   1.084   6.073
 3361SOL     OW10981   2.428   1.156   2.816
 3361SOL    HW110982   2.451   1.065   2.850
 3361SOL    HW210983   2.355   1.195   2.872
 3362SOL     OW10984   3.239   2.028   4.176
 3362SOL    HW110985   3.205   2.010   4.084
 3362SOL    HW210986   3.180   2.094   4.221
 3363SOL     OW10987   6.822   0.464   0.243
 3363SOL    HW110988   6.749   0.403   0.213
 3363SOL    HW210989   6.782   0.549   0.278
 3364SOL     OW10990   1.532   5.294   5.115
 3364SOL    HW110991   1.629   5.278   5.133
 3364SOL    HW210992   1.483   5.207   5.113
 3365SOL     OW10993   6.398   2.192   5.088
 3365SOL    HW110994   6.369   2.202   5.183
 3365SOL    HW210995   6.319   2.174   5.030
 3366SOL     OW10996   4.590   1.168   0.245
 3366SOL    HW110997   4.607   1.266   0.257
 3366SOL    HW210998   4.542   1.133   0.325
 3367SOL     OW10999   1.652   6.738   2.310
 3367SOL    HW111000   1.638   6.837   2.307
 3367SOL    HW211001   1.750   6.719   2.322
 3368SOL     OW11002   6.063   1.404   4.634
 3368SOL    HW111003   5.992   1.336   4.656
 3368SOL    HW211004   6.059   1.479   4.700
 3369SOL     OW11005   3.979   5.354   6.532
 3369SOL    HW111006   3.972   5.452   6.549
 3369SOL    HW211007   3.887   5.317   6.515
 3370SOL     OW11008   5.737   0.998   6.032
 3370SOL    HW111009   5.764   0.990   6.128
 3370SOL    HW211010   5.644   0.964   6.019
 3371SOL     OW11011   6.490   5.007   1.490
 3371SOL    HW111012   6.576   4.957   1.493
 3371SOL    HW211013   6.507   5.103   1.469
 3372SOL     OW11014   1.839   2.996   2.691
 3372SOL    HW111015   1.756   3.041   2.724
 3372SOL    HW211016   1.867   2.925   2.755
 3373SOL     OW11017   1.433   2.850   6.111
 3373SOL    HW111018   1.336   2.867   6.131
 3373SOL    HW211019   1.442   2.807   6.021
 3374SOL     OW11020   3.262   6.037   5.149
 3374SOL    HW111021   3.164   6.050   5.166
 3374SOL    HW211022   3.306   6.126   5.138
 3375SOL     OW11023   3.091   4.118   5.056
 3375SOL    HW111024   3.060   4.024   5.071
 3375SOL    HW211025   3.129   4.126   4.964
 3376SOL     OW11026   3.686   2.863   1.215
 3376SOL    HW111027   3.665   2.937   1.278
 3376SOL    HW211028   3.715   2.901   1.127
 3377SOL     OW11029   2.790   5.135   6.025
 3377SOL    HW111030   2.728   5.122   6.102
 3377SOL    HW211031   2.814   5.232   6.018
 3378SOL     OW11032   6.768   1.694   0.451
 3378SOL    HW111033   6.760   1.754   0.531
 3378SOL    HW211034   6.684   1.639   0.442
 3379SOL     OW11035   6.313   5.511   5.647
 3379SOL    HW111036   6.340   5.418   5.624
 3379SOL    HW211037   6.213   5.517   5.653
 3380SOL     OW11038   0.719   3.971   5.022
 3380SOL    HW111039   0.735   3.924   4.936
 3380SOL    HW211040   0.765   3.922   5.096
 3381SOL     OW11041   3.127   2.075   1.138
 3381SOL    HW111042   3.086   2.000   1.189
 3381SOL    HW211043   3.209   2.107   1.187
 3382SOL     OW11044   6.876   6.352   0.128
 3382SOL    HW111045   6.904   6.354   0.224
 3382SOL    HW211046   6.895   6.261   0.090
 3383SOL     OW11047   0.592   3.895   1.869
 3383SOL    HW111048   0.502   3.903   1.825
 3383SOL    HW211049   0.612   3.798   1.886
 3384SOL     OW11050   3.109   3.564   3.223
 3384SOL    HW111051   3.166   3.483   3.238
 3384SOL    HW211052   3.115   3.592   3.128
 3385SOL     OW11053   6.988   4.176   3.512
 3385SOL    HW111054   0.032   4.246   3.512
 3385SOL    HW211055   6.911   4.206   3.568
 3386SOL     OW11056   5.662   4.523   3.610
 3386SOL    HW111057   5.608   4.594   3.656
 3386SOL    HW211058   5.601   4.450   3.579
 3387SOL     OW11059   3.562   1.629   2.069
 3387SOL    HW111060   3.548   1.548   2.012
 3387SOL    HW211061   3.534   1.710   2.019
 3388SOL     OW11062   6.054   1.366   1.078
 3388SOL    HW111063   6.052   1.465   1.063
 3388SOL    HW211064   5.966   1.326   1.050
 3389SOL     OW11065   4.044   5.357   2.017
 3389SOL    HW111066   4.068   5.452   1.996
 3389SOL    HW211067   3.944   5.348   2.018
 3390SOL     OW11068   4.033   1.900   5.674
 3390SOL    HW111069   4.076   1.927   5.760
 3390SOL    HW211070   4.097   1.916   5.598
 3391SOL     OW11071   3.142   1.384   4.234
 3391SOL    HW111072   3.240   1.400   4.224
 3391SOL    HW211073   3.125   1.333   4.318
 3392SOL     OW11074   5.801   6.101   4.234
 3392SOL    HW111075   5.769   6.164   4.164
 3392SOL    HW211076   5.821   6.152   4.318
 3393SOL     OW11077   0.189   0.518   5.785
 3393SOL    HW111078   0.129   0.522   5.866
 3393SOL    HW211079   0.269   0.575   5.800
 3394SOL     OW11080   5.184   1.424   2.146
 3394SOL    HW111081   5.089   1.455   2.139
 3394SOL    HW211082   5.186   1.332   2.183
 3395SOL     OW11083   1.833   3.659   5.319
 3395SOL    HW111084   1.817   3.752   5.351
 3395SOL    HW211085   1.893   3.662   5.238
 3396SOL     OW11086   6.039   3.651   3.919
 3396SOL    HW111087   5.979   3.571   3.922
 3396SOL    HW211088   5.984   3.734   3.929
 3397SOL     OW11089   3.004   5.727   6.400
 3397SOL    HW111090   3.060   5.645   6.388
 3397SOL    HW211091   3.011   5.784   6.318
 3398SOL     OW11092   0.503   1.912   4.094
 3398SOL    HW111093   0.438   1.837   4.106
 3398SOL    HW211094   0.521   1.925   3.996
 3399SOL     OW11095   4.068   5.492   4.567
 3399SOL    HW111096   4.119   5.554   4.508
 3399SOL    HW211097   3.978   5.474   4.528
 3400SOL     OW11098   5.604   1.812   0.536
 3400SOL    HW111099   5.566   1.779   0.623
 3400SOL    HW211100   5.546   1.886   0.501
 3401SOL     OW11101   6.640   4.631   0.039
 3401SOL    HW111102   6.679   4.663   0.125
 3401SOL    HW211103   6.649   4.532   0.032
 3402SOL     OW11104   3.967   4.813   1.740
 3402SOL    HW111105   3.956   4.910   1.716
 3402SOL    HW211106   3.877   4.770   1.746
 3403SOL     OW11107   3.731   1.769   6.320
 3403SOL    HW111108   3.656   1.766   6.385
 3403SOL    HW211109   3.723   1.692   6.256
 3404SOL     OW11110   3.983   5.813   2.079
 3404SOL    HW111111   3.953   5.849   1.991
 3404SOL    HW211112   4.019   5.888   2.135
 3405SOL     OW11113   6.153   4.090   0.596
 3405SOL    HW111114   6.109   4.171   0.635
 3405SOL    HW211115   6.165   4.103   0.498
 3406SOL     OW11116   0.873   3.028   1.596
 3406SOL    HW111117   0.861   2.930   1.613
 3406SOL    HW211118   0.836   3.052   1.507
 3407SOL     OW11119   0.970   5.582   2.246
 3407SOL    HW111120   0.947   5.484   2.242
 3407SOL    HW211121   0.948   5.624   2.158
 3408SOL     OW11122   5.493   3.632   2.182
 3408SOL    HW111123   5.493   3.712   2.123
 3408SOL    HW211124   5.536   3.655   2.269
 3409SOL     OW11125   3.007   1.665   7.025
 3409SOL    HW111126   3.091   1.703   0.038
 3409SOL    HW211127   3.031   1.601   6.952
 3410SOL     OW11128   0.493   1.430   0.335
 3410SOL    HW111129   0.579   1.477   0.319
 3410SOL    HW211130   0.418   1.496   0.329
 3411SOL     OW11131   5.003   1.971   2.667
 3411SOL    HW111132   4.927   1.910   2.689
 3411SOL    HW211133   5.038   1.949   2.576
 3412SOL     OW11134   4.429   4.978   6.708
 3412SOL    HW111135   4.473   5.064   6.685
 3412SOL    HW211136   4.354   4.995   6.773
 3413SOL     OW11137   4.986   0.915   2.674
 3413SOL    HW111138   5.075   0.944   2.709
 3413SOL    HW211139   4.922   0.905   2.750
 3414SOL     OW11140   4.261   0.740   5.725
 3414SOL    HW111141   4.264   0.815   5.659
 3414SOL    HW211142   4.345   0.740   5.780
 3415SOL     OW11143   1.536   6.174   5.653
 3415SOL    HW111144   1.513   6.209   5.562
 3415SOL    HW211145   1.505   6.239   5.722
 3416SOL     OW11146   1.362   4.798   5.406
 3416SOL    HW111147   1.437   4.832   5.463
 3416SOL    HW211148   1.388   4.711   5.364
 3417SOL     OW11149   5.759   1.210   1.175
 3417SOL    HW111150   5.729   1.245   1.263
 3417SOL    HW211151   5.816   1.130   1.188
 3418SOL     OW11152   2.445   2.520   5.218
 3418SOL    HW111153   2.469   2.425   5.236
 3418SOL    HW211154   2.481   2.548   5.128
 3419SOL     OW11155   4.669   3.565   6.175
 3419SOL    HW111156   4.583   3.522   6.151
 3419SOL    HW211157   4.653   3.635   6.245
 3420SOL     OW11158   2.893   0.666   5.047
 3420SOL    HW111159   2.852   0.722   5.119
 3420SOL    HW211160   2.973   0.712   5.010
 3421SOL     OW11161   0.904   6.469   2.953
 3421SOL    HW111162   0.968   6.393   2.945
 3421SOL    HW211163   0.874   6.477   3.048
 3422SOL     OW11164   3.499   2.035   2.950
 3422SOL    HW111165   3.586   2.074   2.920
 3422SOL    HW211166   3.466   1.971   2.881
 3423SOL     OW11167   3.498   0.903   1.702
 3423SOL    HW111168   3.427   0.875   1.766
 3423SOL    HW211169   3.509   1.002   1.705
 3424SOL     OW11170   4.677   2.092   0.786
 3424SOL    HW111171   4.588   2.084   0.831
 3424SOL    HW211172   4.709   2.001   0.761
 3425SOL     OW11173   4.022   3.628   1.313
 3425SOL    HW111174   3.966   3.580   1.246
 3425SOL    HW211175   4.119   3.619   1.287
 3426SOL     OW11176   5.023   4.065   0.777
 3426SOL    HW111177   5.023   4.057   0.678
 3426SOL    HW211178   5.113   4.095   0.809
 3427SOL     OW11179   0.931   2.014   0.575
 3427SOL    HW111180   0.946   1.980   0.482
 3427SOL    HW211181   0.861   2.085   0.573
 3428SOL     OW11182   4.468   4.843   3.282
 3428SOL    HW111183   4.474   4.943   3.281
 3428SOL    HW211184   4.387   4.815   3.333
 3429SOL     OW11185   0.333   2.935   0.416
 3429SOL    HW111186   0.268   2.987   0.471
 3429SOL    HW211187   0.300   2.929   0.322
 3430SOL     OW11188   0.669   5.467   0.315
 3430SOL    HW111189   0.691   5.508   0.404
 3430SOL    HW211190   0.644   5.371   0.328
 3431SOL     OW11191   1.287   6.108   6.602
 3431SOL    HW111192   1.237   6.129   6.518
 3431SOL    HW211193   1.230   6.129   6.681
 3432SOL     OW11194   3.696   2.220   6.209
 3432SOL    HW111195   3.656   2.128   6.208
 3432SOL    HW211196   3.781   2.218   6.261
 3433SOL     OW11197   3.754   1.260   4.762
 3433SOL    HW111198   3.739   1.311   4.677
 3433SOL    HW211199   3.782   1.167   4.739
 3434SOL     OW11200   4.276   1.367   3.488
 3434SOL    HW111201   4.353   1.320   3.445
 3434SOL    HW211202   4.276   1.349   3.586
 3435SOL     OW11203   7.017   1.134   6.201
 3435SOL    HW111204   6.986   1.084   6.282
 3435SOL    HW211205   0.052   1.076   6.148
 3436SOL     OW11206   3.786   6.733   1.849
 3436SOL    HW111207   3.798   6.703   1.754
 3436SOL    HW211208   3.692   6.766   1.861
 3437SOL     OW11209   4.052   0.397   0.005
 3437SOL    HW111210   4.023   0.492   7.018
 3437SOL    HW211211   3.974   0.341   0.030
 3438SOL     OW11212   0.644   5.613   6.423
 3438SOL    HW111213   0.639   5.673   6.343
 3438SOL    HW211214   0.731   5.563   6.423
 3439SOL     OW11215   2.872   0.766   3.736
 3439SOL    HW111216   2.826   0.783   3.823
 3439SOL    HW211217   2.808   0.723   3.672
 3440SOL     OW11218   3.802   2.271   0.575
 3440SOL    HW111219   3.802   2.350   0.513
 3440SOL    HW211220   3.893   2.259   0.614
 3441SOL     OW11221   4.601   0.029   4.359
 3441SOL    HW111222   4.515   7.022   4.320
 3441SOL    HW211223   4.586   0.117   4.404
 3442SOL     OW11224   0.659   5.391   3.346
 3442SOL    HW111225   0.710   5.443   3.277
 3442SOL    HW211226   0.659   5.442   3.432
 3443SOL     OW11227   6.210   6.561   4.033
 3443SOL    HW111228   6.223   6.535   3.938
 3443SOL    HW211229   6.171   6.485   4.084
 3444SOL     OW11230   3.389   5.427   6.742
 3444SOL    HW111231   3.289   5.423   6.751
 3444SOL    HW211232   3.419   5.522   6.738
 3445SOL     OW11233   6.394   4.948   5.527
 3445SOL    HW111234   6.361   5.022   5.468
 3445SOL    HW211235   6.327   4.874   5.529
 3446SOL     OW11236   2.207   5.841   1.801
 3446SOL    HW111237   2.195   5.940   1.792
 3446SOL    HW211238   2.294   5.823   1.847
 3447SOL     OW11239   5.896   4.057   5.233
 3447SOL    HW111240   5.988   4.030   5.263
 3447SOL    HW211241   5.850   4.106   5.306
 3448SOL     OW11242   4.018   2.919   0.141
 3448SOL    HW111243   3.925   2.903   0.107
 3448SOL    HW211244   4.020   3.005   0.192
 3449SOL     OW11245   5.937   5.826   3.072
 3449SOL    HW111246   6.021   5.849   3.122
 3449SOL    HW211247   5.919   5.728   3.080
 3450SOL     OW11248   0.702   1.522   0.834
 3450SOL    HW111249   0.657   1.436   0.810
 3450SOL    HW211250   0.651   1.568   0.906
 3451SOL     OW11251   1.868   5.476   4.297
 3451SOL    HW111252   1.959   5.436   4.308
 3451SOL    HW211253   1.804   5.405   4.269
 3452SOL     OW11254   6.477   2.001   0.295
 3452SOL    HW111255   6.478   2.041   0.387
 3452SOL    HW211256   6.542   1.925   0.292
 3453SOL     OW11257   6.001   5.112   4.809
 3453SOL    HW111258   6.065   5.136   4.737
 3453SOL    HW211259   5.925   5.176   4.809
 3454SOL     OW11260   7.015   1.307   0.361
 3454SOL    HW111261   0.010   1.389   0.308
 3454SOL    HW211262   0.072   1.273   0.406
 3455SOL     OW11263   1.220   2.738   3.243
 3455SOL    HW111264   1.257   2.794   3.317
 3455SOL    HW211265   1.158   2.793   3.187
 3456SOL     OW11266   6.320   0.305   0.186
 3456SOL    HW111267   6.261   0.260   0.253
 3456SOL    HW211268   6.297   0.402   0.181
 3457SOL     OW11269   1.878   6.337   3.530
 3457SOL    HW111270   1.870   6.416   3.590
 3457SOL    HW211271   1.917   6.366   3.442
 3458SOL     OW11272   4.532   4.892   0.109
 3458SOL    HW111273   4.456   4.828   0.119
 3458SOL    HW211274   4.551   4.907   0.012
 3459SOL     OW11275   6.294   0.007   3.259
 3459SOL    HW111276   6.358   6.958   3.273
 3459SOL    HW211277   6.297   0.068   3.339
 3460SOL     OW11278   4.936   2.969   0.637
 3460SOL    HW111279   4.980   2.981   0.548
 3460SOL    HW211280   4.845   2.929   0.624
 3461SOL     OW11281   2.419   5.881   2.900
 3461SOL    HW111282   2.400   5.788   2.869
 3461SOL    HW211283   2.379   5.947   2.836
 3462SOL     OW11284   5.084   2.098   3.124
 3462SOL    HW111285   5.084   2.083   3.025
 3462SOL    HW211286   5.174   2.076   3.161
 3463SOL     OW11287   0.772   2.753   1.171
 3463SOL    HW111288   0.852   2.733   1.229
 3463SOL    HW211289   0.791   2.834   1.116
 3464SOL     OW11290   5.209   1.261   6.479
 3464SOL    HW111291   5.235   1.345   6.430
 3464SOL    HW211292   5.212   1.279   6.578
 3465SOL     OW11293   2.164   4.657   1.438
 3465SOL    HW111294   2.115   4.599   1.503
 3465SOL    HW211295   2.229   4.715   1.487
 3466SOL     OW11296   6.451   3.487   4.428
 3466SOL    HW111297   6.441   3.581   4.395
 3466SOL    HW211298   6.531   3.445   4.384
 3467SOL     OW11299   3.412   3.756   0.423
 3467SOL    HW111300   3.458   3.724   0.506
 3467SOL    HW211301   3.336   3.816   0.448
 3468SOL     OW11302   4.468   1.628   1.498
 3468SOL    HW111303   4.500   1.578   1.418
 3468SOL    HW211304   4.531   1.612   1.574
 3469SOL     OW11305   3.631   5.750   5.291
 3469SOL    HW111306   3.697   5.823   5.307
 3469SOL    HW211307   3.548   5.788   5.251
 3470SOL     OW11308   1.064   2.659   0.817
 3470SOL    HW111309   1.104   2.621   0.734
 3470SOL    HW211310   0.994   2.726   0.792
 3471SOL     OW11311   5.004   2.948   4.986
 3471SOL    HW111312   5.102   2.940   4.972
 3471SOL    HW211313   4.960   2.970   4.899
 3472SOL     OW11314   4.709   1.953   2.228
 3472SOL    HW111315   4.764   2.033   2.252
 3472SOL    HW211316   4.768   1.877   2.203
 3473SOL     OW11317   6.345   4.509   1.917
 3473SOL    HW111318   6.399   4.524   1.834
 3473SOL    HW211319   6.275   4.439   1.899
 3474SOL     OW11320   4.783   4.205   3.583
 3474SOL    HW111321   4.830   4.290   3.558
 3474SOL    HW211322   4.729   4.172   3.506
 3475SOL     OW11323   6.931   3.814   4.158
 3475SOL    HW111324   7.008   3.756   4.185
 3475SOL    HW211325   6.849   3.757   4.146
 3476SOL     OW11326   1.545   3.001   3.254
 3476SOL    HW111327   1.558   3.023   3.157
 3476SOL    HW211328   1.619   2.940   3.284
 3477SOL     OW11329   1.414   4.104   2.184
 3477SOL    HW111330   1.409   4.027   2.249
 3477SOL    HW211331   1.334   4.102   2.124
 3478SOL     OW11332   2.740   0.805   1.068
 3478SOL    HW111333   2.796   0.821   0.986
 3478SOL    HW211334   2.800   0.782   1.145
 3479SOL     OW11335   1.054   3.728   5.686
 3479SOL    HW111336   1.002   3.668   5.625
 3479SOL    HW211337   1.143   3.687   5.706
 3480SOL     OW11338   1.233   5.207   6.943
 3480SOL    HW111339   1.148   5.191   6.993
 3480SOL    HW211340   1.216   5.194   6.845
 3481SOL     OW11341   5.600   1.203   4.796
 3481SOL    HW111342   5.509   1.165   4.778
 3481SOL    HW211343   5.617   1.279   4.733
 3482SOL     OW11344   6.169   2.953   6.338
 3482SOL    HW111345   6.236   2.958   6.412
 3482SOL    HW211346   6.140   2.858   6.327
 3483SOL     OW11347   5.183   1.906   4.727
 3483SOL    HW111348   5.280   1.880   4.722
 3483SOL    HW211349   5.141   1.895   4.637
 3484SOL     OW11350   1.291   2.860   4.513
 3484SOL    HW111351   1.273   2.959   4.509
 3484SOL    HW211352   1.389   2.844   4.503
 3485SOL     OW11353   6.644   4.107   6.487
 3485SOL    HW111354   6.572   4.158   6.534
 3485SOL    HW211355   6.653   4.141   6.394
 3486SOL     OW11356   1.253   6.442   4.922
 3486SOL    HW111357   1.347   6.432   4.954
 3486SOL    HW211358   1.195   6.373   4.965
 3487SOL     OW11359   4.073   1.666   6.852
 3487SOL    HW111360   4.132   1.746   6.844
 3487SOL    HW211361   4.126   1.588   6.883
 3488SOL     OW11362   4.865   6.083   5.659
 3488SOL    HW111363   4.776   6.084   5.705
 3488SOL    HW211364   4.852   6.107   5.562
 3489SOL     OW11365   3.439   6.174   1.066
 3489SOL    HW111366   3.414   6.270   1.078
 3489SOL    HW211367   3.417   6.123   1.150
 3490SOL     OW11368   4.753   0.059   0.453
 3490SOL    HW111369   4.772   7.007   0.513
 3490SOL    HW211370   4.654   0.069   0.443
 3491SOL     OW11371   4.932   4.505   5.197
 3491SOL    HW111372   4.895   4.461   5.115
 3491SOL    HW211373   4.904   4.454   5.278
 3492SOL     OW11374   5.483   3.824   3.293
 3492SOL    HW111375   5.487   3.726   3.313
 3492SOL    HW211376   5.531   3.875   3.365
 3493SOL     OW11377   0.571   4.265   6.514
 3493SOL    HW111378   0.593   4.328   6.440
 3493SOL    HW211379   0.555   4.317   6.598
 3494SOL     OW11380   4.413   1.052   2.662
 3494SOL    HW111381   4.354   1.102   2.725
 3494SOL    HW211382   4.428   1.107   2.580
 3495SOL     OW11383   2.141   4.029   3.752
 3495SOL    HW111384   2.166   3.981   3.668
 3495SOL    HW211385   2.042   4.025   3.764
 3496SOL     OW11386   6.248   5.392   1.198
 3496SOL    HW111387   6.225   5.322   1.265
 3496SOL    HW211388   6.166   5.418   1.146
 3497SOL     OW11389   3.172   0.384   1.579
 3497SOL    HW111390   3.083   0.372   1.534
 3497SOL    HW211391   3.238   0.422   1.514
 3498SOL     OW11392   2.936   2.126   1.504
 3498SOL    HW111393   2.972   2.037   1.473
 3498SOL    HW211394   2.837   2.128   1.492
 3499SOL     OW11395   5.526   6.837   5.096
 3499SOL    HW111396   5.567   6.884   5.017
 3499SOL    HW211397   5.592   6.773   5.135
 3500SOL     OW11398   3.045   2.234   3.602
 3500SOL    HW111399   3.145   2.242   3.606
 3500SOL    HW211400   3.020   2.171   3.528
 3501SOL     OW11401   1.525   6.786   6.169
 3501SOL    HW111402   1.493   6.816   6.258
 3501SOL    HW211403   1.455   6.808   6.100
 3502SOL     OW11404   5.187   2.497   2.492
 3502SOL    HW111405   5.094   2.464   2.476
 3502SOL    HW211406   5.246   2.467   2.417
 3503SOL     OW11407   0.695   6.000   6.377
 3503SOL    HW111408   0.712   6.099   6.372
 3503SOL    HW211409   0.735   5.964   6.462
 3504SOL     OW11410   2.036   0.946   6.909
 3504SOL    HW111411   2.022   1.035   6.952
 3504SOL    HW211412   1.996   0.946   6.817
 3505SOL     OW11413   5.334   2.581   4.953
 3505SOL    HW111414   5.280   2.601   5.035
 3505SOL    HW211415   5.414   2.527   4.978
 3506SOL     OW11416   4.200   4.993   5.022
 3506SOL    HW111417   4.143   5.055   4.968
 3506SOL    HW211418   4.205   5.026   5.116
 3507SOL     OW11419   2.807   1.743   1.516
 3507SOL    HW111420   2.795   1.781   1.424
 3507SOL    HW211421   2.890   1.780   1.557
 3508SOL     OW11422   3.767   0.920   6.753
 3508SOL    HW111423   3.813   0.997   6.709
 3508SOL    HW211424   3.794   0.835   6.708
 3509SOL     OW11425   4.534   6.021   0.173
 3509SOL    HW111426   4.602   6.072   0.120
 3509SOL    HW211427   4.448   6.020   0.122
 3510SOL     OW11428   2.130   0.882   1.562
 3510SOL    HW111429   2.067   0.948   1.521
 3510SOL    HW211430   2.189   0.843   1.490
 3511SOL     OW11431   2.934   5.108   1.929
 3511SOL    HW111432   2.946   5.019   1.974
 3511SOL    HW211433   2.915   5.178   1.998
 3512SOL     OW11434   6.924   5.517   6.343
 3512SOL    HW111435   7.014   5.561   6.351
 3512SOL    HW211436   6.922   5.459   6.262
 3513SOL     OW11437   5.014   1.624   0.329
 3513SOL    HW111438   5.083   1.672   0.383
 3513SOL    HW211439   5.050   1.602   0.239
 3514SOL     OW11440   3.580   2.072   2.305
 3514SOL    HW111441   3.581   2.136   2.228
 3514SOL    HW211442   3.616   1.983   2.275
 3515SOL     OW11443   0.681   4.399   3.949
 3515SOL    HW111444   0.734   4.449   3.881
 3515SOL    HW211445   0.684   4.301   3.927
 3516SOL     OW11446   4.321   0.610   1.583
 3516SOL    HW111447   4.342   0.702   1.551
 3516SOL    HW211448   4.394   0.548   1.557
 3517SOL     OW11449   5.227   1.679   2.603
 3517SOL    HW111450   5.309   1.721   2.643
 3517SOL    HW211451   5.176   1.631   2.674
 3518SOL     OW11452   6.247   1.351   5.556
 3518SOL    HW111453   6.166   1.409   5.542
 3518SOL    HW211454   6.239   1.303   5.643
 3519SOL     OW11455   3.272   1.280   1.572
 3519SOL    HW111456   3.345   1.233   1.621
 3519SOL    HW211457   3.208   1.320   1.638
 3520SOL     OW11458   2.775   5.991   3.803
 3520SOL    HW111459   2.678   5.966   3.796
 3520SOL    HW211460   2.808   5.968   3.894
 3521SOL     OW11461   2.260   2.449   5.585
 3521SOL    HW111462   2.238   2.514   5.658
 3521SOL    HW211463   2.212   2.474   5.501
 3522SOL     OW11464   0.985   6.107   6.762
 3522SOL    HW111465   0.988   6.165   6.844
 3522SOL    HW211466   1.024   6.018   6.783
 3523SOL     OW11467   3.706   5.264   6.900
 3523SOL    HW111468   3.792   5.237   6.943
 3523SOL    HW211469   3.631   5.208   6.936
 3524SOL     OW11470   4.597   1.445   4.599
 3524SOL    HW111471   4.686   1.401   4.611
 3524SOL    HW211472   4.540   1.387   4.540
 3525SOL     OW11473   0.468   3.108   3.663
 3525SOL    HW111474   0.542   3.050   3.629
 3525SOL    HW211475   0.393   3.050   3.696
 3526SOL     OW11476   6.841   0.076   1.803
 3526SOL    HW111477   6.835   0.002   1.870
 3526SOL    HW211478   6.877   0.158   1.847
 3527SOL     OW11479   6.506   2.795   0.185
 3527SOL    HW111480   6.581   2.858   0.206
 3527SOL    HW211481   6.527   2.704   0.221
 3528SOL     OW11482   2.071   5.437   5.100
 3528SOL    HW111483   2.117   5.476   5.020
 3528SOL    HW211484   1.987   5.487   5.118
 3529SOL     OW11485   4.733   4.045   0.002
 3529SOL    HW111486   4.817   4.013   6.984
 3529SOL    HW211487   4.695   4.121   6.976
 3530SOL     OW11488   6.633   0.499   0.545
 3530SOL    HW111489   6.591   0.537   0.463
 3530SOL    HW211490   6.621   0.400   0.546
 3531SOL     OW11491   4.455   2.118   0.573
 3531SOL    HW111492   4.497   2.032   0.603
 3531SOL    HW211493   4.514   2.195   0.599
 3532SOL     OW11494   2.261   0.698   1.876
 3532SOL    HW111495   2.296   0.690   1.783
 3532SOL    HW211496   2.203   0.778   1.883
 3533SOL     OW11497   2.055   2.960   2.943
 3533SOL    HW111498   2.101   2.889   2.890
 3533SOL    HW211499   2.062   3.047   2.893
 3534SOL     OW11500   0.589   1.288   0.875
 3534SOL    HW111501   0.545   1.210   0.829
 3534SOL    HW211502   0.666   1.255   0.930
 3535SOL     OW11503   4.041   6.870   3.623
 3535SOL    HW111504   3.946   6.892   3.643
 3535SOL    HW211505   4.045   6.813   3.541
 3536SOL     OW11506   4.077   1.683   4.135
 3536SOL    HW111507   4.094   1.706   4.039
 3536SOL    HW211508   3.982   1.706   4.158
 3537SOL     OW11509   1.538   6.033   2.539
 3537SOL    HW111510   1.572   5.988   2.622
 3537SOL    HW211511   1.615   6.054   2.479
 3538SOL     OW11512   3.037   5.813   1.162
 3538SOL    HW111513   2.987   5.855   1.238
 3538SOL    HW211514   2.974   5.795   1.086
 3539SOL     OW11515   3.577   4.181   4.512
 3539SOL    HW111516   3.483   4.186   4.545
 3539SOL    HW211517   3.599   4.265   4.463
 3540SOL     OW11518   1.765   2.641   3.105
 3540SOL    HW111519   1.680   2.591   3.088
 3540SOL    HW211520   1.754   2.702   3.183
 3541SOL     OW11521   3.773   4.112   4.759
 3541SOL    HW111522   3.681   4.152   4.755
 3541SOL    HW211523   3.797   4.075   4.670
 3542SOL     OW11524   6.870   5.684   0.956
 3542SOL    HW111525   6.933   5.696   1.033
 3542SOL    HW211526   6.802   5.758   0.957
 3543SOL     OW11527   4.841   1.806   4.698
 3543SOL    HW111528   4.906   1.856   4.755
 3543SOL    HW211529   4.888   1.733   4.649
 3544SOL     OW11530   3.429   0.189   6.812
 3544SOL    HW111531   3.389   0.227   6.728
 3544SOL    HW211532   3.403   0.244   6.890
 3545SOL     OW11533   2.812   4.966   0.149
 3545SOL    HW111534   2.796   4.929   0.058
 3545SOL    HW211535   2.812   5.066   0.144
 3546SOL     OW11536   1.062   4.617   2.424
 3546SOL    HW111537   1.115   4.556   2.365
 3546SOL    HW211538   1.005   4.564   2.486
 3547SOL     OW11539   5.054   4.808   4.448
 3547SOL    HW111540   4.972   4.776   4.400
 3547SOL    HW211541   5.135   4.775   4.400
 3548SOL     OW11542   6.032   3.477   5.780
 3548SOL    HW111543   6.002   3.387   5.809
 3548SOL    HW211544   6.097   3.468   5.704
 3549SOL     OW11545   5.195   3.672   2.001
 3549SOL    HW111546   5.162   3.766   1.999
 3549SOL    HW211547   5.191   3.634   1.909
 3550SOL     OW11548   4.991   1.747   3.915
 3550SOL    HW111549   4.909   1.691   3.925
 3550SOL    HW211550   5.000   1.778   3.821
 3551SOL     OW11551   1.922   0.253   2.533
 3551SOL    HW111552   1.836   0.203   2.536
 3551SOL    HW211553   1.998   0.191   2.553
 3552SOL     OW11554   6.706   4.098   3.133
 3552SOL    HW111555   6.694   4.073   3.037
 3552SOL    HW211556   6.619   4.129   3.171
 3553SOL     OW11557   5.943   1.657   3.492
 3553SOL    HW111558   5.897   1.599   3.425
 3553SOL    HW211559   5.995   1.728   3.444
 3554SOL     OW11560   3.914   5.599   6.474
 3554SOL    HW111561   3.865   5.675   6.517
 3554SOL    HW211562   3.869   5.575   6.388
 3555SOL     OW11563   0.912   2.290   3.960
 3555SOL    HW111564   0.951   2.251   3.877
 3555SOL    HW211565   0.821   2.252   3.975
 3556SOL     OW11566   4.054   1.224   6.384
 3556SOL    HW111567   3.995   1.220   6.303
 3556SOL    HW211568   4.045   1.313   6.428
 3557SOL     OW11569   1.582   1.151   3.926
 3557SOL    HW111570   1.496   1.147   3.976
 3557SOL    HW211571   1.564   1.166   3.829
 3558SOL     OW11572   0.354   0.228   1.270
 3558SOL    HW111573   0.407   0.171   1.206
 3558SOL    HW211574   0.257   0.217   1.251
 3559SOL     OW11575   0.711   0.334   6.149
 3559SOL    HW111576   0.755   0.245   6.161
 3559SOL    HW211577   0.612   0.322   6.146
 3560SOL     OW11578   6.622   0.293   1.485
 3560SOL    HW111579   6.680   0.314   1.406
 3560SOL    HW211580   6.608   0.375   1.540
 3561SOL     OW11581   5.702   5.105   3.616
 3561SOL    HW111582   5.604   5.115   3.602
 3561SOL    HW211583   5.750   5.123   3.530
 3562SOL     OW11584   4.103   2.060   2.444
 3562SOL    HW111585   4.020   2.094   2.400
 3562SOL    HW211586   4.108   2.092   2.538
 3563SOL     OW11587   3.858   6.205   1.742
 3563SOL    HW111588   3.867   6.292   1.694
 3563SOL    HW211589   3.766   6.169   1.728
 3564SOL     OW11590   6.560   4.309   2.039
 3564SOL    HW111591   6.495   4.385   2.032
 3564SOL    HW211592   6.645   4.342   2.080
 3565SOL     OW11593   0.634   0.832   5.236
 3565SOL    HW111594   0.672   0.915   5.278
 3565SOL    HW211595   0.582   0.781   5.304
 3566SOL     OW11596   0.550   4.947   5.859
 3566SOL    HW111597   0.468   4.901   5.894
 3566SOL    HW211598   0.564   4.923   5.763
 3567SOL     OW11599   6.359   2.222   1.399
 3567SOL    HW111600   6.363   2.127   1.367
 3567SOL    HW211601   6.286   2.231   1.467
 3568SOL     OW11602   5.029   4.267   3.900
 3568SOL    HW111603   4.942   4.234   3.937
 3568SOL    HW211604   5.103   4.246   3.963
 3569SOL     OW11605   4.122   3.347   3.086
 3569SOL    HW111606   4.032   3.305   3.097
 3569SOL    HW211607   4.159   3.369   3.175
 3570SOL     OW11608   0.608   2.500   5.820
 3570SOL    HW111609   0.599   2.425   5.754
 3570SOL    HW211610   0.704   2.528   5.826
 3571SOL     OW11611   2.989   0.006   4.286
 3571SOL    HW111612   3.008   0.094   4.242
 3571SOL    HW211613   2.963   0.021   4.381
 3572SOL     OW11614   4.603   4.372   2.843
 3572SOL    HW111615   4.662   4.308   2.892
 3572SOL    HW211616   4.650   4.459   2.830
 3573SOL     OW11617   0.629   4.866   3.460
 3573SOL    HW111618   0.721   4.862   3.422
 3573SOL    HW211619   0.567   4.906   3.393
 3574SOL     OW11620   2.125   2.034   6.296
 3574SOL    HW111621   2.211   2.060   6.252
 3574SOL    HW211622   2.085   1.957   6.246
 3575SOL     OW11623   4.834   0.079   6.363
 3575SOL    HW111624   4.835   0.007   6.294
 3575SOL    HW211625   4.816   0.167   6.319
 3576SOL     OW11626   0.967   2.526   0.355
 3576SOL    HW111627   1.004   2.436   0.379
 3576SOL    HW211628   1.031   2.597   0.386
 3577SOL     OW11629   1.959   3.647   4.210
 3577SOL    HW111630   1.918   3.738   4.216
 3577SOL    HW211631   1.953   3.614   4.116
 3578SOL     OW11632   4.840   2.262   0.961
 3578SOL    HW111633   4.875   2.317   0.886
 3578SOL    HW211634   4.786   2.186   0.925
 3579SOL     OW11635   0.675   3.445   2.497
 3579SOL    HW111636   0.626   3.527   2.467
 3579SOL    HW211637   0.707   3.457   2.591
 3580SOL     OW11638   6.914   3.974   2.134
 3580SOL    HW111639   7.012   3.985   2.147
 3580SOL    HW211640   6.889   4.005   2.042
 3581SOL     OW11641   1.633   0.538   2.841
 3581SOL    HW111642   1.649   0.593   2.758
 3581SOL    HW211643   1.537   0.546   2.867
 3582SOL     OW11644   4.534   6.386   0.152
 3582SOL    HW111645   4.504   6.318   0.219
 3582SOL    HW211646   4.611   6.349   0.099
 3583SOL     OW11647   2.079   6.492   0.468
 3583SOL    HW111648   2.142   6.567   0.446
 3583SOL    HW211649   2.124   6.405   0.452
 3584SOL     OW11650   5.556   5.098   4.650
 3584SOL    HW111651   5.519   5.187   4.625
 3584SOL    HW211652   5.537   5.080   4.747
 3585SOL     OW11653   4.571   1.940   3.760
 3585SOL    HW111654   4.617   2.013   3.811
 3585SOL    HW211655   4.595   1.946   3.663
 3586SOL     OW11656   0.407   3.024   5.141
 3586SOL    HW111657   0.412   2.926   5.159
 3586SOL    HW211658   0.328   3.043   5.083
 3587SOL     OW11659   2.289   0.421   5.521
 3587SOL    HW111660   2.378   0.444   5.481
 3587SOL    HW211661   2.299   0.339   5.578
 3588SOL     OW11662   5.859   3.855   3.935
 3588SOL    HW111663   5.814   3.856   4.025
 3588SOL    HW211664   5.877   3.949   3.906
 3589SOL     OW11665   0.367   1.471   5.852
 3589SOL    HW111666   0.294   1.491   5.786
 3589SOL    HW211667   0.450   1.445   5.802
 3590SOL     OW11668   6.174   5.042   5.879
 3590SOL    HW111669   6.161   5.137   5.849
 3590SOL    HW211670   6.084   4.999   5.890
 3591SOL     OW11671   4.919   1.311   0.869
 3591SOL    HW111672   5.009   1.354   0.877
 3591SOL    HW211673   4.926   1.215   0.896
 3592SOL     OW11674   0.707   6.199   1.619
 3592SOL    HW111675   0.657   6.280   1.650
 3592SOL    HW211676   0.787   6.184   1.676
 3593SOL     OW11677   4.413   3.537   5.941
 3593SOL    HW111678   4.401   3.494   6.030
 3593SOL    HW211679   4.398   3.469   5.869
 3594SOL     OW11680   4.554   4.511   5.199
 3594SOL    HW111681   4.611   4.430   5.184
 3594SOL    HW211682   4.458   4.483   5.201
 3595SOL     OW11683   4.601   6.723   5.439
 3595SOL    HW111684   4.578   6.760   5.348
 3595SOL    HW211685   4.591   6.795   5.507
 3596SOL     OW11686   3.339   1.568   1.767
 3596SOL    HW111687   3.376   1.536   1.855
 3596SOL    HW211688   3.239   1.565   1.770
 3597SOL     OW11689   4.260   4.748   5.198
 3597SOL    HW111690   4.283   4.810   5.123
 3597SOL    HW211691   4.288   4.655   5.174
 3598SOL     OW11692   6.145   5.016   4.053
 3598SOL    HW111693   6.087   5.006   4.134
 3598SOL    HW211694   6.182   4.926   4.027
 3599SOL     OW11695   2.148   1.345   5.381
 3599SOL    HW111696   2.194   1.269   5.428
 3599SOL    HW211697   2.087   1.309   5.311
 3600SOL     OW11698   2.257   4.057   1.097
 3600SOL    HW111699   2.176   4.115   1.092
 3600SOL    HW211700   2.230   3.964   1.124
 3601SOL     OW11701   3.068   0.435   5.344
 3601SOL    HW111702   3.127   0.479   5.412
 3601SOL    HW211703   3.118   0.426   5.258
 3602SOL     OW11704   1.459   2.349   0.902
 3602SOL    HW111705   1.526   2.330   0.974
 3602SOL    HW211706   1.468   2.445   0.873
 3603SOL     OW11707   1.758   6.835   5.784
 3603SOL    HW111708   1.682   6.885   5.826
 3603SOL    HW211709   1.750   6.840   5.685
 3604SOL     OW11710   6.841   1.199   4.588
 3604SOL    HW111711   6.807   1.112   4.555
 3604SOL    HW211712   6.941   1.202   4.579
 3605SOL     OW11713   0.744   6.941   4.875
 3605SOL    HW111714   0.668   6.876   4.885
 3605SOL    HW211715   0.709   0.008   4.882
 3606SOL     OW11716   1.888   0.603   3.032
 3606SOL    HW111717   1.975   0.562   3.005
 3606SOL    HW211718   1.815   0.567   2.974
 3607SOL     OW11719   5.710   1.533   4.306
 3607SOL    HW111720   5.676   1.439   4.313
 3607SOL    HW211721   5.809   1.531   4.293
 3608SOL     OW11722   4.292   1.706   5.639
 3608SOL    HW111723   4.335   1.620   5.612
 3608SOL    HW211724   4.346   1.783   5.604
 3609SOL     OW11725   3.264   6.989   4.769
 3609SOL    HW111726   3.359   6.993   4.737
 3609SOL    HW211727   3.241   6.895   4.794
 3610SOL     OW11728   1.087   0.206   5.752
 3610SOL    HW111729   1.001   0.171   5.715
 3610SOL    HW211730   1.140   0.130   5.790
 3611SOL     OW11731   5.757   2.769   2.932
 3611SOL    HW111732   5.671   2.757   2.883
 3611SOL    HW211733   5.791   2.680   2.963
 3612SOL     OW11734   5.411   1.362   1.255
 3612SOL    HW111735   5.383   1.428   1.324
 3612SOL    HW211736   5.357   1.278   1.266
 3613SOL     OW11737   4.497   1.353   2.881
 3613SOL    HW111738   4.539   1.360   2.971
 3613SOL    HW211739   4.444   1.268   2.875
 3614SOL     OW11740   3.169   6.005   0.222
 3614SOL    HW111741   3.189   5.907   0.223
 3614SOL    HW211742   3.152   6.036   0.315
 3615SOL     OW11743   5.565   2.787   5.334
 3615SOL    HW111744   5.509   2.864   5.363
 3615SOL    HW211745   5.546   2.708   5.392
 3616SOL     OW11746   2.263   0.801   0.842
 3616SOL    HW111747   2.326   0.878   0.856
 3616SOL    HW211748   2.175   0.836   0.808
 3617SOL     OW11749   3.900   5.239   5.235
 3617SOL    HW111750   3.995   5.251   5.264
 3617SOL    HW211751   3.848   5.195   5.309
 3618SOL     OW11752   1.078   5.399   4.321
 3618SOL    HW111753   1.074   5.463   4.397
 3618SOL    HW211754   0.994   5.345   4.317
 3619SOL     OW11755   0.071   1.673   2.105
 3619SOL    HW111756   0.143   1.677   2.174
 3619SOL    HW211757   0.112   1.666   2.014
 3620SOL     OW11758   4.626   6.439   5.517
 3620SOL    HW111759   4.568   6.433   5.598
 3620SOL    HW211760   4.628   6.534   5.485
 3621SOL     OW11761   3.284   3.222   2.969
 3621SOL    HW111762   3.253   3.145   3.023
 3621SOL    HW211763   3.317   3.190   2.880
 3622SOL     OW11764   1.908   6.284   6.201
 3622SOL    HW111765   1.857   6.200   6.184
 3622SOL    HW211766   1.867   6.334   6.277
 3623SOL     OW11767   2.084   6.013   5.719
 3623SOL    HW111768   2.112   5.924   5.755
 3623SOL    HW211769   1.984   6.020   5.723
 3624SOL     OW11770   2.878   1.654   2.294
 3624SOL    HW111771   2.968   1.627   2.328
 3624SOL    HW211772   2.856   1.746   2.327
 3625SOL     OW11773   5.980   2.066   1.804
 3625SOL    HW111774   6.068   2.101   1.837
 3625SOL    HW211775   5.956   1.984   1.856
 3626SOL     OW11776   0.743   3.453   5.671
 3626SOL    HW111777   0.687   3.403   5.605
 3626SOL    HW211778   0.835   3.466   5.633
 3627SOL     OW11779   3.177   1.433   2.555
 3627SOL    HW111780   3.225   1.347   2.540
 3627SOL    HW211781   3.084   1.414   2.587
 3628SOL     OW11782   6.638   1.238   1.391
 3628SOL    HW111783   6.613   1.198   1.479
 3628SOL    HW211784   6.723   1.195   1.358
 3629SOL     OW11785   1.414   0.624   4.437
 3629SOL    HW111786   1.475   0.556   4.478
 3629SOL    HW211787   1.465   0.706   4.414
 3630SOL     OW11788   6.863   1.522   2.723
 3630SOL    HW111789   6.884   1.616   2.747
 3630SOL    HW211790   6.874   1.464   2.804
 3631SOL     OW11791   1.980   5.379   2.655
 3631SOL    HW111792   1.938   5.302   2.608
 3631SOL    HW211793   2.073   5.392   2.621
 3632SOL     OW11794   4.862   3.259   2.657
 3632SOL    HW111795   4.859   3.159   2.664
 3632SOL    HW211796   4.803   3.299   2.727
 3633SOL     OW11797   4.717   4.763   5.755
 3633SOL    HW111798   4.748   4.690   5.695
 3633SOL    HW211799   4.726   4.734   5.851
 3634SOL     OW11800   2.673   4.978   6.387
 3634SOL    HW111801   2.667   5.049   6.317
 3634SOL    HW211802   2.599   4.912   6.375
 3635SOL     OW11803   1.167   6.373   2.974
 3635SOL    HW111804   1.212   6.403   3.058
 3635SOL    HW211805   1.232   6.378   2.898
 3636SOL     OW11806   6.779   6.434   4.077
 3636SOL    HW111807   6.841   6.380   4.021
 3636SOL    HW211808   6.821   6.454   4.165
 3637SOL     OW11809   4.977   1.783   0.067
 3637SOL    HW111810   5.033   1.778   7.010
 3637SOL    HW211811   4.967   1.879   0.094
 3638SOL     OW11812   0.787   2.889   4.042
 3638SOL    HW111813   0.752   2.976   4.008
 3638SOL    HW211814   0.757   2.814   3.983
 3639SOL     OW11815   3.638   3.159   3.811
 3639SOL    HW111816   3.608   3.187   3.719
 3639SOL    HW211817   3.638   3.239   3.871
 3640SOL     OW11818   4.749   1.830   2.677
 3640SOL    HW111819   4.664   1.882   2.687
 3640SOL    HW211820   4.745   1.775   2.593
 3641SOL     OW11821   0.198   3.253   1.384
 3641SOL    HW111822   0.235   3.225   1.296
 3641SOL    HW211823   0.108   3.296   1.371
 3642SOL     OW11824   3.837   4.326   6.859
 3642SOL    HW111825   3.882   4.305   6.945
 3642SOL    HW211826   3.889   4.395   6.810
 3643SOL     OW11827   4.550   4.918   5.297
 3643SOL    HW111828   4.617   4.860   5.344
 3643SOL    HW211829   4.582   4.938   5.205
 3644SOL     OW11830   2.843   1.511   1.664
 3644SOL    HW111831   2.827   1.591   1.606
 3644SOL    HW211832   2.782   1.514   1.743
 3645SOL     OW11833   1.358   4.049   3.729
 3645SOL    HW111834   1.384   4.117   3.798
 3645SOL    HW211835   1.260   4.054   3.711
 3646SOL     OW11836   2.640   5.587   5.123
 3646SOL    HW111837   2.620   5.573   5.025
 3646SOL    HW211838   2.721   5.644   5.133
 3647SOL     OW11839   3.430   0.699   0.975
 3647SOL    HW111840   3.512   0.641   0.977
 3647SOL    HW211841   3.387   0.698   1.065
 3648SOL     OW11842   5.765   5.882   3.889
 3648SOL    HW111843   5.679   5.874   3.840
 3648SOL    HW211844   5.751   5.864   3.986
 3649SOL     OW11845   5.355   3.196   0.256
 3649SOL    HW111846   5.324   3.133   0.185
 3649SOL    HW211847   5.280   3.214   0.319
 3650SOL     OW11848   5.348   6.107   6.996
 3650SOL    HW111849   5.364   6.103   6.898
 3650SOL    HW211850   5.254   6.136   7.014
 3651SOL     OW11851   0.749   1.460   5.749
 3651SOL    HW111852   0.833   1.432   5.796
 3651SOL    HW211853   0.718   1.548   5.785
 3652SOL     OW11854   6.071   2.433   2.688
 3652SOL    HW111855   6.063   2.397   2.595
 3652SOL    HW211856   6.047   2.530   2.687
 3653SOL     OW11857   2.403   1.438   0.928
 3653SOL    HW111858   2.497   1.450   0.958
 3653SOL    HW211859   2.355   1.378   0.992
 3654SOL     OW11860   4.796   5.712   0.963
 3654SOL    HW111861   4.867   5.760   0.911
 3654SOL    HW211862   4.755   5.641   0.906
 3655SOL     OW11863   1.734   7.013   3.941
 3655SOL    HW111864   1.639   0.018   3.948
 3655SOL    HW211865   1.743   6.955   3.860
 3656SOL     OW11866   0.827   0.682   0.919
 3656SOL    HW111867   0.793   0.758   0.863
 3656SOL    HW211868   0.907   0.712   0.971
 3657SOL     OW11869   7.008   4.567   6.833
 3657SOL    HW111870   0.044   4.583   6.910
 3657SOL    HW211871   6.930   4.629   6.840
 3658SOL     OW11872   2.246   4.510   5.706
 3658SOL    HW111873   2.276   4.415   5.708
 3658SOL    HW211874   2.325   4.570   5.714
 3659SOL     OW11875   0.579   2.396   0.332
 3659SOL    HW111876   0.633   2.397   0.415
 3659SOL    HW211877   0.511   2.469   0.335
 3660SOL     OW11878   4.436   4.882   3.929
 3660SOL    HW111879   4.456   4.863   3.832
 3660SOL    HW211880   4.415   4.797   3.976
 3661SOL     OW11881   0.487   0.915   5.011
 3661SOL    HW111882   0.394   0.878   5.006
 3661SOL    HW211883   0.532   0.881   5.093
 3662SOL     OW11884   3.572   3.293   5.272
 3662SOL    HW111885   3.530   3.224   5.331
 3662SOL    HW211886   3.672   3.285   5.277
 3663SOL     OW11887   1.738   2.365   6.136
 3663SOL    HW111888   1.681   2.310   6.074
 3663SOL    HW211889   1.711   2.461   6.129
 3664SOL     OW11890   2.042   2.733   1.079
 3664SOL    HW111891   1.949   2.765   1.061
 3664SOL    HW211892   2.107   2.790   1.029
 3665SOL     OW11893   6.785   6.263   5.278
 3665SOL    HW111894   6.856   6.273   5.347
 3665SOL    HW211895   6.823   6.278   5.187
 3666SOL     OW11896   2.168   3.552   4.353
 3666SOL    HW111897   2.106   3.595   4.286
 3666SOL    HW211898   2.173   3.608   4.435
 3667SOL     OW11899   2.160   6.478   1.472
 3667SOL    HW111900   2.095   6.446   1.404
 3667SOL    HW211901   2.186   6.572   1.453
 3668SOL     OW11902   4.936   1.032   0.809
 3668SOL    HW111903   5.027   1.039   0.769
 3668SOL    HW211904   4.867   1.061   0.743
 3669SOL     OW11905   6.843   1.141   2.606
 3669SOL    HW111906   6.911   1.090   2.659
 3669SOL    HW211907   6.889   1.212   2.553
 3670SOL     OW11908   1.868   6.189   1.686
 3670SOL    HW111909   1.903   6.127   1.756
 3670SOL    HW211910   1.779   6.156   1.654
 3671SOL     OW11911   0.624   0.585   5.128
 3671SOL    HW111912   0.641   0.528   5.209
 3671SOL    HW211913   0.624   0.681   5.154
 3672SOL     OW11914   2.665   0.098   2.855
 3672SOL    HW111915   2.655   0.045   2.771
 3672SOL    HW211916   2.748   0.068   2.903
 3673SOL     OW11917   3.830   1.514   1.887
 3673SOL    HW111918   3.810   1.425   1.928
 3673SOL    HW211919   3.818   1.509   1.788
 3674SOL     OW11920   0.034   5.987   6.092
 3674SOL    HW111921   0.050   6.060   6.158
 3674SOL    HW211922   0.018   6.027   6.001
 3675SOL     OW11923   5.856   0.380   6.106
 3675SOL    HW111924   5.838   0.471   6.068
 3675SOL    HW211925   5.859   0.387   6.206
 3676SOL     OW11926   2.474   0.599   6.373
 3676SOL    HW111927   2.398   0.559   6.321
 3676SOL    HW211928   2.475   0.563   6.466
 3677SOL     OW11929   0.693   6.875   5.311
 3677SOL    HW111930   0.732   6.793   5.271
 3677SOL    HW211931   0.709   6.953   5.250
 3678SOL     OW11932   2.463   0.896   3.322
 3678SOL    HW111933   2.368   0.908   3.294
 3678SOL    HW211934   2.476   0.937   3.412
 3679SOL     OW11935   3.196   1.082   1.311
 3679SOL    HW111936   3.217   1.143   1.387
 3679SOL    HW211937   3.176   0.990   1.345
 3680SOL     OW11938   4.775   0.888   3.981
 3680SOL    HW111939   4.718   0.967   4.003
 3680SOL    HW211940   4.825   0.905   3.896
 3681SOL     OW11941   1.224   5.480   3.672
 3681SOL    HW111942   1.201   5.404   3.733
 3681SOL    HW211943   1.239   5.445   3.580
 3682SOL     OW11944   5.424   0.914   1.871
 3682SOL    HW111945   5.511   0.881   1.832
 3682SOL    HW211946   5.416   0.881   1.965
 3683SOL     OW11947   5.640   2.090   1.771
 3683SOL    HW111948   5.611   2.132   1.685
 3683SOL    HW211949   5.560   2.064   1.824
 3684SOL     OW11950   2.378   6.506   5.430
 3684SOL    HW111951   2.413   6.412   5.438
 3684SOL    HW211952   2.285   6.510   5.467
 3685SOL     OW11953   1.415   6.375   2.832
 3685SOL    HW111954   1.431   6.467   2.866
 3685SOL    HW211955   1.502   6.334   2.806
 3686SOL     OW11956   1.335   5.322   0.963
 3686SOL    HW111957   1.238   5.343   0.947
 3686SOL    HW211958   1.349   5.301   1.060
 3687SOL     OW11959   6.870   4.670   4.193
 3687SOL    HW111960   6.923   4.727   4.256
 3687SOL    HW211961   6.926   4.647   4.113
 3688SOL     OW11962   0.298   2.319   1.278
 3688SOL    HW111963   0.287   2.248   1.347
 3688SOL    HW211964   0.386   2.307   1.231
 3689SOL     OW11965   2.965   2.359   5.550
 3689SOL    HW111966   3.016   2.444   5.566
 3689SOL    HW211967   2.940   2.352   5.454
 3690SOL     OW11968   0.003   5.535   2.306
 3690SOL    HW111969   0.026   5.462   2.371
 3690SOL    HW211970   6.958   5.593   2.344
 3691SOL     OW11971   2.897   1.793   6.713
 3691SOL    HW111972   2.848   1.726   6.768
 3691SOL    HW211973   2.909   1.758   6.620
 3692SOL     OW11974   1.194   2.752   5.706
 3692SOL    HW111975   1.211   2.675   5.767
 3692SOL    HW211976   1.149   2.825   5.757
 3693SOL     OW11977   1.159   0.991   3.211
 3693SOL    HW111978   1.081   0.950   3.258
 3693SOL    HW211979   1.174   1.084   3.245
 3694SOL     OW11980   6.882   5.702   2.059
 3694SOL    HW111981   6.873   5.735   2.153
 3694SOL    HW211982   6.847   5.609   2.053
 3695SOL     OW11983   5.818   3.826   4.482
 3695SOL    HW111984   5.747   3.776   4.532
 3695SOL    HW211985   5.848   3.904   4.537
 3696SOL     OW11986   4.021   6.947   4.203
 3696SOL    HW111987   4.020   0.003   4.260
 3696SOL    HW211988   4.059   6.871   4.255
 3697SOL     OW11989   0.044   5.050   2.737
 3697SOL    HW111990   0.021   5.104   2.818
 3697SOL    HW211991   0.014   4.955   2.751
 3698SOL     OW11992   1.386   0.384   3.323
 3698SOL    HW111993   1.341   0.346   3.404
 3698SOL    HW211994   1.426   0.473   3.345
 3699SOL     OW11995   3.127   1.770   3.128
 3699SOL    HW111996   3.111   1.809   3.218
 3699SOL    HW211997   3.123   1.670   3.134
 3700SOL     OW11998   1.270   4.742   4.666
 3700SOL    HW111999   1.179   4.758   4.628
 3700SOL    HW212000   1.332   4.816   4.637
 3701SOL     OW12001   6.846   0.375   2.280
 3701SOL    HW112002   6.943   0.357   2.262
 3701SOL    HW212003   6.819   0.458   2.232
 3702SOL     OW12004   0.030   4.710   3.674
 3702SOL    HW112005   0.102   4.762   3.721
 3702SOL    HW212006   0.047   4.711   3.576
 3703SOL     OW12007   1.509   1.751   3.503
 3703SOL    HW112008   1.473   1.836   3.540
 3703SOL    HW212009   1.562   1.703   3.574
 3704SOL     OW12010   6.077   6.781   0.915
 3704SOL    HW112011   6.112   6.687   0.914
 3704SOL    HW212012   6.120   6.832   0.990
 3705SOL     OW12013   6.876   4.122   3.882
 3705SOL    HW112014   6.917   4.053   3.822
 3705SOL    HW212015   6.799   4.165   3.835
 3706SOL     OW12016   0.049   6.690   6.557
 3706SOL    HW112017   0.007   6.657   6.643
 3706SOL    HW212018   0.063   6.788   6.562
 3707SOL     OW12019   6.119   4.391   3.434
 3707SOL    HW112020   6.073   4.402   3.521
 3707SOL    HW212021   6.203   4.446   3.433
 3708SOL     OW12022   0.736   5.583   0.550
 3708SOL    HW112023   0.733   5.551   0.645
 3708SOL    HW212024   0.698   5.675   0.544
 3709SOL     OW12025   0.619   1.489   1.279
 3709SOL    HW112026   0.540   1.430   1.297
 3709SOL    HW212027   0.703   1.435   1.289
 3710SOL     OW12028   1.706   3.462   5.207
 3710SOL    HW112029   1.754   3.540   5.248
 3710SOL    HW212030   1.765   3.382   5.211
 3711SOL     OW12031   1.045   4.784   5.997
 3711SOL    HW112032   1.037   4.882   5.979
 3711SOL    HW212033   0.954   4.745   6.012
 3712SOL     OW12034   3.994   4.890   3.204
 3712SOL    HW112035   3.975   4.853   3.113
 3712SOL    HW212036   4.022   4.985   3.197
 3713SOL     OW12037   5.746   1.173   6.291
 3713SOL    HW112038   5.844   1.153   6.284
 3713SOL    HW212039   5.696   1.087   6.307
 3714SOL     OW12040   0.144   4.968   0.498
 3714SOL    HW112041   0.075   4.902   0.529
 3714SOL    HW212042   0.100   5.057   0.484
 3715SOL     OW12043   5.564   4.365   2.049
 3715SOL    HW112044   5.507   4.283   2.057
 3715SOL    HW212045   5.620   4.359   1.966
 3716SOL     OW12046   5.344   5.041   5.231
 3716SOL    HW112047   5.326   4.991   5.146
 3716SOL    HW212048   5.361   5.137   5.209
 3717SOL     OW12049   4.012   6.883   1.358
 3717SOL    HW112050   4.050   6.974   1.341
 3717SOL    HW212051   3.987   6.875   1.455
 3718SOL     OW12052   5.259   6.039   6.533
 3718SOL    HW112053   5.229   5.944   6.538
 3718SOL    HW212054   5.330   6.048   6.463
 3719SOL     OW12055   2.765   3.901   0.552
 3719SOL    HW112056   2.858   3.881   0.585
 3719SOL    HW212057   2.734   3.988   0.589
 3720SOL     OW12058   0.645   2.003   0.368
 3720SOL    HW112059   0.701   2.028   0.289
 3720SOL    HW212060   0.685   1.924   0.413
 3721SOL     OW12061   6.672   0.414   5.864
 3721SOL    HW112062   6.693   0.474   5.942
 3721SOL    HW212063   6.572   0.410   5.851
 3722SOL     OW12064   4.644   6.413   1.798
 3722SOL    HW112065   4.580   6.411   1.875
 3722SOL    HW212066   4.624   6.492   1.740
 3723SOL     OW12067   4.236   4.270   6.555
 3723SOL    HW112068   4.190   4.181   6.551
 3723SOL    HW212069   4.300   4.271   6.632
 3724SOL     OW12070   5.921   4.040   4.597
 3724SOL    HW112071   5.873   4.061   4.682
 3724SOL    HW212072   6.006   3.991   4.617
 3725SOL     OW12073   6.939   6.185   1.441
 3725SOL    HW112074   6.908   6.231   1.524
 3725SOL    HW212075   6.917   6.088   1.446
 3726SOL     OW12076   6.236   3.588   4.918
 3726SOL    HW112077   6.212   3.507   4.972
 3726SOL    HW212078   6.156   3.648   4.911
 3727SOL     OW12079   6.294   1.683   3.895
 3727SOL    HW112080   6.258   1.656   3.985
 3727SOL    HW212081   6.223   1.669   3.826
 3728SOL     OW12082   1.826   4.162   0.460
 3728SOL    HW112083   1.828   4.107   0.376
 3728SOL    HW212084   1.904   4.137   0.517
 3729SOL     OW12085   0.023   6.885   6.077
 3729SOL    HW112086   6.963   6.841   6.052
 3729SOL    HW212087   0.049   6.949   6.006
 3730SOL     OW12088   5.883   4.133   4.845
 3730SOL    HW112089   5.952   4.205   4.837
 3730SOL    HW212090   5.916   4.062   4.907
 3731SOL     OW12091   5.775   1.417   2.327
 3731SOL    HW112092   5.798   1.320   2.330
 3731SOL    HW212093   5.687   1.429   2.280
 3732SOL     OW12094   4.292   2.181   6.818
 3732SOL    HW112095   4.314   2.258   6.758
 3732SOL    HW212096   4.358   2.177   6.893
 3733SOL     OW12097   2.227   1.332   3.229
 3733SOL    HW112098   2.251   1.314   3.324
 3733SOL    HW212099   2.204   1.428   3.217
 3734SOL     OW12100   4.925   1.428   2.161
 3734SOL    HW112101   4.829   1.445   2.137
 3734SOL    HW212102   4.931   1.412   2.259
 3735SOL     OW12103   3.873   1.047   2.441
 3735SOL    HW112104   3.800   1.013   2.381
 3735SOL    HW212105   3.856   1.144   2.461
 3736SOL     OW12106   0.897   1.225   6.199
 3736SOL    HW112107   0.954   1.147   6.175
 3736SOL    HW212108   0.904   1.242   6.297
 3737SOL     OW12109   5.346   1.758   4.398
 3737SOL    HW112110   5.276   1.828   4.388
 3737SOL    HW212111   5.311   1.682   4.453
 3738SOL     OW12112   0.454   0.888   0.552
 3738SOL    HW112113   0.383   0.840   0.500
 3738SOL    HW212114   0.522   0.822   0.584
 3739SOL     OW12115   3.307   6.213   0.145
 3739SOL    HW112116   3.235   6.147   0.166
 3739SOL    HW212117   3.270   6.285   0.085
 3740SOL     OW12118   6.920   0.232   6.467
 3740SOL    HW112119   7.018   0.240   6.486
 3740SOL    HW212120   6.906   0.164   6.395
 3741SOL     OW12121   5.481   4.194   0.685
 3741SOL    HW112122   5.505   4.109   0.732
 3741SOL    HW212123   5.512   4.189   0.590
 3742SOL     OW12124   4.554   5.124   1.244
 3742SOL    HW112125   4.516   5.166   1.326
 3742SOL    HW212126   4.651   5.145   1.238
 3743SOL     OW12127   2.623   4.017   1.635
 3743SOL    HW112128   2.624   4.096   1.696
 3743SOL    HW212129   2.702   4.020   1.575
 3744SOL     OW12130   6.446   5.496   2.427
 3744SOL    HW112131   6.348   5.515   2.426
 3744SOL    HW212132   6.475   5.466   2.336
 3745SOL     OW12133   6.220   1.155   3.369
 3745SOL    HW112134   6.187   1.250   3.372
 3745SOL    HW212135   6.318   1.154   3.386
 3746SOL     OW12136   5.390   0.253   5.352
 3746SOL    HW112137   5.461   0.205   5.404
 3746SOL    HW212138   5.380   0.210   5.262
 3747SOL     OW12139   2.044   4.682   5.618
 3747SOL    HW112140   2.127   4.638   5.652
 3747SOL    HW212141   2.003   4.626   5.546
 3748SOL     OW12142   5.007   1.166   3.030
 3748SOL    HW112143   5.070   1.090   3.012
 3748SOL    HW212144   5.059   1.249   3.049
 3749SOL     OW12145   5.798   5.538   1.122
 3749SOL    HW112146   5.766   5.618   1.172
 3749SOL    HW212147   5.785   5.552   1.024
 3750SOL     OW12148   6.821   4.406   1.627
 3750SOL    HW112149   6.738   4.351   1.617
 3750SOL    HW212150   6.878   4.368   1.700
 3751SOL     OW12151   2.158   4.617   1.102
 3751SOL    HW112152   2.132   4.568   1.019
 3751SOL    HW212153   2.089   4.602   1.173
 3752SOL     OW12154   1.235   6.745   6.476
 3752SOL    HW112155   1.325   6.787   6.460
 3752SOL    HW212156   1.170   6.779   6.408
 3753SOL     OW12157   0.623   1.798   5.245
 3753SOL    HW112158   0.668   1.763   5.163
 3753SOL    HW212159   0.692   1.824   5.312
 3754SOL     OW12160   6.666   6.830   0.952
 3754SOL    HW112161   6.596   6.761   0.932
 3754SOL    HW212162   6.626   6.901   1.009
 3755SOL     OW12163   4.635   2.413   2.949
 3755SOL    HW112164   4.590   2.326   2.931
 3755SOL    HW212165   4.674   2.449   2.864
 3756SOL     OW12166   3.420   0.133   0.485
 3756SOL    HW112167   3.513   0.106   0.461
 3756SOL    HW212168   3.370   0.055   0.522
 3757SOL     OW12169   2.905   3.457   5.958
 3757SOL    HW112170   2.905   3.418   6.050
 3757SOL    HW212171   2.817   3.437   5.914
 3758SOL     OW12172   0.663   1.122   1.137
 3758SOL    HW112173   0.654   1.026   1.112
 3758SOL    HW212174   0.733   1.165   1.080
 3759SOL     OW12175   5.710   4.290   0.989
 3759SOL    HW112176   5.716   4.322   0.894
 3759SOL    HW212177   5.625   4.324   1.030
 3760SOL     OW12178   2.227   1.449   6.251
 3760SOL    HW112179   2.286   1.482   6.177
 3760SOL    HW212180   2.192   1.358   6.227
 3761SOL     OW12181   6.458   6.678   4.277
 3761SOL    HW112182   6.492   6.750   4.337
 3761SOL    HW212183   6.372   6.642   4.314
 3762SOL     OW12184   0.504   4.000   1.423
 3762SOL    HW112185   0.581   4.064   1.432
 3762SOL    HW212186   0.428   4.031   1.480
 3763SOL     OW12187   0.792   2.180   5.180
 3763SOL    HW112188   0.792   2.278   5.161
 3763SOL    HW212189   0.743   2.132   5.107
 3764SOL     OW12190   2.148   0.521   3.002
 3764SOL    HW112191   2.173   0.580   3.079
 3764SOL    HW212192   2.211   0.537   2.927
 3765SOL     OW12193   6.233   1.313   3.696
 3765SOL    HW112194   6.299   1.378   3.734
 3765SOL    HW212195   6.274   1.221   3.696
 3766SOL     OW12196   2.199   1.065   4.628
 3766SOL    HW112197   2.174   1.161   4.645
 3766SOL    HW212198   2.191   1.013   4.713
 3767SOL     OW12199   6.515   4.529   1.714
 3767SOL    HW112200   6.505   4.627   1.696
 3767SOL    HW212201   6.598   4.513   1.766
 3768SOL     OW12202   4.412   6.488   1.266
 3768SOL    HW112203   4.314   6.508   1.258
 3768SOL    HW212204   4.426   6.389   1.265
 3769SOL     OW12205   3.887   6.459   4.307
 3769SOL    HW112206   3.914   6.490   4.398
 3769SOL    HW212207   3.967   6.452   4.248
 3770SOL     OW12208   1.214   2.959   0.566
 3770SOL    HW112209   1.283   2.914   0.622
 3770SOL    HW212210   1.258   3.022   0.503
 3771SOL     OW12211   5.284   1.680   5.260
 3771SOL    HW112212   5.215   1.753   5.259
 3771SOL    HW212213   5.285   1.634   5.171
 3772SOL     OW12214   4.997   1.201   2.697
 3772SOL    HW112215   4.979   1.107   2.667
 3772SOL    HW212216   4.911   1.245   2.722
 3773SOL     OW12217   6.200   2.825   1.495
 3773SOL    HW112218   6.211   2.742   1.441
 3773SOL    HW212219   6.186   2.801   1.591
 3774SOL     OW12220   2.090   0.910   1.837
 3774SOL    HW112221   2.012   0.965   1.865
 3774SOL    HW212222   2.087   0.896   1.738
 3775SOL     OW12223   5.304   3.023   3.691
 3775SOL    HW112224   5.285   3.088   3.617
 3775SOL    HW212225   5.365   3.066   3.757
 3776SOL     OW12226   3.308   1.974   0.384
 3776SOL    HW112227   3.292   2.001   0.290
 3776SOL    HW212228   3.406   1.956   0.398
 3777SOL     OW12229   1.473   4.216   3.510
 3777SOL    HW112230   1.529   4.262   3.441
 3777SOL    HW212231   1.530   4.193   3.589
 3778SOL     OW12232   1.984   0.426   1.462
 3778SOL    HW112233   2.079   0.430   1.432
 3778SOL    HW212234   1.973   0.481   1.545
 3779SOL     OW12235   1.896   3.581   0.250
 3779SOL    HW112236   1.891   3.556   0.153
 3779SOL    HW212237   1.970   3.646   0.264
 3780SOL     OW12238   2.273   0.492   4.098
 3780SOL    HW112239   2.331   0.539   4.165
 3780SOL    HW212240   2.296   0.395   4.095
 3781SOL     OW12241   3.579   4.948   4.897
 3781SOL    HW112242   3.501   4.930   4.957
 3781SOL    HW212243   3.655   4.983   4.953
 3782SOL     OW12244   2.969   0.696   2.308
 3782SOL    HW112245   2.963   0.623   2.377
 3782SOL    HW212246   2.878   0.732   2.289
 3783SOL     OW12247   5.306   4.474   5.558
 3783SOL    HW112248   5.311   4.538   5.481
 3783SOL    HW212249   5.398   4.461   5.596
 3784SOL     OW12250   5.170   2.897   4.574
 3784SOL    HW112251   5.172   2.858   4.482
 3784SOL    HW212252   5.197   2.827   4.640
 3785SOL     OW12253   7.015   0.621   1.396
 3785SOL    HW112254   0.061   0.555   1.378
 3785SOL    HW212255   6.976   0.604   1.487
 3786SOL     OW12256   2.739   5.955   1.567
 3786SOL    HW112257   2.670   6.027   1.573
 3786SOL    HW212258   2.701   5.869   1.601
 3787SOL     OW12259   3.899   1.299   3.541
 3787SOL    HW112260   3.915   1.281   3.638
 3787SOL    HW212261   3.950   1.380   3.513
 3788SOL     OW12262   0.086   2.812   3.008
 3788SOL    HW112263   0.129   2.732   2.967
 3788SOL    HW212264   7.022   2.788   3.043
 3789SOL     OW12265   1.825   4.938   2.227
 3789SOL    HW112266   1.897   4.986   2.278
 3789SOL    HW212267   1.861   4.908   2.139
 3790SOL     OW12268   2.109   3.519   2.810
 3790SOL    HW112269   2.087   3.527   2.907
 3790SOL    HW212270   2.163   3.598   2.781
 3791SOL     OW12271   6.681   0.551   2.145
 3791SOL    HW112272   6.693   0.489   2.068
 3791SOL    HW212273   6.631   0.633   2.115
 3792SOL     OW12274   1.353   5.716   5.963
 3792SOL    HW112275   1.327   5.765   5.880
 3792SOL    HW212276   1.314   5.762   6.043
 3793SOL     OW12277   6.259   6.007   2.374
 3793SOL    HW112278   6.310   5.926   2.344
 3793SOL    HW212279   6.301   6.089   2.334
 3794SOL     OW12280   4.395   0.374   4.837
 3794SOL    HW112281   4.416   0.444   4.904
 3794SOL    HW212282   4.380   0.417   4.747
 3795SOL     OW12283   5.461   0.674   0.516
 3795SOL    HW112284   5.452   0.595   0.455
 3795SOL    HW212285   5.376   0.727   0.513
 3796SOL     OW12286   0.326   2.102   1.454
 3796SOL    HW112287   0.418   2.123   1.487
 3796SOL    HW212288   0.299   2.011   1.486
 3797SOL     OW12289   6.322   6.254   2.243
 3797SOL    HW112290   6.267   6.256   2.159
 3797SOL    HW212291   6.415   6.283   2.223
 3798SOL     OW12292   1.257   4.471   6.987
 3798SOL    HW112293   1.213   4.387   6.954
 3798SOL    HW212294   1.283   4.528   6.910
 3799SOL     OW12295   0.484   0.746   5.433
 3799SOL    HW112296   0.525   0.773   5.520
 3799SOL    HW212297   0.384   0.750   5.441
 3800SOL     OW12298   4.386   2.444   5.327
 3800SOL    HW112299   4.396   2.543   5.337
 3800SOL    HW212300   4.461   2.398   5.375
 3801SOL     OW12301   0.032   0.854   5.577
 3801SOL    HW112302   6.985   0.836   5.643
 3801SOL    HW212303   7.020   0.892   5.493
 3802SOL     OW12304   1.686   2.339   4.885
 3802SOL    HW112305   1.741   2.391   4.820
 3802SOL    HW212306   1.675   2.245   4.851
 3803SOL     OW12307   4.664   1.233   1.192
 3803SOL    HW112308   4.667   1.238   1.292
 3803SOL    HW212309   4.639   1.140   1.164
 3804SOL     OW12310   4.938   4.240   4.827
 3804SOL    HW112311   4.875   4.187   4.771
 3804SOL    HW212312   5.027   4.195   4.830
 3805SOL     OW12313   2.322   2.828   1.509
 3805SOL    HW112314   2.362   2.920   1.512
 3805SOL    HW212315   2.256   2.823   1.433
 3806SOL     OW12316   4.289   0.323   0.993
 3806SOL    HW112317   4.255   0.267   1.069
 3806SOL    HW212318   4.365   0.275   0.949
 3807SOL     OW12319   1.469   6.839   3.116
 3807SOL    HW112320   1.526   6.908   3.159
 3807SOL    HW212321   1.459   6.860   3.018
 3808SOL     OW12322   3.717   0.948   0.784
 3808SOL    HW112323   3.754   1.014   0.719
 3808SOL    HW212324   3.757   0.858   0.767
 3809SOL     OW12325   3.775   0.805   0.516
 3809SOL    HW112326   3.789   0.776   0.611
 3809SOL    HW212327   3.852   0.862   0.487
 3810SOL     OW12328   1.060   3.286   6.727
 3810SOL    HW112329   1.118   3.327   6.797
 3810SOL    HW212330   0.977   3.342   6.716
 3811SOL     OW12331   6.634   0.931   5.369
 3811SOL    HW112332   6.581   1.010   5.337
 3811SOL    HW212333   6.587   0.847   5.345
 3812SOL     OW12334   4.239   7.016   5.844
 3812SOL    HW112335   4.316   7.012   5.780
 3812SOL    HW212336   4.155   0.014   5.794
 3813SOL     OW12337   3.699   4.925   1.762
 3813SOL    HW112338   3.671   4.861   1.833
 3813SOL    HW212339   3.648   4.907   1.678
 3814SOL     OW12340   1.335   0.261   1.262
 3814SOL    HW112341   1.361   0.234   1.355
 3814SOL    HW212342   1.399   0.330   1.228
 3815SOL     OW12343   4.922   2.103   2.251
 3815SOL    HW112344   4.880   2.133   2.336
 3815SOL    HW212345   4.897   2.167   2.178
 3816SOL     OW12346   0.022   5.713   0.749
 3816SOL    HW112347   0.099   5.660   0.784
 3816SOL    HW212348   6.981   5.726   0.822
 3817SOL     OW12349   5.667   1.787   5.022
 3817SOL    HW112350   5.675   1.830   4.932
 3817SOL    HW212351   5.574   1.801   5.057
 3818SOL     OW12352   3.834   0.329   2.877
 3818SOL    HW112353   3.769   0.254   2.882
 3818SOL    HW212354   3.899   0.323   2.953
 3819SOL     OW12355   5.707   3.422   6.265
 3819SOL    HW112356   5.616   3.384   6.283
 3819SOL    HW212357   5.766   3.405   6.344
 3820SOL     OW12358   4.166   6.522   3.267
 3820SOL    HW112359   4.121   6.542   3.354
 3820SOL    HW212360   4.265   6.531   3.279
 3821SOL     OW12361   1.386   4.259   1.671
 3821SOL    HW112362   1.292   4.224   1.674
 3821SOL    HW212363   1.431   4.223   1.589
 3822SOL     OW12364   0.732   3.346   1.562
 3822SOL    HW112365   0.810   3.289   1.589
 3822SOL    HW212366   0.705   3.324   1.468
 3823SOL     OW12367   1.961   3.678   5.069
 3823SOL    HW112368   2.041   3.736   5.086
 3823SOL    HW212369   1.991   3.589   5.033
 3824SOL     OW12370   0.305   3.246   6.200
 3824SOL    HW112371   0.317   3.191   6.117
 3824SOL    HW212372   0.329   3.191   6.280
 3825SOL     OW12373   0.821   5.957   6.607
 3825SOL    HW112374   0.897   5.931   6.547
 3825SOL    HW212375   0.851   6.028   6.671
 3826SOL     OW12376   0.063   1.237   1.469
 3826SOL    HW112377   0.060   1.335   1.489
 3826SOL    HW212378   0.070   1.224   1.370
 3827SOL     OW12379   4.587   1.581   1.738
 3827SOL    HW112380   4.683   1.555   1.731
 3827SOL    HW212381   4.580   1.678   1.762
 3828SOL     OW12382   3.699   1.469   0.592
 3828SOL    HW112383   3.611   1.462   0.639
 3828SOL    HW212384   3.699   1.550   0.534
 3829SOL     OW12385   0.870   5.183   3.505
 3829SOL    HW112386   0.822   5.170   3.417
 3829SOL    HW212387   0.920   5.269   3.503
 3830SOL     OW12388   2.020   7.009   5.871
 3830SOL    HW112389   1.988   0.077   5.862
 3830SOL    HW212390   1.964   6.949   5.813
 3831SOL     OW12391   4.736   2.463   2.449
 3831SOL    HW112392   4.799   2.516   2.392
 3831SOL    HW212393   4.775   2.372   2.463
 3832SOL     OW12394   6.371   6.970   2.503
 3832SOL    HW112395   6.396   6.942   2.596
 3832SOL    HW212396   6.274   6.950   2.488
 3833SOL     OW12397   0.799   6.554   1.882
 3833SOL    HW112398   0.875   6.533   1.820
 3833SOL    HW212399   0.713   6.522   1.840
 3834SOL     OW12400   2.956   2.285   0.199
 3834SOL    HW112401   2.959   2.222   0.276
 3834SOL    HW212402   2.867   2.331   0.197
 3835SOL     OW12403   3.965   4.804   2.956
 3835SOL    HW112404   4.031   4.764   2.893
 3835SOL    HW212405   3.873   4.775   2.931
 3836SOL     OW12406   1.824   2.710   6.592
 3836SOL    HW112407   1.759   2.654   6.644
 3836SOL    HW212408   1.778   2.749   6.513
 3837SOL     OW12409   3.581   4.411   6.810
 3837SOL    HW112410   3.516   4.335   6.814
 3837SOL    HW212411   3.674   4.376   6.824
 3838SOL     OW12412   0.375   3.739   5.319
 3838SOL    HW112413   0.276   3.756   5.318
 3838SOL    HW212414   0.410   3.752   5.412
 3839SOL     OW12415   0.184   6.580   6.900
 3839SOL    HW112416   0.159   6.623   6.986
 3839SOL    HW212417   0.111   6.594   6.833
 3840SOL     OW12418   3.646   1.705   3.412
 3840SOL    HW112419   3.564   1.756   3.390
 3840SOL    HW212420   3.675   1.651   3.333
 3841SOL     OW12421   1.570   3.113   3.890
 3841SOL    HW112422   1.489   3.057   3.907
 3841SOL    HW212423   1.645   3.055   3.857
 3842SOL     OW12424   1.557   4.996   0.283
 3842SOL    HW112425   1.583   4.923   0.219
 3842SOL    HW212426   1.528   4.955   0.369
 3843SOL     OW12427   6.779   4.788   0.246
 3843SOL    HW112428   6.768   4.875   0.295
 3843SOL    HW212429   6.814   4.806   0.155
 3844SOL     OW12430   2.629   4.140   5.979
 3844SOL    HW112431   2.664   4.052   6.011
 3844SOL    HW212432   2.532   4.147   6.001
 3845SOL     OW12433   3.428   3.861   4.993
 3845SOL    HW112434   3.503   3.828   4.935
 3845SOL    HW212435   3.455   3.858   5.089
 3846SOL     OW12436   6.987   4.285   4.064
 3846SOL    HW112437   6.945   4.241   3.985
 3846SOL    HW212438   6.933   4.265   4.146
 3847SOL     OW12439   0.920   6.442   1.356
 3847SOL    HW112440   0.934   6.398   1.267
 3847SOL    HW212441   0.831   6.487   1.357
 3848SOL     OW12442   2.291   6.145   2.449
 3848SOL    HW112443   2.317   6.070   2.510
 3848SOL    HW212444   2.365   6.213   2.448
 3849SOL     OW12445   2.457   1.154   4.692
 3849SOL    HW112446   2.466   1.118   4.785
 3849SOL    HW212447   2.369   1.125   4.653
 3850SOL     OW12448   1.881   2.675   1.982
 3850SOL    HW112449   1.971   2.689   2.024
 3850SOL    HW212450   1.811   2.685   2.052
 3851SOL     OW12451   2.476   2.897   0.216
 3851SOL    HW112452   2.446   2.965   0.150
 3851SOL    HW212453   2.454   2.805   0.183
 3852SOL     OW12454   4.343   1.053   5.798
 3852SOL    HW112455   4.251   1.064   5.760
 3852SOL    HW212456   4.411   1.067   5.727
 3853SOL     OW12457   0.339   3.361   1.953
 3853SOL    HW112458   0.258   3.321   1.909
 3853SOL    HW212459   0.412   3.369   1.885
 3854SOL     OW12460   1.565   3.954   4.205
 3854SOL    HW112461   1.500   3.905   4.263
 3854SOL    HW212462   1.536   3.947   4.109
 3855SOL     OW12463   6.558   2.378   5.221
 3855SOL    HW112464   6.482   2.330   5.179
 3855SOL    HW212465   6.559   2.473   5.189
 3856SOL     OW12466   1.172   6.445   5.891
 3856SOL    HW112467   1.125   6.532   5.910
 3856SOL    HW212468   1.104   6.373   5.877
 3857SOL     OW12469   0.088   0.556   6.521
 3857SOL    HW112470   0.056   0.543   6.427
 3857SOL    HW212471   0.128   0.470   6.554
 3858SOL     OW12472   3.531   5.204   6.669
 3858SOL    HW112473   3.475   5.278   6.707
 3858SOL    HW212474   3.628   5.227   6.679
 3859SOL     OW12475   0.843   2.429   2.854
 3859SOL    HW112476   0.745   2.419   2.834
 3859SOL    HW212477   0.894   2.355   2.811
 3860SOL     OW12478   2.571   5.999   4.581
 3860SOL    HW112479   2.657   5.949   4.578
 3860SOL    HW212480   2.546   6.017   4.676
 3861SOL     OW12481   3.572   3.937   0.250
 3861SOL    HW112482   3.509   3.893   0.314
 3861SOL    HW212483   3.641   3.988   0.301
 3862SOL     OW12484   0.369   6.342   5.436
 3862SOL    HW112485   0.440   6.384   5.381
 3862SOL    HW212486   0.398   6.338   5.532
 3863SOL     OW12487   2.338   3.321   1.002
 3863SOL    HW112488   2.379   3.238   1.040
 3863SOL    HW212489   2.238   3.314   1.006
 3864SOL     OW12490   3.454   1.828   1.894
 3864SOL    HW112491   3.382   1.812   1.828
 3864SOL    HW212492   3.494   1.918   1.880
 3865SOL     OW12493   4.709   1.104   1.889
 3865SOL    HW112494   4.807   1.123   1.890
 3865SOL    HW212495   4.671   1.134   1.801
 3866SOL     OW12496   4.409   6.683   5.895
 3866SOL    HW112497   4.408   6.590   5.859
 3866SOL    HW212498   4.406   6.748   5.819
 3867SOL     OW12499   2.558   5.333   2.926
 3867SOL    HW112500   2.551   5.241   2.965
 3867SOL    HW212501   2.468   5.376   2.924
 3868SOL     OW12502   2.662   5.197   2.272
 3868SOL    HW112503   2.627   5.106   2.248
 3868SOL    HW212504   2.717   5.190   2.356
 3869SOL     OW12505   1.864   1.554   3.314
 3869SOL    HW112506   1.878   1.490   3.239
 3869SOL    HW212507   1.805   1.629   3.284
 3870SOL     OW12508   3.976   3.550   0.450
 3870SOL    HW112509   4.023   3.633   0.478
 3870SOL    HW212510   3.998   3.476   0.513
 3871SOL     OW12511   2.206   0.134   4.869
 3871SOL    HW112512   2.118   0.155   4.912
 3871SOL    HW212513   2.217   0.191   4.788
 3872SOL     OW12514   4.618   4.038   6.655
 3872SOL    HW112515   4.688   4.007   6.590
 3872SOL    HW212516   4.584   3.959   6.707
 3873SOL     OW12517   5.980   5.504   1.758
 3873SOL    HW112518   5.952   5.584   1.812
 3873SOL    HW212519   5.988   5.531   1.662
 3874SOL     OW12520   5.745   6.349   5.171
 3874SOL    HW112521   5.805   6.330   5.248
 3874SOL    HW212522   5.650   6.340   5.200
 3875SOL     OW12523   3.294   3.295   0.555
 3875SOL    HW112524   3.236   3.239   0.497
 3875SOL    HW212525   3.390   3.280   0.531
 3876SOL     OW12526   5.146   4.483   3.141
 3876SOL    HW112527   5.074   4.494   3.072
 3876SOL    HW212528   5.106   4.492   3.232
 3877SOL     OW12529   5.016   2.451   2.275
 3877SOL    HW112530   4.967   2.439   2.189
 3877SOL    HW212531   5.088   2.520   2.262
 3878SOL     OW12532   6.329   5.026   4.976
 3878SOL    HW112533   6.232   5.050   4.969
 3878SOL    HW212534   6.371   5.029   4.885
 3879SOL     OW12535   2.004   6.744   0.708
 3879SOL    HW112536   2.004   6.779   0.801
 3879SOL    HW212537   2.024   6.646   0.709
 3880SOL     OW12538   5.707   1.942   4.089
 3880SOL    HW112539   5.657   1.883   4.153
 3880SOL    HW212540   5.646   2.011   4.053
 3881SOL     OW12541   0.343   6.541   5.772
 3881SOL    HW112542   0.397   6.470   5.726
 3881SOL    HW212543   0.273   6.498   5.829
 3882SOL     OW12544   6.780   5.359   0.527
 3882SOL    HW112545   6.688   5.322   0.523
 3882SOL    HW212546   6.779   5.445   0.579
 3883SOL     OW12547   4.062   2.029   0.951
 3883SOL    HW112548   4.140   1.990   0.903
 3883SOL    HW212549   4.074   2.128   0.959
 3884SOL     OW12550   3.211   6.403   6.059
 3884SOL    HW112551   3.197   6.308   6.089
 3884SOL    HW212552   3.251   6.456   6.133
 3885SOL     OW12553   1.160   1.542   4.155
 3885SOL    HW112554   1.086   1.476   4.142
 3885SOL    HW212555   1.219   1.511   4.229
 3886SOL     OW12556   6.743   5.547   4.529
 3886SOL    HW112557   6.797   5.465   4.510
 3886SOL    HW212558   6.786   5.626   4.485
 3887SOL     OW12559   0.662   2.683   4.967
 3887SOL    HW112560   0.707   2.770   4.984
 3887SOL    HW212561   0.630   2.679   4.872
 3888SOL     OW12562   4.618   2.034   3.279
 3888SOL    HW112563   4.546   2.083   3.231
 3888SOL    HW212564   4.671   1.979   3.214
 3889SOL     OW12565   6.247   5.596   0.366
 3889SOL    HW112566   6.167   5.619   0.311
 3889SOL    HW212567   6.237   5.504   0.403
 3890SOL     OW12568   5.661   2.981   3.787
 3890SOL    HW112569   5.716   2.914   3.837
 3890SOL    HW212570   5.601   3.030   3.851
 3891SOL     OW12571   3.488   4.767   6.448
 3891SOL    HW112572   3.480   4.863   6.473
 3891SOL    HW212573   3.496   4.759   6.349
 3892SOL     OW12574   5.262   5.691   4.266
 3892SOL    HW112575   5.226   5.607   4.307
 3892SOL    HW212576   5.333   5.667   4.200
 3893SOL     OW12577   2.846   6.303   4.970
 3893SOL    HW112578   2.916   6.267   5.032
 3893SOL    HW212579   2.813   6.230   4.911
 3894SOL     OW12580   5.704   5.085   6.383
 3894SOL    HW112581   5.792   5.040   6.391
 3894SOL    HW212582   5.631   5.025   6.417
 3895SOL     OW12583   1.613   1.713   4.955
 3895SOL    HW112584   1.558   1.697   5.037
 3895SOL    HW212585   1.601   1.808   4.926
 3896SOL     OW12586   6.326   3.320   1.630
 3896SOL    HW112587   6.291   3.227   1.628
 3896SOL    HW212588   6.378   3.335   1.714
 3897SOL     OW12589   2.680   0.525   2.576
 3897SOL    HW112590   2.761   0.580   2.556
 3897SOL    HW212591   2.601   0.566   2.531
 3898SOL     OW12592   3.437   4.107   2.517
 3898SOL    HW112593   3.356   4.071   2.563
 3898SOL    HW212594   3.514   4.107   2.581
 3899SOL     OW12595   4.050   0.981   6.527
 3899SOL    HW112596   3.977   0.938   6.472
 3899SOL    HW212597   4.066   1.074   6.493
 3900SOL     OW12598   1.473   1.877   3.892
 3900SOL    HW112599   1.489   1.943   3.818
 3900SOL    HW212600   1.377   1.883   3.922
 3901SOL     OW12601   4.098   6.720   4.380
 3901SOL    HW112602   4.194   6.722   4.409
 3901SOL    HW212603   4.041   6.762   4.450
 3902SOL     OW12604   3.151   4.867   3.260
 3902SOL    HW112605   3.207   4.945   3.234
 3902SOL    HW212606   3.070   4.862   3.201
 3903SOL     OW12607   2.744   3.863   6.002
 3903SOL    HW112608   2.801   3.794   5.957
 3903SOL    HW212609   2.650   3.829   6.008
 3904SOL     OW12610   1.615   5.717   0.473
 3904SOL    HW112611   1.524   5.739   0.507
 3904SOL    HW212612   1.678   5.792   0.495
 3905SOL     OW12613   4.756   6.704   4.912
 3905SOL    HW112614   4.853   6.685   4.925
 3905SOL    HW212615   4.744   6.761   4.831
 3906SOL     OW12616   6.560   5.559   3.993
 3906SOL    HW112617   6.462   5.565   4.010
 3906SOL    HW212618   6.609   5.616   4.059
 3907SOL     OW12619   1.319   0.422   4.715
 3907SOL    HW112620   1.331   0.368   4.632
 3907SOL    HW212621   1.278   0.364   4.786
 3908SOL     OW12622   2.576   1.857   4.538
 3908SOL    HW112623   2.603   1.827   4.629
 3908SOL    HW212624   2.647   1.834   4.472
 3909SOL     OW12625   6.562   2.856   2.712
 3909SOL    HW112626   6.560   2.787   2.784
 3909SOL    HW212627   6.559   2.948   2.754
 3910SOL     OW12628   1.610   2.119   6.898
 3910SOL    HW112629   1.700   2.076   6.907
 3910SOL    HW212630   1.620   2.206   6.848
 3911SOL     OW12631   6.246   0.859   1.945
 3911SOL    HW112632   6.211   0.818   2.029
 3911SOL    HW212633   6.170   0.885   1.885
 3912SOL     OW12634   4.937   4.463   0.352
 3912SOL    HW112635   4.967   4.515   0.432
 3912SOL    HW212636   4.999   4.386   0.338
 3913SOL     OW12637   3.936   4.427   0.548
 3913SOL    HW112638   4.009   4.406   0.613
 3913SOL    HW212639   3.973   4.438   0.456
 3914SOL     OW12640   0.590   0.669   0.591
 3914SOL    HW112641   0.683   0.691   0.619
 3914SOL    HW212642   0.586   0.661   0.491
 3915SOL     OW12643   5.198   0.134   3.917
 3915SOL    HW112644   5.270   0.202   3.935
 3915SOL    HW212645   5.109   0.173   3.942
 3916SOL     OW12646   1.672   2.697   2.218
 3916SOL    HW112647   1.637   2.763   2.285
 3916SOL    HW212648   1.682   2.608   2.262
 3917SOL     OW12649   2.477   5.348   1.664
 3917SOL    HW112650   2.421   5.418   1.707
 3917SOL    HW212651   2.562   5.336   1.716
 3918SOL     OW12652   3.835   6.580   6.921
 3918SOL    HW112653   3.811   6.498   6.973
 3918SOL    HW212654   3.931   6.577   6.896
 3919SOL     OW12655   4.788   4.802   3.421
 3919SOL    HW112656   4.875   4.824   3.466
 3919SOL    HW212657   4.717   4.863   3.454
 3920SOL     OW12658   4.883   6.882   5.493
 3920SOL    HW112659   4.831   6.815   5.440
 3920SOL    HW212660   4.979   6.880   5.463
 3921SOL     OW12661   1.491   4.287   5.724
 3921SOL    HW112662   1.526   4.209   5.672
 3921SOL    HW212663   1.400   4.266   5.760
 3922SOL     OW12664   5.409   1.288   3.814
 3922SOL    HW112665   5.349   1.242   3.880
 3922SOL    HW212666   5.390   1.386   3.815
 3923SOL     OW12667   5.629   1.602   1.312
 3923SOL    HW112668   5.697   1.665   1.276
 3923SOL    HW212669   5.544   1.652   1.329
 3924SOL     OW12670   5.566   4.861   3.970
 3924SOL    HW112671   5.522   4.837   3.883
 3924SOL    HW212672   5.666   4.855   3.960
 3925SOL     OW12673   3.520   4.838   1.578
 3925SOL    HW112674   3.518   4.752   1.628
 3925SOL    HW212675   3.497   4.821   1.482
 3926SOL     OW12676   0.802   6.073   5.113
 3926SOL    HW112677   0.802   5.983   5.155
 3926SOL    HW212678   0.714   6.089   5.069
 3927SOL     OW12679   6.565   6.262   5.708
 3927SOL    HW112680   6.654   6.238   5.671
 3927SOL    HW212681   6.493   6.230   5.646
 3928SOL     OW12682   4.134   5.279   1.759
 3928SOL    HW112683   4.233   5.294   1.761
 3928SOL    HW212684   4.099   5.276   1.852
 3929SOL     OW12685   1.965   0.657   5.311
 3929SOL    HW112686   1.958   0.570   5.359
 3929SOL    HW212687   1.874   0.689   5.284
 3930SOL     OW12688   1.657   5.570   4.777
 3930SOL    HW112689   1.586   5.607   4.718
 3930SOL    HW212690   1.615   5.514   4.849
 3931SOL     OW12691   0.122   2.300   0.671
 3931SOL    HW112692   0.044   2.338   0.621
 3931SOL    HW212693   0.207   2.331   0.629
 3932SOL     OW12694   1.869   4.479   2.747
 3932SOL    HW112695   1.938   4.551   2.753
 3932SOL    HW212696   1.888   4.409   2.816
 3933SOL     OW12697   0.642   6.942   1.149
 3933SOL    HW112698   0.593   7.009   1.093
 3933SOL    HW212699   0.589   6.919   1.230
 3934SOL     OW12700   0.573   6.861   1.805
 3934SOL    HW112701   0.632   6.901   1.734
 3934SOL    HW212702   0.501   6.927   1.829
 3935SOL     OW12703   6.840   1.438   5.010
 3935SOL    HW112704   6.789   1.480   5.085
 3935SOL    HW212705   6.777   1.408   4.939
 3936SOL     OW12706   6.526   4.453   4.389
 3936SOL    HW112707   6.449   4.403   4.428
 3936SOL    HW212708   6.504   4.551   4.386
 3937SOL     OW12709   1.398   5.720   6.798
 3937SOL    HW112710   1.328   5.649   6.809
 3937SOL    HW212711   1.473   5.703   6.862
 3938SOL     OW12712   1.028   4.606   6.601
 3938SOL    HW112713   1.054   4.703   6.600
 3938SOL    HW212714   1.099   4.552   6.555
 3939SOL     OW12715   1.460   5.308   4.446
 3939SOL    HW112716   1.499   5.217   4.461
 3939SOL    HW212717   1.361   5.300   4.433
 3940SOL     OW12718   2.427   6.241   6.599
 3940SOL    HW112719   2.367   6.169   6.633
 3940SOL    HW212720   2.373   6.323   6.579
 3941SOL     OW12721   5.943   4.894   3.023
 3941SOL    HW112722   5.867   4.923   3.081
 3941SOL    HW212723   6.016   4.857   3.079
 3942SOL     OW12724   0.451   0.067   0.457
 3942SOL    HW112725   0.485   0.087   0.366
 3942SOL    HW212726   0.424   6.997   0.463
 3943SOL     OW12727   0.880   4.777   0.897
 3943SOL    HW112728   0.824   4.723   0.834
 3943SOL    HW212729   0.821   4.826   0.961
 3944SOL     OW12730   6.002   2.970   0.751
 3944SOL    HW112731   5.924   2.928   0.798
 3944SOL    HW212732   5.999   3.069   0.764
 3945SOL     OW12733   0.924   0.554   3.164
 3945SOL    HW112734   0.963   0.608   3.091
 3945SOL    HW212735   0.844   0.601   3.202
 3946SOL     OW12736   4.378   1.522   1.063
 3946SOL    HW112737   4.432   1.498   0.982
 3946SOL    HW212738   4.282   1.500   1.047
 3947SOL     OW12739   5.140   0.760   1.034
 3947SOL    HW112740   5.168   0.666   1.055
 3947SOL    HW212741   5.179   0.787   0.945
 3948SOL     OW12742   1.707   1.423   3.518
 3948SOL    HW112743   1.693   1.507   3.570
 3948SOL    HW212744   1.757   1.444   3.434
 3949SOL     OW12745   5.906   6.860   2.085
 3949SOL    HW112746   5.959   6.776   2.093
 3949SOL    HW212747   5.944   6.916   2.011
 3950SOL     OW12748   2.393   4.781   1.604
 3950SOL    HW112749   2.422   4.872   1.633
 3950SOL    HW212750   2.466   4.715   1.622
 3951SOL     OW12751   6.980   3.467   2.978
 3951SOL    HW112752   0.004   3.400   2.924
 3951SOL    HW212753   0.018   3.535   3.015
 3952SOL     OW12754   5.813   5.531   6.944
 3952SOL    HW112755   5.819   5.474   6.862
 3952SOL    HW212756   5.847   5.479   7.023
 3953SOL     OW12757   3.613   3.248   4.984
 3953SOL    HW112758   3.527   3.252   4.934
 3953SOL    HW212759   3.596   3.263   5.082
 3954SOL     OW12760   0.813   5.640   6.688
 3954SOL    HW112761   0.777   5.716   6.634
 3954SOL    HW212762   0.823   5.559   6.629
 3955SOL     OW12763   6.339   3.141   0.544
 3955SOL    HW112764   6.275   3.215   0.568
 3955SOL    HW212765   6.308   3.056   0.585
 3956SOL     OW12766   6.937   3.663   4.530
 3956SOL    HW112767   6.865   3.729   4.506
 3956SOL    HW212768   6.945   3.657   4.629
 3957SOL     OW12769   1.684   2.534   1.423
 3957SOL    HW112770   1.608   2.528   1.487
 3957SOL    HW212771   1.763   2.576   1.468
 3958SOL     OW12772   4.744   4.747   0.826
 3958SOL    HW112773   4.664   4.712   0.876
 3958SOL    HW212774   4.725   4.745   0.728
 3959SOL     OW12775   2.154   5.259   6.761
 3959SOL    HW112776   2.175   5.357   6.758
 3959SOL    HW212777   2.231   5.209   6.799
 3960SOL     OW12778   5.649   3.385   1.553
 3960SOL    HW112779   5.664   3.310   1.488
 3960SOL    HW212780   5.662   3.473   1.506
 3961SOL     OW12781   0.494   1.813   2.330
 3961SOL    HW112782   0.495   1.852   2.237
 3961SOL    HW212783   0.581   1.768   2.347
 3962SOL     OW12784   0.045   0.152   7.022
 3962SOL    HW112785   0.067   0.103   0.080
 3962SOL    HW212786   6.973   0.142   7.003
 3963SOL     OW12787   6.289   2.940   4.821
 3963SOL    HW112788   6.215   2.896   4.872
 3963SOL    HW212789   6.312   3.028   4.863
 3964SOL     OW12790   6.228   4.708   6.514
 3964SOL    HW112791   6.132   4.691   6.540
 3964SOL    HW212792   6.254   4.645   6.441
 3965SOL     OW12793   2.430   4.777   1.969
 3965SOL    HW112794   2.497   4.729   2.025
 3965SOL    HW212795   2.344   4.725   1.966
 3966SOL     OW12796   0.018   4.498   5.826
 3966SOL    HW112797   0.057   4.465   5.740
 3966SOL    HW212798   6.949   4.523   5.812
 3967SOL     OW12799   3.103   0.555   0.942
 3967SOL    HW112800   3.132   0.476   0.888
 3967SOL    HW212801   3.092   0.529   1.038
 3968SOL     OW12802   4.976   2.399   0.714
 3968SOL    HW112803   4.914   2.447   0.652
 3968SOL    HW212804   5.058   2.371   0.665
 3969SOL     OW12805   6.493   0.086   1.356
 3969SOL    HW112806   6.394   0.085   1.350
 3969SOL    HW212807   6.523   0.167   1.408
 3970SOL     OW12808   5.800   3.589   3.270
 3970SOL    HW112809   5.776   3.657   3.201
 3970SOL    HW212810   5.879   3.622   3.323
 3971SOL     OW12811   6.896   5.436   3.943
 3971SOL    HW112812   6.863   5.408   4.034
 3971SOL    HW212813   6.863   5.371   3.874
 3972SOL     OW12814   0.510   1.443   6.535
 3972SOL    HW112815   0.540   1.348   6.539
 3972SOL    HW212816   0.543   1.492   6.616
 3973SOL     OW12817   4.005   2.929   1.196
 3973SOL    HW112818   3.993   3.009   1.136
 3973SOL    HW212819   3.957   2.945   1.282
 3974SOL     OW12820   5.876   0.371   6.370
 3974SOL    HW112821   5.860   0.320   6.455
 3974SOL    HW212822   5.854   0.467   6.386
 3975SOL     OW12823   0.125   6.208   3.417
 3975SOL    HW112824   0.043   6.152   3.432
 3975SOL    HW212825   0.195   6.152   3.373
 3976SOL     OW12826   0.976   2.828   5.071
 3976SOL    HW112827   0.971   2.825   5.171
 3976SOL    HW212828   0.899   2.881   5.036
 3977SOL     OW12829   2.382   5.128   5.753
 3977SOL    HW112830   2.370   5.214   5.704
 3977SOL    HW212831   2.479   5.115   5.774
 3978SOL     OW12832   4.210   3.415   6.541
 3978SOL    HW112833   4.142   3.373   6.601
 3978SOL    HW212834   4.177   3.504   6.510
 3979SOL     OW12835   0.380   5.746   3.009
 3979SOL    HW112836   0.324   5.706   2.937
 3979SOL    HW212837   0.459   5.687   3.027
 3980SOL     OW12838   5.511   4.050   3.873
 3980SOL    HW112839   5.558   4.074   3.957
 3980SOL    HW212840   5.413   4.036   3.892
 3981SOL     OW12841   6.309   1.375   6.620
 3981SOL    HW112842   6.274   1.321   6.697
 3981SOL    HW212843   6.274   1.336   6.535
 3982SOL     OW12844   1.750   2.719   3.696
 3982SOL    HW112845   1.792   2.656   3.632
 3982SOL    HW212846   1.685   2.670   3.754
 3983SOL     OW12847   2.319   1.593   3.478
 3983SOL    HW112848   2.251   1.524   3.505
 3983SOL    HW212849   2.277   1.683   3.478
 3984SOL     OW12850   1.263   6.188   2.571
 3984SOL    HW112851   1.317   6.264   2.609
 3984SOL    HW212852   1.320   6.135   2.508
 3985SOL     OW12853   1.130   1.974   1.464
 3985SOL    HW112854   1.185   2.056   1.447
 3985SOL    HW212855   1.187   1.904   1.506
 3986SOL     OW12856   1.082   0.164   3.088
 3986SOL    HW112857   1.090   0.071   3.124
 3986SOL    HW212858   1.076   0.228   3.164
 3987SOL     OW12859   1.881   4.460   5.511
 3987SOL    HW112860   1.808   4.436   5.575
 3987SOL    HW212861   1.865   4.413   5.424
 3988SOL     OW12862   4.702   5.189   2.247
 3988SOL    HW112863   4.667   5.121   2.311
 3988SOL    HW212864   4.772   5.147   2.189
 3989SOL     OW12865   4.323   1.002   6.452
 3989SOL    HW112866   4.389   0.947   6.503
 3989SOL    HW212867   4.231   0.970   6.471
 3990SOL     OW12868   6.130   5.825   3.512
 3990SOL    HW112869   6.199   5.888   3.478
 3990SOL    HW212870   6.039   5.862   3.492
 3991SOL     OW12871   0.630   2.101   4.949
 3991SOL    HW112872   0.585   2.148   5.025
 3991SOL    HW212873   0.572   2.025   4.918
 3992SOL     OW12874   5.991   3.736   5.870
 3992SOL    HW112875   6.025   3.812   5.815
 3992SOL    HW212876   5.992   3.652   5.816
 3993SOL     OW12877   1.311   0.852   4.152
 3993SOL    HW112878   1.319   0.837   4.054
 3993SOL    HW212879   1.238   0.795   4.189
 3994SOL     OW12880   2.936   1.957   3.104
 3994SOL    HW112881   2.838   1.952   3.083
 3994SOL    HW212882   2.977   1.867   3.096
 3995SOL     OW12883   2.167   4.299   1.771
 3995SOL    HW112884   2.204   4.210   1.797
 3995SOL    HW212885   2.138   4.296   1.675
 3996SOL     OW12886   0.344   5.559   5.411
 3996SOL    HW112887   0.305   5.638   5.364
 3996SOL    HW212888   0.399   5.590   5.489
 3997SOL     OW12889   6.027   3.563   5.331
 3997SOL    HW112890   6.092   3.541   5.403
 3997SOL    HW212891   6.027   3.662   5.314
 3998SOL     OW12892   4.383   2.140   3.175
 3998SOL    HW112893   4.345   2.231   3.196
 3998SOL    HW212894   4.352   2.111   3.085
 3999SOL     OW12895   4.596   3.878   1.140
 3999SOL    HW112896   4.550   3.966   1.129
 3999SOL    HW212897   4.585   3.824   1.057
 4000SOL     OW12898   2.899   4.802   2.605
 4000SOL    HW112899   2.937   4.868   2.540
 4000SOL    HW212900   2.820   4.757   2.563
 4001SOL     OW12901   0.772   5.500   4.320
 4001SOL    HW112902   0.800   5.595   4.301
 4001SOL    HW212903   0.824   5.466   4.398
 4002SOL     OW12904   3.459   3.725   4.447
 4002SOL    HW112905   3.410   3.682   4.523
 4002SOL    HW212906   3.395   3.746   4.374
 4003SOL     OW12907   3.361   1.506   4.502
 4003SOL    HW112908   3.410   1.511   4.589
 4003SOL    HW212909   3.349   1.598   4.466
 4004SOL     OW12910   1.745   3.880   5.095
 4004SOL    HW112911   1.804   3.799   5.092
 4004SOL    HW212912   1.671   3.870   5.028
 4005SOL     OW12913   5.860   2.127   2.159
 4005SOL    HW112914   5.956   2.102   2.150
 4005SOL    HW212915   5.805   2.044   2.169
 4006SOL     OW12916   6.817   5.703   1.667
 4006SOL    HW112917   6.908   5.685   1.705
 4006SOL    HW212918   6.819   5.694   1.568
 4007SOL     OW12919   0.634   1.347   1.763
 4007SOL    HW112920   0.561   1.389   1.710
 4007SOL    HW212921   0.722   1.367   1.719
 4008SOL     OW12922   4.029   0.188   1.740
 4008SOL    HW112923   3.987   0.204   1.650
 4008SOL    HW212924   4.042   0.090   1.752
 4009SOL     OW12925   3.534   2.487   1.548
 4009SOL    HW112926   3.578   2.470   1.460
 4009SOL    HW212927   3.586   2.556   1.598
 4010SOL     OW12928   1.234   5.536   1.195
 4010SOL    HW112929   1.185   5.548   1.108
 4010SOL    HW212930   1.244   5.439   1.214
 4011SOL     OW12931   5.923   6.724   6.308
 4011SOL    HW112932   5.972   6.652   6.356
 4011SOL    HW212933   5.828   6.695   6.291
 4012SOL     OW12934   6.076   4.439   2.152
 4012SOL    HW112935   6.105   4.389   2.233
 4012SOL    HW212936   6.042   4.529   2.179
 4013SOL     OW12937   0.182   2.115   6.854
 4013SOL    HW112938   0.275   2.129   6.822
 4013SOL    HW212939   0.169   2.163   6.941
 4014SOL     OW12940   4.401   6.625   2.749
 4014SOL    HW112941   4.359   6.681   2.677
 4014SOL    HW212942   4.390   6.528   2.726
 4015SOL     OW12943   3.390   6.291   5.157
 4015SOL    HW112944   3.339   6.304   5.241
 4015SOL    HW212945   3.369   6.365   5.093
 4016SOL     OW12946   4.304   5.196   3.968
 4016SOL    HW112947   4.210   5.168   3.945
 4016SOL    HW212948   4.368   5.149   3.906
 4017SOL     OW12949   1.668   6.220   6.407
 4017SOL    HW112950   1.685   6.123   6.424
 4017SOL    HW212951   1.637   6.231   6.312
 4018SOL     OW12952   5.360   5.404   0.325
 4018SOL    HW112953   5.426   5.423   0.398
 4018SOL    HW212954   5.278   5.362   0.365
 4019SOL     OW12955   0.791   2.185   3.258
 4019SOL    HW112956   0.870   2.203   3.199
 4019SOL    HW212957   0.781   2.086   3.270
 4020SOL     OW12958   6.437   5.743   4.753
 4020SOL    HW112959   6.483   5.725   4.840
 4020SOL    HW212960   6.504   5.742   4.679
 4021SOL     OW12961   4.885   5.572   5.854
 4021SOL    HW112962   4.956   5.569   5.784
 4021SOL    HW212963   4.859   5.667   5.872
 4022SOL     OW12964   3.820   0.548   1.458
 4022SOL    HW112965   3.743   0.595   1.501
 4022SOL    HW212966   3.903   0.603   1.468
 4023SOL     OW12967   1.783   1.561   3.898
 4023SOL    HW112968   1.794   1.470   3.939
 4023SOL    HW212969   1.767   1.628   3.970
 4024SOL     OW12970   1.465   6.923   6.384
 4024SOL    HW112971   1.535   6.911   6.453
 4024SOL    HW212972   1.416   7.009   6.400
 4025SOL     OW12973   1.187   4.604   4.921
 4025SOL    HW112974   1.222   4.635   4.833
 4025SOL    HW212975   1.165   4.684   4.978
 4026SOL     OW12976   0.225   6.428   4.260
 4026SOL    HW112977   0.302   6.479   4.298
 4026SOL    HW212978   0.215   6.450   4.163
 4027SOL     OW12979   3.364   5.583   4.668
 4027SOL    HW112980   3.289   5.633   4.626
 4027SOL    HW212981   3.436   5.567   4.600
 4028SOL     OW12982   4.751   1.531   5.005
 4028SOL    HW112983   4.666   1.531   4.953
 4028SOL    HW212984   4.801   1.616   4.987
 4029SOL     OW12985   1.977   6.904   0.977
 4029SOL    HW112986   1.884   6.931   0.952
 4029SOL    HW212987   2.042   6.967   0.934
 4030SOL     OW12988   6.982   1.468   1.764
 4030SOL    HW112989   6.928   1.418   1.696
 4030SOL    HW212990   6.922   1.493   1.841
 4031SOL     OW12991   6.157   6.023   0.814
 4031SOL    HW112992   6.119   6.084   0.744
 4031SOL    HW212993   6.177   6.076   0.896
 4032SOL     OW12994   4.829   2.297   2.058
 4032SOL    HW112995   4.734   2.326   2.075
 4032SOL    HW212996   4.866   2.346   1.979
 4033SOL     OW12997   1.288   4.429   3.660
 4033SOL    HW112998   1.370   4.386   3.623
 4033SOL    HW212999   1.303   4.450   3.757
 4034SOL     OW13000   3.060   1.724   4.421
 4034SOL    HW113001   3.097   1.791   4.486
 4034SOL    HW213002   3.059   1.633   4.463
 4035SOL     OW13003   3.478   2.166   1.114
 4035SOL    HW113004   3.424   2.181   1.197
 4035SOL    HW213005   3.417   2.147   1.037
 4036SOL     OW13006   4.031   0.331   3.056
 4036SOL    HW113007   4.106   0.264   3.052
 4036SOL    HW213008   4.031   0.375   3.145
 4037SOL     OW13009   1.616   0.959   5.643
 4037SOL    HW113010   1.574   0.869   5.651
 4037SOL    HW213011   1.588   1.016   5.720
 4038SOL     OW13012   3.907   5.395   5.903
 4038SOL    HW113013   3.974   5.378   5.831
 4038SOL    HW213014   3.837   5.458   5.869
 4039SOL     OW13015   6.362   4.676   2.119
 4039SOL    HW113016   6.341   4.619   2.040
 4039SOL    HW213017   6.355   4.622   2.203
 4040SOL     OW13018   2.005   6.699   5.339
 4040SOL    HW113019   2.059   6.616   5.356
 4040SOL    HW213020   2.067   6.777   5.330
 4041SOL     OW13021   0.948   6.433   1.643
 4041SOL    HW113022   0.954   6.446   1.544
 4041SOL    HW213023   1.038   6.444   1.685
 4042SOL     OW13024   1.671   1.299   4.522
 4042SOL    HW113025   1.687   1.265   4.430
 4042SOL    HW213026   1.751   1.353   4.552
 4043SOL     OW13027   4.117   2.893   5.696
 4043SOL    HW113028   4.172   2.956   5.750
 4043SOL    HW213029   4.152   2.890   5.602
 4044SOL     OW13030   4.648   4.286   3.810
 4044SOL    HW113031   4.683   4.243   3.727
 4044SOL    HW213032   4.668   4.229   3.889
 4045SOL     OW13033   4.530   1.492   4.847
 4045SOL    HW113034   4.583   1.501   4.763
 4045SOL    HW213035   4.479   1.406   4.845
 4046SOL     OW13036   5.330   0.653   4.285
 4046SOL    HW113037   5.244   0.692   4.317
 4046SOL    HW213038   5.405   0.713   4.311
 4047SOL     OW13039   2.499   3.076   6.549
 4047SOL    HW113040   2.465   2.996   6.600
 4047SOL    HW213041   2.566   3.046   6.482
 4048SOL     OW13042   5.060   2.328   3.408
 4048SOL    HW113043   5.147   2.378   3.418
 4048SOL    HW213044   5.079   2.233   3.384
 4049SOL     OW13045   3.991   3.838   2.431
 4049SOL    HW113046   4.089   3.820   2.434
 4049SOL    HW213047   3.961   3.848   2.336
 4050SOL     OW13048   0.138   4.739   3.010
 4050SOL    HW113049   0.072   4.813   3.027
 4050SOL    HW213050   0.179   4.751   2.920
 4051SOL     OW13051   5.646   0.272   3.589
 4051SOL    HW113052   5.554   0.233   3.583
 4051SOL    HW213053   5.689   0.271   3.498
 4052SOL     OW13054   4.101   1.001   5.216
 4052SOL    HW113055   4.041   1.053   5.157
 4052SOL    HW213056   4.180   0.968   5.164
 4053SOL     OW13057   0.892   4.792   2.753
 4053SOL    HW113058   0.829   4.736   2.699
 4053SOL    HW213059   0.849   4.817   2.840
 4054SOL     OW13060   5.147   3.943   1.466
 4054SOL    HW113061   5.087   3.919   1.543
 4054SOL    HW213062   5.091   3.969   1.387
 4055SOL     OW13063   6.892   3.934   0.076
 4055SOL    HW113064   6.887   3.943   0.175
 4055SOL    HW213065   6.817   3.986   0.034
 4056SOL     OW13066   5.066   4.333   0.034
 4056SOL    HW113067   5.028   4.268   0.100
 4056SOL    HW213068   5.038   4.307   6.968
 4057SOL     OW13069   6.804   5.434   5.244
 4057SOL    HW113070   6.750   5.442   5.161
 4057SOL    HW213071   6.778   5.505   5.308
 4058SOL     OW13072   3.153   0.680   3.724
 4058SOL    HW113073   3.192   0.737   3.651
 4058SOL    HW213074   3.059   0.708   3.741
 4059SOL     OW13075   2.182   0.930   3.475
 4059SOL    HW113076   2.114   0.862   3.446
 4059SOL    HW213077   2.239   0.893   3.547
 4060SOL     OW13078   6.892   6.410   3.727
 4060SOL    HW113079   6.969   6.404   3.663
 4060SOL    HW213080   6.919   6.374   3.816
 4061SOL     OW13081   1.366   3.910   2.400
 4061SOL    HW113082   1.301   3.961   2.456
 4061SOL    HW213083   1.458   3.944   2.417
 4062SOL     OW13084   2.608   3.705   0.453
 4062SOL    HW113085   2.649   3.789   0.487
 4062SOL    HW213086   2.678   3.634   0.447
 4063SOL     OW13087   3.838   0.968   1.379
 4063SOL    HW113088   3.903   1.043   1.369
 4063SOL    HW213089   3.817   0.929   1.289
 4064SOL     OW13090   2.666   6.913   4.524
 4064SOL    HW113091   2.658   6.877   4.431
 4064SOL    HW213092   2.576   6.943   4.556
 4065SOL     OW13093   2.288   1.044   1.950
 4065SOL    HW113094   2.213   1.002   1.899
 4065SOL    HW213095   2.262   1.052   2.046
 4066SOL     OW13096   0.245   4.517   5.007
 4066SOL    HW113097   0.210   4.559   5.091
 4066SOL    HW213098   0.342   4.541   4.997
 4067SOL     OW13099   5.836   4.125   1.580
 4067SOL    HW113100   5.856   4.144   1.676
 4067SOL    HW213101   5.880   4.195   1.523
 4068SOL     OW13102   2.397   2.652   5.908
 4068SOL    HW113103   2.452   2.655   5.991
 4068SOL    HW213104   2.316   2.596   5.924
 4069SOL     OW13105   4.051   0.499   6.072
 4069SOL    HW113106   4.054   0.533   6.166
 4069SOL    HW213107   4.087   0.569   6.011
 4070SOL     OW13108   1.960   4.015   4.489
 4070SOL    HW113109   1.912   4.007   4.577
 4070SOL    HW213110   2.058   4.013   4.505
 4071SOL     OW13111   0.905   0.453   4.923
 4071SOL    HW113112   0.822   0.481   4.971
 4071SOL    HW213113   0.913   0.353   4.927
 4072SOL     OW13114   2.827   5.975   2.129
 4072SOL    HW113115   2.886   6.055   2.122
 4072SOL    HW213116   2.878   5.901   2.175
 4073SOL     OW13117   4.877   5.057   6.777
 4073SOL    HW113118   4.879   5.155   6.760
 4073SOL    HW213119   4.931   5.010   6.707
 4074SOL     OW13120   1.270   5.423   1.918
 4074SOL    HW113121   1.282   5.415   1.819
 4074SOL    HW213122   1.186   5.473   1.938
 4075SOL     OW13123   5.722   0.047   6.454
 4075SOL    HW113124   5.734   0.027   6.357
 4075SOL    HW213125   5.632   0.013   6.484
 4076SOL     OW13126   2.332   5.297   3.403
 4076SOL    HW113127   2.422   5.271   3.368
 4076SOL    HW213128   2.262   5.272   3.336
 4077SOL     OW13129   2.712   1.827   1.264
 4077SOL    HW113130   2.735   1.790   1.174
 4077SOL    HW213131   2.619   1.798   1.288
 4078SOL     OW13132   4.361   4.709   1.917
 4078SOL    HW113133   4.327   4.653   1.993
 4078SOL    HW213134   4.424   4.778   1.952
 4079SOL     OW13135   0.694   3.149   3.902
 4079SOL    HW113136   0.626   3.217   3.874
 4079SOL    HW213137   0.737   3.109   3.821
 4080SOL     OW13138   6.728   2.471   4.912
 4080SOL    HW113139   6.823   2.500   4.920
 4080SOL    HW213140   6.723   2.386   4.859
 4081SOL     OW13141   6.176   3.773   2.230
 4081SOL    HW113142   6.123   3.836   2.173
 4081SOL    HW213143   6.248   3.731   2.175
 4082SOL     OW13144   0.332   3.469   1.482
 4082SOL    HW113145   0.296   3.380   1.455
 4082SOL    HW213146   0.338   3.529   1.402
 4083SOL     OW13147   0.117   3.684   5.817
 4083SOL    HW113148   0.037   3.694   5.876
 4083SOL    HW213149   0.195   3.653   5.871
 4084SOL     OW13150   4.455   0.288   4.057
 4084SOL    HW113151   4.446   0.388   4.057
 4084SOL    HW213152   4.368   0.246   4.031
 4085SOL     OW13153   2.583   5.161   6.209
 4085SOL    HW113154   2.566   5.258   6.225
 4085SOL    HW213155   2.496   5.115   6.190
 4086SOL     OW13156   6.947   2.181   2.009
 4086SOL    HW113157   7.017   2.242   1.973
 4086SOL    HW213158   6.916   2.120   1.936
 4087SOL     OW13159   1.191   0.424   2.969
 4087SOL    HW113160   1.173   0.341   3.021
 4087SOL    HW213161   1.245   0.401   2.888
 4088SOL     OW13162   0.388   3.101   6.438
 4088SOL    HW113163   0.467   3.128   6.493
 4088SOL    HW213164   0.304   3.136   6.480
 4089SOL     OW13165   0.720   2.256   5.620
 4089SOL    HW113166   0.793   2.246   5.687
 4089SOL    HW213167   0.647   2.191   5.641
 4090SOL     OW13168   3.197   5.518   6.345
 4090SOL    HW113169   3.287   5.557   6.367
 4090SOL    HW213170   3.209   5.427   6.307
 4091SOL     OW13171   4.163   5.960   1.279
 4091SOL    HW113172   4.215   5.878   1.257
 4091SOL    HW213173   4.085   5.968   1.217
 4092SOL     OW13174   0.725   1.198   3.766
 4092SOL    HW113175   0.782   1.280   3.765
 4092SOL    HW213176   0.703   1.172   3.672
 4093SOL     OW13177   4.418   6.664   3.603
 4093SOL    HW113178   4.457   6.726   3.535
 4093SOL    HW213179   4.453   6.688   3.694
 4094SOL     OW13180   3.262   2.947   6.520
 4094SOL    HW113181   3.271   2.848   6.527
 4094SOL    HW213182   3.348   2.990   6.548
 4095SOL     OW13183   2.278   3.996   5.830
 4095SOL    HW113184   2.270   3.899   5.854
 4095SOL    HW213185   2.196   4.045   5.862
 4096SOL     OW13186   4.507   4.575   1.388
 4096SOL    HW113187   4.537   4.543   1.478
 4096SOL    HW213188   4.583   4.618   1.340
 4097SOL     OW13189   3.392   3.556   3.060
 4097SOL    HW113190   3.358   3.530   3.151
 4097SOL    HW213191   3.486   3.523   3.050
 4098SOL     OW13192   1.526   3.081   2.217
 4098SOL    HW113193   1.479   3.031   2.144
 4098SOL    HW213194   1.594   3.142   2.177
 4099SOL     OW13195   2.570   6.397   1.283
 4099SOL    HW113196   2.532   6.488   1.265
 4099SOL    HW213197   2.497   6.336   1.313
 4100SOL     OW13198   3.859   0.467   2.261
 4100SOL    HW113199   3.944   0.416   2.271
 4100SOL    HW213200   3.831   0.506   2.349
 4101SOL     OW13201   4.676   1.524   6.643
 4101SOL    HW113202   4.768   1.512   6.605
 4101SOL    HW213203   4.638   1.435   6.668
 4102SOL     OW13204   5.074   2.085   5.928
 4102SOL    HW113205   5.128   2.030   5.992
 4102SOL    HW213206   4.996   2.032   5.895
 4103SOL     OW13207   6.626   0.520   1.663
 4103SOL    HW113208   6.724   0.534   1.678
 4103SOL    HW213209   6.597   0.574   1.584
 4104SOL     OW13210   2.185   4.665   2.016
 4104SOL    HW113211   2.167   4.668   1.918
 4104SOL    HW213212   2.100   4.645   2.064
 4105SOL     OW13213   6.219   4.683   0.444
 4105SOL    HW113214   6.263   4.753   0.387
 4105SOL    HW213215   6.189   4.608   0.385
 4106SOL     OW13216   0.151   3.077   3.860
 4106SOL    HW113217   0.224   3.009   3.861
 4106SOL    HW213218   0.179   3.156   3.915
 4107SOL     OW13219   6.969   0.417   1.121
 4107SOL    HW113220   6.909   0.426   1.041
 4107SOL    HW213221   0.021   0.479   1.111
 4108SOL     OW13222   6.567   2.632   5.075
 4108SOL    HW113223   6.616   2.572   5.012
 4108SOL    HW213224   6.471   2.638   5.049
 4109SOL     OW13225   2.264   6.153   3.904
 4109SOL    HW113226   2.199   6.190   3.838
 4109SOL    HW213227   2.224   6.072   3.947
 4110SOL     OW13228   4.850   3.291   5.114
 4110SOL    HW113229   4.761   3.286   5.160
 4110SOL    HW213230   4.915   3.340   5.172
 4111SOL     OW13231   4.095   3.551   6.804
 4111SOL    HW113232   4.123   3.571   6.898
 4111SOL    HW213233   4.148   3.607   6.741
 4112SOL     OW13234   3.661   0.835   6.167
 4112SOL    HW113235   3.675   0.738   6.149
 4112SOL    HW213236   3.576   0.849   6.217
 4113SOL     OW13237   3.454   5.891   4.050
 4113SOL    HW113238   3.483   5.979   4.087
 4113SOL    HW213239   3.484   5.884   3.955
 4114SOL     OW13240   3.372   0.841   3.306
 4114SOL    HW113241   3.457   0.814   3.350
 4114SOL    HW213242   3.389   0.917   3.244
 4115SOL     OW13243   4.954   4.039   3.378
 4115SOL    HW113244   4.865   4.084   3.377
 4115SOL    HW213245   4.944   3.946   3.413
 4116SOL     OW13246   2.519   1.413   1.684
 4116SOL    HW113247   2.560   1.501   1.706
 4116SOL    HW213248   2.561   1.341   1.740
 4117SOL     OW13249   1.037   6.120   2.143
 4117SOL    HW113250   1.092   6.133   2.061
 4117SOL    HW213251   0.942   6.146   2.124
 4118SOL     OW13252   1.677   0.651   5.797
 4118SOL    HW113253   1.752   0.639   5.862
 4118SOL    HW213254   1.592   0.669   5.847
 4119SOL     OW13255   5.203   1.273   3.294
 4119SOL    HW113256   5.142   1.334   3.243
 4119SOL    HW213257   5.298   1.293   3.270
 4120SOL     OW13258   5.733   0.557   1.547
 4120SOL    HW113259   5.689   0.529   1.633
 4120SOL    HW213260   5.688   0.512   1.470
 4121SOL     OW13261   5.214   2.765   3.869
 4121SOL    HW113262   5.195   2.675   3.830
 4121SOL    HW213263   5.258   2.823   3.800
 4122SOL     OW13264   2.031   5.017   6.864
 4122SOL    HW113265   2.068   5.110   6.858
 4122SOL    HW213266   2.014   4.994   6.960
 4123SOL     OW13267   3.764   3.839   5.133
 4123SOL    HW113268   3.767   3.768   5.202
 4123SOL    HW213269   3.851   3.889   5.133
 4124SOL     OW13270   4.562   6.092   2.650
 4124SOL    HW113271   4.624   6.161   2.614
 4124SOL    HW213272   4.593   6.001   2.622
 4125SOL     OW13273   4.254   1.939   1.720
 4125SOL    HW113274   4.232   1.867   1.786
 4125SOL    HW213275   4.236   1.905   1.628
 4126SOL     OW13276   1.638   3.838   4.641
 4126SOL    HW113277   1.702   3.915   4.648
 4126SOL    HW213278   1.672   3.773   4.573
 4127SOL     OW13279   5.344   5.028   3.702
 4127SOL    HW113280   5.287   4.946   3.700
 4127SOL    HW213281   5.376   5.044   3.796
 4128SOL     OW13282   6.709   1.680   1.793
 4128SOL    HW113283   6.626   1.709   1.744
 4128SOL    HW213284   6.695   1.690   1.891
 4129SOL     OW13285   0.141   3.015   0.179
 4129SOL    HW113286   0.235   3.015   0.146
 4129SOL    HW213287   0.109   2.921   0.189
 4130SOL     OW13288   6.251   2.548   1.434
 4130SOL    HW113289   6.163   2.513   1.403
 4130SOL    HW213290   6.269   2.517   1.528
 4131SOL     OW13291   6.693   4.063   3.437
 4131SOL    HW113292   6.719   4.076   3.342
 4131SOL    HW213293   6.713   3.969   3.465
 4132SOL     OW13294   4.875   1.284   4.234
 4132SOL    HW113295   4.901   1.240   4.149
 4132SOL    HW213296   4.867   1.382   4.220
 4133SOL     OW13297   2.329   3.045   0.629
 4133SOL    HW113298   2.230   3.033   0.637
 4133SOL    HW213299   2.374   2.997   0.704
 4134SOL     OW13300   2.078   1.572   6.938
 4134SOL    HW113301   2.148   1.580   7.010
 4134SOL    HW213302   2.119   1.532   6.857
 4135SOL     OW13303   1.157   0.598   0.743
 4135SOL    HW113304   1.135   0.509   0.784
 4135SOL    HW213305   1.151   0.669   0.813
 4136SOL     OW13306   1.695   2.155   3.516
 4136SOL    HW113307   1.670   2.105   3.433
 4136SOL    HW213308   1.764   2.102   3.567
 4137SOL     OW13309   3.993   3.191   5.192
 4137SOL    HW113310   3.955   3.099   5.200
 4137SOL    HW213311   4.070   3.201   5.255
 4138SOL     OW13312   4.957   5.321   1.120
 4138SOL    HW113313   4.916   5.232   1.138
 4138SOL    HW213314   4.889   5.393   1.133
 4139SOL     OW13315   3.525   1.714   6.955
 4139SOL    HW113316   3.460   1.722   0.005
 4139SOL    HW213317   3.615   1.743   6.986
 4140SOL     OW13318   4.445   2.185   4.865
 4140SOL    HW113319   4.435   2.214   4.769
 4140SOL    HW213320   4.461   2.265   4.922
 4141SOL     OW13321   5.027   6.053   0.948
 4141SOL    HW113322   5.014   5.971   0.893
 4141SOL    HW213323   5.071   6.124   0.892
 4142SOL     OW13324   6.130   3.011   2.253
 4142SOL    HW113325   6.148   3.034   2.349
 4142SOL    HW213326   6.056   3.068   2.218
 4143SOL     OW13327   1.849   2.449   1.847
 4143SOL    HW113328   1.907   2.465   1.767
 4143SOL    HW213329   1.848   2.532   1.904
 4144SOL     OW13330   4.432   0.728   2.342
 4144SOL    HW113331   4.343   0.769   2.365
 4144SOL    HW213332   4.468   0.681   2.423
 4145SOL     OW13333   2.859   0.379   2.986
 4145SOL    HW113334   2.788   0.381   3.056
 4145SOL    HW213335   2.817   0.390   2.896
 4146SOL     OW13336   5.018   4.603   0.577
 4146SOL    HW113337   5.094   4.668   0.571
 4146SOL    HW213338   5.011   4.569   0.671
 4147SOL     OW13339   2.545   1.207   6.017
 4147SOL    HW113340   2.536   1.138   5.946
 4147SOL    HW213341   2.602   1.172   6.091
 4148SOL     OW13342   6.988   6.720   2.252
 4148SOL    HW113343   0.007   6.663   2.183
 4148SOL    HW213344   6.972   6.665   2.334
 4149SOL     OW13345   4.528   4.433   2.295
 4149SOL    HW113346   4.506   4.340   2.264
 4149SOL    HW213347   4.618   4.459   2.262
 4150SOL     OW13348   3.583   0.426   4.305
 4150SOL    HW113349   3.510   0.455   4.243
 4150SOL    HW213350   3.585   0.487   4.384
 4151SOL     OW13351   0.422   5.573   0.516
 4151SOL    HW113352   0.496   5.519   0.476
 4151SOL    HW213353   0.407   5.655   0.460
 4152SOL     OW13354   3.601   4.146   0.807
 4152SOL    HW113355   3.634   4.237   0.781
 4152SOL    HW213356   3.651   4.114   0.887
 4153SOL     OW13357   6.082   6.130   6.762
 4153SOL    HW113358   6.087   6.141   6.663
 4153SOL    HW213359   6.076   6.219   6.806
 4154SOL     OW13360   4.372   2.222   4.585
 4154SOL    HW113361   4.374   2.258   4.492
 4154SOL    HW213362   4.358   2.123   4.583
 4155SOL     OW13363   1.314   3.266   0.929
 4155SOL    HW113364   1.261   3.263   0.845
 4155SOL    HW213365   1.289   3.347   0.982
 4156SOL     OW13366   5.759   1.138   5.467
 4156SOL    HW113367   5.806   1.216   5.426
 4156SOL    HW213368   5.776   1.137   5.566
 4157SOL     OW13369   3.875   0.997   3.839
 4157SOL    HW113370   3.950   0.967   3.898
 4157SOL    HW213371   3.871   1.097   3.840
 4158SOL     OW13372   0.560   0.103   3.255
 4158SOL    HW113373   0.600   0.074   3.168
 4158SOL    HW213374   0.482   0.163   3.237
 4159SOL     OW13375   0.937   5.029   5.203
 4159SOL    HW113376   0.992   4.991   5.277
 4159SOL    HW213377   0.926   4.961   5.131
 4160SOL     OW13378   6.065   1.061   1.560
 4160SOL    HW113379   5.975   1.074   1.519
 4160SOL    HW213380   6.097   1.147   1.599
 4161SOL     OW13381   6.265   1.423   1.983
 4161SOL    HW113382   6.297   1.330   1.964
 4161SOL    HW213383   6.189   1.420   2.047
 4162SOL     OW13384   0.359   0.039   4.458
 4162SOL    HW113385   0.294   0.011   4.529
 4162SOL    HW213386   0.393   6.985   4.410
 4163SOL     OW13387   1.075   2.101   5.612
 4163SOL    HW113388   1.005   2.083   5.543
 4163SOL    HW213389   1.152   2.149   5.570
 4164SOL     OW13390   2.280   0.142   5.339
 4164SOL    HW113391   2.322   0.120   5.427
 4164SOL    HW213392   2.300   0.237   5.316
 4165SOL     OW13393   0.471   6.005   1.741
 4165SOL    HW113394   0.425   5.926   1.780
 4165SOL    HW213395   0.567   5.984   1.725
 4166SOL     OW13396   6.641   1.770   2.657
 4166SOL    HW113397   6.665   1.673   2.665
 4166SOL    HW213398   6.634   1.811   2.749
 4167SOL     OW13399   1.318   2.605   0.988
 4167SOL    HW113400   1.302   2.529   1.051
 4167SOL    HW213401   1.236   2.623   0.935
 4168SOL     OW13402   2.399   5.939   0.844
 4168SOL    HW113403   2.428   5.859   0.896
 4168SOL    HW213404   2.418   5.925   0.747
 4169SOL     OW13405   6.288   3.293   6.790
 4169SOL    HW113406   6.247   3.358   6.854
 4169SOL    HW213407   6.299   3.336   6.700
 4170SOL     OW13408   3.251   1.032   5.358
 4170SOL    HW113409   3.303   1.117   5.356
 4170SOL    HW213410   3.173   1.042   5.420
 4171SOL     OW13411   6.802   2.802   1.638
 4171SOL    HW113412   6.705   2.784   1.621
 4171SOL    HW213413   6.828   2.889   1.595
 4172SOL     OW13414   2.589   0.284   0.771
 4172SOL    HW113415   2.498   0.321   0.751
 4172SOL    HW213416   2.589   0.186   0.754
 4173SOL     OW13417   4.369   4.131   5.522
 4173SOL    HW113418   4.299   4.070   5.484
 4173SOL    HW213419   4.328   4.188   5.593
 4174SOL     OW13420   4.408   1.083   3.602
 4174SOL    HW113421   4.382   0.988   3.584
 4174SOL    HW213422   4.416   1.132   3.515
 4175SOL     OW13423   2.576   1.037   2.007
 4175SOL    HW113424   2.593   1.106   2.077
 4175SOL    HW213425   2.477   1.019   2.002
 4176SOL     OW13426   5.741   4.922   2.832
 4176SOL    HW113427   5.705   4.848   2.776
 4176SOL    HW213428   5.815   4.887   2.890
 4177SOL     OW13429   0.561   5.964   2.972
 4177SOL    HW113430   0.646   5.921   3.005
 4177SOL    HW213431   0.485   5.900   2.983
 4178SOL     OW13432   3.947   2.703   5.303
 4178SOL    HW113433   3.860   2.662   5.330
 4178SOL    HW213434   3.995   2.642   5.241
 4179SOL     OW13435   0.282   1.610   0.268
 4179SOL    HW113436   0.332   1.681   0.318
 4179SOL    HW213437   0.190   1.601   0.306
 4180SOL     OW13438   6.068   4.073   1.799
 4180SOL    HW113439   6.053   4.006   1.727
 4180SOL    HW213440   6.136   4.038   1.863
 4181SOL     OW13441   5.501   0.848   6.817
 4181SOL    HW113442   5.505   0.924   6.752
 4181SOL    HW213443   5.408   0.811   6.820
 4182SOL     OW13444   6.161   0.770   4.159
 4182SOL    HW113445   6.079   0.713   4.156
 4182SOL    HW213446   6.134   0.867   4.159
 4183SOL     OW13447   0.500   0.941   1.554
 4183SOL    HW113448   0.532   0.988   1.636
 4183SOL    HW213449   0.404   0.964   1.538
 4184SOL     OW13450   4.248   4.571   6.256
 4184SOL    HW113451   4.295   4.634   6.194
 4184SOL    HW213452   4.149   4.585   6.249
 4185SOL     OW13453   0.088   1.190   4.619
 4185SOL    HW113454   0.120   1.246   4.543
 4185SOL    HW213455   0.166   1.151   4.667
 4186SOL     OW13456   2.940   3.436   1.852
 4186SOL    HW113457   3.027   3.471   1.886
 4186SOL    HW213458   2.865   3.479   1.901
 4187SOL     OW13459   4.754   5.163   5.745
 4187SOL    HW113460   4.757   5.209   5.834
 4187SOL    HW213461   4.763   5.230   5.672
 4188SOL     OW13462   5.404   5.873   2.698
 4188SOL    HW113463   5.390   5.860   2.600
 4188SOL    HW213464   5.326   5.922   2.737
 4189SOL     OW13465   1.373   3.433   3.293
 4189SOL    HW113466   1.468   3.462   3.287
 4189SOL    HW213467   1.353   3.368   3.220
 4190SOL     OW13468   2.115   6.307   1.691
 4190SOL    HW113469   2.129   6.377   1.621
 4190SOL    HW213470   2.028   6.260   1.675
 4191SOL     OW13471   0.498   1.953   3.811
 4191SOL    HW113472   0.595   1.974   3.799
 4191SOL    HW213473   0.478   1.862   3.774
 4192SOL     OW13474   6.082   5.827   4.013
 4192SOL    HW113475   6.072   5.903   4.077
 4192SOL    HW213476   6.021   5.841   3.935
 4193SOL     OW13477   1.297   6.393   3.683
 4193SOL    HW113478   1.371   6.452   3.650
 4193SOL    HW213479   1.230   6.380   3.610
 4194SOL     OW13480   4.737   0.311   3.389
 4194SOL    HW113481   4.686   0.244   3.336
 4194SOL    HW213482   4.832   0.281   3.398
 4195SOL     OW13483   4.468   0.469   3.295
 4195SOL    HW113484   4.565   0.451   3.312
 4195SOL    HW213485   4.454   0.567   3.279
 4196SOL     OW13486   5.384   2.395   3.663
 4196SOL    HW113487   5.301   2.426   3.709
 4196SOL    HW213488   5.454   2.372   3.731
 4197SOL     OW13489   5.499   4.565   4.395
 4197SOL    HW113490   5.421   4.626   4.406
 4197SOL    HW213491   5.469   4.480   4.352
 4198SOL     OW13492   6.506   3.767   5.986
 4198SOL    HW113493   6.437   3.702   5.955
 4198SOL    HW213494   6.585   3.718   6.022
 4199SOL     OW13495   2.963   4.194   6.211
 4199SOL    HW113496   2.944   4.237   6.122
 4199SOL    HW213497   2.931   4.099   6.209
 4200SOL     OW13498   2.653   0.432   5.180
 4200SOL    HW113499   2.604   0.345   5.170
 4200SOL    HW213500   2.675   0.468   5.090
 4201SOL     OW13501   6.349   6.756   4.622
 4201SOL    HW113502   6.261   6.718   4.592
 4201SOL    HW213503   6.400   6.687   4.673
 4202SOL     OW13504   5.827   3.616   5.130
 4202SOL    HW113505   5.909   3.606   5.186
 4202SOL    HW213506   5.779   3.700   5.156
 4203SOL     OW13507   3.195   5.724   4.498
 4203SOL    HW113508   3.144   5.639   4.492
 4203SOL    HW213509   3.157   5.790   4.433
 4204SOL     OW13510   1.656   3.903   6.956
 4204SOL    HW113511   1.590   3.883   6.884
 4204SOL    HW213512   1.614   3.884   0.019
 4205SOL     OW13513   2.482   0.114   3.688
 4205SOL    HW113514   2.433   0.201   3.688
 4205SOL    HW213515   2.423   0.042   3.650
 4206SOL     OW13516   4.701   6.141   3.037
 4206SOL    HW113517   4.666   6.123   3.129
 4206SOL    HW213518   4.654   6.221   2.999
 4207SOL     OW13519   2.240   6.536   6.950
 4207SOL    HW113520   2.169   6.467   6.941
 4207SOL    HW213521   2.226   6.588   0.008
 4208SOL     OW13522   0.967   1.455   2.196
 4208SOL    HW113523   0.905   1.484   2.268
 4208SOL    HW213524   0.992   1.359   2.210
 4209SOL     OW13525   2.082   0.673   5.672
 4209SOL    HW113526   2.063   0.582   5.634
 4209SOL    HW213527   2.181   0.690   5.669
 4210SOL     OW13528   3.544   3.323   0.460
 4210SOL    HW113529   3.596   3.407   0.477
 4210SOL    HW213530   3.605   3.254   0.420
 4211SOL     OW13531   6.931   3.385   4.216
 4211SOL    HW113532   6.974   3.397   4.305
 4211SOL    HW213533   6.996   3.408   4.144
 4212SOL     OW13534   5.797   6.627   1.613
 4212SOL    HW113535   5.772   6.685   1.690
 4212SOL    HW213536   5.730   6.638   1.540
 4213SOL     OW13537   0.983   0.757   1.155
 4213SOL    HW113538   1.062   0.798   1.200
 4213SOL    HW213539   0.961   0.669   1.197
 4214SOL     OW13540   3.601   5.261   3.548
 4214SOL    HW113541   3.699   5.248   3.533
 4214SOL    HW213542   3.586   5.344   3.602
 4215SOL     OW13543   1.961   5.884   0.263
 4215SOL    HW113544   2.029   5.903   0.334
 4215SOL    HW213545   1.907   5.805   0.290
 4216SOL     OW13546   2.067   2.611   5.411
 4216SOL    HW113547   2.020   2.635   5.326
 4216SOL    HW213548   2.134   2.683   5.433
 4217SOL     OW13549   6.157   0.602   4.437
 4217SOL    HW113550   6.080   0.635   4.381
 4217SOL    HW213551   6.158   0.652   4.524
 4218SOL     OW13552   2.871   5.715   2.595
 4218SOL    HW113553   2.886   5.705   2.693
 4218SOL    HW213554   2.958   5.727   2.548
 4219SOL     OW13555   5.367   0.628   2.563
 4219SOL    HW113556   5.275   0.589   2.555
 4219SOL    HW213557   5.381   0.663   2.655
 4220SOL     OW13558   1.037   4.595   2.872
 4220SOL    HW113559   0.994   4.676   2.832
 4220SOL    HW213560   1.025   4.595   2.971
 4221SOL     OW13561   5.456   5.887   5.860
 4221SOL    HW113562   5.462   5.983   5.834
 4221SOL    HW213563   5.546   5.855   5.890
 4222SOL     OW13564   2.374   3.101   0.364
 4222SOL    HW113565   2.340   3.082   0.456
 4222SOL    HW213566   2.422   3.021   0.329
 4223SOL     OW13567   3.816   3.956   2.900
 4223SOL    HW113568   3.740   4.005   2.941
 4223SOL    HW213569   3.833   3.872   2.952
 4224SOL     OW13570   3.382   2.183   5.206
 4224SOL    HW113571   3.305   2.243   5.184
 4224SOL    HW213572   3.361   2.129   5.287
 4225SOL     OW13573   5.105   6.343   4.349
 4225SOL    HW113574   5.058   6.309   4.268
 4225SOL    HW213575   5.083   6.284   4.427
 4226SOL     OW13576   2.480   2.124   1.935
 4226SOL    HW113577   2.489   2.187   2.013
 4226SOL    HW213578   2.459   2.032   1.969
 4227SOL     OW13579   5.919   3.737   7.002
 4227SOL    HW113580   5.948   3.690   6.919
 4227SOL    HW213581   5.833   3.697   0.009
 4228SOL     OW13582   4.288   5.613   2.931
 4228SOL    HW113583   4.369   5.605   2.873
 4228SOL    HW213584   4.268   5.710   2.948
 4229SOL     OW13585   4.186   4.801   4.548
 4229SOL    HW113586   4.193   4.797   4.648
 4229SOL    HW213587   4.278   4.812   4.509
 4230SOL     OW13588   1.709   1.028   4.769
 4230SOL    HW113589   1.712   0.951   4.832
 4230SOL    HW213590   1.658   1.103   4.810
 4231SOL     OW13591   3.720   6.768   6.641
 4231SOL    HW113592   3.785   6.698   6.610
 4231SOL    HW213593   3.733   6.785   6.738
 4232SOL     OW13594   2.270   4.047   1.852
 4232SOL    HW113595   2.351   4.036   1.794
 4232SOL    HW213596   2.222   3.960   1.858
 4233SOL     OW13597   4.507   4.663   0.960
 4233SOL    HW113598   4.468   4.572   0.970
 4233SOL    HW213599   4.443   4.722   0.911
 4234SOL     OW13600   3.599   4.271   6.198
 4234SOL    HW113601   3.559   4.275   6.106
 4234SOL    HW213602   3.694   4.301   6.194
 4235SOL     OW13603   0.484   3.807   4.872
 4235SOL    HW113604   0.531   3.756   4.943
 4235SOL    HW213605   0.486   3.905   4.895
 4236SOL     OW13606   1.009   3.218   3.959
 4236SOL    HW113607   1.036   3.133   4.004
 4236SOL    HW213608   0.910   3.217   3.943
 4237SOL     OW13609   5.229   3.699   5.173
 4237SOL    HW113610   5.156   3.635   5.152
 4237SOL    HW213611   5.220   3.730   5.268
 4238SOL     OW13612   5.014   4.755   4.940
 4238SOL    HW113613   4.996   4.839   4.991
 4238SOL    HW213614   5.072   4.695   4.995
 4239SOL     OW13615   5.834   4.547   5.232
 4239SOL    HW113616   5.785   4.633   5.247
 4239SOL    HW213617   5.892   4.528   5.311
 4240SOL     OW13618   2.807   4.210   5.755
 4240SOL    HW113619   2.778   4.169   5.669
 4240SOL    HW213620   2.737   4.192   5.825
 4241SOL     OW13621   3.122   2.468   0.065
 4241SOL    HW113622   3.215   2.432   0.069
 4241SOL    HW213623   3.065   2.420   0.131
 4242SOL     OW13624   2.709   0.327   1.823
 4242SOL    HW113625   2.805   0.344   1.844
 4242SOL    HW213626   2.695   0.229   1.809
 4243SOL     OW13627   2.087   1.755   1.900
 4243SOL    HW113628   2.137   1.699   1.833
 4243SOL    HW213629   2.054   1.696   1.974
 4244SOL     OW13630   2.627   6.864   0.448
 4244SOL    HW113631   2.591   6.916   0.525
 4244SOL    HW213632   2.552   6.827   0.394
 4245SOL     OW13633   6.531   1.512   1.594
 4245SOL    HW113634   6.509   1.442   1.663
 4245SOL    HW213635   6.626   1.540   1.604
 4246SOL     OW13636   3.750   2.155   3.164
 4246SOL    HW113637   3.836   2.172   3.114
 4246SOL    HW213638   3.697   2.239   3.168
 4247SOL     OW13639   2.362   5.037   6.138
 4247SOL    HW113640   2.369   4.990   6.226
 4247SOL    HW213641   2.368   4.971   6.064
 4248SOL     OW13642   3.225   6.238   1.539
 4248SOL    HW113643   3.162   6.252   1.615
 4248SOL    HW213644   3.174   6.210   1.458
 4249SOL     OW13645   6.092   1.061   5.265
 4249SOL    HW113646   6.117   1.156   5.243
 4249SOL    HW213647   6.112   1.043   5.361
 4250SOL     OW13648   1.074   5.405   4.750
 4250SOL    HW113649   0.995   5.357   4.787
 4250SOL    HW213650   1.157   5.357   4.776
 4251SOL     OW13651   4.524   1.916   5.776
 4251SOL    HW113652   4.622   1.899   5.788
 4251SOL    HW213653   4.477   1.899   5.863
 4252SOL     OW13654   0.801   6.534   6.775
 4252SOL    HW113655   0.853   6.619   6.776
 4252SOL    HW213656   0.721   6.545   6.716
 4253SOL     OW13657   3.018   6.869   2.475
 4253SOL    HW113658   3.092   6.873   2.407
 4253SOL    HW213659   3.047   6.813   2.552
 4254SOL     OW13660   0.842   0.716   4.243
 4254SOL    HW113661   0.858   0.787   4.175
 4254SOL    HW213662   0.746   0.687   4.239
 4255SOL     OW13663   1.809   2.866   4.424
 4255SOL    HW113664   1.873   2.893   4.496
 4255SOL    HW213665   1.827   2.772   4.396
 4256SOL     OW13666   5.922   6.414   1.080
 4256SOL    HW113667   6.007   6.466   1.077
 4256SOL    HW213668   5.941   6.321   1.111
 4257SOL     OW13669   0.103   1.304   2.728
 4257SOL    HW113670   0.099   1.248   2.811
 4257SOL    HW213671   0.164   1.382   2.743
 4258SOL     OW13672   2.308   6.812   0.719
 4258SOL    HW113673   2.353   6.757   0.790
 4258SOL    HW213674   2.213   6.830   0.747
 4259SOL     OW13675   1.408   0.892   0.705
 4259SOL    HW113676   1.317   0.903   0.667
 4259SOL    HW213677   1.409   0.925   0.799
 4260SOL     OW13678   0.197   0.657   5.504
 4260SOL    HW113679   0.176   0.569   5.546
 4260SOL    HW213680   0.141   0.728   5.547
 4261SOL     OW13681   1.466   6.966   2.854
 4261SOL    HW113682   1.565   6.979   2.844
 4261SOL    HW213683   1.424   0.026   2.885
 4262SOL     OW13684   1.439   3.736   5.246
 4262SOL    HW113685   1.470   3.775   5.159
 4262SOL    HW213686   1.366   3.793   5.283
 4263SOL     OW13687   3.241   0.479   2.398
 4263SOL    HW113688   3.188   0.512   2.320
 4263SOL    HW213689   3.337   0.505   2.386
 4264SOL     OW13690   4.395   2.108   6.379
 4264SOL    HW113691   4.492   2.101   6.405
 4264SOL    HW213692   4.347   2.165   6.446
 4265SOL     OW13693   3.475   5.804   6.145
 4265SOL    HW113694   3.455   5.895   6.111
 4265SOL    HW213695   3.413   5.783   6.221
 4266SOL     OW13696   1.322   3.646   2.389
 4266SOL    HW113697   1.320   3.746   2.398
 4266SOL    HW213698   1.384   3.621   2.316
 4267SOL     OW13699   1.611   3.189   3.491
 4267SOL    HW113700   1.584   3.172   3.397
 4267SOL    HW213701   1.542   3.245   3.537
 4268SOL     OW13702   1.246   4.244   4.969
 4268SOL    HW113703   1.318   4.298   4.926
 4268SOL    HW213704   1.270   4.226   5.064
 4269SOL     OW13705   2.813   2.036   4.573
 4269SOL    HW113706   2.739   2.052   4.507
 4269SOL    HW213707   2.829   1.938   4.581
 4270SOL     OW13708   3.953   4.300   0.953
 4270SOL    HW113709   3.910   4.374   1.004
 4270SOL    HW213710   3.926   4.212   0.992
 4271SOL     OW13711   5.845   6.530   0.042
 4271SOL    HW113712   5.775   6.597   0.016
 4271SOL    HW213713   5.928   6.578   0.072
 4272SOL     OW13714   6.554   1.997   5.709
 4272SOL    HW113715   6.509   1.912   5.738
 4272SOL    HW213716   6.608   1.979   5.626
 4273SOL     OW13717   3.574   6.352   3.152
 4273SOL    HW113718   3.600   6.274   3.208
 4273SOL    HW213719   3.568   6.325   3.056
 4274SOL     OW13720   5.864   0.790   1.953
 4274SOL    HW113721   5.863   0.840   2.039
 4274SOL    HW213722   5.931   0.716   1.959
 4275SOL     OW13723   5.959   1.661   4.229
 4275SOL    HW113724   5.938   1.756   4.251
 4275SOL    HW213725   5.987   1.654   4.133
 4276SOL     OW13726   2.338   0.546   2.780
 4276SOL    HW113727   2.338   0.642   2.751
 4276SOL    HW213728   2.369   0.488   2.704
 4277SOL     OW13729   6.378   4.820   2.872
 4277SOL    HW113730   6.284   4.794   2.853
 4277SOL    HW213731   6.380   4.913   2.910
 4278SOL     OW13732   0.189   0.092   1.741
 4278SOL    HW113733   0.132   0.019   1.778
 4278SOL    HW213734   0.140   0.138   1.667
 4279SOL     OW13735   1.436   3.753   2.848
 4279SOL    HW113736   1.472   3.741   2.941
 4279SOL    HW213737   1.380   3.835   2.845
 4280SOL     OW13738   2.401   0.175   5.601
 4280SOL    HW113739   2.493   0.136   5.605
 4280SOL    HW213740   2.340   0.123   5.661
 4281SOL     OW13741   6.669   6.867   2.648
 4281SOL    HW113742   6.671   6.852   2.549
 4281SOL    HW213743   6.698   6.783   2.695
 4282SOL     OW13744   5.286   4.705   2.348
 4282SOL    HW113745   5.229   4.714   2.267
 4282SOL    HW213746   5.381   4.724   2.324
 4283SOL     OW13747   0.336   2.233   5.540
 4283SOL    HW113748   0.288   2.267   5.460
 4283SOL    HW213749   0.286   2.259   5.623
 4284SOL     OW13750   4.712   6.214   0.069
 4284SOL    HW113751   4.763   6.200   0.153
 4284SOL    HW213752   4.770   6.260   0.002
 4285SOL     OW13753   3.087   1.361   5.815
 4285SOL    HW113754   2.996   1.331   5.843
 4285SOL    HW213755   3.097   1.351   5.716
 4286SOL     OW13756   5.073   6.946   6.363
 4286SOL    HW113757   4.983   6.978   6.395
 4286SOL    HW213758   5.140   6.961   6.436
 4287SOL     OW13759   4.874   0.281   1.010
 4287SOL    HW113760   4.921   0.239   0.932
 4287SOL    HW213761   4.829   0.365   0.980
 4288SOL     OW13762   6.077   6.298   2.597
 4288SOL    HW113763   6.128   6.344   2.670
 4288SOL    HW213764   6.082   6.199   2.611
 4289SOL     OW13765   0.335   5.298   6.038
 4289SOL    HW113766   0.407   5.266   5.975
 4289SOL    HW213767   0.248   5.258   6.012
 4290SOL     OW13768   0.170   0.797   2.885
 4290SOL    HW113769   0.249   0.824   2.830
 4290SOL    HW213770   0.143   0.704   2.860
 4291SOL     OW13771   4.828   4.942   5.454
 4291SOL    HW113772   4.800   4.858   5.407
 4291SOL    HW213773   4.908   4.923   5.510
 4292SOL     OW13774   6.306   0.597   0.168
 4292SOL    HW113775   6.222   0.648   0.183
 4292SOL    HW213776   6.356   0.637   0.091
 4293SOL     OW13777   4.102   2.073   5.983
 4293SOL    HW113778   4.163   2.109   6.053
 4293SOL    HW213779   4.075   1.979   6.006
 4294SOL     OW13780   2.762   1.934   0.156
 4294SOL    HW113781   2.676   1.980   0.178
 4294SOL    HW213782   2.746   1.836   0.143
 4295SOL     OW13783   4.148   0.220   2.561
 4295SOL    HW113784   4.191   0.132   2.579
 4295SOL    HW213785   4.172   0.285   2.633
 4296SOL     OW13786   1.697   5.423   2.086
 4296SOL    HW113787   1.623   5.359   2.063
 4296SOL    HW213788   1.681   5.510   2.039
 4297SOL     OW13789   5.016   4.221   6.800
 4297SOL    HW113790   5.023   4.275   6.717
 4297SOL    HW213791   5.095   4.159   6.806
 4298SOL     OW13792   1.310   6.176   0.528
 4298SOL    HW113793   1.376   6.120   0.477
 4298SOL    HW213794   1.217   6.146   0.508
 4299SOL     OW13795   0.228   3.843   0.040
 4299SOL    HW113796   0.149   3.835   7.005
 4299SOL    HW213797   0.209   3.913   0.108
 4300SOL     OW13798   3.673   0.816   2.343
 4300SOL    HW113799   3.637   0.895   2.294
 4300SOL    HW213800   3.650   0.732   2.293
 4301SOL     OW13801   2.192   5.396   3.777
 4301SOL    HW113802   2.252   5.377   3.854
 4301SOL    HW213803   2.110   5.444   3.809
 4302SOL     OW13804   3.356   4.709   6.941
 4302SOL    HW113805   3.456   4.707   6.948
 4302SOL    HW213806   3.320   4.788   6.992
 4303SOL     OW13807   4.571   5.333   3.261
 4303SOL    HW113808   4.635   5.406   3.284
 4303SOL    HW213809   4.543   5.342   3.166
 4304SOL     OW13810   2.734   4.454   1.145
 4304SOL    HW113811   2.695   4.461   1.237
 4304SOL    HW213812   2.834   4.449   1.153
 4305SOL     OW13813   1.008   6.860   6.292
 4305SOL    HW113814   1.051   6.925   6.356
 4305SOL    HW213815   0.949   6.910   6.229
 4306SOL     OW13816   6.698   4.441   5.137
 4306SOL    HW113817   6.695   4.388   5.052
 4306SOL    HW213818   6.793   4.445   5.169
 4307SOL     OW13819   6.882   2.051   4.362
 4307SOL    HW113820   6.855   2.134   4.412
 4307SOL    HW213821   6.950   2.000   4.416
 4308SOL     OW13822   4.752   6.022   6.641
 4308SOL    HW113823   4.822   6.066   6.697
 4308SOL    HW213824   4.690   6.091   6.603
 4309SOL     OW13825   2.277   2.086   0.389
 4309SOL    HW113826   2.198   2.028   0.365
 4309SOL    HW213827   2.269   2.114   0.484
 4310SOL     OW13828   5.771   1.206   4.998
 4310SOL    HW113829   5.716   1.181   5.078
 4310SOL    HW213830   5.713   1.211   4.917
 4311SOL     OW13831   0.802   6.682   0.840
 4311SOL    HW113832   0.902   6.686   0.842
 4311SOL    HW213833   0.770   6.699   0.747
 4312SOL     OW13834   0.420   3.302   3.454
 4312SOL    HW113835   0.497   3.335   3.399
 4312SOL    HW213836   0.453   3.235   3.521
 4313SOL     OW13837   0.832   2.815   0.704
 4313SOL    HW113838   0.820   2.913   0.721
 4313SOL    HW213839   0.816   2.795   0.607
 4314SOL     OW13840   2.397   1.723   5.946
 4314SOL    HW113841   2.346   1.718   5.860
 4314SOL    HW213842   2.413   1.630   5.981
 4315SOL     OW13843   3.048   2.060   5.546
 4315SOL    HW113844   3.002   2.149   5.548
 4315SOL    HW213845   3.068   2.036   5.451
 4316SOL     OW13846   4.895   4.196   1.160
 4316SOL    HW113847   4.838   4.197   1.241
 4316SOL    HW213848   4.940   4.107   1.151
 4317SOL     OW13849   4.748   0.311   2.923
 4317SOL    HW113850   4.671   0.369   2.897
 4317SOL    HW213851   4.823   0.323   2.857
 4318SOL     OW13852   2.461   5.711   3.440
 4318SOL    HW113853   2.554   5.674   3.432
 4318SOL    HW213854   2.449   5.786   3.375
 4319SOL     OW13855   2.291   4.896   0.158
 4319SOL    HW113856   2.205   4.899   0.107
 4319SOL    HW213857   2.277   4.931   0.250
 4320SOL     OW13858   4.995   1.398   1.901
 4320SOL    HW113859   5.086   1.436   1.887
 4320SOL    HW213860   4.957   1.432   1.987
 4321SOL     OW13861   6.952   6.022   3.669
 4321SOL    HW113862   7.023   6.090   3.689
 4321SOL    HW213863   6.886   6.020   3.744
 4322SOL     OW13864   2.917   2.076   3.406
 4322SOL    HW113865   2.945   2.056   3.312
 4322SOL    HW213866   2.961   2.012   3.468
 4323SOL     OW13867   5.803   4.071   1.919
 4323SOL    HW113868   5.816   4.110   2.010
 4323SOL    HW213869   5.888   4.079   1.867
 4324SOL     OW13870   6.419   4.055   5.226
 4324SOL    HW113871   6.412   4.042   5.325
 4324SOL    HW213872   6.357   3.992   5.179
 4325SOL     OW13873   1.382   0.151   0.343
 4325SOL    HW113874   1.376   0.249   0.363
 4325SOL    HW213875   1.375   0.137   0.245
 4326SOL     OW13876   5.542   2.744   2.708
 4326SOL    HW113877   5.548   2.805   2.629
 4326SOL    HW213878   5.464   2.683   2.698
 4327SOL     OW13879   3.196   6.707   4.109
 4327SOL    HW113880   3.179   6.624   4.162
 4327SOL    HW213881   3.294   6.717   4.094
 4328SOL     OW13882   5.405   0.115   1.553
 4328SOL    HW113883   5.364   0.098   1.463
 4328SOL    HW213884   5.332   0.114   1.622
 4329SOL     OW13885   6.766   3.813   0.787
 4329SOL    HW113886   6.827   3.783   0.861
 4329SOL    HW213887   6.814   3.877   0.727
 4330SOL     OW13888   2.695   6.382   5.214
 4330SOL    HW113889   2.616   6.321   5.214
 4330SOL    HW213890   2.742   6.374   5.126
 4331SOL     OW13891   6.418   1.559   3.006
 4331SOL    HW113892   6.377   1.541   2.917
 4331SOL    HW213893   6.429   1.473   3.056
 4332SOL     OW13894   6.722   6.533   1.338
 4332SOL    HW113895   6.723   6.445   1.291
 4332SOL    HW213896   6.804   6.541   1.395
 4333SOL     OW13897   3.382   3.187   5.702
 4333SOL    HW113898   3.409   3.158   5.794
 4333SOL    HW213899   3.333   3.274   5.708
 4334SOL     OW13900   0.759   1.980   3.809
 4334SOL    HW113901   0.817   1.969   3.890
 4334SOL    HW213902   0.810   1.954   3.728
 4335SOL     OW13903   2.475   2.330   1.376
 4335SOL    HW113904   2.438   2.282   1.455
 4335SOL    HW213905   2.473   2.429   1.394
 4336SOL     OW13906   2.280   5.777   5.234
 4336SOL    HW113907   2.182   5.761   5.241
 4336SOL    HW213908   2.322   5.774   5.325
 4337SOL     OW13909   0.247   4.272   4.137
 4337SOL    HW113910   0.149   4.291   4.142
 4337SOL    HW213911   0.276   4.227   4.222
 4338SOL     OW13912   3.333   3.221   4.955
 4338SOL    HW113913   3.315   3.204   5.052
 4338SOL    HW213914   3.249   3.249   4.909
 4339SOL     OW13915   3.793   3.517   5.052
 4339SOL    HW113916   3.841   3.451   4.995
 4339SOL    HW213917   3.812   3.498   5.149
 4340SOL     OW13918   6.885   4.007   0.604
 4340SOL    HW113919   6.928   4.097   0.592
 4340SOL    HW213920   6.854   3.974   0.514
 4341SOL     OW13921   5.585   6.862   1.456
 4341SOL    HW113922   5.668   6.889   1.505
 4341SOL    HW213923   5.610   6.825   1.366
 4342SOL     OW13924   5.205   3.705   2.302
 4342SOL    HW113925   5.109   3.686   2.325
 4342SOL    HW213926   5.227   3.667   2.212
 4343SOL     OW13927   4.861   6.561   6.365
 4343SOL    HW113928   4.780   6.620   6.361
 4343SOL    HW213929   4.925   6.597   6.433
 4344SOL     OW13930   1.304   4.363   2.587
 4344SOL    HW113931   1.217   4.385   2.543
 4344SOL    HW213932   1.312   4.263   2.598
 4345SOL     OW13933   3.804   3.631   2.224
 4345SOL    HW113934   3.863   3.707   2.197
 4345SOL    HW213935   3.838   3.546   2.185
 4346SOL     OW13936   1.333   2.952   1.634
 4346SOL    HW113937   1.250   2.904   1.661
 4346SOL    HW213938   1.309   3.041   1.595
 4347SOL     OW13939   5.681   6.144   0.949
 4347SOL    HW113940   5.757   6.187   0.998
 4347SOL    HW213941   5.682   6.045   0.966
 4348SOL     OW13942   6.966   4.516   6.079
 4348SOL    HW113943   6.875   4.558   6.079
 4348SOL    HW213944   6.988   4.483   5.987
 4349SOL     OW13945   0.734   3.862   3.730
 4349SOL    HW113946   0.714   3.959   3.715
 4349SOL    HW213947   0.721   3.841   3.827
 4350SOL     OW13948   4.742   0.101   3.771
 4350SOL    HW113949   4.780   0.013   3.799
 4350SOL    HW213950   4.799   0.175   3.806
 4351SOL     OW13951   0.067   6.917   1.895
 4351SOL    HW113952   0.157   6.880   1.917
 4351SOL    HW213953   0.014   6.928   1.979
 4352SOL     OW13954   4.478   4.311   1.268
 4352SOL    HW113955   4.498   4.408   1.283
 4352SOL    HW213956   4.393   4.287   1.313
 4353SOL     OW13957   2.207   3.650   0.162
 4353SOL    HW113958   2.168   3.717   0.225
 4353SOL    HW213959   2.274   3.594   0.210
 4354SOL     OW13960   6.665   3.944   2.897
 4354SOL    HW113961   6.724   3.884   2.952
 4354SOL    HW213962   6.682   3.927   2.800
 4355SOL     OW13963   2.095   5.085   4.195
 4355SOL    HW113964   2.065   5.094   4.290
 4355SOL    HW213965   2.170   5.019   4.189
 4356SOL     OW13966   5.674   1.624   5.266
 4356SOL    HW113967   5.668   1.524   5.258
 4356SOL    HW213968   5.708   1.662   5.180
 4357SOL     OW13969   4.952   5.772   2.728
 4357SOL    HW113970   5.046   5.744   2.707
 4357SOL    HW213971   4.951   5.869   2.753
 4358SOL     OW13972   3.502   0.712   1.243
 4358SOL    HW113973   3.587   0.688   1.196
 4358SOL    HW213974   3.518   0.786   1.308
 4359SOL     OW13975   2.845   4.095   1.510
 4359SOL    HW113976   2.836   4.184   1.464
 4359SOL    HW213977   2.915   4.041   1.463
 4360SOL     OW13978   3.099   6.792   3.767
 4360SOL    HW113979   3.080   6.740   3.851
 4360SOL    HW213980   3.133   6.883   3.792
 4361SOL     OW13981   1.999   0.161   6.403
 4361SOL    HW113982   2.057   0.166   6.484
 4361SOL    HW213983   1.986   0.065   6.377
 4362SOL     OW13984   6.175   5.243   2.014
 4362SOL    HW113985   6.245   5.172   2.002
 4362SOL    HW213986   6.085   5.200   2.024
 4363SOL     OW13987   4.601   0.626   2.558
 4363SOL    HW113988   4.694   0.660   2.549
 4363SOL    HW213989   4.603   0.526   2.571
 4364SOL     OW13990   3.649   3.253   2.765
 4364SOL    HW113991   3.696   3.183   2.818
 4364SOL    HW213992   3.703   3.337   2.766
 4365SOL     OW13993   2.349   1.030   0.941
 4365SOL    HW113994   2.438   1.065   0.911
 4365SOL    HW213995   2.292   1.106   0.974
 4366SOL     OW13996   5.101   5.375   5.063
 4366SOL    HW113997   5.058   5.465   5.061
 4366SOL    HW213998   5.076   5.328   5.148
 4367SOL     OW13999   1.499   0.276   1.532
 4367SOL    HW114000   1.427   0.260   1.600
 4367SOL    HW214001   1.540   0.189   1.506
 4368SOL     OW14002   5.066   5.263   4.273
 4368SOL    HW114003   5.036   5.346   4.227
 4368SOL    HW214004   4.996   5.235   4.339
 4369SOL     OW14005   6.729   4.212   3.665
 4369SOL    HW114006   6.729   4.186   3.568
 4369SOL    HW214007   6.640   4.250   3.689
 4370SOL     OW14008   5.624   4.774   1.315
 4370SOL    HW114009   5.700   4.799   1.375
 4370SOL    HW214010   5.545   4.749   1.371
 4371SOL     OW14011   3.184   0.580   3.246
 4371SOL    HW114012   3.111   0.625   3.194
 4371SOL    HW214013   3.273   0.612   3.213
 4372SOL     OW14014   2.009   4.410   5.815
 4372SOL    HW114015   1.955   4.394   5.733
 4372SOL    HW214016   2.098   4.450   5.790
 4373SOL     OW14017   4.096   0.534   0.829
 4373SOL    HW114018   4.116   0.629   0.803
 4373SOL    HW214019   4.110   0.523   0.927
 4374SOL     OW14020   1.643   6.387   0.474
 4374SOL    HW114021   1.654   6.338   0.388
 4374SOL    HW214022   1.613   6.480   0.455
 4375SOL     OW14023   4.479   0.755   5.507
 4375SOL    HW114024   4.528   0.756   5.420
 4375SOL    HW214025   4.421   0.835   5.513
 4376SOL     OW14026   1.905   4.599   6.732
 4376SOL    HW114027   1.813   4.569   6.757
 4376SOL    HW214028   1.905   4.698   6.720
 4377SOL     OW14029   5.507   6.188   0.158
 4377SOL    HW114030   5.492   6.287   0.154
 4377SOL    HW214031   5.446   6.142   0.094
 4378SOL     OW14032   2.677   5.055   1.238
 4378SOL    HW114033   2.579   5.052   1.216
 4378SOL    HW214034   2.714   4.962   1.236
 4379SOL     OW14035   5.613   6.608   0.883
 4379SOL    HW114036   5.696   6.557   0.857
 4379SOL    HW214037   5.630   6.706   0.871
 4380SOL     OW14038   1.579   6.135   4.820
 4380SOL    HW114039   1.570   6.222   4.771
 4380SOL    HW214040   1.675   6.113   4.832
 4381SOL     OW14041   3.838   5.889   4.985
 4381SOL    HW114042   3.801   5.878   4.892
 4381SOL    HW214043   3.888   5.806   5.010
 4382SOL     OW14044   5.724   3.252   3.582
 4382SOL    HW114045   5.643   3.210   3.539
 4382SOL    HW214046   5.771   3.309   3.514
 4383SOL     OW14047   0.897   6.796   6.776
 4383SOL    HW114048   0.925   6.887   6.807
 4383SOL    HW214049   0.852   6.803   6.687
 4384SOL     OW14050   3.481   0.369   1.652
 4384SOL    HW114051   3.557   0.363   1.717
 4384SOL    HW214052   3.401   0.322   1.690
 4385SOL     OW14053   5.612   2.709   4.637
 4385SOL    HW114054   5.577   2.800   4.615
 4385SOL    HW214055   5.700   2.718   4.685
 4386SOL     OW14056   1.956   5.421   0.262
 4386SOL    HW114057   1.987   5.426   0.167
 4386SOL    HW214058   2.035   5.420   0.323
 4387SOL     OW14059   6.612   2.656   0.973
 4387SOL    HW114060   6.599   2.740   1.026
 4387SOL    HW214061   6.677   2.597   1.020
 4388SOL     OW14062   3.561   0.915   5.865
 4388SOL    HW114063   3.473   0.961   5.872
 4388SOL    HW214064   3.560   0.833   5.921
 4389SOL     OW14065   1.349   3.224   2.573
 4389SOL    HW114066   1.259   3.240   2.613
 4389SOL    HW214067   1.341   3.159   2.498
 4390SOL     OW14068   4.984   3.931   1.205
 4390SOL    HW114069   5.065   3.936   1.147
 4390SOL    HW214070   4.910   3.888   1.154
 4391SOL     OW14071   0.345   5.638   1.389
 4391SOL    HW114072   0.413   5.692   1.439
 4391SOL    HW214073   0.297   5.578   1.453
 4392SOL     OW14074   5.178   5.828   4.500
 4392SOL    HW114075   5.236   5.902   4.532
 4392SOL    HW214076   5.223   5.781   4.424
 4393SOL     OW14077   5.303   7.003   2.742
 4393SOL    HW114078   5.378   0.001   2.804
 4393SOL    HW214079   5.325   6.920   2.692
 4394SOL     OW14080   4.784   1.364   2.749
 4394SOL    HW114081   4.687   1.347   2.767
 4394SOL    HW214082   4.808   1.456   2.780
 4395SOL     OW14083   5.447   2.844   1.425
 4395SOL    HW114084   5.352   2.815   1.438
 4395SOL    HW214085   5.502   2.811   1.502
 4396SOL     OW14086   2.113   0.470   2.144
 4396SOL    HW114087   2.176   0.547   2.153
 4396SOL    HW214088   2.046   0.472   2.219
 4397SOL     OW14089   4.317   2.466   0.708
 4397SOL    HW114090   4.281   2.400   0.775
 4397SOL    HW214091   4.400   2.429   0.667
 4398SOL     OW14092   0.752   5.420   5.098
 4398SOL    HW114093   0.783   5.363   5.175
 4398SOL    HW214094   0.653   5.429   5.101
 4399SOL     OW14095   2.675   0.041   1.699
 4399SOL    HW114096   2.727   6.987   1.670
 4399SOL    HW214097   2.626   0.079   1.620
 4400SOL     OW14098   3.813   5.117   2.568
 4400SOL    HW114099   3.859   5.206   2.570
 4400SOL    HW214100   3.760   5.108   2.484
 4401SOL     OW14101   4.501   6.748   4.704
 4401SOL    HW114102   4.494   6.651   4.728
 4401SOL    HW214103   4.490   6.759   4.605
 4402SOL     OW14104   0.294   6.281   0.790
 4402SOL    HW114105   0.352   6.208   0.754
 4402SOL    HW214106   0.257   6.254   0.879
 4403SOL     OW14107   6.387   1.757   3.225
 4403SOL    HW114108   6.391   1.679   3.161
 4403SOL    HW214109   6.475   1.806   3.223
 4404SOL     OW14110   1.604   3.596   2.636
 4404SOL    HW114111   1.545   3.668   2.672
 4404SOL    HW214112   1.691   3.635   2.608
 4405SOL     OW14113   3.160   3.855   0.006
 4405SOL    HW114114   3.151   3.759   0.035
 4405SOL    HW214115   3.069   3.896   7.024
 4406SOL     OW14116   6.481   2.415   3.074
 4406SOL    HW114117   6.461   2.504   3.115
 4406SOL    HW214118   6.516   2.353   3.144
 4407SOL     OW14119   0.744   0.639   0.348
 4407SOL    HW114120   0.739   0.666   0.251
 4407SOL    HW214121   0.833   0.664   0.385
 4408SOL     OW14122   4.848   6.169   1.123
 4408SOL    HW114123   4.877   6.101   1.056
 4408SOL    HW214124   4.887   6.258   1.101
 4409SOL     OW14125   3.761   1.491   3.268
 4409SOL    HW114126   3.669   1.451   3.264
 4409SOL    HW214127   3.826   1.421   3.298
 4410SOL     OW14128   2.180   5.335   0.394
 4410SOL    HW114129   2.217   5.355   0.484
 4410SOL    HW214130   2.254   5.324   0.328
 4411SOL     OW14131   3.360   3.061   1.468
 4411SOL    HW114132   3.385   3.060   1.565
 4411SOL    HW214133   3.440   3.039   1.413
 4412SOL     OW14134   2.823   1.129   6.706
 4412SOL    HW114135   2.898   1.073   6.741
 4412SOL    HW214136   2.833   1.223   6.738
 4413SOL     OW14137   3.949   6.137   3.950
 4413SOL    HW114138   4.025   6.119   4.013
 4413SOL    HW214139   3.872   6.175   4.002
 4414SOL     OW14140   3.564   4.357   1.427
 4414SOL    HW114141   3.545   4.398   1.516
 4414SOL    HW214142   3.582   4.260   1.438
 4415SOL     OW14143   5.015   1.137   1.880
 4415SOL    HW114144   5.112   1.113   1.879
 4415SOL    HW214145   5.005   1.236   1.871
 4416SOL     OW14146   2.765   2.085   5.353
 4416SOL    HW114147   2.860   2.113   5.346
 4416SOL    HW214148   2.749   2.006   5.293
 4417SOL     OW14149   5.020   1.246   1.293
 4417SOL    HW114150   4.965   1.164   1.310
 4417SOL    HW214151   5.078   1.231   1.213
 4418SOL     OW14152   4.060   0.530   2.879
 4418SOL    HW114153   4.150   0.526   2.836
 4418SOL    HW214154   4.043   0.444   2.927
 4419SOL     OW14155   6.400   5.331   6.530
 4419SOL    HW114156   6.406   5.235   6.504
 4419SOL    HW214157   6.358   5.338   6.620
 4420SOL     OW14158   5.525   1.578   0.765
 4420SOL    HW114159   5.519   1.540   0.857
 4420SOL    HW214160   5.611   1.550   0.723
 4421SOL     OW14161   1.032   1.622   3.299
 4421SOL    HW114162   1.092   1.643   3.221
 4421SOL    HW214163   1.046   1.690   3.370
 4422SOL     OW14164   2.006   4.104   5.873
 4422SOL    HW114165   2.003   4.203   5.862
 4422SOL    HW214166   1.935   4.074   5.936
 4423SOL     OW14167   0.293   2.253   6.230
 4423SOL    HW114168   0.329   2.190   6.162
 4423SOL    HW214169   0.212   2.300   6.193
 4424SOL     OW14170   2.049   5.407   3.004
 4424SOL    HW114171   2.062   5.504   3.027
 4424SOL    HW214172   1.958   5.394   2.966
 4425SOL     OW14173   5.924   3.983   2.870
 4425SOL    HW114174   5.833   4.009   2.904
 4425SOL    HW214175   5.918   3.960   2.773
 4426SOL     OW14176   0.279   6.529   6.605
 4426SOL    HW114177   0.197   6.574   6.570
 4426SOL    HW214178   0.260   6.487   6.694
 4427SOL     OW14179   0.528   4.767   3.874
 4427SOL    HW114180   0.510   4.723   3.786
 4427SOL    HW214181   0.454   4.747   3.938
 4428SOL     OW14182   1.576   7.012   2.335
 4428SOL    HW114183   1.490   0.030   2.308
 4428SOL    HW214184   1.617   0.036   2.410
 4429SOL     OW14185   2.194   6.822   1.188
 4429SOL    HW114186   2.195   6.810   1.288
 4429SOL    HW214187   2.101   6.840   1.158
 4430SOL     OW14188   1.908   0.418   2.313
 4430SOL    HW114189   1.856   0.485   2.365
 4430SOL    HW214190   1.948   0.351   2.375
 4431SOL     OW14191   2.450   1.796   2.311
 4431SOL    HW114192   2.524   1.747   2.357
 4431SOL    HW214193   2.486   1.883   2.276
 4432SOL     OW14194   3.731   3.719   4.504
 4432SOL    HW114195   3.633   3.705   4.490
 4432SOL    HW214196   3.751   3.817   4.502
 4433SOL     OW14197   5.594   6.783   1.184
 4433SOL    HW114198   5.686   6.793   1.146
 4433SOL    HW214199   5.564   6.688   1.175
 4434SOL     OW14200   5.743   2.362   5.819
 4434SOL    HW114201   5.759   2.267   5.789
 4434SOL    HW214202   5.761   2.424   5.743
 4435SOL     OW14203   3.693   2.589   1.752
 4435SOL    HW114204   3.647   2.663   1.801
 4435SOL    HW214205   3.684   2.504   1.803
 4436SOL     OW14206   5.923   6.976   0.023
 4436SOL    HW114207   5.837   7.021   0.046
 4436SOL    HW214208   5.994   0.019   0.008
 4437SOL     OW14209   2.820   0.033   5.527
 4437SOL    HW114210   2.917   0.018   5.547
 4437SOL    HW214211   2.802   0.130   5.513
 4438SOL     OW14212   3.946   2.240   0.057
 4438SOL    HW114213   4.004   2.173   0.103
 4438SOL    HW214214   3.978   2.332   0.078
 4439SOL     OW14215   0.855   5.343   2.892
 4439SOL    HW114216   0.940   5.376   2.851
 4439SOL    HW214217   0.819   5.268   2.837
 4440SOL     OW14218   6.182   1.722   7.023
 4440SOL    HW114219   6.232   1.796   0.042
 4440SOL    HW214220   6.090   1.717   0.035
 4441SOL     OW14221   5.880   0.899   4.496
 4441SOL    HW114222   5.943   0.897   4.574
 4441SOL    HW214223   5.917   0.959   4.425
 4442SOL     OW14224   1.919   6.123   1.417
 4442SOL    HW114225   1.906   6.215   1.455
 4442SOL    HW214226   1.941   6.060   1.491
 4443SOL     OW14227   1.552   0.834   1.363
 4443SOL    HW114228   1.618   0.844   1.290
 4443SOL    HW214229   1.513   0.742   1.361
 4444SOL     OW14230   5.175   2.003   2.853
 4444SOL    HW114231   5.110   1.977   2.782
 4444SOL    HW214232   5.215   2.092   2.832
 4445SOL     OW14233   1.192   2.124   6.112
 4445SOL    HW114234   1.119   2.157   6.052
 4445SOL    HW214235   1.270   2.094   6.057
 4446SOL     OW14236   6.319   5.577   4.425
 4446SOL    HW114237   6.358   5.635   4.353
 4446SOL    HW214238   6.388   5.511   4.455
 4447SOL     OW14239   4.928   3.869   4.839
 4447SOL    HW114240   4.889   3.834   4.925
 4447SOL    HW214241   4.865   3.936   4.799
 4448SOL     OW14242   2.337   3.303   6.477
 4448SOL    HW114243   2.391   3.222   6.502
 4448SOL    HW214244   2.393   3.364   6.421
 4449SOL     OW14245   0.428   1.628   5.621
 4449SOL    HW114246   0.373   1.711   5.627
 4449SOL    HW214247   0.424   1.593   5.527
 4450SOL     OW14248   4.034   3.114   2.709
 4450SOL    HW114249   3.988   3.076   2.790
 4450SOL    HW214250   3.991   3.077   2.627
 4451SOL     OW14251   0.323   5.464   1.173
 4451SOL    HW114252   0.273   5.502   1.096
 4451SOL    HW214253   0.318   5.526   1.251
 4452SOL     OW14254   0.632   3.455   6.485
 4452SOL    HW114255   0.598   3.545   6.510
 4452SOL    HW214256   0.672   3.458   6.394
 4453SOL     OW14257   5.458   1.283   0.521
 4453SOL    HW114258   5.446   1.262   0.424
 4453SOL    HW214259   5.423   1.375   0.539
 4454SOL     OW14260   5.830   3.373   2.235
 4454SOL    HW114261   5.773   3.357   2.315
 4454SOL    HW214262   5.851   3.471   2.228
 4455SOL     OW14263   4.899   2.630   2.611
 4455SOL    HW114264   4.829   2.569   2.574
 4455SOL    HW214265   4.856   2.715   2.641
 4456SOL     OW14266   6.959   5.576   2.633
 4456SOL    HW114267   6.955   5.481   2.665
 4456SOL    HW214268   6.871   5.601   2.594
 4457SOL     OW14269   4.844   2.511   6.248
 4457SOL    HW114270   4.917   2.549   6.304
 4457SOL    HW214271   4.870   2.419   6.217
 4458SOL     OW14272   4.665   2.057   1.246
 4458SOL    HW114273   4.657   2.154   1.270
 4458SOL    HW214274   4.624   2.001   1.317
 4459SOL     OW14275   6.626   5.407   6.688
 4459SOL    HW114276   6.715   5.389   6.647
 4459SOL    HW214277   6.555   5.400   6.618
 4460SOL     OW14278   1.631   7.001   0.105
 4460SOL    HW114279   1.638   6.903   0.091
 4460SOL    HW214280   1.536   0.000   0.120
 4461SOL     OW14281   1.912   0.004   3.112
 4461SOL    HW114282   1.944   6.954   3.056
 4461SOL    HW214283   1.914   0.088   3.057
 4462SOL     OW14284   0.422   2.952   1.428
 4462SOL    HW114285   0.379   2.981   1.514
 4462SOL    HW214286   0.364   2.980   1.351
 4463SOL     OW14287   0.521   3.723   6.481
 4463SOL    HW114288   0.521   3.749   6.577
 4463SOL    HW214289   0.537   3.804   6.424
 4464SOL     OW14290   6.987   3.720   0.927
 4464SOL    HW114291   0.050   3.722   0.970
 4464SOL    HW214292   6.978   3.637   0.872
 4465SOL     OW14293   6.032   4.579   1.141
 4465SOL    HW114294   6.064   4.615   1.229
 4465SOL    HW214295   5.991   4.489   1.155
 4466SOL     OW14296   6.934   3.085   4.189
 4466SOL    HW114297   6.930   3.183   4.206
 4466SOL    HW214298   6.904   3.066   4.096
 4467SOL     OW14299   1.473   0.118   4.314
 4467SOL    HW114300   1.425   0.192   4.361
 4467SOL    HW214301   1.409   0.069   4.255
 4468SOL     OW14302   1.091   1.290   0.515
 4468SOL    HW114303   1.064   1.375   0.469
 4468SOL    HW214304   1.191   1.290   0.528
 4469SOL     OW14305   4.840   6.558   0.234
 4469SOL    HW114306   4.759   6.596   0.279
 4469SOL    HW214307   4.811   6.498   0.159
 4470SOL     OW14308   4.701   4.444   1.574
 4470SOL    HW114309   4.625   4.387   1.546
 4470SOL    HW214310   4.788   4.398   1.553
 4471SOL     OW14311   6.450   2.276   1.753
 4471SOL    HW114312   6.386   2.202   1.736
 4471SOL    HW214313   6.490   2.267   1.844
 4472SOL     OW14314   2.315   5.171   1.477
 4472SOL    HW114315   2.327   5.266   1.506
 4472SOL    HW214316   2.404   5.125   1.475
 4473SOL     OW14317   5.352   0.800   0.081
 4473SOL    HW114318   5.284   0.873   0.070
 4473SOL    HW214319   5.433   0.822   0.027
 4474SOL     OW14320   6.925   1.762   5.062
 4474SOL    HW114321   6.854   1.804   5.117
 4474SOL    HW214322   6.995   1.723   5.122
 4475SOL     OW14323   1.377   3.532   0.726
 4475SOL    HW114324   1.457   3.494   0.773
 4475SOL    HW214325   1.306   3.461   0.720
 4476SOL     OW14326   3.399   6.301   2.625
 4476SOL    HW114327   3.332   6.373   2.606
 4476SOL    HW214328   3.352   6.217   2.650
 4477SOL     OW14329   1.475   1.969   1.198
 4477SOL    HW114330   1.405   1.898   1.191
 4477SOL    HW214331   1.563   1.933   1.168
 4478SOL     OW14332   1.115   4.574   0.650
 4478SOL    HW114333   1.167   4.489   0.658
 4478SOL    HW214334   1.121   4.625   0.735
 4479SOL     OW14335   0.883   5.906   6.197
 4479SOL    HW114336   0.819   5.829   6.188
 4479SOL    HW214337   0.904   5.920   6.294
 4480SOL     OW14338   6.872   3.176   3.155
 4480SOL    HW114339   6.837   3.192   3.248
 4480SOL    HW214340   6.972   3.179   3.157
 4481SOL     OW14341   0.579   0.853   3.648
 4481SOL    HW114342   0.588   0.857   3.748
 4481SOL    HW214343   0.530   0.769   3.623
 4482SOL     OW14344   0.385   4.035   3.893
 4482SOL    HW114345   0.432   4.074   3.813
 4482SOL    HW214346   0.352   3.943   3.870
 4483SOL     OW14347   6.706   4.397   1.023
 4483SOL    HW114348   6.707   4.450   0.938
 4483SOL    HW214349   6.696   4.300   1.001
 4484SOL     OW14350   3.825   3.760   6.337
 4484SOL    HW114351   3.812   3.851   6.378
 4484SOL    HW214352   3.839   3.770   6.239
 4485SOL     OW14353   4.245   6.540   5.505
 4485SOL    HW114354   4.263   6.508   5.412
 4485SOL    HW214355   4.169   6.488   5.545
 4486SOL     OW14356   6.071   3.735   4.438
 4486SOL    HW114357   6.073   3.660   4.504
 4486SOL    HW214358   5.980   3.776   4.436
 4487SOL     OW14359   3.676   2.930   6.039
 4487SOL    HW114360   3.608   2.857   6.038
 4487SOL    HW214361   3.752   2.905   6.098
 4488SOL     OW14362   0.182   2.735   6.772
 4488SOL    HW114363   0.092   2.691   6.774
 4488SOL    HW214364   0.183   2.807   6.703
 4489SOL     OW14365   0.728   2.195   4.150
 4489SOL    HW114366   0.633   2.170   4.169
 4489SOL    HW214367   0.752   2.278   4.201
 4490SOL     OW14368   7.009   1.769   3.585
 4490SOL    HW114369   0.006   1.681   3.543
 4490SOL    HW214370   0.064   1.826   3.590
 4491SOL     OW14371   2.263   5.425   2.024
 4491SOL    HW114372   2.341   5.363   2.008
 4491SOL    HW214373   2.179   5.381   1.993
 4492SOL     OW14374   5.667   3.847   5.210
 4492SOL    HW114375   5.627   3.839   5.301
 4492SOL    HW214376   5.746   3.908   5.214
 4493SOL     OW14377   5.865   4.869   3.561
 4493SOL    HW114378   5.922   4.805   3.614
 4493SOL    HW214379   5.850   4.952   3.614
 4494SOL     OW14380   5.090   3.298   2.190
 4494SOL    HW114381   5.108   3.349   2.275
 4494SOL    HW214382   5.015   3.234   2.205
 4495SOL     OW14383   5.675   4.424   2.286
 4495SOL    HW114384   5.634   4.395   2.199
 4495SOL    HW214385   5.691   4.344   2.344
 4496SOL     OW14386   6.203   3.561   6.344
 4496SOL    HW114387   6.288   3.599   6.306
 4496SOL    HW214388   6.127   3.580   6.283
 4497SOL     OW14389   5.886   0.174   0.700
 4497SOL    HW114390   5.849   0.088   0.735
 4497SOL    HW214391   5.972   0.195   0.747
 4498SOL     OW14392   1.288   4.815   6.282
 4498SOL    HW114393   1.347   4.736   6.266
 4498SOL    HW214394   1.301   4.846   6.377
 4499SOL     OW14395   5.872   4.136   0.302
 4499SOL    HW114396   5.879   4.060   0.237
 4499SOL    HW214397   5.784   4.131   0.350
 4500SOL     OW14398   3.283   3.900   1.845
 4500SOL    HW114399   3.339   3.849   1.911
 4500SOL    HW214400   3.241   3.978   1.890
 4501SOL     OW14401   1.509   5.348   4.847
 4501SOL    HW114402   1.526   5.315   4.940
 4501SOL    HW214403   1.420   5.315   4.816
 4502SOL     OW14404   5.898   3.165   0.569
 4502SOL    HW114405   5.811   3.122   0.593
 4502SOL    HW214406   5.945   3.109   0.501
 4503SOL     OW14407   0.958   3.913   2.579
 4503SOL    HW114408   0.938   3.878   2.671
 4503SOL    HW214409   0.986   3.838   2.520
 4504SOL     OW14410   4.696   2.071   4.414
 4504SOL    HW114411   4.638   2.042   4.337
 4504SOL    HW214412   4.770   2.005   4.426
 4505SOL     OW14413   2.562   5.830   6.898
 4505SOL    HW114414   2.516   5.792   6.978
 4505SOL    HW214415   2.642   5.883   6.928
 4506SOL     OW14416   3.112   6.073   6.057
 4506SOL    HW114417   3.193   6.068   6.115
 4506SOL    HW214418   3.139   6.058   5.961
 4507SOL     OW14419   6.530   4.060   2.536
 4507SOL    HW114420   6.435   4.037   2.514
 4507SOL    HW214421   6.567   3.991   2.598
 4508SOL     OW14422   1.711   4.746   1.145
 4508SOL    HW114423   1.632   4.763   1.204
 4508SOL    HW214424   1.760   4.832   1.129
 4509SOL     OW14425   0.615   2.415   3.857
 4509SOL    HW114426   0.545   2.385   3.921
 4509SOL    HW214427   0.631   2.343   3.789
 4510SOL     OW14428   2.752   0.100   0.399
 4510SOL    HW114429   2.769   0.129   0.493
 4510SOL    HW214430   2.740   0.001   0.396
 4511SOL     OW14431   0.354   2.320   0.544
 4511SOL    HW114432   0.363   2.407   0.495
 4511SOL    HW214433   0.369   2.244   0.480
 4512SOL     OW14434   2.032   3.825   0.297
 4512SOL    HW114435   2.075   3.879   0.369
 4512SOL    HW214436   1.957   3.877   0.256
 4513SOL     OW14437   6.439   1.827   2.237
 4513SOL    HW114438   6.463   1.730   2.233
 4513SOL    HW214439   6.477   1.867   2.321
 4514SOL     OW14440   1.529   0.049   4.890
 4514SOL    HW114441   1.526   0.055   4.791
 4514SOL    HW214442   1.586   6.998   4.918
 4515SOL     OW14443   0.485   4.143   0.488
 4515SOL    HW114444   0.567   4.095   0.459
 4515SOL    HW214445   0.411   4.125   0.423
 4516SOL     OW14446   6.831   0.430   3.710
 4516SOL    HW114447   6.824   0.518   3.756
 4516SOL    HW214448   6.897   0.436   3.635
 4517SOL     OW14449   2.551   0.665   0.271
 4517SOL    HW114450   2.641   0.639   0.305
 4517SOL    HW214451   2.511   0.734   0.330
 4518SOL     OW14452   0.888   1.166   3.461
 4518SOL    HW114453   0.806   1.222   3.454
 4518SOL    HW214454   0.866   1.070   3.440
 4519SOL     OW14455   0.399   2.328   4.593
 4519SOL    HW114456   0.420   2.358   4.500
 4519SOL    HW214457   0.315   2.274   4.592
 4520SOL     OW14458   6.971   3.921   3.660
 4520SOL    HW114459   6.880   3.896   3.627
 4520SOL    HW214460   7.008   3.995   3.604
 4521SOL     OW14461   4.886   1.486   6.436
 4521SOL    HW114462   4.852   1.394   6.418
 4521SOL    HW214463   4.901   1.534   6.350
 4522SOL     OW14464   4.910   6.709   3.267
 4522SOL    HW114465   4.857   6.630   3.238
 4522SOL    HW214466   4.882   6.736   3.359
 4523SOL     OW14467   4.832   1.967   5.839
 4523SOL    HW114468   4.818   1.900   5.766
 4523SOL    HW214469   4.846   1.919   5.925
 4524SOL     OW14470   5.853   1.978   5.136
 4524SOL    HW114471   5.803   1.901   5.095
 4524SOL    HW214472   5.947   1.950   5.152
 4525SOL     OW14473   6.900   1.651   3.855
 4525SOL    HW114474   6.950   1.722   3.805
 4525SOL    HW214475   6.816   1.690   3.893
 4526SOL     OW14476   2.397   2.359   0.983
 4526SOL    HW114477   2.300   2.347   1.007
 4526SOL    HW214478   2.409   2.339   0.886
 4527SOL     OW14479   4.750   0.117   2.535
 4527SOL    HW114480   4.812   0.038   2.545
 4527SOL    HW214481   4.722   0.125   2.439
 4528SOL     OW14482   4.459   6.869   6.477
 4528SOL    HW114483   4.391   6.905   6.414
 4528SOL    HW214484   4.521   6.943   6.505
 4529SOL     OW14485   2.942   6.985   4.001
 4529SOL    HW114486   3.038   6.959   3.991
 4529SOL    HW214487   2.928   7.023   4.092
 4530SOL     OW14488   6.604   2.015   4.334
 4530SOL    HW114489   6.576   2.100   4.290
 4530SOL    HW214490   6.703   2.018   4.352
 4531SOL     OW14491   6.957   3.961   3.075
 4531SOL    HW114492   6.874   3.989   3.123
 4531SOL    HW214493   0.005   3.950   3.141
 4532SOL     OW14494   0.433   1.909   0.703
 4532SOL    HW114495   0.343   1.895   0.744
 4532SOL    HW214496   0.497   1.840   0.738
 4533SOL     OW14497   3.724   6.380   1.552
 4533SOL    HW114498   3.752   6.366   1.457
 4533SOL    HW214499   3.625   6.371   1.559
 4534SOL     OW14500   6.418   4.505   6.569
 4534SOL    HW114501   6.359   4.581   6.599
 4534SOL    HW214502   6.508   4.514   6.612
 4535SOL     OW14503   4.562   1.535   2.574
 4535SOL    HW114504   4.516   1.587   2.646
 4535SOL    HW214505   4.512   1.450   2.557
 4536SOL     OW14506   6.681   0.036   3.504
 4536SOL    HW114507   6.722   0.111   3.452
 4536SOL    HW214508   6.715   6.975   3.470
 4537SOL     OW14509   4.926   2.960   5.710
 4537SOL    HW114510   5.010   2.932   5.757
 4537SOL    HW214511   4.875   2.879   5.681
 4538SOL     OW14512   3.360   2.170   1.355
 4538SOL    HW114513   3.374   2.092   1.416
 4538SOL    HW214514   3.298   2.235   1.399
 4539SOL     OW14515   2.459   4.121   0.643
 4539SOL    HW114516   2.417   4.035   0.615
 4539SOL    HW214517   2.488   4.114   0.739
 4540SOL     OW14518   3.860   3.384   4.047
 4540SOL    HW114519   3.765   3.355   4.034
 4540SOL    HW214520   3.867   3.437   4.131
 4541SOL     OW14521   5.975   1.445   1.649
 4541SOL    HW114522   6.036   1.501   1.704
 4541SOL    HW214523   5.996   1.459   1.552
 4542SOL     OW14524   5.431   6.253   3.620
 4542SOL    HW114525   5.333   6.243   3.605
 4542SOL    HW214526   5.458   6.348   3.601
 4543SOL     OW14527   4.957   2.789   2.917
 4543SOL    HW114528   4.995   2.846   2.845
 4543SOL    HW214529   5.030   2.759   2.978
 4544SOL     OW14530   5.668   4.416   0.532
 4544SOL    HW114531   5.696   4.409   0.628
 4544SOL    HW214532   5.691   4.507   0.497
 4545SOL     OW14533   4.659   3.751   0.614
 4545SOL    HW114534   4.692   3.839   0.579
 4545SOL    HW214535   4.720   3.678   0.582
 4546SOL     OW14536   0.930   5.908   0.716
 4546SOL    HW114537   0.987   5.956   0.782
 4546SOL    HW214538   0.939   5.950   0.626
 4547SOL     OW14539   4.377   1.604   2.787
 4547SOL    HW114540   4.389   1.510   2.819
 4547SOL    HW214541   4.285   1.635   2.811
 4548SOL     OW14542   1.520   3.156   4.402
 4548SOL    HW114543   1.606   3.158   4.350
 4548SOL    HW214544   1.509   3.243   4.451
 4549SOL     OW14545   6.135   1.707   2.841
 4549SOL    HW114546   6.157   1.611   2.826
 4549SOL    HW214547   6.139   1.756   2.753
 4550SOL     OW14548   1.911   5.579   5.762
 4550SOL    HW114549   1.922   5.584   5.663
 4550SOL    HW214550   1.995   5.543   5.803
 4551SOL     OW14551   6.465   3.500   0.919
 4551SOL    HW114552   6.521   3.437   0.866
 4551SOL    HW214553   6.390   3.534   0.862
 4552SOL     OW14554   0.246   3.956   5.461
 4552SOL    HW114555   0.254   4.045   5.416
 4552SOL    HW214556   0.183   3.898   5.409
 4553SOL     OW14557   5.108   5.289   0.401
 4553SOL    HW114558   5.039   5.318   0.334
 4553SOL    HW214559   5.109   5.189   0.407
 4554SOL     OW14560   6.283   5.665   3.959
 4554SOL    HW114561   6.194   5.704   3.982
 4554SOL    HW214562   6.301   5.676   3.861
 4555SOL     OW14563   3.911   2.498   6.706
 4555SOL    HW114564   3.894   2.510   6.608
 4555SOL    HW214565   4.002   2.532   6.729
 4556SOL     OW14566   3.756   0.670   4.591
 4556SOL    HW114567   3.788   0.592   4.645
 4556SOL    HW214568   3.667   0.649   4.551
 4557SOL     OW14569   5.332   0.732   3.665
 4557SOL    HW114570   5.250   0.775   3.703
 4557SOL    HW214571   5.333   0.745   3.566
 4558SOL     OW14572   0.786   4.346   0.229
 4558SOL    HW114573   0.884   4.362   0.238
 4558SOL    HW214574   0.757   4.370   0.136
 4559SOL     OW14575   1.552   6.896   1.165
 4559SOL    HW114576   1.623   6.920   1.098
 4559SOL    HW214577   1.569   6.805   1.201
 4560SOL     OW14578   6.296   1.984   4.317
 4560SOL    HW114579   6.365   1.958   4.249
 4560SOL    HW214580   6.220   2.031   4.271
 4561SOL     OW14581   2.625   6.237   6.368
 4561SOL    HW114582   2.558   6.237   6.441
 4561SOL    HW214583   2.652   6.142   6.347
 4562SOL     OW14584   3.329   4.084   5.203
 4562SOL    HW114585   3.256   4.085   5.135
 4562SOL    HW214586   3.401   4.020   5.173
 4563SOL     OW14587   5.285   2.776   6.823
 4563SOL    HW114588   5.244   2.728   6.745
 4563SOL    HW214589   5.242   2.744   6.908
 4564SOL     OW14590   6.533   5.577   0.623
 4564SOL    HW114591   6.625   5.574   0.663
 4564SOL    HW214592   6.526   5.509   0.550
 4565SOL     OW14593   4.682   0.736   4.238
 4565SOL    HW114594   4.718   0.783   4.157
 4565SOL    HW214595   4.583   0.728   4.231
 4566SOL     OW14596   1.823   0.749   1.555
 4566SOL    HW114597   1.852   0.687   1.628
 4566SOL    HW214598   1.793   0.695   1.476
 4567SOL     OW14599   6.072   2.638   0.546
 4567SOL    HW114600   6.113   2.728   0.534
 4567SOL    HW214601   6.143   2.568   0.539
 4568SOL     OW14602   4.209   4.771   3.609
 4568SOL    HW114603   4.303   4.738   3.615
 4568SOL    HW214604   4.156   4.738   3.687
 4569SOL     OW14605   2.314   1.168   3.437
 4569SOL    HW114606   2.402   1.159   3.390
 4569SOL    HW214607   2.275   1.078   3.453
 4570SOL     OW14608   5.044   6.228   4.579
 4570SOL    HW114609   4.987   6.146   4.572
 4570SOL    HW214610   4.991   6.302   4.621
 4571SOL     OW14611   4.081   3.112   3.590
 4571SOL    HW114612   4.015   3.156   3.652
 4571SOL    HW214613   4.145   3.058   3.644
 4572SOL     OW14614   2.499   4.813   1.307
 4572SOL    HW114615   2.426   4.750   1.279
 4572SOL    HW214616   2.491   4.831   1.405
 4573SOL     OW14617   5.248   6.501   1.742
 4573SOL    HW114618   5.269   6.457   1.655
 4573SOL    HW214619   5.149   6.508   1.752
 4574SOL     OW14620   7.002   4.805   2.025
 4574SOL    HW114621   6.956   4.894   2.024
 4574SOL    HW214622   0.019   4.788   1.936
 4575SOL     OW14623   6.136   6.014   1.479
 4575SOL    HW114624   6.217   5.956   1.466
 4575SOL    HW214625   6.128   6.039   1.575
 4576SOL     OW14626   3.649   5.932   4.654
 4576SOL    HW114627   3.674   5.853   4.599
 4576SOL    HW214628   3.623   6.008   4.593
 4577SOL     OW14629   2.410   4.921   3.256
 4577SOL    HW114630   2.483   4.979   3.219
 4577SOL    HW214631   2.438   4.885   3.345
 4578SOL     OW14632   6.294   6.326   3.561
 4578SOL    HW114633   6.309   6.227   3.559
 4578SOL    HW214634   6.356   6.372   3.498
 4579SOL     OW14635   4.860   1.579   3.094
 4579SOL    HW114636   4.803   1.510   3.138
 4579SOL    HW214637   4.864   1.661   3.151
 4580SOL     OW14638   0.556   4.788   0.815
 4580SOL    HW114639   0.504   4.703   0.808
 4580SOL    HW214640   0.601   4.793   0.904
 4581SOL     OW14641   2.795   5.367   4.591
 4581SOL    HW114642   2.839   5.289   4.547
 4581SOL    HW214643   2.832   5.378   4.684
 4582SOL     OW14644   4.972   5.940   2.412
 4582SOL    HW114645   4.894   5.980   2.458
 4582SOL    HW214646   5.056   5.980   2.448
 4583SOL     OW14647   4.134   0.068   4.905
 4583SOL    HW114648   4.213   0.065   4.844
 4583SOL    HW214649   4.160   0.031   4.994
 4584SOL     OW14650   0.032   5.348   5.249
 4584SOL    HW114651   6.962   5.369   5.235
 4584SOL    HW214652   0.058   5.369   5.343
 4585SOL     OW14653   3.060   6.742   2.083
 4585SOL    HW114654   3.001   6.711   2.009
 4585SOL    HW214655   3.073   6.841   2.077
 4586SOL     OW14656   1.265   6.422   1.663
 4586SOL    HW114657   1.258   6.341   1.605
 4586SOL    HW214658   1.287   6.395   1.757
 4587SOL     OW14659   3.613   4.556   1.218
 4587SOL    HW114660   3.631   4.479   1.279
 4587SOL    HW214661   3.643   4.533   1.125
 4588SOL     OW14662   3.664   3.837   4.853
 4588SOL    HW114663   3.706   3.803   4.937
 4588SOL    HW214664   3.733   3.883   4.797
 4589SOL     OW14665   2.274   1.964   4.029
 4589SOL    HW114666   2.266   1.879   4.082
 4589SOL    HW214667   2.317   1.944   3.941
 4590SOL     OW14668   3.828   6.853   2.582
 4590SOL    HW114669   3.730   6.837   2.571
 4590SOL    HW214670   3.847   6.951   2.570
 4591SOL     OW14671   5.086   5.680   4.729
 4591SOL    HW114672   5.022   5.609   4.701
 4591SOL    HW214673   5.144   5.705   4.651
 4592SOL     OW14674   3.541   2.225   6.461
 4592SOL    HW114675   3.606   2.195   6.531
 4592SOL    HW214676   3.588   2.234   6.373
 4593SOL     OW14677   4.877   5.070   1.654
 4593SOL    HW114678   4.802   5.077   1.588
 4593SOL    HW214679   4.886   5.156   1.703
 4594SOL     OW14680   4.602   2.166   2.802
 4594SOL    HW114681   4.695   2.196   2.778
 4594SOL    HW214682   4.580   2.082   2.753
 4595SOL     OW14683   4.218   3.208   5.327
 4595SOL    HW114684   4.248   3.297   5.293
 4595SOL    HW214685   4.297   3.153   5.353
 4596SOL     OW14686   4.692   1.148   2.216
 4596SOL    HW114687   4.722   1.187   2.129
 4596SOL    HW214688   4.633   1.069   2.199
 4597SOL     OW14689   6.817   3.513   6.380
 4597SOL    HW114690   6.916   3.510   6.392
 4597SOL    HW214691   6.789   3.447   6.311
 4598SOL     OW14692   2.388   3.891   0.456
 4598SOL    HW114693   2.387   3.937   0.367
 4598SOL    HW214694   2.449   3.813   0.452
 4599SOL     OW14695   3.005   4.963   0.583
 4599SOL    HW114696   2.932   4.994   0.644
 4599SOL    HW214697   2.965   4.921   0.502
 4600SOL     OW14698   2.399   3.594   1.030
 4600SOL    HW114699   2.419   3.643   0.946
 4600SOL    HW214700   2.428   3.499   1.022
 4601SOL     OW14701   1.827   5.469   3.502
 4601SOL    HW114702   1.845   5.544   3.438
 4601SOL    HW214703   1.785   5.505   3.585
 4602SOL     OW14704   0.617   0.298   1.863
 4602SOL    HW114705   0.670   0.377   1.896
 4602SOL    HW214706   0.678   0.221   1.849
 4603SOL     OW14707   2.310   1.499   1.481
 4603SOL    HW114708   2.343   1.562   1.410
 4603SOL    HW214709   2.384   1.479   1.545
 4604SOL     OW14710   0.870   6.550   3.555
 4604SOL    HW114711   0.787   6.545   3.499
 4604SOL    HW214712   0.912   6.640   3.545
 4605SOL     OW14713   5.037   6.506   5.470
 4605SOL    HW114714   4.978   6.556   5.534
 4605SOL    HW214715   5.132   6.534   5.483
 4606SOL     OW14716   6.391   6.223   4.428
 4606SOL    HW114717   6.329   6.150   4.401
 4606SOL    HW214718   6.342   6.290   4.484
 4607SOL     OW14719   2.533   3.334   7.001
 4607SOL    HW114720   2.625   3.355   6.969
 4607SOL    HW214721   2.514   3.387   0.057
 4608SOL     OW14722   1.578   3.896   6.226
 4608SOL    HW114723   1.660   3.880   6.171
 4608SOL    HW214724   1.497   3.886   6.168
 4609SOL     OW14725   3.382   0.075   0.125
 4609SOL    HW114726   3.389   7.020   0.182
 4609SOL    HW214727   3.325   0.143   0.170
 4610SOL     OW14728   6.871   3.415   0.651
 4610SOL    HW114729   6.946   3.476   0.675
 4610SOL    HW214730   6.874   3.335   0.711
 4611SOL     OW14731   1.583   4.930   5.510
 4611SOL    HW114732   1.624   4.921   5.419
 4611SOL    HW214733   1.627   5.007   5.558
 4612SOL     OW14734   1.273   0.418   6.661
 4612SOL    HW114735   1.311   0.339   6.709
 4612SOL    HW214736   1.272   0.399   6.562
 4613SOL     OW14737   4.099   4.523   1.448
 4613SOL    HW114738   4.038   4.535   1.370
 4613SOL    HW214739   4.158   4.604   1.457
 4614SOL     OW14740   1.785   3.864   1.017
 4614SOL    HW114741   1.763   3.953   1.056
 4614SOL    HW214742   1.878   3.866   0.978
 4615SOL     OW14743   5.796   3.075   6.650
 4615SOL    HW114744   5.710   3.025   6.660
 4615SOL    HW214745   5.868   3.027   6.700
 4616SOL     OW14746   5.424   0.570   6.655
 4616SOL    HW114747   5.465   0.568   6.746
 4616SOL    HW214748   5.471   0.506   6.595
 4617SOL     OW14749   0.293   4.500   2.106
 4617SOL    HW114750   0.378   4.460   2.072
 4617SOL    HW214751   0.297   4.509   2.206
 4618SOL     OW14752   1.633   2.562   6.773
 4618SOL    HW114753   1.574   2.634   6.736
 4618SOL    HW214754   1.598   2.534   6.863
 4619SOL     OW14755   4.637   0.994   4.351
 4619SOL    HW114756   4.591   1.048   4.281
 4619SOL    HW214757   4.695   0.924   4.308
 4620SOL     OW14758   1.615   5.586   0.896
 4620SOL    HW114759   1.584   5.502   0.852
 4620SOL    HW214760   1.542   5.655   0.893
 4621SOL     OW14761   6.531   0.899   0.212
 4621SOL    HW114762   6.446   0.898   0.265
 4621SOL    HW214763   6.553   0.994   0.187
 4622SOL     OW14764   1.515   4.239   0.575
 4622SOL    HW114765   1.569   4.323   0.575
 4622SOL    HW214766   1.557   4.172   0.636
 4623SOL     OW14767   6.715   3.825   4.481
 4623SOL    HW114768   6.759   3.913   4.496
 4623SOL    HW214769   6.626   3.839   4.438
 4624SOL     OW14770   4.314   6.350   5.946
 4624SOL    HW114771   4.227   6.387   5.978
 4624SOL    HW214772   4.306   6.251   5.936
 4625SOL     OW14773   0.169   4.523   6.428
 4625SOL    HW114774   0.233   4.574   6.486
 4625SOL    HW214775   0.216   4.444   6.390
 4626SOL     OW14776   6.667   4.659   2.260
 4626SOL    HW114777   6.696   4.654   2.356
 4626SOL    HW214778   6.600   4.733   2.250
 4627SOL     OW14779   2.109   6.754   4.346
 4627SOL    HW114780   2.158   6.813   4.281
 4627SOL    HW214781   2.042   6.699   4.298
 4628SOL     OW14782   6.530   2.869   2.131
 4628SOL    HW114783   6.605   2.814   2.166
 4628SOL    HW214784   6.459   2.810   2.092
 4629SOL     OW14785   4.449   5.658   3.999
 4629SOL    HW114786   4.502   5.577   4.028
 4629SOL    HW214787   4.353   5.633   3.992
 4630SOL     OW14788   2.517   6.110   2.672
 4630SOL    HW114789   2.516   6.141   2.767
 4630SOL    HW214790   2.525   6.189   2.612
 4631SOL     OW14791   1.552   0.380   2.562
 4631SOL    HW114792   1.465   0.426   2.542
 4631SOL    HW214793   1.620   0.449   2.589
 4632SOL     OW14794   6.051   5.996   4.218
 4632SOL    HW114795   6.102   6.026   4.299
 4632SOL    HW214796   5.963   6.042   4.215
 4633SOL     OW14797   4.610   3.190   6.076
 4633SOL    HW114798   4.671   3.120   6.038
 4633SOL    HW214799   4.610   3.184   6.176
 4634SOL     OW14800   2.463   3.551   0.284
 4634SOL    HW114801   2.499   3.617   0.351
 4634SOL    HW214802   2.498   3.460   0.304
 4635SOL     OW14803   4.490   2.987   1.362
 4635SOL    HW114804   4.574   3.005   1.414
 4635SOL    HW214805   4.512   2.938   1.278
 4636SOL     OW14806   1.053   5.645   1.361
 4636SOL    HW114807   1.128   5.599   1.313
 4636SOL    HW214808   1.027   5.727   1.312
 4637SOL     OW14809   0.529   0.875   5.707
 4637SOL    HW114810   0.529   0.959   5.653
 4637SOL    HW214811   0.622   0.856   5.738
 4638SOL     OW14812   4.420   4.989   5.803
 4638SOL    HW114813   4.332   5.032   5.784
 4638SOL    HW214814   4.439   4.994   5.901
 4639SOL     OW14815   0.044   2.479   5.620
 4639SOL    HW114816   0.106   2.459   5.544
 4639SOL    HW214817   0.047   2.577   5.640
 4640SOL     OW14818   0.667   5.527   3.591
 4640SOL    HW114819   0.597   5.584   3.634
 4640SOL    HW214820   0.758   5.561   3.615
 4641SOL     OW14821   2.173   3.819   5.219
 4641SOL    HW114822   2.234   3.779   5.288
 4641SOL    HW214823   2.224   3.886   5.165
 4642SOL     OW14824   6.152   5.320   4.663
 4642SOL    HW114825   6.104   5.406   4.643
 4642SOL    HW214826   6.196   5.286   4.580
 4643SOL     OW14827   4.328   3.807   0.992
 4643SOL    HW114828   4.397   3.786   0.922
 4643SOL    HW214829   4.318   3.907   0.999
 4644SOL     OW14830   3.327   4.932   5.479
 4644SOL    HW114831   3.312   5.027   5.449
 4644SOL    HW214832   3.322   4.871   5.400
 4645SOL     OW14833   1.843   5.592   5.036
 4645SOL    HW114834   1.887   5.641   4.961
 4645SOL    HW214835   1.824   5.498   5.008
 4646SOL     OW14836   3.566   1.231   0.979
 4646SOL    HW114837   3.586   1.275   1.066
 4646SOL    HW214838   3.561   1.132   0.992
 4647SOL     OW14839   6.088   0.189   5.233
 4647SOL    HW114840   6.137   0.252   5.173
 4647SOL    HW214841   6.048   0.115   5.179
 4648SOL     OW14842   2.371   6.573   3.352
 4648SOL    HW114843   2.464   6.592   3.319
 4648SOL    HW214844   2.376   6.529   3.441
 4649SOL     OW14845   5.464   5.059   6.245
 4649SOL    HW114846   5.400   5.134   6.226
 4649SOL    HW214847   5.541   5.094   6.298
 4650SOL     OW14848   6.465   5.374   1.834
 4650SOL    HW114849   6.398   5.430   1.883
 4650SOL    HW214850   6.456   5.279   1.861
 4651SOL     OW14851   6.039   2.163   1.065
 4651SOL    HW114852   5.986   2.080   1.086
 4651SOL    HW214853   6.076   2.156   0.973
 4652SOL     OW14854   0.505   6.323   5.701
 4652SOL    HW114855   0.465   6.233   5.681
 4652SOL    HW214856   0.600   6.325   5.671
 4653SOL     OW14857   1.900   4.815   0.501
 4653SOL    HW114858   1.931   4.825   0.596
 4653SOL    HW214859   1.896   4.905   0.458
 4654SOL     OW14860   1.990   1.701   0.193
 4654SOL    HW114861   1.938   1.666   0.115
 4654SOL    HW214862   2.075   1.649   0.202
 4655SOL     OW14863   0.293   4.997   5.058
 4655SOL    HW114864   0.328   4.936   4.986
 4655SOL    HW214865   0.204   4.964   5.089
 4656SOL     OW14866   2.275   0.084   2.693
 4656SOL    HW114867   2.319   0.124   2.613
 4656SOL    HW214868   2.345   0.066   2.763
 4657SOL     OW14869   6.325   0.977   5.694
 4657SOL    HW114870   6.341   0.905   5.761
 4657SOL    HW214871   6.226   0.985   5.676
 4658SOL     OW14872   5.290   6.899   3.451
 4658SOL    HW114873   5.383   6.865   3.463
 4658SOL    HW214874   5.252   6.926   3.539
 4659SOL     OW14875   1.939   3.242   3.727
 4659SOL    HW114876   1.896   3.306   3.664
 4659SOL    HW214877   1.878   3.165   3.744
 4660SOL     OW14878   6.714   1.132   5.111
 4660SOL    HW114879   6.635   1.168   5.162
 4660SOL    HW214880   6.701   1.034   5.094
 4661SOL     OW14881   3.431   2.942   3.537
 4661SOL    HW114882   3.486   2.936   3.454
 4661SOL    HW214883   3.461   2.873   3.602
 4662SOL     OW14884   6.721   6.868   4.605
 4662SOL    HW114885   6.762   6.898   4.692
 4662SOL    HW214886   6.712   6.768   4.606
 4663SOL     OW14887   0.588   1.452   2.651
 4663SOL    HW114888   0.630   1.537   2.683
 4663SOL    HW214889   0.632   1.374   2.695
 4664SOL     OW14890   3.756   5.249   0.321
 4664SOL    HW114891   3.791   5.163   0.283
 4664SOL    HW214892   3.725   5.308   0.246
 4665SOL     OW14893   5.316   1.119   6.223
 4665SOL    HW114894   5.319   1.024   6.192
 4665SOL    HW214895   5.264   1.124   6.309
 4666SOL     OW14896   1.874   1.187   0.508
 4666SOL    HW114897   1.795   1.168   0.567
 4666SOL    HW214898   1.919   1.270   0.540
 4667SOL     OW14899   0.122   5.828   3.866
 4667SOL    HW114900   0.186   5.842   3.791
 4667SOL    HW214901   0.165   5.773   3.937
 4668SOL     OW14902   5.657   1.103   5.225
 4668SOL    HW114903   5.570   1.059   5.203
 4668SOL    HW214904   5.660   1.123   5.323
 4669SOL     OW14905   2.248   2.328   2.245
 4669SOL    HW114906   2.188   2.295   2.172
 4669SOL    HW214907   2.294   2.412   2.216
 4670SOL     OW14908   2.678   2.234   4.994
 4670SOL    HW114909   2.646   2.254   4.902
 4670SOL    HW214910   2.764   2.182   4.989
 4671SOL     OW14911   6.766   2.247   3.021
 4671SOL    HW114912   6.824   2.317   2.980
 4671SOL    HW214913   6.760   2.262   3.119
 4672SOL     OW14914   2.919   2.385   5.278
 4672SOL    HW114915   2.867   2.374   5.193
 4672SOL    HW214916   3.014   2.359   5.262
 4673SOL     OW14917   5.547   0.479   2.375
 4673SOL    HW114918   5.592   0.512   2.292
 4673SOL    HW214919   5.473   0.541   2.400
 4674SOL     OW14920   4.521   6.881   6.044
 4674SOL    HW114921   4.614   6.901   6.011
 4674SOL    HW214922   4.472   6.827   5.976
 4675SOL     OW14923   0.566   4.515   6.351
 4675SOL    HW114924   0.518   4.579   6.411
 4675SOL    HW214925   0.636   4.564   6.299
 4676SOL     OW14926   1.565   4.648   3.444
 4676SOL    HW114927   1.497   4.720   3.454
 4676SOL    HW214928   1.580   4.603   3.532
 4677SOL     OW14929   1.546   3.531   1.213
 4677SOL    HW114930   1.540   3.611   1.273
 4677SOL    HW214931   1.607   3.551   1.137
 4678SOL     OW14932   1.289   1.792   1.132
 4678SOL    HW114933   1.302   1.821   1.037
 4678SOL    HW214934   1.210   1.840   1.171
 4679SOL     OW14935   4.903   6.945   1.663
 4679SOL    HW114936   4.992   6.908   1.689
 4679SOL    HW214937   4.831   6.901   1.717
 4680SOL     OW14938   2.866   0.913   0.111
 4680SOL    HW114939   2.823   0.893   0.199
 4680SOL    HW214940   2.855   1.011   0.090
 4681SOL     OW14941   4.886   5.112   2.059
 4681SOL    HW114942   4.821   5.184   2.036
 4681SOL    HW214943   4.902   5.054   1.979
 4682SOL     OW14944   3.680   3.399   6.501
 4682SOL    HW114945   3.733   3.341   6.562
 4682SOL    HW214946   3.661   3.487   6.545
 4683SOL     OW14947   6.784   3.817   3.902
 4683SOL    HW114948   6.739   3.774   3.980
 4683SOL    HW214949   6.765   3.915   3.902
 4684SOL     OW14950   4.940   0.437   5.767
 4684SOL    HW114951   4.876   0.486   5.827
 4684SOL    HW214952   4.930   0.339   5.780
 4685SOL     OW14953   2.901   3.755   4.270
 4685SOL    HW114954   2.863   3.725   4.182
 4685SOL    HW214955   2.956   3.681   4.309
 4686SOL     OW14956   1.816   6.589   5.875
 4686SOL    HW114957   1.792   6.680   5.839
 4686SOL    HW214958   1.913   6.571   5.858
 4687SOL     OW14959   1.133   0.001   2.379
 4687SOL    HW114960   1.051   0.037   2.335
 4687SOL    HW214961   1.144   6.931   2.355
 4688SOL     OW14962   4.823   2.196   4.668
 4688SOL    HW114963   4.893   2.246   4.616
 4688SOL    HW214964   4.753   2.162   4.605
 4689SOL     OW14965   6.205   1.131   1.236
 4689SOL    HW114966   6.248   1.205   1.184
 4689SOL    HW214967   6.193   1.159   1.331
 4690SOL     OW14968   3.334   2.083   0.901
 4690SOL    HW114969   3.278   2.124   0.829
 4690SOL    HW214970   3.330   1.983   0.894
 4691SOL     OW14971   6.055   2.813   2.053
 4691SOL    HW114972   6.082   2.889   2.112
 4691SOL    HW214973   6.014   2.741   2.109
 4692SOL     OW14974   6.940   2.556   3.348
 4692SOL    HW114975   6.882   2.637   3.353
 4692SOL    HW214976   0.008   2.580   3.368
 4693SOL     OW14977   0.215   0.603   3.624
 4693SOL    HW114978   0.178   0.648   3.705
 4693SOL    HW214979   0.211   0.666   3.546
 4694SOL     OW14980   1.407   6.498   5.745
 4694SOL    HW114981   1.371   6.491   5.652
 4694SOL    HW214982   1.335   6.478   5.811
 4695SOL     OW14983   1.380   4.843   1.592
 4695SOL    HW114984   1.329   4.922   1.625
 4695SOL    HW214985   1.432   4.803   1.668
 4696SOL     OW14986   2.281   6.165   5.989
 4696SOL    HW114987   2.183   6.178   5.973
 4696SOL    HW214988   2.303   6.186   6.084
 4697SOL     OW14989   4.601   5.733   1.363
 4697SOL    HW114990   4.596   5.706   1.459
 4697SOL    HW214991   4.518   5.703   1.316
 4698SOL     OW14992   5.934   1.617   4.527
 4698SOL    HW114993   5.973   1.526   4.543
 4698SOL    HW214994   5.963   1.649   4.437
 4699SOL     OW14995   0.985   1.893   2.954
 4699SOL    HW114996   1.028   1.982   2.967
 4699SOL    HW214997   0.891   1.896   2.988
 4700SOL     OW14998   6.610   1.895   3.382
 4700SOL    HW114999   6.649   1.809   3.349
 4700SOL    HW215000   6.661   1.925   3.463
 4701SOL     OW15001   2.270   2.693   1.752
 4701SOL    HW115002   2.315   2.604   1.746
 4701SOL    HW215003   2.271   2.737   1.662
 4702SOL     OW15004   6.137   4.681   1.386
 4702SOL    HW115005   6.195   4.760   1.367
 4702SOL    HW215006   6.134   4.664   1.484
 4703SOL     OW15007   6.473   5.269   4.223
 4703SOL    HW115008   6.548   5.268   4.157
 4703SOL    HW215009   6.390   5.304   4.179
 4704SOL     OW15010   1.642   4.746   3.814
 4704SOL    HW115011   1.674   4.815   3.879
 4704SOL    HW215012   1.588   4.791   3.743
 4705SOL     OW15013   3.195   2.695   1.203
 4705SOL    HW115014   3.244   2.675   1.288
 4705SOL    HW215015   3.097   2.685   1.218
 4706SOL     OW15016   2.293   1.290   1.113
 4706SOL    HW115017   2.199   1.278   1.146
 4706SOL    HW215018   2.357   1.256   1.182
 4707SOL     OW15019   2.201   5.668   2.116
 4707SOL    HW115020   2.142   5.686   2.037
 4707SOL    HW215021   2.236   5.574   2.109
 4708SOL     OW15022   1.918   3.425   6.514
 4708SOL    HW115023   1.826   3.386   6.529
 4708SOL    HW215024   1.982   3.351   6.493
 4709SOL     OW15025   6.096   3.557   4.648
 4709SOL    HW115026   6.090   3.458   4.635
 4709SOL    HW215027   6.071   3.579   4.742
 4710SOL     OW15028   6.235   4.597   5.582
 4710SOL    HW115029   6.329   4.597   5.616
 4710SOL    HW215030   6.173   4.615   5.658
 4711SOL     OW15031   4.841   4.696   3.175
 4711SOL    HW115032   4.792   4.739   3.250
 4711SOL    HW215033   4.933   4.671   3.205
 4712SOL     OW15034   4.136   4.811   6.019
 4712SOL    HW115035   4.130   4.899   6.067
 4712SOL    HW215036   4.049   4.793   5.973
 4713SOL     OW15037   5.873   4.415   1.718
 4713SOL    HW115038   5.850   4.511   1.699
 4713SOL    HW215039   5.790   4.360   1.714
 4714SOL     OW15040   5.227   2.225   5.739
 4714SOL    HW115041   5.214   2.314   5.783
 4714SOL    HW215042   5.170   2.157   5.786
 4715SOL     OW15043   0.043   1.112   1.899
 4715SOL    HW115044   0.046   1.122   1.998
 4715SOL    HW215045   0.009   1.197   1.858
 4716SOL     OW15046   3.883   4.500   5.450
 4716SOL    HW115047   3.968   4.452   5.428
 4716SOL    HW215048   3.810   4.471   5.389
 4717SOL     OW15049   1.108   4.586   6.216
 4717SOL    HW115050   1.186   4.570   6.155
 4717SOL    HW215051   1.080   4.682   6.209
 4718SOL     OW15052   4.890   3.408   2.389
 4718SOL    HW115053   4.854   3.411   2.482
 4718SOL    HW215054   4.987   3.385   2.391
 4719SOL     OW15055   5.519   4.238   3.636
 4719SOL    HW115056   5.537   4.149   3.679
 4719SOL    HW215057   5.505   4.225   3.538
 4720SOL     OW15058   1.307   1.677   5.839
 4720SOL    HW115059   1.362   1.741   5.784
 4720SOL    HW215060   1.366   1.626   5.900
 4721SOL     OW15061   0.825   2.933   2.451
 4721SOL    HW115062   0.898   2.999   2.431
 4721SOL    HW215063   0.810   2.874   2.371
 4722SOL     OW15064   1.274   5.850   6.171
 4722SOL    HW115065   1.338   5.813   6.239
 4722SOL    HW215066   1.182   5.849   6.208
 4723SOL     OW15067   3.382   4.523   6.052
 4723SOL    HW115068   3.323   4.485   6.122
 4723SOL    HW215069   3.443   4.452   6.017
 4724SOL     OW15070   0.403   0.587   3.980
 4724SOL    HW115071   0.357   0.502   4.004
 4724SOL    HW215072   0.439   0.630   4.063
 4725SOL     OW15073   5.065   5.948   1.194
 4725SOL    HW115074   5.042   5.853   1.215
 4725SOL    HW215075   5.043   5.968   1.099
 4726SOL     OW15076   1.929   2.733   6.901
 4726SOL    HW115077   1.843   2.690   6.874
 4726SOL    HW215078   1.910   2.812   6.959
 4727SOL     OW15079   6.750   5.351   1.746
 4727SOL    HW115080   6.659   5.379   1.715
 4727SOL    HW215081   6.767   5.257   1.719
 4728SOL     OW15082   4.079   0.629   3.711
 4728SOL    HW115083   3.996   0.660   3.756
 4728SOL    HW215084   4.113   0.547   3.757
 4729SOL     OW15085   0.673   0.676   3.281
 4729SOL    HW115086   0.651   0.747   3.215
 4729SOL    HW215087   0.610   0.599   3.271
 4730SOL     OW15088   2.927   1.463   3.135
 4730SOL    HW115089   2.908   1.390   3.201
 4730SOL    HW215090   3.002   1.436   3.076
 4731SOL     OW15091   3.545   6.803   2.633
 4731SOL    HW115092   3.462   6.858   2.646
 4731SOL    HW215093   3.557   6.741   2.710
 4732SOL     OW15094   0.545   4.659   4.180
 4732SOL    HW115095   0.485   4.601   4.124
 4732SOL    HW215096   0.613   4.601   4.226
 4733SOL     OW15097   2.383   4.503   3.442
 4733SOL    HW115098   2.340   4.570   3.503
 4733SOL    HW215099   2.360   4.411   3.472
 4734SOL     OW15100   4.443   4.702   5.822
 4734SOL    HW115101   4.457   4.636   5.748
 4734SOL    HW215102   4.430   4.793   5.784
 4735SOL     OW15103   7.022   1.014   5.340
 4735SOL    HW115104   0.059   1.079   5.382
 4735SOL    HW215105   6.982   1.054   5.258
 4736SOL     OW15106   6.132   0.371   4.287
 4736SOL    HW115107   6.184   0.389   4.204
 4736SOL    HW215108   6.107   0.458   4.331
 4737SOL     OW15109   2.025   4.877   0.122
 4737SOL    HW115110   1.944   4.936   0.130
 4737SOL    HW215111   1.999   4.782   0.143
 4738SOL     OW15112   0.347   5.839   3.674
 4738SOL    HW115113   0.413   5.847   3.599
 4738SOL    HW215114   0.395   5.811   3.757
 4739SOL     OW15115   5.837   3.615   2.898
 4739SOL    HW115116   5.788   3.539   2.942
 4739SOL    HW215117   5.845   3.691   2.963
 4740SOL     OW15118   1.701   6.305   0.740
 4740SOL    HW115119   1.675   6.315   0.644
 4740SOL    HW215120   1.638   6.359   0.797
 4741SOL     OW15121   5.798   4.202   2.437
 4741SOL    HW115122   5.821   4.111   2.473
 4741SOL    HW215123   5.849   4.272   2.487
 4742SOL     OW15124   2.374   5.575   1.781
 4742SOL    HW115125   2.321   5.655   1.754
 4742SOL    HW215126   2.348   5.547   1.874
 4743SOL     OW15127   2.785   3.048   0.565
 4743SOL    HW115128   2.811   3.127   0.509
 4743SOL    HW215129   2.866   3.010   0.608
 4744SOL     OW15130   3.070   1.732   5.868
 4744SOL    HW115131   2.975   1.757   5.852
 4744SOL    HW215132   3.077   1.682   5.954
 4745SOL     OW15133   4.371   5.912   4.471
 4745SOL    HW115134   4.356   5.894   4.373
 4745SOL    HW215135   4.290   5.955   4.510
 4746SOL     OW15136   5.510   1.488   1.038
 4746SOL    HW115137   5.477   1.415   1.098
 4746SOL    HW215138   5.588   1.533   1.080
 4747SOL     OW15139   1.095   2.935   2.193
 4747SOL    HW115140   1.055   2.904   2.107
 4747SOL    HW215141   1.043   3.013   2.228
 4748SOL     OW15142   1.732   6.678   0.568
 4748SOL    HW115143   1.643   6.668   0.614
 4748SOL    HW215144   1.805   6.672   0.636
 4749SOL     OW15145   4.213   0.800   0.177
 4749SOL    HW115146   4.258   0.717   0.144
 4749SOL    HW215147   4.131   0.818   0.123
 4750SOL     OW15148   1.096   2.146   5.230
 4750SOL    HW115149   1.161   2.085   5.185
 4750SOL    HW215150   1.013   2.153   5.176
 4751SOL     OW15151   1.644   4.128   6.359
 4751SOL    HW115152   1.619   4.039   6.320
 4751SOL    HW215153   1.600   4.138   6.449
 4752SOL     OW15154   2.089   5.831   0.747
 4752SOL    HW115155   2.168   5.794   0.797
 4752SOL    HW215156   2.027   5.756   0.722
 4753SOL     OW15157   0.131   1.415   6.650
 4753SOL    HW115158   0.209   1.477   6.654
 4753SOL    HW215159   0.138   1.358   6.568
 4754SOL     OW15160   1.484   0.524   6.488
 4754SOL    HW115161   1.508   0.621   6.497
 4754SOL    HW215162   1.551   0.468   6.538
 4755SOL     OW15163   2.637   6.799   3.151
 4755SOL    HW115164   2.562   6.858   3.181
 4755SOL    HW215165   2.699   6.851   3.093
 4756SOL     OW15166   5.521   2.795   1.060
 4756SOL    HW115167   5.518   2.715   1.119
 4756SOL    HW215168   5.507   2.877   1.115
 4757SOL     OW15169   2.228   3.580   0.612
 4757SOL    HW115170   2.229   3.534   0.523
 4757SOL    HW215171   2.274   3.523   0.679
 4758SOL     OW15172   6.738   3.825   6.311
 4758SOL    HW115173   6.800   3.897   6.278
 4758SOL    HW215174   6.783   3.771   6.382
 4759SOL     OW15175   6.748   4.017   6.708
 4759SOL    HW115176   6.702   3.930   6.726
 4759SOL    HW215177   6.725   4.048   6.616
 4760SOL     OW15178   0.816   2.691   0.179
 4760SOL    HW115179   0.891   2.710   0.115
 4760SOL    HW215180   0.841   2.611   0.235
 4761SOL     OW15181   2.916   6.253   6.824
 4761SOL    HW115182   2.976   6.325   6.790
 4761SOL    HW215183   2.946   6.165   6.788
 4762SOL     OW15184   3.289   0.844   2.875
 4762SOL    HW115185   3.347   0.901   2.817
 4762SOL    HW215186   3.202   0.827   2.828
 4763SOL     OW15187   5.275   4.716   4.667
 4763SOL    HW115188   5.320   4.642   4.717
 4763SOL    HW215189   5.342   4.762   4.608
 4764SOL     OW15190   3.306   3.496   3.804
 4764SOL    HW115191   3.319   3.409   3.756
 4764SOL    HW215192   3.349   3.569   3.752
 4765SOL     OW15193   6.812   5.218   6.935
 4765SOL    HW115194   6.897   5.271   6.944
 4765SOL    HW215195   6.820   5.155   6.859
 4766SOL     OW15196   3.515   1.392   3.264
 4766SOL    HW115197   3.425   1.419   3.300
 4766SOL    HW215198   3.566   1.344   3.335
 4767SOL     OW15199   4.584   0.402   6.557
 4767SOL    HW115200   4.651   0.469   6.589
 4767SOL    HW215201   4.584   0.398   6.457
 4768SOL     OW15202   2.308   0.363   5.216
 4768SOL    HW115203   2.249   0.386   5.138
 4768SOL    HW215204   2.326   0.446   5.269
 4769SOL     OW15205   4.538   0.929   2.141
 4769SOL    HW115206   4.544   0.855   2.209
 4769SOL    HW215207   4.587   0.902   2.058
 4770SOL     OW15208   2.833   1.443   3.537
 4770SOL    HW115209   2.793   1.404   3.620
 4770SOL    HW215210   2.890   1.521   3.562
 4771SOL     OW15211   3.733   4.974   6.736
 4771SOL    HW115212   3.708   4.878   6.731
 4771SOL    HW215213   3.657   5.027   6.774
 4772SOL     OW15214   4.219   2.350   0.405
 4772SOL    HW115215   4.305   2.362   0.356
 4772SOL    HW215216   4.217   2.411   0.484
 4773SOL     OW15217   0.229   4.679   4.040
 4773SOL    HW115218   0.145   4.634   4.012
 4773SOL    HW215219   0.307   4.619   4.020
 4774SOL     OW15220   2.253   4.047   0.050
 4774SOL    HW115221   2.258   4.108   6.998
 4774SOL    HW215222   2.188   3.973   0.031
 4775SOL     OW15223   1.869   3.133   2.426
 4775SOL    HW115224   1.848   3.223   2.464
 4775SOL    HW215225   1.827   3.063   2.483
 4776SOL     OW15226   4.766   5.507   1.178
 4776SOL    HW115227   4.668   5.486   1.173
 4776SOL    HW215228   4.785   5.587   1.121
 4777SOL     OW15229   1.590   3.858   1.674
 4777SOL    HW115230   1.574   3.945   1.720
 4777SOL    HW215231   1.647   3.799   1.731
 4778SOL     OW15232   5.718   3.370   2.946
 4778SOL    HW115233   5.627   3.373   2.903
 4778SOL    HW215234   5.720   3.297   3.014
 4779SOL     OW15235   6.269   1.472   2.749
 4779SOL    HW115236   6.314   1.389   2.780
 4779SOL    HW215237   6.287   1.486   2.651
 4780SOL     OW15238   1.422   1.307   5.250
 4780SOL    HW115239   1.323   1.294   5.250
 4780SOL    HW215240   1.462   1.259   5.329
 4781SOL     OW15241   2.548   5.856   3.145
 4781SOL    HW115242   2.515   5.892   3.057
 4781SOL    HW215243   2.569   5.759   3.135
 4782SOL     OW15244   6.416   6.505   6.959
 4782SOL    HW115245   6.449   6.559   6.882
 4782SOL    HW215246   6.383   6.565   0.005
 4783SOL     OW15247   5.478   4.883   3.210
 4783SOL    HW115248   5.467   4.789   3.178
 4783SOL    HW215249   5.526   4.937   3.141
 4784SOL     OW15250   4.640   4.432   4.401
 4784SOL    HW115251   4.585   4.374   4.461
 4784SOL    HW215252   4.729   4.388   4.385
 4785SOL     OW15253   5.785   5.994   0.505
 4785SOL    HW115254   5.826   6.074   0.549
 4785SOL    HW215255   5.686   5.996   0.519
 4786SOL     OW15256   1.519   4.597   3.170
 4786SOL    HW115257   1.521   4.625   3.266
 4786SOL    HW215258   1.611   4.570   3.141
 4787SOL     OW15259   3.956   2.058   2.685
 4787SOL    HW115260   3.887   2.120   2.722
 4787SOL    HW215261   4.045   2.081   2.724
 4788SOL     OW15262   2.404   0.884   4.860
 4788SOL    HW115263   2.336   0.954   4.882
 4788SOL    HW215264   2.478   0.888   4.927
 4789SOL     OW15265   4.690   5.527   6.710
 4789SOL    HW115266   4.709   5.616   6.669
 4789SOL    HW215267   4.607   5.533   6.765
 4790SOL     OW15268   5.740   6.967   6.192
 4790SOL    HW115269   5.671   6.914   6.241
 4790SOL    HW215270   5.818   6.907   6.170
 4791SOL     OW15271   4.769   2.357   3.436
 4791SOL    HW115272   4.699   2.378   3.368
 4791SOL    HW215273   4.859   2.374   3.397
 4792SOL     OW15274   3.390   3.015   0.313
 4792SOL    HW115275   3.391   2.920   0.280
 4792SOL    HW215276   3.329   3.022   0.391
 4793SOL     OW15277   0.716   1.202   6.789
 4793SOL    HW115278   0.617   1.191   6.790
 4793SOL    HW215279   0.740   1.299   6.783
 4794SOL     OW15280   5.837   1.497   2.012
 4794SOL    HW115281   5.816   1.433   1.939
 4794SOL    HW215282   5.753   1.518   2.063
 4795SOL     OW15283   6.453   1.862   4.555
 4795SOL    HW115284   6.391   1.800   4.508
 4795SOL    HW215285   6.488   1.930   4.491
 4796SOL     OW15286   4.799   3.970   0.499
 4796SOL    HW115287   4.799   4.023   0.414
 4796SOL    HW215288   4.893   3.948   0.524
 4797SOL     OW15289   1.319   5.653   4.769
 4797SOL    HW115290   1.267   5.592   4.829
 4797SOL    HW215291   1.372   5.599   4.704
 4798SOL     OW15292   0.463   5.856   6.693
 4798SOL    HW115293   0.441   5.766   6.655
 4798SOL    HW215294   0.413   5.927   6.644
 4799SOL     OW15295   4.958   1.262   5.240
 4799SOL    HW115296   5.005   1.176   5.261
 4799SOL    HW215297   4.920   1.300   5.324
 4800SOL     OW15298   1.740   3.127   4.256
 4800SOL    HW115299   1.818   3.127   4.193
 4800SOL    HW215300   1.751   3.054   4.323
 4801SOL     OW15301   7.022   1.731   0.892
 4801SOL    HW115302   7.012   1.646   0.841
 4801SOL    HW215303   6.933   1.777   0.897
 4802SOL     OW15304   1.591   6.931   1.642
 4802SOL    HW115305   1.501   6.936   1.684
 4802SOL    HW215306   1.593   6.987   1.559
 4803SOL     OW15307   0.271   6.863   1.637
 4803SOL    HW115308   0.292   6.959   1.616
 4803SOL    HW215309   0.181   6.840   1.601
 4804SOL     OW15310   4.453   4.695   6.665
 4804SOL    HW115311   4.545   4.671   6.696
 4804SOL    HW215312   4.435   4.791   6.688
 4805SOL     OW15313   6.567   6.849   1.340
 4805SOL    HW115314   6.553   6.944   1.370
 4805SOL    HW215315   6.592   6.793   1.419
 4806SOL     OW15316   0.466   2.451   4.310
 4806SOL    HW115317   0.525   2.516   4.262
 4806SOL    HW215318   0.454   2.369   4.254
 4807SOL     OW15319   0.854   6.906   2.449
 4807SOL    HW115320   0.781   6.974   2.446
 4807SOL    HW215321   0.839   6.845   2.527
 4808SOL     OW15322   6.549   1.274   0.424
 4808SOL    HW115323   6.499   1.220   0.491
 4808SOL    HW215324   6.645   1.279   0.451
 4809SOL     OW15325   4.574   6.699   1.259
 4809SOL    HW115326   4.517   6.617   1.259
 4809SOL    HW215327   4.666   6.675   1.227
 4810SOL     OW15328   1.702   0.196   5.335
 4810SOL    HW115329   1.673   0.262   5.265
 4810SOL    HW215330   1.802   0.194   5.341
 4811SOL     OW15331   5.035   4.538   4.213
 4811SOL    HW115332   5.037   4.451   4.164
 4811SOL    HW215333   4.999   4.609   4.153
 4812SOL     OW15334   6.658   4.856   3.226
 4812SOL    HW115335   6.660   4.950   3.190
 4812SOL    HW215336   6.647   4.791   3.151
 4813SOL     OW15337   6.069   3.557   2.548
 4813SOL    HW115338   5.975   3.532   2.523
 4813SOL    HW215339   6.086   3.533   2.643
 4814SOL     OW15340   0.147   2.805   1.536
 4814SOL    HW115341   0.194   2.751   1.466
 4814SOL    HW215342   0.202   2.806   1.620
 4815SOL     OW15343   4.773   1.325   3.424
 4815SOL    HW115344   4.789   1.358   3.517
 4815SOL    HW215345   4.818   1.237   3.411
 4816SOL     OW15346   6.214   3.955   4.422
 4816SOL    HW115347   6.156   3.874   4.413
 4816SOL    HW215348   6.196   4.017   4.346
 4817SOL     OW15349   5.408   1.376   6.751
 4817SOL    HW115350   5.469   1.387   6.830
 4817SOL    HW215351   5.453   1.414   6.670
 4818SOL     OW15352   0.020   6.420   3.267
 4818SOL    HW115353   0.076   6.499   3.240
 4818SOL    HW215354   0.080   6.343   3.288
 4819SOL     OW15355   0.741   2.571   0.790
 4819SOL    HW115356   0.735   2.576   0.890
 4819SOL    HW215357   0.762   2.662   0.754
 4820SOL     OW15358   5.952   3.160   2.119
 4820SOL    HW115359   5.921   3.245   2.161
 4820SOL    HW215360   5.880   3.092   2.125
 4821SOL     OW15361   0.072   5.425   3.573
 4821SOL    HW115362   0.121   5.500   3.528
 4821SOL    HW215363   0.117   5.403   3.659
 4822SOL     OW15364   3.031   5.909   4.611
 4822SOL    HW115365   3.124   5.873   4.605
 4822SOL    HW215366   3.014   5.942   4.704
 4823SOL     OW15367   0.995   1.883   0.327
 4823SOL    HW115368   1.090   1.889   0.358
 4823SOL    HW215369   0.993   1.856   0.231
 4824SOL     OW15370   6.534   2.205   0.086
 4824SOL    HW115371   6.445   2.222   0.043
 4824SOL    HW215372   6.520   2.169   0.179
 4825SOL     OW15373   0.955   5.588   3.670
 4825SOL    HW115374   1.024   5.528   3.712
 4825SOL    HW215375   0.988   5.682   3.671
 4826SOL     OW15376   4.616   6.638   0.458
 4826SOL    HW115377   4.541   6.668   0.400
 4826SOL    HW215378   4.583   6.565   0.519
 4827SOL     OW15379   5.510   1.322   1.921
 4827SOL    HW115380   5.459   1.394   1.873
 4827SOL    HW215381   5.604   1.321   1.889
 4828SOL     OW15382   5.250   1.470   6.309
 4828SOL    HW115383   5.273   1.403   6.237
 4828SOL    HW215384   5.282   1.560   6.281
 4829SOL     OW15385   4.706   5.708   4.973
 4829SOL    HW115386   4.627   5.767   4.959
 4829SOL    HW215387   4.786   5.764   4.992
 4830SOL     OW15388   1.659   6.546   2.918
 4830SOL    HW115389   1.687   6.450   2.909
 4830SOL    HW215390   1.567   6.550   2.955
 4831SOL     OW15391   2.426   4.443   5.973
 4831SOL    HW115392   2.372   4.480   6.049
 4831SOL    HW215393   2.512   4.405   6.009
 4832SOL     OW15394   3.824   3.579   3.567
 4832SOL    HW115395   3.913   3.596   3.610
 4832SOL    HW215396   3.833   3.587   3.468
 4833SOL     OW15397   5.736   2.524   5.127
 4833SOL    HW115398   5.818   2.470   5.108
 4833SOL    HW215399   5.760   2.621   5.132
 4834SOL     OW15400   1.283   3.821   1.111
 4834SOL    HW115401   1.284   3.882   1.189
 4834SOL    HW215402   1.346   3.854   1.041
 4835SOL     OW15403   0.842   3.912   6.451
 4835SOL    HW115404   0.834   3.820   6.411
 4835SOL    HW215405   0.938   3.931   6.470
 4836SOL     OW15406   3.851   6.815   5.889
 4836SOL    HW115407   3.945   6.779   5.886
 4836SOL    HW215408   3.848   6.891   5.953
 4837SOL     OW15409   1.741   3.659   4.459
 4837SOL    HW115410   1.757   3.730   4.391
 4837SOL    HW215411   1.802   3.582   4.442
 4838SOL     OW15412   1.335   4.677   6.723
 4838SOL    HW115413   1.243   4.716   6.734
 4838SOL    HW215414   1.339   4.626   6.637
 4839SOL     OW15415   2.811   0.974   1.885
 4839SOL    HW115416   2.804   0.878   1.856
 4839SOL    HW215417   2.725   1.002   1.928
 4840SOL     OW15418   5.551   2.203   3.826
 4840SOL    HW115419   5.505   2.179   3.911
 4840SOL    HW215420   5.561   2.122   3.769
 4841SOL     OW15421   2.962   5.168   3.281
 4841SOL    HW115422   2.925   5.232   3.348
 4841SOL    HW215423   2.928   5.076   3.300
 4842SOL     OW15424   4.215   4.763   3.352
 4842SOL    HW115425   4.230   4.783   3.449
 4842SOL    HW215426   4.123   4.793   3.326
 4843SOL     OW15427   6.184   2.648   6.881
 4843SOL    HW115428   6.159   2.597   6.799
 4843SOL    HW215429   6.283   2.639   6.896
 4844SOL     OW15430   1.002   5.197   6.347
 4844SOL    HW115431   1.064   5.257   6.398
 4844SOL    HW215432   1.055   5.139   6.285
 4845SOL     OW15433   5.612   4.597   5.504
 4845SOL    HW115434   5.573   4.521   5.453
 4845SOL    HW215435   5.552   4.677   5.496
 4846SOL     OW15436   6.157   3.705   4.176
 4846SOL    HW115437   6.118   3.688   4.266
 4846SOL    HW215438   6.098   3.666   4.105
 4847SOL     OW15439   1.976   6.871   6.481
 4847SOL    HW115440   2.072   6.867   6.511
 4847SOL    HW215441   1.973   6.875   6.381
 4848SOL     OW15442   5.002   1.116   3.388
 4848SOL    HW115443   5.025   1.066   3.471
 4848SOL    HW215444   5.076   1.179   3.366
 4849SOL     OW15445   1.075   5.571   1.679
 4849SOL    HW115446   0.984   5.531   1.676
 4849SOL    HW215447   1.131   5.534   1.604
 4850SOL     OW15448   3.305   0.116   2.156
 4850SOL    HW115449   3.301   0.117   2.256
 4850SOL    HW215450   3.343   0.203   2.123
 4851SOL     OW15451   4.760   4.575   6.529
 4851SOL    HW115452   4.846   4.612   6.494
 4851SOL    HW215453   4.737   4.620   6.616
 4852SOL     OW15454   4.278   4.279   5.733
 4852SOL    HW115455   4.211   4.307   5.801
 4852SOL    HW215456   4.367   4.267   5.777
 4853SOL     OW15457   4.547   0.203   1.977
 4853SOL    HW115458   4.597   0.285   2.001
 4853SOL    HW215459   4.451   0.214   2.002
 4854SOL     OW15460   3.761   7.024   1.812
 4854SOL    HW115461   3.851   6.983   1.823
 4854SOL    HW215462   3.735   0.044   1.896
 4855SOL     OW15463   4.478   4.835   5.546
 4855SOL    HW115464   4.381   4.812   5.560
 4855SOL    HW215465   4.502   4.819   5.450
 4856SOL     OW15466   0.598   3.027   3.272
 4856SOL    HW115467   0.636   3.028   3.179
 4856SOL    HW215468   0.649   3.091   3.329
 4857SOL     OW15469   2.867   1.172   5.610
 4857SOL    HW115470   2.808   1.138   5.537
 4857SOL    HW215471   2.813   1.224   5.675
 4858SOL     OW15472   2.873   5.695   5.133
 4858SOL    HW115473   2.949   5.756   5.108
 4858SOL    HW215474   2.907   5.602   5.142
 4859SOL     OW15475   0.049   5.488   3.208
 4859SOL    HW115476   0.142   5.464   3.236
 4859SOL    HW215477   7.012   5.467   3.283
 4860SOL     OW15478   3.721   5.531   0.609
 4860SOL    HW115479   3.764   5.442   0.622
 4860SOL    HW215480   3.715   5.578   0.697
 4861SOL     OW15481   5.088   5.017   4.641
 4861SOL    HW115482   5.005   5.062   4.673
 4861SOL    HW215483   5.065   4.944   4.578
 4862SOL     OW15484   1.401   5.100   3.875
 4862SOL    HW115485   1.489   5.145   3.864
 4862SOL    HW215486   1.331   5.168   3.897
 4863SOL     OW15487   5.912   1.673   2.281
 4863SOL    HW115488   5.993   1.678   2.223
 4863SOL    HW215489   5.881   1.578   2.286
 4864SOL     OW15490   2.547   3.087   1.677
 4864SOL    HW115491   2.638   3.071   1.714
 4864SOL    HW215492   2.540   3.047   1.586
 4865SOL     OW15493   3.926   0.245   4.902
 4865SOL    HW115494   3.847   0.186   4.916
 4865SOL    HW215495   4.008   0.188   4.890
 4866SOL     OW15496   1.309   5.354   1.657
 4866SOL    HW115497   1.404   5.383   1.657
 4866SOL    HW215498   1.302   5.264   1.613
 4867SOL     OW15499   5.563   4.673   6.283
 4867SOL    HW115500   5.589   4.607   6.354
 4867SOL    HW215501   5.638   4.682   6.217
 4868SOL     OW15502   1.488   6.068   2.096
 4868SOL    HW115503   1.576   6.106   2.069
 4868SOL    HW215504   1.442   6.029   2.016
 4869SOL     OW15505   0.499   1.892   1.737
 4869SOL    HW115506   0.413   1.888   1.687
 4869SOL    HW215507   0.575   1.870   1.676
 4870SOL     OW15508   5.898   1.840   1.925
 4870SOL    HW115509   5.861   1.814   1.836
 4870SOL    HW215510   5.822   1.860   1.987
 4871SOL     OW15511   1.444   2.447   5.480
 4871SOL    HW115512   1.362   2.477   5.528
 4871SOL    HW215513   1.451   2.493   5.392
 4872SOL     OW15514   2.518   2.494   2.977
 4872SOL    HW115515   2.518   2.511   3.076
 4872SOL    HW215516   2.476   2.405   2.958
 4873SOL     OW15517   1.191   6.998   5.867
 4873SOL    HW115518   1.238   6.934   5.928
 4873SOL    HW215519   1.101   6.963   5.845
 4874SOL     OW15520   6.252   1.940   4.867
 4874SOL    HW115521   6.231   2.037   4.852
 4874SOL    HW215522   6.347   1.923   4.840
 4875SOL     OW15523   0.160   3.370   0.498
 4875SOL    HW115524   0.129   3.428   0.573
 4875SOL    HW215525   0.084   3.351   0.437
 4876SOL     OW15526   6.554   1.467   6.639
 4876SOL    HW115527   6.454   1.455   6.639
 4876SOL    HW215528   6.583   1.502   6.550
 4877SOL     OW15529   4.164   2.152   2.167
 4877SOL    HW115530   4.256   2.119   2.146
 4877SOL    HW215531   4.151   2.153   2.266
 4878SOL     OW15532   1.235   2.660   2.767
 4878SOL    HW115533   1.277   2.750   2.785
 4878SOL    HW215534   1.306   2.595   2.740
 4879SOL     OW15535   3.254   6.518   2.792
 4879SOL    HW115536   3.219   6.610   2.773
 4879SOL    HW215537   3.289   6.513   2.885
 4880SOL     OW15538   7.024   2.503   6.236
 4880SOL    HW115539   0.042   2.527   6.150
 4880SOL    HW215540   0.056   2.532   6.312
 4881SOL     OW15541   3.215   6.634   5.759
 4881SOL    HW115542   3.176   6.543   5.772
 4881SOL    HW215543   3.202   6.688   5.842
 4882SOL     OW15544   5.532   6.408   6.497
 4882SOL    HW115545   5.442   6.399   6.539
 4882SOL    HW215546   5.588   6.471   6.552
 4883SOL     OW15547   5.998   5.677   0.207
 4883SOL    HW115548   5.948   5.713   0.129
 4883SOL    HW215549   5.999   5.744   0.281
 4884SOL     OW15550   4.241   6.411   2.201
 4884SOL    HW115551   4.158   6.355   2.206
 4884SOL    HW215552   4.312   6.370   2.258
 4885SOL     OW15553   0.396   0.053   1.886
 4885SOL    HW115554   0.433   0.145   1.875
 4885SOL    HW215555   0.312   0.044   1.832
 4886SOL     OW15556   6.084   1.064   5.673
 4886SOL    HW115557   6.111   1.144   5.726
 4886SOL    HW215558   5.985   1.051   5.681
 4887SOL     OW15559   0.372   2.736   5.714
 4887SOL    HW115560   0.436   2.660   5.705
 4887SOL    HW215561   0.364   2.785   5.627
 4888SOL     OW15562   4.970   5.837   0.797
 4888SOL    HW115563   4.942   5.876   0.709
 4888SOL    HW215564   5.000   5.743   0.783
 4889SOL     OW15565   1.291   3.165   6.087
 4889SOL    HW115566   1.226   3.100   6.050
 4889SOL    HW215567   1.377   3.160   6.035
 4890SOL     OW15568   5.998   0.444   3.962
 4890SOL    HW115569   6.082   0.421   3.912
 4890SOL    HW215570   5.918   0.416   3.909
 4891SOL     OW15571   0.273   4.789   0.687
 4891SOL    HW115572   0.278   4.829   0.595
 4891SOL    HW215573   0.184   4.809   0.727
 4892SOL     OW15574   1.949   5.392   1.991
 4892SOL    HW115575   1.863   5.402   2.040
 4892SOL    HW215576   1.987   5.482   1.971
 4893SOL     OW15577   6.841   4.283   6.655
 4893SOL    HW115578   6.777   4.209   6.677
 4893SOL    HW215579   6.922   4.275   6.713
 4894SOL     OW15580   0.246   0.051   3.549
 4894SOL    HW115581   0.231   0.126   3.612
 4894SOL    HW215582   0.223   6.991   3.594
 4895SOL     OW15583   6.684   3.736   6.696
 4895SOL    HW115584   6.784   3.726   6.693
 4895SOL    HW215585   6.647   3.674   6.765
 4896SOL     OW15586   4.443   1.337   5.639
 4896SOL    HW115587   4.516   1.374   5.582
 4896SOL    HW215588   4.379   1.284   5.583
 4897SOL     OW15589   2.717   5.830   0.254
 4897SOL    HW115590   2.807   5.790   0.267
 4897SOL    HW215591   2.721   5.928   0.271
 4898SOL     OW15592   4.886   2.603   4.678
 4898SOL    HW115593   4.792   2.634   4.662
 4898SOL    HW215594   4.939   2.613   4.593
 4899SOL     OW15595   0.582   3.099   4.283
 4899SOL    HW115596   0.567   3.000   4.287
 4899SOL    HW215597   0.495   3.146   4.271
 4900SOL     OW15598   0.094   6.551   6.304
 4900SOL    HW115599   0.057   6.601   6.381
 4900SOL    HW215600   0.019   6.513   6.249
 4901SOL     OW15601   6.319   6.541   3.007
 4901SOL    HW115602   6.339   6.636   3.031
 4901SOL    HW215603   6.383   6.511   2.937
 4902SOL     OW15604   2.883   6.064   0.172
 4902SOL    HW115605   2.835   6.021   0.096
 4902SOL    HW215606   2.966   6.012   0.192
 4903SOL     OW15607   6.227   4.482   6.866
 4903SOL    HW115608   6.240   4.581   6.869
 4903SOL    HW215609   6.178   4.451   6.948
 4904SOL     OW15610   2.948   1.022   3.608
 4904SOL    HW115611   2.883   1.098   3.610
 4904SOL    HW215612   2.903   0.939   3.641
 4905SOL     OW15613   5.681   4.068   2.991
 4905SOL    HW115614   5.731   4.154   2.983
 4905SOL    HW215615   5.623   4.055   2.910
 4906SOL     OW15616   5.642   0.481   1.789
 4906SOL    HW115617   5.578   0.541   1.836
 4906SOL    HW215618   5.710   0.447   1.855
 4907SOL     OW15619   3.146   2.576   0.947
 4907SOL    HW115620   3.195   2.647   0.999
 4907SOL    HW215621   3.160   2.488   0.992
 4908SOL     OW15622   5.041   5.071   6.264
 4908SOL    HW115623   4.958   5.071   6.207
 4908SOL    HW215624   5.020   5.029   6.352
 4909SOL     OW15625   6.357   6.943   5.732
 4909SOL    HW115626   6.258   6.953   5.737
 4909SOL    HW215627   6.387   6.958   5.638
 4910SOL     OW15628   5.309   6.831   5.273
 4910SOL    HW115629   5.386   6.847   5.211
 4910SOL    HW215630   5.224   6.850   5.225
 4911SOL     OW15631   0.003   3.802   6.922
 4911SOL    HW115632   6.978   3.772   6.842
 4911SOL    HW215633   6.969   3.854   6.983
 4912SOL     OW15634   1.530   2.784   1.722
 4912SOL    HW115635   1.455   2.845   1.696
 4912SOL    HW215636   1.515   2.750   1.815
 4913SOL     OW15637   2.848   3.630   2.007
 4913SOL    HW115638   2.925   3.664   2.060
 4913SOL    HW215639   2.808   3.704   1.953
 4914SOL     OW15640   1.253   0.304   2.724
 4914SOL    HW115641   1.289   0.228   2.670
 4914SOL    HW215642   1.273   0.390   2.676
 4915SOL     OW15643   4.252   6.833   4.003
 4915SOL    HW115644   4.262   6.924   3.962
 4915SOL    HW215645   4.229   6.842   4.100
 4916SOL     OW15646   1.545   1.356   1.952
 4916SOL    HW115647   1.607   1.278   1.953
 4916SOL    HW215648   1.547   1.399   1.862
 4917SOL     OW15649   0.656   5.575   6.911
 4917SOL    HW115650   0.630   5.655   6.966
 4917SOL    HW215651   0.711   5.604   6.833
 4918SOL     OW15652   2.426   6.663   3.774
 4918SOL    HW115653   2.326   6.666   3.765
 4918SOL    HW215654   2.468   6.691   3.687
 4919SOL     OW15655   2.570   2.850   1.193
 4919SOL    HW115656   2.594   2.845   1.290
 4919SOL    HW215657   2.494   2.787   1.174
 4920SOL     OW15658   4.081   2.355   6.304
 4920SOL    HW115659   4.102   2.380   6.209
 4920SOL    HW215660   4.056   2.438   6.355
 4921SOL     OW15661   6.737   4.636   1.879
 4921SOL    HW115662   6.777   4.599   1.963
 4921SOL    HW215663   6.662   4.699   1.904
 4922SOL     OW15664   1.696   3.861   5.681
 4922SOL    HW115665   1.664   3.767   5.691
 4922SOL    HW215666   1.663   3.916   5.757
 4923SOL     OW15667   4.000   2.018   0.363
 4923SOL    HW115668   4.073   2.038   0.298
 4923SOL    HW215669   4.033   2.039   0.456
 4924SOL     OW15670   1.169   3.102   4.612
 4924SOL    HW115671   1.244   3.161   4.643
 4924SOL    HW215672   1.082   3.148   4.631
 4925SOL     OW15673   5.117   5.127   4.942
 4925SOL    HW115674   5.066   5.196   4.891
 4925SOL    HW215675   5.210   5.159   4.957
 4926SOL     OW15676   4.363   3.527   0.770
 4926SOL    HW115677   4.402   3.525   0.863
 4926SOL    HW215678   4.331   3.435   0.746
 4927SOL     OW15679   2.852   3.403   2.377
 4927SOL    HW115680   2.760   3.364   2.364
 4927SOL    HW215681   2.902   3.399   2.291
 4928SOL     OW15682   6.546   1.983   6.002
 4928SOL    HW115683   6.532   1.895   6.049
 4928SOL    HW215684   6.583   1.966   5.911
 4929SOL     OW15685   1.449   4.604   3.958
 4929SOL    HW115686   1.453   4.546   4.040
 4929SOL    HW215687   1.541   4.626   3.928
 4930SOL     OW15688   0.828   3.345   0.379
 4930SOL    HW115689   0.862   3.430   0.339
 4930SOL    HW215690   0.745   3.317   0.331
 4931SOL     OW15691   5.731   6.949   0.769
 4931SOL    HW115692   5.683   6.978   0.852
 4931SOL    HW215693   5.670   6.958   0.690
 4932SOL     OW15694   2.783   1.780   0.782
 4932SOL    HW115695   2.822   1.808   0.694
 4932SOL    HW215696   2.822   1.837   0.854
 4933SOL     OW15697   2.863   0.072   4.506
 4933SOL    HW115698   2.900   0.082   4.598
 4933SOL    HW215699   2.797   7.023   4.504
 4934SOL     OW15700   1.525   6.284   5.394
 4934SOL    HW115701   1.600   6.336   5.436
 4934SOL    HW215702   1.536   6.285   5.295
 4935SOL     OW15703   1.007   2.600   1.293
 4935SOL    HW115704   1.016   2.613   1.195
 4935SOL    HW215705   1.025   2.504   1.316
 4936SOL     OW15706   6.500   3.710   1.316
 4936SOL    HW115707   6.413   3.671   1.285
 4936SOL    HW215708   6.483   3.795   1.366
 4937SOL     OW15709   0.942   3.934   5.487
 4937SOL    HW115710   0.942   4.034   5.492
 4937SOL    HW215711   0.925   3.896   5.578
 4938SOL     OW15712   3.076   3.813   1.112
 4938SOL    HW115713   3.108   3.736   1.056
 4938SOL    HW215714   2.977   3.803   1.128
 4939SOL     OW15715   0.893   1.382   1.683
 4939SOL    HW115716   0.955   1.395   1.760
 4939SOL    HW215717   0.946   1.365   1.600
 4940SOL     OW15718   1.909   1.716   4.942
 4940SOL    HW115719   1.907   1.816   4.949
 4940SOL    HW215720   1.816   1.681   4.942
 4941SOL     OW15721   3.500   2.075   6.008
 4941SOL    HW115722   3.496   2.052   6.105
 4941SOL    HW215723   3.460   2.165   5.993
 4942SOL     OW15724   0.670   0.649   2.503
 4942SOL    HW115725   0.666   0.558   2.544
 4942SOL    HW215726   0.604   0.709   2.549
 4943SOL     OW15727   5.508   1.987   6.849
 4943SOL    HW115728   5.453   2.070   6.848
 4943SOL    HW215729   5.476   1.925   6.777
 4944SOL     OW15730   1.273   4.703   0.280
 4944SOL    HW115731   1.192   4.757   0.255
 4944SOL    HW215732   1.265   4.673   0.375
 4945SOL     OW15733   2.575   0.380   6.601
 4945SOL    HW115734   2.622   0.466   6.619
 4945SOL    HW215735   2.566   0.328   6.686
 4946SOL     OW15736   2.028   6.369   0.033
 4946SOL    HW115737   1.939   6.338   0.066
 4946SOL    HW215738   2.095   6.295   0.044
 4947SOL     OW15739   1.395   0.086   1.065
 4947SOL    HW115740   1.434   0.007   1.112
 4947SOL    HW215741   1.366   0.154   1.132
 4948SOL     OW15742   1.501   3.608   2.169
 4948SOL    HW115743   1.500   3.671   2.092
 4948SOL    HW215744   1.558   3.529   2.146
 4949SOL     OW15745   6.640   5.067   6.687
 4949SOL    HW115746   6.566   5.019   6.735
 4949SOL    HW215747   6.727   5.040   6.727
 4950SOL     OW15748   3.877   3.748   6.078
 4950SOL    HW115749   3.943   3.706   6.015
 4950SOL    HW215750   3.784   3.733   6.043
 4951SOL     OW15751   4.591   5.319   3.785
 4951SOL    HW115752   4.629   5.396   3.734
 4951SOL    HW215753   4.578   5.345   3.881
 4952SOL     OW15754   0.696   0.934   6.503
 4952SOL    HW115755   0.690   0.894   6.594
 4952SOL    HW215756   0.791   0.935   6.472
 4953SOL     OW15757   1.013   1.141   5.702
 4953SOL    HW115758   1.112   1.144   5.715
 4953SOL    HW215759   0.969   1.213   5.756
 4954SOL     OW15760   3.610   3.846   5.728
 4954SOL    HW115761   3.617   3.828   5.826
 4954SOL    HW215762   3.513   3.859   5.704
 4955SOL     OW15763   3.898   6.134   0.155
 4955SOL    HW115764   3.974   6.103   0.212
 4955SOL    HW215765   3.815   6.083   0.180
 4956SOL     OW15766   2.346   0.195   3.445
 4956SOL    HW115767   2.422   0.240   3.399
 4956SOL    HW215768   2.328   0.240   3.532
 4957SOL     OW15769   6.129   5.568   0.717
 4957SOL    HW115770   6.208   5.544   0.774
 4957SOL    HW215771   6.157   5.628   0.642
 4958SOL     OW15772   2.855   5.460   0.720
 4958SOL    HW115773   2.932   5.446   0.658
 4958SOL    HW215774   2.856   5.390   0.791
 4959SOL     OW15775   2.297   1.299   2.515
 4959SOL    HW115776   2.333   1.375   2.569
 4959SOL    HW215777   2.246   1.334   2.437
 4960SOL     OW15778   5.195   4.149   4.772
 4960SOL    HW115779   5.201   4.050   4.783
 4960SOL    HW215780   5.253   4.194   4.840
 4961SOL     OW15781   3.826   3.291   2.432
 4961SOL    HW115782   3.737   3.300   2.477
 4961SOL    HW215783   3.860   3.197   2.442
 4962SOL     OW15784   1.478   2.519   0.696
 4962SOL    HW115785   1.486   2.618   0.681
 4962SOL    HW215786   1.394   2.486   0.653
 4963SOL     OW15787   0.566   3.580   6.770
 4963SOL    HW115788   0.477   3.577   6.815
 4963SOL    HW215789   0.613   3.665   6.795
 4964SOL     OW15790   1.457   5.120   3.470
 4964SOL    HW115791   1.434   5.053   3.399
 4964SOL    HW215792   1.382   5.184   3.481
 4965SOL     OW15793   2.346   6.803   2.850
 4965SOL    HW115794   2.367   6.880   2.909
 4965SOL    HW215795   2.287   6.833   2.775
 4966SOL     OW15796   4.035   6.759   5.554
 4966SOL    HW115797   4.093   6.801   5.624
 4966SOL    HW215798   4.086   6.688   5.506
 4967SOL     OW15799   4.507   4.557   3.116
 4967SOL    HW115800   4.420   4.600   3.094
 4967SOL    HW215801   4.577   4.588   3.051
 4968SOL     OW15802   6.593   2.831   3.567
 4968SOL    HW115803   6.544   2.917   3.556
 4968SOL    HW215804   6.530   2.754   3.553
 4969SOL     OW15805   1.448   5.614   3.696
 4969SOL    HW115806   1.443   5.673   3.776
 4969SOL    HW215807   1.364   5.560   3.690
 4970SOL     OW15808   2.665   0.703   0.582
 4970SOL    HW115809   2.722   0.620   0.577
 4970SOL    HW215810   2.598   0.693   0.656
 4971SOL     OW15811   0.757   6.126   2.343
 4971SOL    HW115812   0.661   6.101   2.330
 4971SOL    HW215813   0.801   6.060   2.403
 4972SOL     OW15814   0.283   3.597   0.976
 4972SOL    HW115815   0.267   3.508   0.934
 4972SOL    HW215816   0.293   3.666   0.904
 4973SOL     OW15817   5.402   2.688   0.366
 4973SOL    HW115818   5.455   2.617   0.320
 4973SOL    HW215819   5.463   2.757   0.404
 4974SOL     OW15820   3.287   0.468   5.524
 4974SOL    HW115821   3.369   0.501   5.571
 4974SOL    HW215822   3.306   0.379   5.483
 4975SOL     OW15823   6.226   4.127   1.168
 4975SOL    HW115824   6.204   4.158   1.261
 4975SOL    HW215825   6.325   4.113   1.160
 4976SOL     OW15826   1.958   0.175   3.954
 4976SOL    HW115827   1.932   0.222   4.038
 4976SOL    HW215828   1.888   0.108   3.929
 4977SOL     OW15829   1.389   3.511   4.402
 4977SOL    HW115830   1.321   3.445   4.372
 4977SOL    HW215831   1.414   3.571   4.326
 4978SOL     OW15832   6.292   5.223   4.456
 4978SOL    HW115833   6.360   5.295   4.460
 4978SOL    HW215834   6.246   5.225   4.367
 4979SOL     OW15835   3.329   0.175   5.728
 4979SOL    HW115836   3.379   0.261   5.731
 4979SOL    HW215837   3.338   0.128   5.816
 4980SOL     OW15838   5.745   2.830   4.372
 4980SOL    HW115839   5.695   2.846   4.286
 4980SOL    HW215840   5.766   2.918   4.415
 4981SOL     OW15841   3.167   6.847   2.815
 4981SOL    HW115842   3.217   6.793   2.748
 4981SOL    HW215843   3.072   6.818   2.818
 4982SOL     OW15844   3.621   2.048   4.951
 4982SOL    HW115845   3.582   2.135   4.921
 4982SOL    HW215846   3.717   2.061   4.975
 4983SOL     OW15847   5.242   3.806   3.046
 4983SOL    HW115848   5.199   3.847   2.965
 4983SOL    HW215849   5.341   3.799   3.031
 4984SOL     OW15850   5.038   3.516   5.153
 4984SOL    HW115851   5.001   3.534   5.244
 4984SOL    HW215852   4.972   3.545   5.083
 4985SOL     OW15853   4.705   0.399   2.070
 4985SOL    HW115854   4.758   0.430   1.991
 4985SOL    HW215855   4.730   0.453   2.151
 4986SOL     OW15856   1.485   5.704   1.306
 4986SOL    HW115857   1.525   5.785   1.263
 4986SOL    HW215858   1.405   5.675   1.254
 4987SOL     OW15859   2.140   4.149   2.067
 4987SOL    HW115860   2.181   4.107   1.986
 4987SOL    HW215861   2.090   4.231   2.041
 4988SOL     OW15862   6.520   4.719   3.879
 4988SOL    HW115863   6.590   4.760   3.938
 4988SOL    HW215864   6.433   4.720   3.927
 4989SOL     OW15865   6.967   0.533   4.653
 4989SOL    HW115866   6.868   0.531   4.642
 4989SOL    HW215867   6.999   0.441   4.678
 4990SOL     OW15868   4.113   1.293   5.965
 4990SOL    HW115869   4.104   1.236   5.883
 4990SOL    HW215870   4.191   1.263   6.019
 4991SOL     OW15871   2.231   5.160   5.002
 4991SOL    HW115872   2.196   5.252   4.982
 4991SOL    HW215873   2.313   5.168   5.060
 4992SOL     OW15874   2.992   2.674   5.349
 4992SOL    HW115875   2.926   2.601   5.332
 4992SOL    HW215876   2.943   2.761   5.360
 4993SOL     OW15877   2.207   5.171   3.614
 4993SOL    HW115878   2.247   5.195   3.526
 4993SOL    HW215879   2.193   5.255   3.668
 4994SOL     OW15880   3.433   4.700   5.823
 4994SOL    HW115881   3.448   4.650   5.737
 4994SOL    HW215882   3.378   4.643   5.885
 4995SOL     OW15883   0.563   2.202   6.388
 4995SOL    HW115884   0.465   2.222   6.390
 4995SOL    HW215885   0.577   2.104   6.397
 4996SOL     OW15886   0.035   0.898   4.593
 4996SOL    HW115887   0.011   0.994   4.611
 4996SOL    HW215888   0.103   0.868   4.661
 4997SOL     OW15889   3.443   1.804   0.953
 4997SOL    HW115890   3.482   1.712   0.952
 4997SOL    HW215891   3.499   1.863   1.011
 4998SOL     OW15892   0.990   4.132   3.302
 4998SOL    HW115893   0.925   4.170   3.368
 4998SOL    HW215894   1.079   4.118   3.346
 4999SOL     OW15895   6.811   2.811   3.297
 4999SOL    HW115896   6.895   2.865   3.310
 4999SOL    HW215897   6.745   2.834   3.369
 5000SOL     OW15898   2.196   6.413   2.645
 5000SOL    HW115899   2.263   6.398   2.717
 5000SOL    HW215900   2.120   6.349   2.656
 5001SOL     OW15901   0.249   6.073   3.221
 5001SOL    HW115902   0.242   6.120   3.133
 5001SOL    HW215903   0.280   5.979   3.207
 5002SOL     OW15904   1.182   5.269   3.889
 5002SOL    HW115905   1.084   5.253   3.876
 5002SOL    HW215906   1.204   5.266   3.987
 5003SOL     OW15907   3.979   1.753   1.415
 5003SOL    HW115908   3.937   1.663   1.428
 5003SOL    HW215909   3.908   1.824   1.420
 5004SOL     OW15910   3.817   5.992   0.562
 5004SOL    HW115911   3.803   6.020   0.657
 5004SOL    HW215912   3.752   6.040   0.504
 5005SOL     OW15913   4.636   3.168   1.051
 5005SOL    HW115914   4.580   3.185   1.132
 5005SOL    HW215915   4.729   3.203   1.068
 5006SOL     OW15916   4.493   1.245   2.436
 5006SOL    HW115917   4.398   1.255   2.405
 5006SOL    HW215918   4.552   1.233   2.357
 5007SOL     OW15919   6.948   5.354   3.000
 5007SOL    HW115920   7.006   5.275   3.017
 5007SOL    HW215921   6.922   5.396   3.087
 5008SOL     OW15922   3.980   0.292   4.078
 5008SOL    HW115923   3.953   0.316   4.171
 5008SOL    HW215924   3.936   0.354   4.013
 5009SOL     OW15925   1.057   1.740   6.059
 5009SOL    HW115926   1.071   1.805   6.134
 5009SOL    HW215927   1.118   1.763   5.984
 5010SOL     OW15928   5.330   4.758   0.960
 5010SOL    HW115929   5.418   4.736   0.918
 5010SOL    HW215930   5.271   4.677   0.959
 5011SOL     OW15931   1.746   2.227   5.750
 5011SOL    HW115932   1.836   2.211   5.708
 5011SOL    HW215933   1.684   2.266   5.682
 5012SOL     OW15934   5.769   2.535   5.627
 5012SOL    HW115935   5.787   2.597   5.550
 5012SOL    HW215936   5.723   2.453   5.593
 5013SOL     OW15937   6.308   6.022   5.893
 5013SOL    HW115938   6.263   6.005   5.981
 5013SOL    HW215939   6.406   6.004   5.903
 5014SOL     OW15940   6.427   3.242   0.236
 5014SOL    HW115941   6.372   3.180   0.293
 5014SOL    HW215942   6.391   3.242   0.143
 5015SOL     OW15943   6.354   4.747   4.304
 5015SOL    HW115944   6.314   4.804   4.375
 5015SOL    HW215945   6.450   4.771   4.293
 5016SOL     OW15946   1.274   2.008   6.636
 5016SOL    HW115947   1.313   1.999   6.727
 5016SOL    HW215948   1.345   1.992   6.567
 5017SOL     OW15949   1.148   2.424   1.841
 5017SOL    HW115950   1.247   2.412   1.837
 5017SOL    HW215951   1.103   2.334   1.844
 5018SOL     OW15952   0.492   0.402   0.619
 5018SOL    HW115953   0.547   0.485   0.618
 5018SOL    HW215954   0.494   0.359   0.528
 5019SOL     OW15955   1.890   3.869   3.992
 5019SOL    HW115956   1.985   3.844   4.012
 5019SOL    HW215957   1.831   3.789   4.005
 5020SOL     OW15958   1.667   0.115   2.556
 5020SOL    HW115959   1.613   0.199   2.564
 5020SOL    HW215960   1.655   0.060   2.639
 5021SOL     OW15961   2.547   0.524   0.974
 5021SOL    HW115962   2.625   0.556   1.027
 5021SOL    HW215963   2.560   0.429   0.948
 5022SOL     OW15964   6.928   3.399   1.702
 5022SOL    HW115965   6.828   3.397   1.708
 5022SOL    HW215966   6.960   3.493   1.714
 5023SOL     OW15967   0.465   2.096   3.523
 5023SOL    HW115968   0.475   2.091   3.423
 5023SOL    HW215969   0.382   2.147   3.546
 5024SOL     OW15970   4.319   3.905   0.306
 5024SOL    HW115971   4.322   4.005   0.306
 5024SOL    HW215972   4.243   3.874   0.364
 5025SOL     OW15973   4.317   1.952   4.560
 5025SOL    HW115974   4.266   1.949   4.474
 5025SOL    HW215975   4.370   1.868   4.569
 5026SOL     OW15976   5.230   6.084   5.111
 5026SOL    HW115977   5.258   6.174   5.146
 5026SOL    HW215978   5.245   6.081   5.012
 5027SOL     OW15979   5.575   6.341   1.462
 5027SOL    HW115980   5.645   6.375   1.398
 5027SOL    HW215981   5.505   6.411   1.475
 5028SOL     OW15982   0.434   2.087   2.529
 5028SOL    HW115983   0.518   2.081   2.475
 5028SOL    HW215984   0.355   2.093   2.469
 5029SOL     OW15985   6.107   2.969   3.227
 5029SOL    HW115986   6.015   2.990   3.260
 5029SOL    HW215987   6.164   2.937   3.303
 5030SOL     OW15988   0.890   3.099   0.721
 5030SOL    HW115989   0.793   3.124   0.719
 5030SOL    HW215990   0.944   3.174   0.682
 5031SOL     OW15991   5.812   0.651   6.361
 5031SOL    HW115992   5.889   0.715   6.370
 5031SOL    HW215993   5.731   0.690   6.406
 5032SOL     OW15994   2.031   4.689   6.360
 5032SOL    HW115995   1.952   4.748   6.343
 5032SOL    HW215996   2.040   4.674   6.459
 5033SOL     OW15997   2.271   6.926   3.752
 5033SOL    HW115998   2.203   6.890   3.688
 5033SOL    HW215999   2.334   6.853   3.778
 5034SOL     OW16000   4.339   5.974   3.552
 5034SOL    HW116001   4.401   5.932   3.486
 5034SOL    HW216002   4.384   5.978   3.641
 5035SOL     OW16003   1.995   4.368   4.037
 5035SOL    HW116004   1.991   4.269   4.055
 5035SOL    HW216005   2.073   4.408   4.085
 5036SOL     OW16006   1.234   2.623   4.390
 5036SOL    HW116007   1.239   2.715   4.430
 5036SOL    HW216008   1.321   2.601   4.347
 5037SOL     OW16009   5.143   4.631   1.532
 5037SOL    HW116010   5.070   4.563   1.537
 5037SOL    HW216011   5.104   4.718   1.501
 5038SOL     OW16012   2.952   3.835   4.818
 5038SOL    HW116013   2.981   3.739   4.818
 5038SOL    HW216014   2.922   3.861   4.909
 5039SOL     OW16015   0.429   2.750   6.451
 5039SOL    HW116016   0.426   2.820   6.523
 5039SOL    HW216017   0.482   2.784   6.374
 5040SOL     OW16018   1.202   1.515   5.053
 5040SOL    HW116019   1.189   1.593   4.992
 5040SOL    HW216020   1.299   1.505   5.075
 5041SOL     OW16021   6.608   2.544   1.291
 5041SOL    HW116022   6.588   2.499   1.378
 5041SOL    HW216023   6.603   2.477   1.217
 5042SOL     OW16024   1.432   1.656   5.422
 5042SOL    HW116025   1.427   1.755   5.435
 5042SOL    HW216026   1.359   1.612   5.475
 5043SOL     OW16027   2.371   0.192   1.203
 5043SOL    HW116028   2.352   0.123   1.133
 5043SOL    HW216029   2.421   0.268   1.162
 5044SOL     OW16030   6.856   5.929   1.353
 5044SOL    HW116031   6.767   5.973   1.346
 5044SOL    HW216032   6.915   5.960   1.278
 5045SOL     OW16033   5.937   2.699   2.715
 5045SOL    HW116034   5.957   2.777   2.656
 5045SOL    HW216035   5.871   2.726   2.785
 5046SOL     OW16036   4.099   3.306   1.798
 5046SOL    HW116037   4.086   3.401   1.828
 5046SOL    HW216038   4.162   3.303   1.721
 5047SOL     OW16039   2.520   5.046   3.674
 5047SOL    HW116040   2.560   5.002   3.593
 5047SOL    HW216041   2.442   5.103   3.646
 5048SOL     OW16042   1.644   6.910   5.384
 5048SOL    HW116043   1.664   6.988   5.326
 5048SOL    HW216044   1.561   6.927   5.437
 5049SOL     OW16045   3.897   1.943   6.159
 5049SOL    HW116046   3.847   1.879   6.218
 5049SOL    HW216047   3.909   2.030   6.207
 5050SOL     OW16048   1.193   0.320   0.875
 5050SOL    HW116049   1.168   0.234   0.831
 5050SOL    HW216050   1.292   0.323   0.890
 5051SOL     OW16051   4.184   4.359   1.130
 5051SOL    HW116052   4.121   4.284   1.107
 5051SOL    HW216053   4.230   4.338   1.217
 5052SOL     OW16054   1.832   3.875   4.284
 5052SOL    HW116055   1.752   3.916   4.240
 5052SOL    HW216056   1.856   3.927   4.366
 5053SOL     OW16057   6.752   0.853   0.539
 5053SOL    HW116058   6.813   0.774   0.534
 5053SOL    HW216059   6.778   0.920   0.469
 5054SOL     OW16060   4.186   5.350   3.068
 5054SOL    HW116061   4.185   5.351   3.168
 5054SOL    HW216062   4.200   5.443   3.034
 5055SOL     OW16063   5.824   4.446   5.625
 5055SOL    HW116064   5.741   4.495   5.598
 5055SOL    HW216065   5.800   4.362   5.673
 5056SOL     OW16066   6.627   5.100   3.115
 5056SOL    HW116067   6.644   5.190   3.155
 5056SOL    HW216068   6.530   5.093   3.088
 5057SOL     OW16069   6.733   6.602   2.728
 5057SOL    HW116070   6.738   6.580   2.826
 5057SOL    HW216071   6.778   6.530   2.675
 5058SOL     OW16072   2.644   5.813   5.672
 5058SOL    HW116073   2.565   5.870   5.694
 5058SOL    HW216074   2.633   5.776   5.580
 5059SOL     OW16075   6.485   6.477   2.756
 5059SOL    HW116076   6.580   6.501   2.738
 5059SOL    HW216077   6.425   6.544   2.712
 5060SOL     OW16078   6.753   2.953   0.227
 5060SOL    HW116079   6.734   3.050   0.243
 5060SOL    HW216080   6.798   2.943   0.138
 5061SOL     OW16081   5.591   3.483   0.776
 5061SOL    HW116082   5.681   3.521   0.752
 5061SOL    HW216083   5.527   3.499   0.701
 5062SOL     OW16084   6.670   0.314   6.887
 5062SOL    HW116085   6.664   0.304   6.788
 5062SOL    HW216086   6.709   0.403   6.910
 5063SOL     OW16087   1.289   6.480   2.363
 5063SOL    HW116088   1.381   6.441   2.363
 5063SOL    HW216089   1.296   6.580   2.357
 5064SOL     OW16090   5.219   4.763   6.726
 5064SOL    HW116091   5.287   4.693   6.707
 5064SOL    HW216092   5.258   4.831   6.789
 5065SOL     OW16093   2.046   6.909   5.557
 5065SOL    HW116094   2.122   6.941   5.501
 5065SOL    HW216095   2.008   6.825   5.517
 5066SOL     OW16096   4.996   4.800   0.283
 5066SOL    HW116097   5.059   4.762   0.216
 5066SOL    HW216098   4.907   4.816   0.241
 5067SOL     OW16099   5.380   1.033   6.569
 5067SOL    HW116100   5.479   1.040   6.561
 5067SOL    HW216101   5.338   1.119   6.543
 5068SOL     OW16102   3.350   5.324   1.511
 5068SOL    HW116103   3.362   5.225   1.507
 5068SOL    HW216104   3.266   5.345   1.562
 5069SOL     OW16105   0.077   5.129   3.000
 5069SOL    HW116106   0.026   5.074   3.066
 5069SOL    HW216107   0.171   5.094   2.992
 5070SOL     OW16108   4.924   2.292   3.842
 5070SOL    HW116109   5.010   2.246   3.820
 5070SOL    HW216110   4.908   2.290   3.940
 5071SOL     OW16111   5.284   1.148   1.876
 5071SOL    HW116112   5.325   1.057   1.876
 5071SOL    HW216113   5.347   1.214   1.917
 5072SOL     OW16114   0.762   4.239   2.552
 5072SOL    HW116115   0.704   4.274   2.479
 5072SOL    HW216116   0.712   4.170   2.604
 5073SOL     OW16117   4.480   2.466   3.619
 5073SOL    HW116118   4.442   2.463   3.527
 5073SOL    HW216119   4.578   2.486   3.615
 5074SOL     OW16120   4.153   3.698   5.189
 5074SOL    HW116121   4.083   3.708   5.260
 5074SOL    HW216122   4.115   3.722   5.100
 5075SOL     OW16123   6.388   0.420   4.145
 5075SOL    HW116124   6.414   0.481   4.220
 5075SOL    HW216125   6.405   0.465   4.058
 5076SOL     OW16126   5.396   0.462   0.351
 5076SOL    HW116127   5.350   0.484   0.264
 5076SOL    HW216128   5.333   0.408   0.408
 5077SOL     OW16129   7.008   1.002   2.773
 5077SOL    HW116130   0.012   0.922   2.824
 5077SOL    HW216131   0.022   1.084   2.813
 5078SOL     OW16132   0.532   1.821   4.599
 5078SOL    HW116133   0.504   1.900   4.545
 5078SOL    HW216134   0.465   1.748   4.589
 5079SOL     OW16135   5.229   5.465   4.419
 5079SOL    HW116136   5.189   5.374   4.404
 5079SOL    HW216137   5.213   5.493   4.514
 5080SOL     OW16138   4.939   0.167   5.827
 5080SOL    HW116139   4.975   0.077   5.805
 5080SOL    HW216140   4.849   0.158   5.869
 5081SOL     OW16141   2.888   3.409   3.073
 5081SOL    HW116142   2.812   3.446   3.128
 5081SOL    HW216143   2.920   3.324   3.114
 5082SOL     OW16144   1.142   1.777   5.273
 5082SOL    HW116145   1.179   1.802   5.183
 5082SOL    HW216146   1.216   1.744   5.332
 5083SOL     OW16147   0.880   3.406   2.330
 5083SOL    HW116148   0.810   3.395   2.400
 5083SOL    HW216149   0.968   3.426   2.373
 5084SOL     OW16150   1.425   5.538   2.409
 5084SOL    HW116151   1.370   5.611   2.448
 5084SOL    HW216152   1.395   5.450   2.447
 5085SOL     OW16153   6.771   2.619   0.730
 5085SOL    HW116154   6.708   2.660   0.796
 5085SOL    HW216155   6.814   2.539   0.771
 5086SOL     OW16156   6.613   4.805   4.952
 5086SOL    HW116157   6.709   4.834   4.957
 5086SOL    HW216158   6.608   4.705   4.951
 5087SOL     OW16159   5.552   5.277   5.950
 5087SOL    HW116160   5.608   5.198   5.974
 5087SOL    HW216161   5.476   5.248   5.892
 5088SOL     OW16162   5.570   1.435   6.273
 5088SOL    HW116163   5.623   1.358   6.310
 5088SOL    HW216164   5.510   1.403   6.200
 5089SOL     OW16165   5.444   2.944   4.203
 5089SOL    HW116166   5.381   2.914   4.275
 5089SOL    HW216167   5.452   2.873   4.133
 5090SOL     OW16168   0.855   4.903   7.025
 5090SOL    HW116169   0.937   4.848   7.016
 5090SOL    HW216170   0.787   4.854   0.054
 5091SOL     OW16171   0.842   5.756   4.291
 5091SOL    HW116172   0.793   5.778   4.207
 5091SOL    HW216173   0.879   5.840   4.332
 5092SOL     OW16174   3.729   3.088   0.363
 5092SOL    HW116175   3.697   3.069   0.270
 5092SOL    HW216176   3.676   3.033   0.428
 5093SOL     OW16177   0.801   0.809   2.298
 5093SOL    HW116178   0.718   0.810   2.241
 5093SOL    HW216179   0.782   0.761   2.384
 5094SOL     OW16180   1.021   0.160   6.089
 5094SOL    HW116181   1.039   0.126   5.996
 5094SOL    HW216182   0.932   0.127   6.120
 5095SOL     OW16183   3.216   6.539   4.713
 5095SOL    HW116184   3.224   6.614   4.647
 5095SOL    HW216185   3.161   6.466   4.673
 5096SOL     OW16186   3.411   6.125   2.303
 5096SOL    HW116187   3.501   6.116   2.347
 5096SOL    HW216188   3.379   6.035   2.275
 5097SOL     OW16189   0.877   2.230   6.899
 5097SOL    HW116190   0.886   2.280   6.813
 5097SOL    HW216191   0.893   2.293   6.975
 5098SOL     OW16192   1.517   3.003   2.966
 5098SOL    HW116193   1.579   3.080   2.948
 5098SOL    HW216194   1.469   2.980   2.881
 5099SOL     OW16195   0.756   1.613   4.345
 5099SOL    HW116196   0.812   1.612   4.428
 5099SOL    HW216197   0.752   1.706   4.308
 5100SOL     OW16198   5.047   4.730   5.308
 5100SOL    HW116199   5.026   4.816   5.262
 5100SOL    HW216200   4.997   4.656   5.264
 5101SOL     OW16201   5.734   6.236   0.656
 5101SOL    HW116202   5.679   6.317   0.638
 5101SOL    HW216203   5.718   6.204   0.749
 5102SOL     OW16204   3.995   5.946   3.493
 5102SOL    HW116205   3.962   6.009   3.423
 5102SOL    HW216206   4.007   5.855   3.453
 5103SOL     OW16207   1.741   2.285   3.919
 5103SOL    HW116208   1.783   2.308   3.831
 5103SOL    HW216209   1.783   2.201   3.955
 5104SOL     OW16210   0.831   0.453   0.712
 5104SOL    HW116211   0.807   0.391   0.787
 5104SOL    HW216212   0.862   0.540   0.749
 5105SOL     OW16213   1.718   3.537   0.705
 5105SOL    HW116214   1.780   3.615   0.714
 5105SOL    HW216215   1.741   3.468   0.774
 5106SOL     OW16216   2.147   6.704   1.931
 5106SOL    HW116217   2.199   6.782   1.894
 5106SOL    HW216218   2.058   6.699   1.886
 5107SOL     OW16219   1.730   0.056   6.087
 5107SOL    HW116220   1.666   0.114   6.138
 5107SOL    HW216221   1.777   0.112   6.018
 5108SOL     OW16222   4.122   3.390   4.538
 5108SOL    HW116223   4.206   3.357   4.579
 5108SOL    HW216224   4.057   3.415   4.609
 5109SOL     OW16225   0.856   2.438   2.250
 5109SOL    HW116226   0.829   2.396   2.163
 5109SOL    HW216227   0.804   2.522   2.263
 5110SOL     OW16228   1.248   6.094   5.298
 5110SOL    HW116229   1.270   6.018   5.359
 5110SOL    HW216230   1.241   6.060   5.204
 5111SOL     OW16231   1.103   1.160   6.795
 5111SOL    HW116232   1.004   1.168   6.791
 5111SOL    HW216233   1.128   1.071   6.834
 5112SOL     OW16234   0.627   6.959   3.461
 5112SOL    HW116235   0.552   6.894   3.469
 5112SOL    HW216236   0.617   7.011   3.376
 5113SOL     OW16237   0.614   1.905   6.688
 5113SOL    HW116238   0.596   2.003   6.690
 5113SOL    HW216239   0.596   1.866   6.779
 5114SOL     OW16240   5.239   4.968   6.488
 5114SOL    HW116241   5.229   4.924   6.577
 5114SOL    HW216242   5.207   5.063   6.494
 5115SOL     OW16243   2.710   3.911   5.299
 5115SOL    HW116244   2.702   3.812   5.297
 5115SOL    HW216245   2.629   3.952   5.258
 5116SOL     OW16246   6.609   4.206   1.453
 5116SOL    HW116247   6.639   4.112   1.465
 5116SOL    HW216248   6.524   4.222   1.503
 5117SOL     OW16249   2.499   5.954   2.210
 5117SOL    HW116250   2.588   5.997   2.193
 5117SOL    HW216251   2.439   5.969   2.133
 5118SOL     OW16252   4.502   6.959   1.626
 5118SOL    HW116253   4.473   6.900   1.550
 5118SOL    HW216254   4.542   0.016   1.589
 5119SOL     OW16255   6.513   1.088   3.361
 5119SOL    HW116256   6.567   1.109   3.279
 5119SOL    HW216257   6.533   0.994   3.391
 5120SOL     OW16258   3.494   1.110   1.291
 5120SOL    HW116259   3.513   1.027   1.344
 5120SOL    HW216260   3.397   1.114   1.269
 5121SOL     OW16261   1.090   3.700   4.354
 5121SOL    HW116262   1.129   3.744   4.434
 5121SOL    HW216263   1.091   3.601   4.366
 5122SOL     OW16264   2.730   5.848   2.828
 5122SOL    HW116265   2.638   5.874   2.857
 5122SOL    HW216266   2.738   5.748   2.829
 5123SOL     OW16267   6.404   3.122   2.022
 5123SOL    HW116268   6.427   3.029   2.048
 5123SOL    HW216269   6.404   3.181   2.103
 5124SOL     OW16270   3.397   6.924   6.800
 5124SOL    HW116271   3.405   7.024   6.797
 5124SOL    HW216272   3.348   6.897   6.883
 5125SOL     OW16273   0.940   1.832   6.680
 5125SOL    HW116274   0.910   1.813   6.586
 5125SOL    HW216275   0.882   1.782   6.744
 5126SOL     OW16276   3.765   1.200   0.530
 5126SOL    HW116277   3.744   1.164   0.439
 5126SOL    HW216278   3.736   1.295   0.536
 5127SOL     OW16279   5.066   3.943   5.862
 5127SOL    HW116280   5.131   3.882   5.907
 5127SOL    HW216281   5.061   3.921   5.764
 5128SOL     OW16282   0.416   0.767   0.017
 5128SOL    HW116283   0.407   0.777   6.944
 5128SOL    HW216284   0.406   0.856   0.061
 5129SOL     OW16285   4.548   2.545   4.392
 5129SOL    HW116286   4.602   2.461   4.389
 5129SOL    HW216287   4.591   2.610   4.455
 5130SOL     OW16288   1.737   6.621   4.812
 5130SOL    HW116289   1.807   6.567   4.766
 5130SOL    HW216290   1.735   6.598   4.910
 5131SOL     OW16291   3.685   4.885   2.780
 5131SOL    HW116292   3.702   4.938   2.697
 5131SOL    HW216293   3.590   4.855   2.782
 5132SOL     OW16294   3.440   1.656   6.319
 5132SOL    HW116295   3.394   1.692   6.237
 5132SOL    HW216296   3.416   1.559   6.330
 5133SOL     OW16297   2.633   3.904   6.591
 5133SOL    HW116298   2.676   3.821   6.626
 5133SOL    HW216299   2.691   3.945   6.521
 5134SOL     OW16300   5.286   5.979   1.480
 5134SOL    HW116301   5.282   5.896   1.425
 5134SOL    HW216302   5.325   6.053   1.425
 5135SOL     OW16303   1.322   2.875   2.504
 5135SOL    HW116304   1.266   2.792   2.504
 5135SOL    HW216305   1.291   2.937   2.432
 5136SOL     OW16306   0.035   0.103   5.320
 5136SOL    HW116307   0.031   0.203   5.320
 5136SOL    HW216308   0.012   0.069   5.228
 5137SOL     OW16309   5.341   0.790   3.388
 5137SOL    HW116310   5.319   0.882   3.355
 5137SOL    HW216311   5.399   0.743   3.321
 5138SOL     OW16312   3.644   3.696   2.800
 5138SOL    HW116313   3.688   3.760   2.737
 5138SOL    HW216314   3.688   3.607   2.793
 5139SOL     OW16315   5.351   0.666   5.213
 5139SOL    HW116316   5.253   0.680   5.201
 5139SOL    HW216317   5.384   0.598   5.148
 5140SOL     OW16318   2.820   3.306   5.400
 5140SOL    HW116319   2.751   3.236   5.418
 5140SOL    HW216320   2.865   3.287   5.313
 5141SOL     OW16321   0.805   2.489   1.737
 5141SOL    HW116322   0.781   2.550   1.661
 5141SOL    HW216323   0.802   2.540   1.823
 5142SOL     OW16324   6.830   6.287   3.168
 5142SOL    HW116325   6.907   6.344   3.195
 5142SOL    HW216326   6.840   6.195   3.207
 5143SOL     OW16327   5.709   5.654   2.497
 5143SOL    HW116328   5.625   5.626   2.544
 5143SOL    HW216329   5.767   5.575   2.481
 5144SOL     OW16330   1.730   2.703   5.011
 5144SOL    HW116331   1.667   2.751   5.072
 5144SOL    HW216332   1.731   2.605   5.034
 5145SOL     OW16333   0.877   5.505   6.394
 5145SOL    HW116334   0.865   5.419   6.344
 5145SOL    HW216335   0.968   5.542   6.376
 5146SOL     OW16336   5.438   5.829   6.658
 5146SOL    HW116337   5.490   5.811   6.742
 5146SOL    HW216338   5.493   5.803   6.579
 5147SOL     OW16339   3.904   0.968   3.311
 5147SOL    HW116340   3.910   0.869   3.302
 5147SOL    HW216341   3.824   1.002   3.261
 5148SOL     OW16342   6.309   1.267   0.790
 5148SOL    HW116343   6.244   1.277   0.715
 5148SOL    HW216344   6.263   1.228   0.869
 5149SOL     OW16345   2.823   0.038   3.455
 5149SOL    HW116346   2.724   0.021   3.455
 5149SOL    HW216347   2.850   0.081   3.369
 5150SOL     OW16348   6.701   0.982   4.523
 5150SOL    HW116349   6.625   1.007   4.463
 5150SOL    HW216350   6.668   0.924   4.597
 5151SOL     OW16351   5.125   4.732   2.137
 5151SOL    HW116352   5.083   4.664   2.078
 5151SOL    HW216353   5.205   4.772   2.092
 5152SOL     OW16354   2.316   1.136   0.424
 5152SOL    HW116355   2.242   1.201   0.409
 5152SOL    HW216356   2.286   1.045   0.395
 5153SOL     OW16357   2.120   1.889   6.897
 5153SOL    HW116358   2.127   1.790   6.883
 5153SOL    HW216359   2.151   1.912   6.989
 5154SOL     OW16360   0.921   3.006   6.589
 5154SOL    HW116361   0.973   3.067   6.529
 5154SOL    HW216362   0.965   2.917   6.592
 5155SOL     OW16363   1.390   0.380   0.065
 5155SOL    HW116364   1.439   0.406   7.009
 5155SOL    HW216365   1.417   0.440   0.141
 5156SOL     OW16366   5.209   3.495   5.594
 5156SOL    HW116367   5.291   3.477   5.648
 5156SOL    HW216368   5.218   3.453   5.504
 5157SOL     OW16369   3.498   0.747   2.550
 5157SOL    HW116370   3.499   0.649   2.568
 5157SOL    HW216371   3.558   0.768   2.473
 5158SOL     OW16372   1.130   2.715   1.769
 5158SOL    HW116373   1.126   2.708   1.670
 5158SOL    HW216374   1.149   2.625   1.808
 5159SOL     OW16375   6.503   3.342   6.147
 5159SOL    HW116376   6.512   3.308   6.240
 5159SOL    HW216377   6.594   3.365   6.111
 5160SOL     OW16378   6.019   1.290   3.188
 5160SOL    HW116379   6.062   1.200   3.178
 5160SOL    HW216380   6.075   1.348   3.247
 5161SOL     OW16381   1.288   1.419   6.598
 5161SOL    HW116382   1.371   1.375   6.635
 5161SOL    HW216383   1.283   1.513   6.631
 5162SOL     OW16384   0.251   0.977   6.243
 5162SOL    HW116385   0.275   0.928   6.327
 5162SOL    HW216386   0.331   1.023   6.206
 5163SOL     OW16387   3.753   1.903   1.409
 5163SOL    HW116388   3.787   1.982   1.461
 5163SOL    HW216389   3.681   1.858   1.460
 5164SOL     OW16390   2.384   2.655   0.139
 5164SOL    HW116391   2.318   2.668   0.065
 5164SOL    HW216392   2.345   2.593   0.208
 5165SOL     OW16393   1.248   5.714   5.311
 5165SOL    HW116394   1.228   5.617   5.321
 5165SOL    HW216395   1.299   5.730   5.227
 5166SOL     OW16396   6.357   6.111   6.397
 5166SOL    HW116397   6.403   6.051   6.463
 5166SOL    HW216398   6.414   6.120   6.316
 5167SOL     OW16399   5.920   3.122   6.001
 5167SOL    HW116400   5.921   3.168   5.912
 5167SOL    HW216401   6.009   3.131   6.045
 5168SOL     OW16402   5.946   0.775   3.844
 5168SOL    HW116403   6.003   0.710   3.896
 5168SOL    HW216404   5.924   0.735   3.755
 5169SOL     OW16405   4.861   6.030   4.579
 5169SOL    HW116406   4.922   5.963   4.622
 5169SOL    HW216407   4.767   5.998   4.586
 5170SOL     OW16408   2.688   3.076   6.353
 5170SOL    HW116409   2.713   3.132   6.275
 5170SOL    HW216410   2.756   3.004   6.367
 5171SOL     OW16411   1.238   6.814   6.041
 5171SOL    HW116412   1.260   6.758   6.121
 5171SOL    HW216413   1.139   6.818   6.029
 5172SOL     OW16414   4.759   5.356   5.983
 5172SOL    HW116415   4.677   5.399   6.020
 5172SOL    HW216416   4.819   5.426   5.944
 5173SOL     OW16417   4.502   6.342   4.080
 5173SOL    HW116418   4.428   6.324   4.014
 5173SOL    HW216419   4.481   6.296   4.166
 5174SOL     OW16420   0.884   5.575   4.004
 5174SOL    HW116421   0.959   5.592   4.068
 5174SOL    HW216422   0.882   5.478   3.981
 5175SOL     OW16423   2.836   2.221   6.339
 5175SOL    HW116424   2.928   2.223   6.378
 5175SOL    HW216425   2.779   2.292   6.382
 5176SOL     OW16426   5.697   6.348   5.524
 5176SOL    HW116427   5.616   6.315   5.474
 5176SOL    HW216428   5.705   6.447   5.512
 5177SOL     OW16429   4.863   5.047   1.134
 5177SOL    HW116430   4.890   4.992   1.055
 5177SOL    HW216431   4.835   4.986   1.208
 5178SOL     OW16432   1.119   3.673   1.261
 5178SOL    HW116433   1.177   3.716   1.192
 5178SOL    HW216434   1.156   3.692   1.352
 5179SOL     OW16435   4.053   5.560   2.674
 5179SOL    HW116436   4.023   5.472   2.636
 5179SOL    HW216437   4.138   5.547   2.725
 5180SOL     OW16438   2.903   5.256   2.456
 5180SOL    HW116439   2.837   5.278   2.528
 5180SOL    HW216440   2.940   5.341   2.418
 5181SOL     OW16441   6.804   1.568   5.270
 5181SOL    HW116442   6.787   1.553   5.368
 5181SOL    HW216443   6.903   1.569   5.253
 5182SOL     OW16444   2.207   6.122   1.909
 5182SOL    HW116445   2.203   6.196   1.841
 5182SOL    HW216446   2.224   6.161   1.999
 5183SOL     OW16447   5.286   2.140   3.529
 5183SOL    HW116448   5.304   2.087   3.446
 5183SOL    HW216449   5.342   2.223   3.529
 5184SOL     OW16450   3.089   1.386   1.758
 5184SOL    HW116451   3.008   1.433   1.723
 5184SOL    HW216452   3.062   1.323   1.831
 5185SOL     OW16453   6.278   0.714   0.851
 5185SOL    HW116454   6.332   0.796   0.866
 5185SOL    HW216455   6.203   0.710   0.918
 5186SOL     OW16456   6.707   2.541   6.536
 5186SOL    HW116457   6.774   2.611   6.512
 5186SOL    HW216458   6.747   2.479   6.604
 5187SOL     OW16459   1.180   4.793   5.102
 5187SOL    HW116460   1.176   4.698   5.135
 5187SOL    HW216461   1.179   4.855   5.181
 5188SOL     OW16462   6.556   0.659   1.375
 5188SOL    HW116463   6.542   0.757   1.364
 5188SOL    HW216464   6.551   0.614   1.286
 5189SOL     OW16465   5.452   5.853   6.148
 5189SOL    HW116466   5.433   5.865   6.050
 5189SOL    HW216467   5.368   5.868   6.200
 5190SOL     OW16468   1.843   5.135   0.821
 5190SOL    HW116469   1.937   5.142   0.786
 5190SOL    HW216470   1.816   5.221   0.864
 5191SOL     OW16471   3.286   4.018   1.084
 5191SOL    HW116472   3.242   3.945   1.137
 5191SOL    HW216473   3.277   4.105   1.133
 5192SOL     OW16474   0.705   4.593   2.645
 5192SOL    HW116475   0.766   4.515   2.649
 5192SOL    HW216476   0.620   4.572   2.693
 5193SOL     OW16477   4.027   0.616   5.001
 5193SOL    HW116478   4.072   0.675   4.934
 5193SOL    HW216479   4.059   0.522   4.989
 5194SOL     OW16480   4.035   1.718   5.311
 5194SOL    HW116481   3.967   1.688   5.245
 5194SOL    HW216482   4.002   1.800   5.359
 5195SOL     OW16483   1.824   1.298   5.134
 5195SOL    HW116484   1.903   1.261   5.085
 5195SOL    HW216485   1.794   1.231   5.203
 5196SOL     OW16486   6.283   6.060   2.899
 5196SOL    HW116487   6.370   6.108   2.893
 5196SOL    HW216488   6.250   6.039   2.807
 5197SOL     OW16489   2.626   3.593   5.623
 5197SOL    HW116490   2.698   3.591   5.554
 5197SOL    HW216491   2.537   3.583   5.579
 5198SOL     OW16492   6.574   5.744   3.783
 5198SOL    HW116493   6.604   5.672   3.845
 5198SOL    HW216494   6.478   5.731   3.760
 5199SOL     OW16495   0.489   5.108   1.226
 5199SOL    HW116496   0.530   5.109   1.135
 5199SOL    HW216497   0.497   5.198   1.267
 5200SOL     OW16498   0.278   4.530   5.944
 5200SOL    HW116499   0.190   4.498   5.909
 5200SOL    HW216500   0.264   4.581   6.029
 5201SOL     OW16501   1.001   5.553   4.534
 5201SOL    HW116502   0.960   5.636   4.572
 5201SOL    HW216503   1.043   5.500   4.607
 5202SOL     OW16504   0.107   5.045   1.650
 5202SOL    HW116505   0.162   5.102   1.710
 5202SOL    HW216506   0.156   5.029   1.564
 5203SOL     OW16507   6.833   3.196   6.926
 5203SOL    HW116508   6.752   3.201   6.868
 5203SOL    HW216509   6.821   3.254   7.006
 5204SOL     OW16510   5.412   5.339   6.417
 5204SOL    HW116511   5.420   5.323   6.319
 5204SOL    HW216512   5.336   5.285   6.454
 5205SOL     OW16513   2.603   6.031   0.442
 5205SOL    HW116514   2.578   6.096   0.514
 5205SOL    HW216515   2.523   6.010   0.386
 5206SOL     OW16516   0.018   4.221   4.743
 5206SOL    HW116517   0.044   4.225   4.646
 5206SOL    HW216518   6.958   4.269   4.756
 5207SOL     OW16519   1.619   6.678   1.830
 5207SOL    HW116520   1.532   6.690   1.781
 5207SOL    HW216521   1.663   6.767   1.842
 5208SOL     OW16522   4.200   2.018   0.599
 5208SOL    HW116523   4.207   1.918   0.605
 5208SOL    HW216524   4.291   2.058   0.605
 5209SOL     OW16525   6.284   5.474   3.326
 5209SOL    HW116526   6.377   5.472   3.362
 5209SOL    HW216527   6.224   5.521   3.391
 5210SOL     OW16528   4.904   3.525   3.653
 5210SOL    HW116529   4.901   3.558   3.747
 5210SOL    HW216530   4.855   3.438   3.646
 5211SOL     OW16531   3.003   4.384   1.701
 5211SOL    HW116532   2.947   4.443   1.759
 5211SOL    HW216533   2.958   4.373   1.612
 5212SOL     OW16534   0.464   0.050   6.282
 5212SOL    HW116535   0.508   0.046   6.372
 5212SOL    HW216536   0.397   7.003   6.273
 5213SOL     OW16537   4.575   1.921   6.647
 5213SOL    HW116538   4.503   1.867   6.605
 5213SOL    HW216539   4.658   1.865   6.657
 5214SOL     OW16540   4.339   1.856   0.087
 5214SOL    HW116541   4.303   1.851   7.020
 5214SOL    HW216542   4.365   1.764   0.117
 5215SOL     OW16543   6.016   5.557   4.641
 5215SOL    HW116544   5.932   5.602   4.671
 5215SOL    HW216545   6.084   5.627   4.618
 5216SOL     OW16546   2.864   6.730   0.891
 5216SOL    HW116547   2.861   6.686   0.981
 5216SOL    HW216548   2.857   6.659   0.820
 5217SOL     OW16549   2.810   5.585   3.488
 5217SOL    HW116550   2.841   5.555   3.579
 5217SOL    HW216551   2.876   5.651   3.452
 5218SOL     OW16552   1.116   0.540   3.511
 5218SOL    HW116553   1.039   0.567   3.570
 5218SOL    HW216554   1.190   0.606   3.520
 5219SOL     OW16555   3.184   6.579   0.921
 5219SOL    HW116556   3.145   6.659   0.968
 5219SOL    HW216557   3.122   6.550   0.848
 5220SOL     OW16558   0.984   6.835   1.912
 5220SOL    HW116559   0.993   6.874   2.004
 5220SOL    HW216560   0.905   6.774   1.909
 5221SOL     OW16561   4.815   0.939   0.326
 5221SOL    HW116562   4.797   1.010   0.394
 5221SOL    HW216563   4.874   0.869   0.366
 5222SOL     OW16564   6.554   5.213   2.258
 5222SOL    HW116565   6.457   5.192   2.267
 5222SOL    HW216566   6.566   5.303   2.218
 5223SOL     OW16567   3.911   6.729   1.588
 5223SOL    HW116568   3.824   6.698   1.550
 5223SOL    HW216569   3.976   6.653   1.588
 5224SOL     OW16570   5.347   0.383   3.229
 5224SOL    HW116571   5.351   0.316   3.303
 5224SOL    HW216572   5.298   0.344   3.151
 5225SOL     OW16573   0.084   0.038   5.878
 5225SOL    HW116574   0.064   0.119   5.932
 5225SOL    HW216575   0.018   0.031   5.803
 5226SOL     OW16576   2.392   0.624   3.282
 5226SOL    HW116577   2.302   0.617   3.238
 5226SOL    HW216578   2.421   0.720   3.282
 5227SOL     OW16579   5.410   4.045   4.361
 5227SOL    HW116580   5.382   3.989   4.439
 5227SOL    HW216581   5.421   3.986   4.280
 5228SOL     OW16582   5.150   6.783   2.549
 5228SOL    HW116583   5.220   6.852   2.568
 5228SOL    HW216584   5.059   6.826   2.551
 5229SOL     OW16585   0.729   3.857   4.035
 5229SOL    HW116586   0.743   3.758   4.025
 5229SOL    HW216587   0.808   3.897   4.081
 5230SOL     OW16588   0.669   1.790   6.437
 5230SOL    HW116589   0.634   1.828   6.522
 5230SOL    HW216590   0.768   1.801   6.434
 5231SOL     OW16591   3.340   3.877   3.345
 5231SOL    HW116592   3.286   3.808   3.393
 5231SOL    HW216593   3.299   3.896   3.256
 5232SOL     OW16594   5.327   2.716   4.727
 5232SOL    HW116595   5.414   2.692   4.683
 5232SOL    HW216596   5.313   2.658   4.807
 5233SOL     OW16597   0.546   6.862   2.618
 5233SOL    HW116598   0.519   6.794   2.686
 5233SOL    HW216599   0.636   6.839   2.581
 5234SOL     OW16600   3.643   4.104   1.561
 5234SOL    HW116601   3.628   4.032   1.630
 5234SOL    HW216602   3.719   4.162   1.590
 5235SOL     OW16603   0.943   1.674   1.901
 5235SOL    HW116604   0.980   1.581   1.895
 5235SOL    HW216605   0.859   1.673   1.955
 5236SOL     OW16606   6.840   3.061   1.182
 5236SOL    HW116607   6.871   3.018   1.267
 5236SOL    HW216608   6.829   3.159   1.197
 5237SOL     OW16609   1.882   2.248   2.590
 5237SOL    HW116610   1.970   2.284   2.557
 5237SOL    HW216611   1.878   2.257   2.690
 5238SOL     OW16612   1.766   3.437   1.773
 5238SOL    HW116613   1.743   3.345   1.803
 5238SOL    HW216614   1.842   3.432   1.707
 5239SOL     OW16615   3.079   3.055   5.073
 5239SOL    HW116616   3.112   2.986   5.138
 5239SOL    HW216617   3.107   3.030   4.980
 5240SOL     OW16618   4.400   2.416   3.892
 5240SOL    HW116619   4.478   2.429   3.953
 5240SOL    HW216620   4.419   2.460   3.805
 5241SOL     OW16621   4.662   6.101   5.131
 5241SOL    HW116622   4.709   6.114   5.043
 5241SOL    HW216623   4.566   6.079   5.115
 5242SOL     OW16624   2.932   0.694   6.278
 5242SOL    HW116625   2.936   0.692   6.378
 5242SOL    HW216626   2.844   0.658   6.248
 5243SOL     OW16627   1.910   3.667   6.826
 5243SOL    HW116628   1.884   3.599   6.894
 5243SOL    HW216629   1.855   3.654   6.743
 5244SOL     OW16630   6.294   3.039   6.813
 5244SOL    HW116631   6.270   3.136   6.806
 5244SOL    HW216632   6.327   3.019   6.905
 5245SOL     OW16633   4.170   4.621   5.754
 5245SOL    HW116634   4.177   4.576   5.665
 5245SOL    HW216635   4.261   4.633   5.793
 5246SOL     OW16636   1.490   3.691   3.437
 5246SOL    HW116637   1.458   3.609   3.483
 5246SOL    HW216638   1.531   3.666   3.349
 5247SOL     OW16639   0.884   3.986   6.818
 5247SOL    HW116640   0.924   3.977   6.727
 5247SOL    HW216641   0.873   4.082   6.841
 5248SOL     OW16642   4.867   1.887   0.565
 5248SOL    HW116643   4.892   1.807   0.620
 5248SOL    HW216644   4.819   1.856   0.483
 5249SOL     OW16645   0.971   5.313   6.821
 5249SOL    HW116646   0.878   5.279   6.807
 5249SOL    HW216647   0.995   5.305   6.918
 5250SOL     OW16648   1.600   1.399   5.648
 5250SOL    HW116649   1.531   1.409   5.720
 5250SOL    HW216650   1.627   1.489   5.616
 5251SOL     OW16651   0.789   2.219   2.055
 5251SOL    HW116652   0.826   2.138   2.101
 5251SOL    HW216653   0.822   2.222   1.961
 5252SOL     OW16654   5.677   5.521   1.450
 5252SOL    HW116655   5.713   5.449   1.509
 5252SOL    HW216656   5.625   5.480   1.375
 5253SOL     OW16657   5.829   3.013   4.574
 5253SOL    HW116658   5.862   3.091   4.628
 5253SOL    HW216659   5.737   2.989   4.603
 5254SOL     OW16660   5.406   0.472   5.033
 5254SOL    HW116661   5.351   0.411   5.090
 5254SOL    HW216662   5.481   0.421   4.991
 5255SOL     OW16663   1.883   5.415   2.288
 5255SOL    HW116664   1.800   5.413   2.233
 5255SOL    HW216665   1.930   5.327   2.280
 5256SOL     OW16666   4.708   6.041   1.956
 5256SOL    HW116667   4.802   6.008   1.952
 5256SOL    HW216668   4.671   6.026   2.047
 5257SOL     OW16669   2.161   1.422   2.272
 5257SOL    HW116670   2.151   1.475   2.187
 5257SOL    HW216671   2.070   1.402   2.309
 5258SOL     OW16672   5.321   2.299   1.682
 5258SOL    HW116673   5.269   2.269   1.762
 5258SOL    HW216674   5.310   2.232   1.608
 5259SOL     OW16675   5.648   5.130   0.957
 5259SOL    HW116676   5.593   5.046   0.956
 5259SOL    HW216677   5.740   5.109   0.988
 5260SOL     OW16678   5.403   3.209   1.878
 5260SOL    HW116679   5.495   3.181   1.906
 5260SOL    HW216680   5.365   3.271   1.946
 5261SOL     OW16681   2.363   2.763   4.948
 5261SOL    HW116682   2.386   2.846   4.999
 5261SOL    HW216683   2.446   2.709   4.933
 5262SOL     OW16684   0.991   0.544   2.318
 5262SOL    HW116685   1.023   0.486   2.243
 5262SOL    HW216686   0.897   0.574   2.299
 5263SOL     OW16687   1.447   6.430   6.391
 5263SOL    HW116688   1.459   6.337   6.426
 5263SOL    HW216689   1.535   6.465   6.360
 5264SOL     OW16690   1.141   0.919   0.640
 5264SOL    HW116691   1.110   0.853   0.709
 5264SOL    HW216692   1.068   0.986   0.623
 5265SOL     OW16693   4.849   5.241   3.814
 5265SOL    HW116694   4.757   5.278   3.828
 5265SOL    HW216695   4.915   5.297   3.864
 5266SOL     OW16696   0.726   6.686   1.094
 5266SOL    HW116697   0.739   6.690   0.995
 5266SOL    HW216698   0.692   6.775   1.126
 5267SOL     OW16699   3.568   3.512   4.692
 5267SOL    HW116700   3.534   3.512   4.786
 5267SOL    HW216701   3.601   3.604   4.669
 5268SOL     OW16702   5.912   4.487   6.742
 5268SOL    HW116703   5.917   4.390   6.767
 5268SOL    HW216704   6.002   4.529   6.754
 5269SOL     OW16705   2.614   5.125   5.371
 5269SOL    HW116706   2.527   5.076   5.364
 5269SOL    HW216707   2.647   5.120   5.465
 5270SOL     OW16708   0.100   1.187   2.975
 5270SOL    HW116709   0.165   1.238   3.031
 5270SOL    HW216710   0.089   1.095   3.012
 5271SOL     OW16711   5.951   3.632   4.900
 5271SOL    HW116712   5.918   3.620   4.994
 5271SOL    HW216713   5.876   3.663   4.843
 5272SOL     OW16714   2.264   2.429   3.595
 5272SOL    HW116715   2.232   2.454   3.504
 5272SOL    HW216716   2.186   2.404   3.652
 5273SOL     OW16717   0.162   1.384   5.389
 5273SOL    HW116718   0.199   1.294   5.412
 5273SOL    HW216719   0.115   1.380   5.301
 5274SOL     OW16720   0.611   5.052   4.904
 5274SOL    HW116721   0.609   4.981   4.974
 5274SOL    HW216722   0.659   5.017   4.823
 5275SOL     OW16723   2.271   6.468   6.485
 5275SOL    HW116724   2.290   6.516   6.399
 5275SOL    HW216725   2.193   6.407   6.473
 5276SOL     OW16726   6.894   1.376   6.707
 5276SOL    HW116727   6.830   1.447   6.679
 5276SOL    HW216728   6.985   1.397   6.671
 5277SOL     OW16729   0.954   0.502   1.266
 5277SOL    HW116730   0.978   0.425   1.207
 5277SOL    HW216731   0.992   0.487   1.357
 5278SOL     OW16732   0.125   4.935   6.985
 5278SOL    HW116733   0.224   4.938   7.001
 5278SOL    HW216734   0.080   5.002   0.017
 5279SOL     OW16735   2.711   6.487   0.152
 5279SOL    HW116736   2.772   6.436   0.092
 5279SOL    HW216737   2.642   6.534   0.098
 5280SOL     OW16738   4.372   6.115   6.277
 5280SOL    HW116739   4.310   6.040   6.256
 5280SOL    HW216740   4.320   6.189   6.320
 5281SOL     OW16741   2.091   6.330   4.503
 5281SOL    HW116742   2.056   6.335   4.409
 5281SOL    HW216743   2.109   6.235   4.526
 5282SOL     OW16744   6.635   6.059   1.267
 5282SOL    HW116745   6.635   6.143   1.214
 5282SOL    HW216746   6.557   6.058   1.330
 5283SOL     OW16747   1.773   0.235   4.207
 5283SOL    HW116748   1.734   0.146   4.227
 5283SOL    HW216749   1.712   0.307   4.239
 5284SOL     OW16750   4.901   3.558   1.915
 5284SOL    HW116751   4.922   3.467   1.949
 5284SOL    HW216752   4.984   3.600   1.878
 5285SOL     OW16753   2.450   1.697   4.183
 5285SOL    HW116754   2.509   1.623   4.216
 5285SOL    HW216755   2.497   1.748   4.111
 5286SOL     OW16756   0.189   2.637   2.001
 5286SOL    HW116757   0.258   2.565   1.991
 5286SOL    HW216758   0.208   2.691   2.083
 5287SOL     OW16759   0.240   5.541   1.956
 5287SOL    HW116760   0.157   5.575   1.911
 5287SOL    HW216761   0.228   5.543   2.055
 5288SOL     OW16762   4.215   0.726   1.934
 5288SOL    HW116763   4.186   0.771   1.850
 5288SOL    HW216764   4.200   0.627   1.926
 5289SOL     OW16765   1.279   5.471   6.805
 5289SOL    HW116766   1.333   5.442   6.727
 5289SOL    HW216767   1.264   5.393   6.866
 5290SOL     OW16768   1.871   2.278   5.366
 5290SOL    HW116769   1.893   2.215   5.440
 5290SOL    HW216770   1.955   2.320   5.331
 5291SOL     OW16771   2.818   6.596   4.541
 5291SOL    HW116772   2.852   6.606   4.634
 5291SOL    HW216773   2.870   6.656   4.480
 5292SOL     OW16774   0.938   3.951   4.157
 5292SOL    HW116775   0.896   4.006   4.228
 5292SOL    HW216776   1.037   3.947   4.172
 5293SOL     OW16777   2.386   0.544   3.549
 5293SOL    HW116778   2.417   0.559   3.455
 5293SOL    HW216779   2.314   0.610   3.571
 5294SOL     OW16780   5.150   0.098   4.309
 5294SOL    HW116781   5.216   0.035   4.267
 5294SOL    HW216782   5.057   0.070   4.286
 5295SOL     OW16783   2.311   0.418   0.909
 5295SOL    HW116784   2.310   0.373   0.820
 5295SOL    HW216785   2.388   0.482   0.913
 5296SOL     OW16786   4.658   4.864   1.933
 5296SOL    HW116787   4.646   4.917   1.849
 5296SOL    HW216788   4.751   4.829   1.938
 5297SOL     OW16789   3.922   5.099   5.985
 5297SOL    HW116790   3.913   5.192   5.948
 5297SOL    HW216791   3.832   5.067   6.016
 5298SOL     OW16792   3.515   0.997   6.771
 5298SOL    HW116793   3.613   0.999   6.789
 5298SOL    HW216794   3.495   0.927   6.702
 5299SOL     OW16795   1.570   0.391   1.153
 5299SOL    HW116796   1.617   0.464   1.202
 5299SOL    HW216797   1.634   0.316   1.134
 5300SOL     OW16798   2.891   4.678   6.443
 5300SOL    HW116799   2.867   4.624   6.363
 5300SOL    HW216800   2.904   4.773   6.416
 5301SOL     OW16801   5.892   0.294   5.657
 5301SOL    HW116802   5.956   0.297   5.734
 5301SOL    HW216803   5.865   0.388   5.634
 5302SOL     OW16804   4.743   5.529   3.346
 5302SOL    HW116805   4.823   5.492   3.392
 5302SOL    HW216806   4.769   5.568   3.257
 5303SOL     OW16807   1.555   5.955   5.227
 5303SOL    HW116808   1.520   6.044   5.257
 5303SOL    HW216809   1.506   5.927   5.144
 5304SOL     OW16810   0.280   0.164   3.187
 5304SOL    HW116811   0.191   0.119   3.176
 5304SOL    HW216812   0.276   0.228   3.264
 5305SOL     OW16813   6.247   5.374   4.891
 5305SOL    HW116814   6.173   5.373   4.958
 5305SOL    HW216815   6.214   5.339   4.803
 5306SOL     OW16816   1.248   1.695   6.672
 5306SOL    HW116817   1.325   1.752   6.701
 5306SOL    HW216818   1.165   1.751   6.665
 5307SOL     OW16819   1.330   1.293   1.568
 5307SOL    HW116820   1.320   1.277   1.666
 5307SOL    HW216821   1.242   1.283   1.523
 5308SOL     OW16822   2.008   4.585   3.457
 5308SOL    HW116823   1.916   4.601   3.494
 5308SOL    HW216824   2.076   4.623   3.519
 5309SOL     OW16825   6.124   6.023   2.608
 5309SOL    HW116826   6.054   5.952   2.603
 5309SOL    HW216827   6.183   6.017   2.527
 5310SOL     OW16828   6.131   1.978   3.862
 5310SOL    HW116829   6.102   1.962   3.768
 5310SOL    HW216830   6.067   1.932   3.925
 5311SOL     OW16831   6.025   0.705   6.942
 5311SOL    HW116832   6.034   0.728   0.012
 5311SOL    HW216833   6.107   0.734   6.893
 5312SOL     OW16834   5.231   6.495   0.992
 5312SOL    HW116835   5.228   6.594   0.976
 5312SOL    HW216836   5.215   6.477   1.089
 5313SOL     OW16837   0.804   6.689   5.775
 5313SOL    HW116838   0.834   6.672   5.681
 5313SOL    HW216839   0.704   6.683   5.780
 5314SOL     OW16840   5.727   1.902   2.725
 5314SOL    HW116841   5.809   1.854   2.693
 5314SOL    HW216842   5.673   1.932   2.646
 5315SOL     OW16843   4.161   1.683   3.711
 5315SOL    HW116844   4.236   1.620   3.691
 5315SOL    HW216845   4.110   1.701   3.626
 5316SOL     OW16846   0.286   2.894   5.479
 5316SOL    HW116847   0.232   2.837   5.417
 5316SOL    HW216848   0.363   2.934   5.429
 5317SOL     OW16849   5.521   2.977   1.958
 5317SOL    HW116850   5.440   2.937   1.915
 5317SOL    HW216851   5.595   2.984   1.891
 5318SOL     OW16852   6.838   4.699   6.490
 5318SOL    HW116853   6.866   4.605   6.473
 5318SOL    HW216854   6.918   4.753   6.519
 5319SOL     OW16855   4.147   5.525   2.327
 5319SOL    HW116856   4.185   5.545   2.237
 5319SOL    HW216857   4.048   5.520   2.321
 5320SOL     OW16858   4.621   5.892   0.429
 5320SOL    HW116859   4.625   5.792   0.436
 5320SOL    HW216860   4.598   5.917   0.335
 5321SOL     OW16861   1.525   4.061   5.540
 5321SOL    HW116862   1.603   4.004   5.567
 5321SOL    HW216863   1.528   4.077   5.442
 5322SOL     OW16864   4.361   5.741   1.840
 5322SOL    HW116865   4.444   5.703   1.798
 5322SOL    HW216866   4.284   5.734   1.777
 5323SOL     OW16867   4.193   6.860   6.381
 5323SOL    HW116868   4.186   6.857   6.281
 5323SOL    HW216869   4.115   6.911   6.418
 5324SOL     OW16870   0.895   1.029   1.936
 5324SOL    HW116871   0.986   1.071   1.938
 5324SOL    HW216872   0.840   1.066   2.011
 5325SOL     OW16873   1.897   3.021   4.024
 5325SOL    HW116874   1.864   2.991   3.934
 5325SOL    HW216875   1.965   3.093   4.012
 5326SOL     OW16876   6.026   0.415   0.900
 5326SOL    HW116877   5.939   0.374   0.926
 5326SOL    HW216878   6.100   0.350   0.915
 5327SOL     OW16879   0.167   2.158   6.489
 5327SOL    HW116880   0.210   2.169   6.399
 5327SOL    HW216881   0.071   2.186   6.484
 5328SOL     OW16882   4.031   4.976   0.792
 5328SOL    HW116883   4.050   4.980   0.694
 5328SOL    HW216884   3.976   4.895   0.812
 5329SOL     OW16885   2.470   5.905   6.357
 5329SOL    HW116886   2.479   5.871   6.451
 5329SOL    HW216887   2.560   5.928   6.321
 5330SOL     OW16888   2.389   5.292   0.590
 5330SOL    HW116889   2.434   5.340   0.666
 5330SOL    HW216890   2.413   5.195   0.593
 5331SOL     OW16891   6.058   1.636   6.807
 5331SOL    HW116892   6.084   1.684   6.890
 5331SOL    HW216893   6.105   1.677   6.729
 5332SOL     OW16894   0.934   5.027   2.602
 5332SOL    HW116895   1.022   5.061   2.634
 5332SOL    HW216896   0.911   4.943   2.651
 5333SOL     OW16897   0.682   6.168   4.382
 5333SOL    HW116898   0.733   6.244   4.422
 5333SOL    HW216899   0.681   6.091   4.445
 5334SOL     OW16900   3.071   6.761   5.132
 5334SOL    HW116901   3.001   6.795   5.070
 5334SOL    HW216902   3.038   6.681   5.181
 5335SOL     OW16903   5.963   6.867   0.644
 5335SOL    HW116904   6.015   6.836   0.724
 5335SOL    HW216905   5.869   6.886   0.672
 5336SOL     OW16906   1.004   3.569   1.751
 5336SOL    HW116907   0.978   3.473   1.747
 5336SOL    HW216908   1.041   3.597   1.662
 5337SOL     OW16909   5.421   4.959   1.610
 5337SOL    HW116910   5.506   4.947   1.661
 5337SOL    HW216911   5.400   5.056   1.601
 5338SOL     OW16912   5.480   2.797   0.764
 5338SOL    HW116913   5.506   2.774   0.858
 5338SOL    HW216914   5.408   2.736   0.733
 5339SOL     OW16915   6.183   0.783   2.209
 5339SOL    HW116916   6.138   0.839   2.279
 5339SOL    HW216917   6.163   0.687   2.225
 5340SOL     OW16918   5.338   2.158   0.097
 5340SOL    HW116919   5.374   2.065   0.087
 5340SOL    HW216920   5.376   2.216   0.025
 5341SOL     OW16921   4.052   0.670   1.479
 5341SOL    HW116922   4.136   0.619   1.465
 5341SOL    HW216923   4.044   0.742   1.410
 5342SOL     OW16924   1.780   0.375   5.647
 5342SOL    HW116925   1.693   0.409   5.611
 5342SOL    HW216926   1.853   0.389   5.580
 5343SOL     OW16927   3.218   4.126   1.361
 5343SOL    HW116928   3.217   4.193   1.435
 5343SOL    HW216929   3.131   4.076   1.360
 5344SOL     OW16930   1.842   2.786   2.899
 5344SOL    HW116931   1.813   2.727   2.975
 5344SOL    HW216932   1.915   2.847   2.930
 5345SOL     OW16933   5.149   0.595   3.010
 5345SOL    HW116934   5.194   0.618   3.096
 5345SOL    HW216935   5.132   0.496   3.007
 5346SOL     OW16936   3.633   0.789   4.287
 5346SOL    HW116937   3.562   0.859   4.296
 5346SOL    HW216938   3.721   0.826   4.317
 5347SOL     OW16939   6.860   1.458   2.020
 5347SOL    HW116940   6.937   1.449   2.084
 5347SOL    HW216941   6.806   1.538   2.045
 5348SOL     OW16942   6.310   1.747   0.510
 5348SOL    HW116943   6.402   1.783   0.527
 5348SOL    HW216944   6.246   1.822   0.501
 5349SOL     OW16945   4.959   0.790   0.544
 5349SOL    HW116946   5.013   0.758   0.465
 5349SOL    HW216947   5.021   0.818   0.617
 5350SOL     OW16948   2.758   0.666   0.038
 5350SOL    HW116949   2.794   0.759   0.050
 5350SOL    HW216950   2.764   0.617   0.125
 5351SOL     OW16951   4.668   1.474   2.094
 5351SOL    HW116952   4.599   1.530   2.141
 5351SOL    HW216953   4.630   1.439   2.008
 5352SOL     OW16954   4.065   0.747   4.098
 5352SOL    HW116955   4.119   0.663   4.090
 5352SOL    HW216956   3.987   0.742   4.036
 5353SOL     OW16957   6.647   0.540   6.190
 5353SOL    HW116958   6.576   0.472   6.211
 5353SOL    HW216959   6.636   0.619   6.251
 5354SOL     OW16960   0.711   2.564   1.455
 5354SOL    HW116961   0.668   2.570   1.365
 5354SOL    HW216962   0.752   2.474   1.466
 5355SOL     OW16963   4.575   1.093   5.386
 5355SOL    HW116964   4.549   1.189   5.389
 5355SOL    HW216965   4.558   1.051   5.475
 5356SOL     OW16966   6.294   3.659   1.852
 5356SOL    HW116967   6.250   3.583   1.900
 5356SOL    HW216968   6.385   3.673   1.889
 5357SOL     OW16969   4.258   5.651   0.075
 5357SOL    HW116970   4.320   5.611   0.007
 5357SOL    HW216971   4.165   5.654   0.037
 5358SOL     OW16972   5.376   4.428   1.621
 5358SOL    HW116973   5.361   4.366   1.544
 5358SOL    HW216974   5.388   4.521   1.586
 5359SOL     OW16975   2.843   0.632   5.834
 5359SOL    HW116976   2.937   0.609   5.806
 5359SOL    HW216977   2.780   0.566   5.794
 5360SOL     OW16978   4.428   2.169   0.281
 5360SOL    HW116979   4.521   2.192   0.312
 5360SOL    HW216980   4.373   2.142   0.360
 5361SOL     OW16981   0.560   1.588   6.746
 5361SOL    HW116982   0.461   1.599   6.737
 5361SOL    HW216983   0.582   1.560   6.839
 5362SOL     OW16984   4.259   6.184   3.970
 5362SOL    HW116985   4.277   6.248   3.896
 5362SOL    HW216986   4.278   6.091   3.939
 5363SOL     OW16987   0.437   5.849   4.567
 5363SOL    HW116988   0.481   5.759   4.564
 5363SOL    HW216989   0.358   5.846   4.628
 5364SOL     OW16990   1.096   5.653   6.721
 5364SOL    HW116991   0.999   5.637   6.740
 5364SOL    HW216992   1.150   5.578   6.760
 5365SOL     OW16993   4.461   2.673   6.208
 5365SOL    HW116994   4.464   2.573   6.207
 5365SOL    HW216995   4.553   2.709   6.191
 5366SOL     OW16996   4.173   3.896   5.740
 5366SOL    HW116997   4.212   3.934   5.824
 5366SOL    HW216998   4.142   3.972   5.681
 5367SOL     OW16999   0.302   3.621   1.250
 5367SOL    HW117000   0.312   3.607   1.151
 5367SOL    HW217001   0.328   3.715   1.272
 5368SOL     OW17002   0.403   6.765   3.462
 5368SOL    HW117003   0.377   6.810   3.547
 5368SOL    HW217004   0.357   6.809   3.385
 5369SOL     OW17005   1.787   3.646   2.355
 5369SOL    HW117006   1.711   3.676   2.296
 5369SOL    HW217007   1.790   3.704   2.437
 5370SOL     OW17008   3.644   2.867   1.837
 5370SOL    HW117009   3.734   2.903   1.814
 5370SOL    HW217010   3.633   2.867   1.936
 5371SOL     OW17011   2.352   4.356   5.091
 5371SOL    HW117012   2.255   4.379   5.102
 5371SOL    HW217013   2.381   4.299   5.168
 5372SOL     OW17014   3.853   6.147   2.409
 5372SOL    HW117015   3.791   6.211   2.455
 5372SOL    HW217016   3.804   6.102   2.334
 5373SOL     OW17017   3.132   4.953   3.829
 5373SOL    HW117018   3.205   4.929   3.893
 5373SOL    HW217019   3.157   4.925   3.737
 5374SOL     OW17020   3.319   2.484   0.750
 5374SOL    HW117021   3.253   2.547   0.791
 5374SOL    HW217022   3.283   2.391   0.756
 5375SOL     OW17023   1.800   4.369   4.463
 5375SOL    HW117024   1.830   4.332   4.552
 5375SOL    HW217025   1.779   4.293   4.402
 5376SOL     OW17026   3.024   4.709   6.143
 5376SOL    HW117027   3.071   4.628   6.109
 5376SOL    HW217028   3.089   4.768   6.191
 5377SOL     OW17029   1.424   2.084   1.883
 5377SOL    HW117030   1.508   2.138   1.880
 5377SOL    HW217031   1.397   2.069   1.978
 5378SOL     OW17032   5.257   6.911   6.892
 5378SOL    HW117033   5.192   6.836   6.897
 5378SOL    HW217034   5.350   6.876   6.908
 5379SOL     OW17035   0.091   0.411   6.996
 5379SOL    HW117036   0.091   0.452   0.061
 5379SOL    HW217037   0.058   0.317   7.001
 5380SOL     OW17038   2.086   1.754   4.743
 5380SOL    HW117039   2.105   1.847   4.773
 5380SOL    HW217040   2.012   1.715   4.799
 5381SOL     OW17041   5.923   3.625   2.233
 5381SOL    HW117042   5.877   3.686   2.169
 5381SOL    HW217043   6.012   3.663   2.258
 5382SOL     OW17044   1.650   6.619   1.193
 5382SOL    HW117045   1.630   6.634   1.289
 5382SOL    HW217046   1.682   6.525   1.179
 5383SOL     OW17047   2.605   1.963   4.999
 5383SOL    HW117048   2.509   1.965   4.969
 5383SOL    HW217049   2.638   2.057   5.009
 5384SOL     OW17050   5.259   6.359   4.995
 5384SOL    HW117051   5.189   6.378   4.926
 5384SOL    HW217052   5.345   6.337   4.950
 5385SOL     OW17053   3.437   4.071   2.248
 5385SOL    HW117054   3.343   4.042   2.233
 5385SOL    HW217055   3.446   4.111   2.340
 5386SOL     OW17056   5.910   6.283   5.373
 5386SOL    HW117057   5.970   6.213   5.412
 5386SOL    HW217058   5.842   6.311   5.441
 5387SOL     OW17059   4.154   5.239   0.459
 5387SOL    HW117060   4.203   5.157   0.428
 5387SOL    HW217061   4.127   5.294   0.380
 5388SOL     OW17062   6.225   5.854   3.094
 5388SOL    HW117063   6.245   5.899   3.181
 5388SOL    HW217064   6.248   5.916   3.018
 5389SOL     OW17065   5.702   3.186   1.365
 5389SOL    HW117066   5.634   3.119   1.335
 5389SOL    HW217067   5.789   3.139   1.383
 5390SOL     OW17068   6.611   4.386   6.886
 5390SOL    HW117069   6.639   4.444   6.809
 5390SOL    HW217070   6.607   4.291   6.855
 5391SOL     OW17071   3.227   4.870   0.112
 5391SOL    HW117072   3.248   4.814   0.193
 5391SOL    HW217073   3.188   4.957   0.141
 5392SOL     OW17074   0.653   2.626   3.090
 5392SOL    HW117075   0.745   2.611   3.125
 5392SOL    HW217076   0.655   2.694   3.017
 5393SOL     OW17077   6.704   0.769   6.347
 5393SOL    HW117078   6.616   0.810   6.324
 5393SOL    HW217079   6.702   0.736   6.441
 5394SOL     OW17080   2.354   3.619   6.501
 5394SOL    HW117081   2.304   3.593   6.583
 5394SOL    HW217082   2.386   3.537   6.453
 5395SOL     OW17083   4.907   0.707   1.783
 5395SOL    HW117084   4.906   0.662   1.694
 5395SOL    HW217085   4.941   0.801   1.772
 5396SOL     OW17086   4.615   2.420   0.889
 5396SOL    HW117087   4.710   2.394   0.905
 5396SOL    HW217088   4.555   2.369   0.951
 5397SOL     OW17089   1.568   2.320   2.127
 5397SOL    HW117090   1.475   2.320   2.166
 5397SOL    HW217091   1.625   2.384   2.178
 5398SOL     OW17092   3.051   3.855   2.474
 5398SOL    HW117093   2.990   3.785   2.511
 5398SOL    HW217094   3.037   3.861   2.375
 5399SOL     OW17095   0.678   4.837   0.191
 5399SOL    HW117096   0.594   4.796   0.226
 5399SOL    HW217097   0.708   4.909   0.253
 5400SOL     OW17098   2.579   3.721   0.078
 5400SOL    HW117099   2.518   3.660   0.129
 5400SOL    HW217100   2.553   3.816   0.096
 5401SOL     OW17101   5.915   1.947   1.164
 5401SOL    HW117102   6.003   1.905   1.187
 5401SOL    HW217103   5.855   1.877   1.124
 5402SOL     OW17104   0.774   6.078   2.029
 5402SOL    HW117105   0.719   6.131   2.095
 5402SOL    HW217106   0.721   5.999   1.998
 5403SOL     OW17107   0.871   2.162   6.380
 5403SOL    HW117108   0.772   2.173   6.387
 5403SOL    HW217109   0.908   2.136   6.469
 5404SOL     OW17110   0.158   2.556   2.880
 5404SOL    HW117111   0.219   2.505   2.819
 5404SOL    HW217112   0.177   2.530   2.975
 5405SOL     OW17113   6.355   4.094   4.863
 5405SOL    HW117114   6.378   4.153   4.941
 5405SOL    HW217115   6.401   4.006   4.873
 5406SOL     OW17116   2.039   6.672   2.726
 5406SOL    HW117117   2.101   6.599   2.696
 5406SOL    HW217118   1.946   6.651   2.696
 5407SOL     OW17119   4.232   2.582   6.730
 5407SOL    HW117120   4.307   2.577   6.796
 5407SOL    HW217121   4.187   2.672   6.738
 5408SOL     OW17122   4.321   1.497   6.868
 5408SOL    HW117123   4.346   1.438   6.944
 5408SOL    HW217124   4.246   1.456   6.816
 5409SOL     OW17125   4.657   0.827   1.876
 5409SOL    HW117126   4.739   0.790   1.832
 5409SOL    HW217127   4.657   0.926   1.870
 5410SOL     OW17128   1.826   2.703   2.483
 5410SOL    HW117129   1.756   2.771   2.459
 5410SOL    HW217130   1.917   2.743   2.469
 5411SOL     OW17131   2.990   4.996   5.185
 5411SOL    HW117132   2.979   4.923   5.253
 5411SOL    HW217133   2.989   4.956   5.093
 5412SOL     OW17134   0.092   1.641   2.507
 5412SOL    HW117135   0.137   1.667   2.593
 5412SOL    HW217136   0.008   1.694   2.497
 5413SOL     OW17137   1.394   6.751   2.346
 5413SOL    HW117138   1.376   6.776   2.441
 5413SOL    HW217139   1.493   6.748   2.331
 5414SOL     OW17140   4.607   6.680   6.335
 5414SOL    HW117141   4.556   6.641   6.258
 5414SOL    HW217142   4.548   6.744   6.385
 5415SOL     OW17143   6.055   3.816   3.180
 5415SOL    HW117144   6.063   3.845   3.275
 5415SOL    HW217145   6.147   3.801   3.142
 5416SOL     OW17146   4.354   5.062   4.653
 5416SOL    HW117147   4.292   5.136   4.675
 5416SOL    HW217148   4.326   4.979   4.701
 5417SOL     OW17149   2.630   0.058   5.769
 5417SOL    HW117150   2.641   6.995   5.725
 5417SOL    HW217151   2.568   0.048   5.847
 5418SOL     OW17152   3.494   1.551   3.626
 5418SOL    HW117153   3.545   1.609   3.563
 5418SOL    HW217154   3.405   1.592   3.646
 5419SOL     OW17155   2.926   4.000   0.028
 5419SOL    HW117156   2.927   4.031   0.123
 5419SOL    HW217157   2.878   4.067   6.998
 5420SOL     OW17158   1.436   2.500   2.661
 5420SOL    HW117159   1.515   2.562   2.662
 5420SOL    HW217160   1.455   2.423   2.600
 5421SOL     OW17161   2.568   3.207   0.672
 5421SOL    HW117162   2.484   3.196   0.619
 5421SOL    HW217163   2.633   3.136   0.646
 5422SOL     OW17164   0.543   3.099   0.398
 5422SOL    HW117165   0.518   3.179   0.453
 5422SOL    HW217166   0.473   3.028   0.407
 5423SOL     OW17167   4.066   3.683   5.598
 5423SOL    HW117168   4.102   3.748   5.665
 5423SOL    HW217169   4.117   3.598   5.602
 5424SOL     OW17170   5.782   3.310   5.484
 5424SOL    HW117171   5.686   3.297   5.510
 5424SOL    HW217172   5.797   3.406   5.460
 5425SOL     OW17173   5.202   1.289   4.938
 5425SOL    HW117174   5.138   1.284   5.015
 5425SOL    HW217175   5.286   1.334   4.969
 5426SOL     OW17176   0.311   0.422   4.275
 5426SOL    HW117177   0.224   0.397   4.317
 5426SOL    HW217178   0.320   0.375   4.187
 5427SOL     OW17179   4.167   6.520   0.425
 5427SOL    HW117180   4.068   6.523   0.432
 5427SOL    HW217181   4.208   6.536   0.515
 5428SOL     OW17182   1.716   6.950   0.477
 5428SOL    HW117183   1.708   6.861   0.521
 5428SOL    HW217184   1.628   6.997   0.479
 5429SOL     OW17185   1.047   2.413   6.049
 5429SOL    HW117186   1.001   2.329   6.076
 5429SOL    HW217187   1.127   2.427   6.108
 5430SOL     OW17188   2.664   2.098   5.628
 5430SOL    HW117189   2.678   2.181   5.681
 5430SOL    HW217190   2.714   2.105   5.541
 5431SOL     OW17191   3.371   5.267   3.999
 5431SOL    HW117192   3.410   5.330   4.066
 5431SOL    HW217193   3.445   5.217   3.955
 5432SOL     OW17194   6.102   4.319   1.003
 5432SOL    HW117195   6.182   4.380   1.010
 5432SOL    HW217196   6.120   4.234   1.052
 5433SOL     OW17197   1.892   1.827   3.402
 5433SOL    HW117198   1.912   1.735   3.367
 5433SOL    HW217199   1.957   1.850   3.475
 5434SOL     OW17200   2.251   6.283   4.810
 5434SOL    HW117201   2.217   6.366   4.764
 5434SOL    HW217202   2.229   6.287   4.907
 5435SOL     OW17203   4.611   2.121   1.740
 5435SOL    HW117204   4.559   2.142   1.823
 5435SOL    HW217205   4.563   2.158   1.660
 5436SOL     OW17206   5.299   4.382   3.491
 5436SOL    HW117207   5.241   4.326   3.432
 5436SOL    HW217208   5.241   4.446   3.543
 5437SOL     OW17209   3.136   5.292   5.978
 5437SOL    HW117210   3.064   5.351   6.013
 5437SOL    HW217211   3.187   5.253   6.055
 5438SOL     OW17212   6.572   1.150   0.184
 5438SOL    HW117213   6.621   1.211   0.122
 5438SOL    HW217214   6.551   1.198   0.269
 5439SOL     OW17215   1.565   2.104   0.825
 5439SOL    HW117216   1.534   2.199   0.827
 5439SOL    HW217217   1.583   2.078   0.730
 5440SOL     OW17218   2.058   0.347   1.030
 5440SOL    HW117219   2.141   0.398   1.007
 5440SOL    HW217220   1.987   0.368   0.963
 5441SOL     OW17221   3.631   1.990   5.336
 5441SOL    HW117222   3.605   2.043   5.256
 5441SOL    HW217223   3.603   2.038   5.419
 5442SOL     OW17224   3.866   1.184   1.756
 5442SOL    HW117225   3.938   1.236   1.710
 5442SOL    HW217226   3.857   1.094   1.712
 5443SOL     OW17227   0.801   5.792   5.626
 5443SOL    HW117228   0.831   5.700   5.650
 5443SOL    HW217229   0.868   5.834   5.563
 5444SOL     OW17230   0.179   0.786   3.421
 5444SOL    HW117231   0.183   0.741   3.332
 5444SOL    HW217232   0.220   0.877   3.415
 5445SOL     OW17233   5.363   3.396   2.138
 5445SOL    HW117234   5.383   3.494   2.142
 5445SOL    HW217235   5.265   3.381   2.144
 5446SOL     OW17236   6.552   0.015   5.910
 5446SOL    HW117237   6.632   0.059   5.869
 5446SOL    HW217238   6.493   7.006   5.837
 5447SOL     OW17239   3.544   2.628   1.126
 5447SOL    HW117240   3.446   2.630   1.149
 5447SOL    HW217241   3.585   2.717   1.149
 5448SOL     OW17242   5.082   1.618   6.526
 5448SOL    HW117243   5.170   1.587   6.490
 5448SOL    HW217244   5.009   1.560   6.491
 5449SOL     OW17245   0.132   3.010   6.924
 5449SOL    HW117246   0.169   3.099   6.949
 5449SOL    HW217247   0.193   2.938   6.957
 5450SOL     OW17248   1.844   5.670   0.757
 5450SOL    HW117249   1.792   5.739   0.707
 5450SOL    HW217250   1.786   5.630   0.828
 5451SOL     OW17251   2.497   6.928   2.367
 5451SOL    HW117252   2.430   6.963   2.302
 5451SOL    HW217253   2.577   6.894   2.318
 5452SOL     OW17254   2.851   3.935   6.224
 5452SOL    HW117255   2.818   3.913   6.133
 5452SOL    HW217256   2.880   3.852   6.271
 5453SOL     OW17257   0.125   5.420   5.519
 5453SOL    HW117258   0.213   5.450   5.482
 5453SOL    HW217259   0.079   5.497   5.562
 5454SOL     OW17260   1.329   3.838   5.884
 5454SOL    HW117261   1.335   3.778   5.805
 5454SOL    HW217262   1.270   3.797   5.953
 5455SOL     OW17263   6.005   1.700   1.355
 5455SOL    HW117264   6.055   1.677   1.272
 5455SOL    HW217265   6.069   1.732   1.425
 5456SOL     OW17266   3.920   0.291   1.525
 5456SOL    HW117267   3.885   0.382   1.504
 5456SOL    HW217268   3.845   0.234   1.561
 5457SOL     OW17269   6.287   3.052   1.594
 5457SOL    HW117270   6.251   2.982   1.532
 5457SOL    HW217271   6.384   3.036   1.609
 5458SOL     OW17272   1.747   4.365   5.720
 5458SOL    HW117273   1.654   4.331   5.706
 5458SOL    HW217274   1.758   4.393   5.815
 5459SOL     OW17275   1.717   4.852   5.942
 5459SOL    HW117276   1.775   4.855   5.860
 5459SOL    HW217277   1.743   4.927   6.003
 5460SOL     OW17278   4.410   0.557   4.446
 5460SOL    HW117279   4.436   0.461   4.434
 5460SOL    HW217280   4.318   0.562   4.485
 5461SOL     OW17281   3.930   6.529   4.578
 5461SOL    HW117282   3.932   6.450   4.638
 5461SOL    HW217283   3.906   6.611   4.630
 5462SOL     OW17284   0.062   1.167   2.228
 5462SOL    HW117285   7.004   1.115   2.239
 5462SOL    HW217286   0.065   1.240   2.297
 5463SOL     OW17287   6.549   2.945   1.570
 5463SOL    HW117288   6.621   3.014   1.577
 5463SOL    HW217289   6.546   2.909   1.477
 5464SOL     OW17290   1.505   6.544   4.401
 5464SOL    HW117291   1.487   6.596   4.317
 5464SOL    HW217292   1.597   6.506   4.397
 5465SOL     OW17293   2.627   6.110   5.994
 5465SOL    HW117294   2.694   6.118   5.920
 5465SOL    HW217295   2.551   6.173   5.977
 5466SOL     OW17296   4.506   6.410   3.646
 5466SOL    HW117297   4.422   6.360   3.668
 5466SOL    HW217298   4.483   6.501   3.612
 5467SOL     OW17299   6.112   1.627   1.816
 5467SOL    HW117300   6.186   1.562   1.832
 5467SOL    HW217301   6.034   1.604   1.873
 5468SOL     OW17302   4.235   1.411   6.196
 5468SOL    HW117303   4.309   1.414   6.129
 5468SOL    HW217304   4.209   1.505   6.220
 5469SOL     OW17305   4.952   4.604   1.177
 5469SOL    HW117306   5.000   4.521   1.148
 5469SOL    HW217307   5.018   4.673   1.205
 5470SOL     OW17308   0.627   4.665   3.154
 5470SOL    HW117309   0.662   4.664   3.248
 5470SOL    HW217310   0.610   4.571   3.125
 5471SOL     OW17311   6.332   3.161   2.838
 5471SOL    HW117312   6.258   3.095   2.828
 5471SOL    HW217313   6.305   3.234   2.901
 5472SOL     OW17314   3.424   5.274   5.027
 5472SOL    HW117315   3.339   5.239   5.067
 5472SOL    HW217316   3.407   5.359   4.979
 5473SOL     OW17317   2.751   4.713   3.701
 5473SOL    HW117318   2.672   4.653   3.712
 5473SOL    HW217319   2.810   4.705   3.782
 5474SOL     OW17320   1.644   6.268   3.087
 5474SOL    HW117321   1.558   6.263   3.036
 5474SOL    HW217322   1.626   6.247   3.183
 5475SOL     OW17323   3.284   1.811   2.125
 5475SOL    HW117324   3.341   1.789   2.045
 5475SOL    HW217325   3.289   1.910   2.143
 5476SOL     OW17326   2.010   3.208   6.802
 5476SOL    HW117327   1.988   3.201   6.704
 5476SOL    HW217328   2.107   3.187   6.816
 5477SOL     OW17329   2.138   2.334   2.513
 5477SOL    HW117330   2.223   2.378   2.542
 5477SOL    HW217331   2.135   2.329   2.413
 5478SOL     OW17332   0.461   5.275   4.912
 5478SOL    HW117333   0.520   5.194   4.919
 5478SOL    HW217334   0.374   5.256   4.959
 5479SOL     OW17335   4.008   6.858   4.820
 5479SOL    HW117336   4.033   6.952   4.844
 5479SOL    HW217337   4.090   6.806   4.800
 5480SOL     OW17338   0.254   1.839   5.988
 5480SOL    HW117339   0.186   1.900   6.028
 5480SOL    HW217340   0.326   1.819   6.054
 5481SOL     OW17341   4.651   6.787   2.717
 5481SOL    HW117342   4.572   6.726   2.726
 5481SOL    HW217343   4.693   6.776   2.627
 5482SOL     OW17344   1.349   6.371   1.927
 5482SOL    HW117345   1.338   6.458   1.975
 5482SOL    HW217346   1.444   6.359   1.900
 5483SOL     OW17347   1.205   2.716   6.266
 5483SOL    HW117348   1.265   2.642   6.234
 5483SOL    HW217349   1.124   2.677   6.308
 5484SOL     OW17350   4.936   6.318   5.043
 5484SOL    HW117351   4.964   6.241   5.101
 5484SOL    HW217352   4.966   6.404   5.084
 5485SOL     OW17353   4.043   0.252   4.557
 5485SOL    HW117354   3.994   0.311   4.492
 5485SOL    HW217355   4.085   0.309   4.627
 5486SOL     OW17356   2.794   5.635   3.772
 5486SOL    HW117357   2.727   5.564   3.753
 5486SOL    HW217358   2.754   5.704   3.834
 5487SOL     OW17359   3.787   5.987   5.236
 5487SOL    HW117360   3.732   6.071   5.237
 5487SOL    HW217361   3.792   5.952   5.142
 5488SOL     OW17362   4.656   2.181   6.169
 5488SOL    HW117363   4.609   2.102   6.129
 5488SOL    HW217364   4.752   2.180   6.144
 5489SOL     OW17365   7.015   2.657   4.128
 5489SOL    HW117366   0.017   2.564   4.105
 5489SOL    HW217367   6.930   2.678   4.080
 5490SOL     OW17368   0.717   5.063   1.428
 5490SOL    HW117369   0.637   5.108   1.388
 5490SOL    HW217370   0.714   4.965   1.405
 5491SOL     OW17371   0.477   3.820   1.006
 5491SOL    HW117372   0.397   3.793   1.060
 5491SOL    HW217373   0.453   3.899   0.949
 5492SOL     OW17374   0.981   1.784   0.070
 5492SOL    HW117375   1.056   1.836   0.029
 5492SOL    HW217376   0.933   1.733   7.025
 5493SOL     OW17377   4.527   3.869   5.450
 5493SOL    HW117378   4.465   3.824   5.514
 5493SOL    HW217379   4.613   3.818   5.446
 5494SOL     OW17380   6.130   2.177   4.976
 5494SOL    HW117381   6.140   2.100   5.039
 5494SOL    HW217382   6.037   2.212   4.980
 5495SOL     OW17383   5.229   1.770   0.422
 5495SOL    HW117384   5.294   1.842   0.447
 5495SOL    HW217385   5.269   1.713   0.350
 5496SOL     OW17386   4.188   6.307   6.403
 5496SOL    HW117387   4.217   6.401   6.422
 5496SOL    HW217388   4.089   6.300   6.415
 5497SOL     OW17389   0.817   0.730   5.500
 5497SOL    HW117390   0.818   0.760   5.595
 5497SOL    HW217391   0.863   0.799   5.443
 5498SOL     OW17392   0.013   5.680   1.865
 5498SOL    HW117393   6.982   5.675   1.946
 5498SOL    HW217394   0.028   5.775   1.839
 5499SOL     OW17395   2.144   0.066   3.259
 5499SOL    HW117396   2.150   0.096   3.354
 5499SOL    HW217397   2.047   0.056   3.234
 5500SOL     OW17398   0.333   6.437   1.676
 5500SOL    HW117399   0.397   6.381   1.728
 5500SOL    HW217400   0.342   6.533   1.704
 5501SOL     OW17401   4.885   3.469   1.151
 5501SOL    HW117402   4.910   3.413   1.230
 5501SOL    HW217403   4.967   3.511   1.113
 5502SOL     OW17404   4.398   3.501   0.334
 5502SOL    HW117405   4.493   3.487   0.305
 5502SOL    HW217406   4.396   3.562   0.413
 5503SOL     OW17407   5.997   2.626   1.615
 5503SOL    HW117408   6.027   2.544   1.663
 5503SOL    HW217409   5.990   2.702   1.680
 5504SOL     OW17410   3.617   2.226   0.283
 5504SOL    HW117411   3.698   2.212   0.339
 5504SOL    HW217412   3.577   2.316   0.304
 5505SOL     OW17413   2.920   5.760   3.213
 5505SOL    HW117414   2.973   5.686   3.256
 5505SOL    HW217415   2.900   5.735   3.118
 5506SOL     OW17416   6.863   2.930   7.012
 5506SOL    HW117417   6.885   3.012   6.959
 5506SOL    HW217418   6.946   2.875   7.024
 5507SOL     OW17419   4.084   6.169   6.740
 5507SOL    HW117420   4.013   6.238   6.724
 5507SOL    HW217421   4.168   6.215   6.770
 5508SOL     OW17422   6.580   3.164   5.823
 5508SOL    HW117423   6.485   3.160   5.853
 5508SOL    HW217424   6.628   3.081   5.854
 5509SOL     OW17425   6.067   4.307   0.733
 5509SOL    HW117426   6.123   4.377   0.688
 5509SOL    HW217427   6.083   4.310   0.832
 5510SOL     OW17428   4.833   6.460   6.964
 5510SOL    HW117429   4.805   6.544   6.917
 5510SOL    HW217430   4.917   6.426   6.924
 5511SOL     OW17431   0.661   2.778   5.880
 5511SOL    HW117432   0.651   2.685   5.845
 5511SOL    HW217433   0.608   2.840   5.822
 5512SOL     OW17434   2.820   0.069   2.149
 5512SOL    HW117435   2.768   0.027   2.075
 5512SOL    HW217436   2.821   0.168   2.137
 5513SOL     OW17437   3.435   4.987   6.175
 5513SOL    HW117438   3.500   5.014   6.104
 5513SOL    HW217439   3.468   5.019   6.264
 5514SOL     OW17440   3.941   1.415   0.298
 5514SOL    HW117441   3.975   1.330   0.258
 5514SOL    HW217442   3.841   1.415   0.294
 5515SOL     OW17443   3.537   4.874   2.493
 5515SOL    HW117444   3.501   4.965   2.477
 5515SOL    HW217445   3.561   4.832   2.405
 5516SOL     OW17446   1.448   2.460   5.905
 5516SOL    HW117447   1.356   2.464   5.864
 5516SOL    HW217448   1.515   2.496   5.840
 5517SOL     OW17449   1.180   2.355   4.409
 5517SOL    HW117450   1.267   2.317   4.440
 5517SOL    HW217451   1.191   2.453   4.392
 5518SOL     OW17452   3.828   4.105   5.423
 5518SOL    HW117453   3.859   4.157   5.503
 5518SOL    HW217454   3.898   4.111   5.351
 5519SOL     OW17455   5.415   2.574   5.461
 5519SOL    HW117456   5.337   2.560   5.521
 5519SOL    HW217457   5.400   2.526   5.375
 5520SOL     OW17458   4.904   5.687   1.478
 5520SOL    HW117459   4.836   5.613   1.483
 5520SOL    HW217460   4.962   5.673   1.398
 5521SOL     OW17461   5.157   6.842   1.741
 5521SOL    HW117462   5.184   6.794   1.825
 5521SOL    HW217463   5.189   6.790   1.662
 5522SOL     OW17464   5.049   6.376   6.618
 5522SOL    HW117465   4.977   6.319   6.658
 5522SOL    HW217466   5.085   6.333   6.536
 5523SOL     OW17467   5.820   1.500   0.485
 5523SOL    HW117468   5.795   1.413   0.441
 5523SOL    HW217469   5.913   1.493   0.520
 5524SOL     OW17470   2.548   1.859   2.737
 5524SOL    HW117471   2.616   1.906   2.679
 5524SOL    HW217472   2.595   1.798   2.800
 5525SOL     OW17473   6.545   1.340   0.862
 5525SOL    HW117474   6.548   1.321   0.960
 5525SOL    HW217475   6.453   1.323   0.827
 5526SOL     OW17476   4.824   4.656   3.881
 5526SOL    HW117477   4.800   4.563   3.852
 5526SOL    HW217478   4.769   4.681   3.961
 5527SOL     OW17479   6.759   0.002   2.390
 5527SOL    HW117480   6.703   6.950   2.364
 5527SOL    HW217481   6.756   0.072   2.319
 5528SOL     OW17482   2.259   1.610   0.129
 5528SOL    HW117483   2.334   1.585   0.068
 5528SOL    HW217484   2.291   1.607   0.223
 5529SOL     OW17485   3.330   1.193   1.930
 5529SOL    HW117486   3.341   1.111   1.986
 5529SOL    HW217487   3.233   1.216   1.923
 5530SOL     OW17488   0.975   1.533   1.293
 5530SOL    HW117489   0.985   1.440   1.259
 5530SOL    HW217490   0.954   1.594   1.217
 5531SOL     OW17491   0.802   4.611   6.247
 5531SOL    HW117492   0.852   4.526   6.229
 5531SOL    HW217493   0.778   4.655   6.161
 5532SOL     OW17494   6.942   5.047   5.682
 5532SOL    HW117495   6.941   5.133   5.631
 5532SOL    HW217496   6.848   5.025   5.710
 5533SOL     OW17497   3.786   1.179   4.058
 5533SOL    HW117498   3.755   1.109   3.994
 5533SOL    HW217499   3.796   1.266   4.009
 5534SOL     OW17500   1.670   6.964   4.386
 5534SOL    HW117501   1.585   7.008   4.356
 5534SOL    HW217502   1.724   0.002   4.438
 5535SOL     OW17503   1.187   1.770   3.108
 5535SOL    HW117504   1.269   1.808   3.065
 5535SOL    HW217505   1.109   1.780   3.045
 5536SOL     OW17506   4.618   0.715   5.280
 5536SOL    HW117507   4.648   0.774   5.204
 5536SOL    HW217508   4.658   0.624   5.269
 5537SOL     OW17509   2.439   2.236   2.898
 5537SOL    HW117510   2.440   2.193   2.988
 5537SOL    HW217511   2.365   2.199   2.843
 5538SOL     OW17512   3.810   5.763   3.744
 5538SOL    HW117513   3.779   5.764   3.649
 5538SOL    HW217514   3.883   5.696   3.754
 5539SOL     OW17515   2.034   3.969   0.633
 5539SOL    HW117516   2.112   3.922   0.675
 5539SOL    HW217517   2.066   4.023   0.555
 5540SOL     OW17518   3.312   5.531   1.311
 5540SOL    HW117519   3.238   5.510   1.247
 5540SOL    HW217520   3.348   5.446   1.350
 5541SOL     OW17521   4.589   0.105   6.619
 5541SOL    HW117522   4.623   0.192   6.583
 5541SOL    HW217523   4.564   0.116   6.715
 5542SOL     OW17524   5.596   3.918   6.586
 5542SOL    HW117525   5.585   4.013   6.614
 5542SOL    HW217526   5.691   3.891   6.601
 5543SOL     OW17527   0.766   2.955   4.984
 5543SOL    HW117528   0.729   3.037   5.028
 5543SOL    HW217529   0.766   2.967   4.885
 5544SOL     OW17530   5.331   6.680   0.181
 5544SOL    HW117531   5.388   6.756   0.150
 5544SOL    HW217532   5.235   6.710   0.184
 5545SOL     OW17533   2.775   2.369   1.681
 5545SOL    HW117534   2.798   2.295   1.618
 5545SOL    HW217535   2.834   2.363   1.762
 5546SOL     OW17536   3.308   6.134   4.335
 5546SOL    HW117537   3.378   6.156   4.267
 5546SOL    HW217538   3.346   6.148   4.427
 5547SOL     OW17539   3.228   5.381   3.780
 5547SOL    HW117540   3.161   5.446   3.816
 5547SOL    HW217541   3.276   5.337   3.856
 5548SOL     OW17542   6.242   1.451   4.448
 5548SOL    HW117543   6.189   1.431   4.530
 5548SOL    HW217544   6.261   1.549   4.444
 5549SOL     OW17545   3.792   5.043   5.079
 5549SOL    HW117546   3.845   5.115   5.126
 5549SOL    HW217547   3.835   4.955   5.096
 5550SOL     OW17548   2.928   5.588   1.683
 5550SOL    HW117549   2.982   5.636   1.751
 5550SOL    HW217550   2.844   5.639   1.664
 5551SOL     OW17551   0.901   0.976   2.486
 5551SOL    HW117552   0.849   0.926   2.417
 5551SOL    HW217553   0.837   1.021   2.549
 5552SOL     OW17554   2.283   2.602   2.178
 5552SOL    HW117555   2.291   2.698   2.152
 5552SOL    HW217556   2.195   2.587   2.223
 5553SOL     OW17557   4.715   6.674   5.892
 5553SOL    HW117558   4.762   6.623   5.965
 5553SOL    HW217559   4.629   6.628   5.869
 5554SOL     OW17560   3.177   0.183   6.089
 5554SOL    HW117561   3.133   0.139   6.167
 5554SOL    HW217562   3.237   0.117   6.043
 5555SOL     OW17563   1.180   6.163   1.894
 5555SOL    HW117564   1.259   6.220   1.915
 5555SOL    HW217565   1.209   6.083   1.842
 5556SOL     OW17566   0.004   1.392   4.779
 5556SOL    HW117567   6.935   1.383   4.809
 5556SOL    HW217568   0.029   1.313   4.723
 5557SOL     OW17569   3.581   0.893   2.823
 5557SOL    HW117570   3.658   0.950   2.794
 5557SOL    HW217571   3.559   0.827   2.752
 5558SOL     OW17572   5.362   2.198   6.814
 5558SOL    HW117573   5.438   2.225   6.755
 5558SOL    HW217574   5.295   2.272   6.818
 5559SOL     OW17575   3.597   1.346   1.243
 5559SOL    HW117576   3.536   1.424   1.256
 5559SOL    HW217577   3.554   1.263   1.278
 5560SOL     OW17578   0.244   2.584   4.994
 5560SOL    HW117579   0.235   2.485   5.000
 5560SOL    HW217580   0.156   2.625   4.971
 5561SOL     OW17581   2.174   4.712   2.479
 5561SOL    HW117582   2.228   4.681   2.401
 5561SOL    HW217583   2.178   4.644   2.552
 5562SOL     OW17584   4.934   3.352   0.374
 5562SOL    HW117585   4.894   3.276   0.324
 5562SOL    HW217586   5.017   3.321   0.421
 5563SOL     OW17587   4.133   4.264   0.757
 5563SOL    HW117588   4.060   4.259   0.826
 5563SOL    HW217589   4.181   4.351   0.764
 5564SOL     OW17590   5.865   1.087   2.693
 5564SOL    HW117591   5.878   1.165   2.754
 5564SOL    HW217592   5.889   1.114   2.599
 5565SOL     OW17593   1.670   2.645   6.110
 5565SOL    HW117594   1.732   2.715   6.074
 5565SOL    HW217595   1.594   2.633   6.046
 5566SOL     OW17596   2.311   4.363   0.625
 5566SOL    HW117597   2.355   4.277   0.597
 5566SOL    HW217598   2.261   4.402   0.548
 5567SOL     OW17599   1.482   5.865   3.056
 5567SOL    HW117600   1.560   5.875   3.117
 5567SOL    HW217601   1.443   5.956   3.037
 5568SOL     OW17602   4.904   2.871   0.159
 5568SOL    HW117603   4.827   2.809   0.141
 5568SOL    HW217604   4.904   2.944   0.091
 5569SOL     OW17605   3.905   1.260   6.148
 5569SOL    HW117606   3.990   1.275   6.097
 5569SOL    HW217607   3.851   1.190   6.102
 5570SOL     OW17608   1.991   1.713   6.026
 5570SOL    HW117609   2.058   1.725   6.100
 5570SOL    HW217610   2.026   1.755   5.943
 5571SOL     OW17611   1.142   5.183   6.664
 5571SOL    HW117612   1.160   5.224   6.575
 5571SOL    HW217613   1.074   5.238   6.712
 5572SOL     OW17614   1.228   3.487   5.373
 5572SOL    HW117615   1.323   3.476   5.401
 5572SOL    HW217616   1.224   3.538   5.287
 5573SOL     OW17617   0.709   4.170   6.919
 5573SOL    HW117618   0.660   4.123   6.992
 5573SOL    HW217619   0.696   4.269   6.928
 5574SOL     OW17620   1.789   5.988   4.602
 5574SOL    HW117621   1.705   5.941   4.574
 5574SOL    HW217622   1.865   5.923   4.601
 5575SOL     OW17623   1.461   1.744   2.567
 5575SOL    HW117624   1.510   1.768   2.650
 5575SOL    HW217625   1.396   1.670   2.586
 5576SOL     OW17626   5.323   6.436   6.694
 5576SOL    HW117627   5.239   6.397   6.657
 5576SOL    HW217628   5.327   6.420   6.793
 5577SOL     OW17629   1.590   5.398   5.425
 5577SOL    HW117630   1.612   5.481   5.373
 5577SOL    HW217631   1.501   5.363   5.397
 5578SOL     OW17632   3.931   1.536   5.958
 5578SOL    HW117633   3.951   1.536   5.860
 5578SOL    HW217634   3.974   1.456   6.000
 5579SOL     OW17635   5.072   4.867   2.471
 5579SOL    HW117636   5.157   4.817   2.451
 5579SOL    HW217637   5.022   4.884   2.386
 5580SOL     OW17638   6.545   0.796   2.549
 5580SOL    HW117639   6.609   0.723   2.528
 5580SOL    HW217640   6.509   0.835   2.464
 5581SOL     OW17641   3.267   3.105   0.752
 5581SOL    HW117642   3.302   3.033   0.692
 5581SOL    HW217643   3.279   3.194   0.708
 5582SOL     OW17644   3.111   3.756   5.293
 5582SOL    HW117645   3.088   3.686   5.361
 5582SOL    HW217646   3.167   3.714   5.221
 5583SOL     OW17647   3.983   0.679   6.960
 5583SOL    HW117648   4.030   0.763   6.935
 5583SOL    HW217649   3.928   0.647   6.883
 5584SOL     OW17650   5.509   3.730   4.901
 5584SOL    HW117651   5.573   3.698   4.971
 5584SOL    HW217652   5.437   3.784   4.945
 5585SOL     OW17653   0.344   1.038   3.947
 5585SOL    HW117654   0.430   1.046   3.996
 5585SOL    HW217655   0.353   0.968   3.875
 5586SOL     OW17656   1.799   0.891   0.524
 5586SOL    HW117657   1.860   0.959   0.482
 5586SOL    HW217658   1.730   0.938   0.579
 5587SOL     OW17659   3.621   0.508   2.801
 5587SOL    HW117660   3.677   0.438   2.845
 5587SOL    HW217661   3.527   0.501   2.833
 5588SOL     OW17662   4.238   5.776   0.306
 5588SOL    HW117663   4.234   5.697   0.366
 5588SOL    HW217664   4.240   5.746   0.211
 5589SOL     OW17665   1.449   2.429   6.405
 5589SOL    HW117666   1.454   2.518   6.450
 5589SOL    HW217667   1.526   2.373   6.433
 5590SOL     OW17668   5.760   6.949   3.703
 5590SOL    HW117669   5.840   6.932   3.761
 5590SOL    HW217670   5.780   7.025   3.641
 5591SOL     OW17671   5.028   1.222   5.702
 5591SOL    HW117672   5.048   1.124   5.698
 5591SOL    HW217673   4.985   1.244   5.789
 5592SOL     OW17674   1.090   3.815   2.972
 5592SOL    HW117675   1.026   3.883   3.007
 5592SOL    HW217676   1.129   3.764   3.048
 5593SOL     OW17677   2.787   3.637   5.268
 5593SOL    HW117678   2.858   3.606   5.332
 5593SOL    HW217679   2.759   3.560   5.211
 5594SOL     OW17680   3.281   0.889   5.826
 5594SOL    HW117681   3.318   0.851   5.741
 5594SOL    HW217682   3.260   0.814   5.889
 5595SOL     OW17683   6.566   3.708   1.051
 5595SOL    HW117684   6.526   3.624   1.015
 5595SOL    HW217685   6.550   3.714   1.150
 5596SOL     OW17686   5.160   4.199   4.491
 5596SOL    HW117687   5.155   4.176   4.588
 5596SOL    HW217688   5.254   4.185   4.459
 5597SOL     OW17689   0.870   2.367   6.645
 5597SOL    HW117690   0.793   2.399   6.590
 5597SOL    HW217691   0.898   2.276   6.614
 5598SOL     OW17692   6.828   0.300   3.188
 5598SOL    HW117693   6.734   0.321   3.214
 5598SOL    HW217694   6.890   0.366   3.230
 5599SOL     OW17695   5.028   3.011   2.455
 5599SOL    HW117696   4.975   3.050   2.380
 5599SOL    HW217697   5.117   3.058   2.460
 5600SOL     OW17698   2.169   3.677   2.188
 5600SOL    HW117699   2.264   3.646   2.189
 5600SOL    HW217700   2.118   3.626   2.118
 5601SOL     OW17701   5.203   2.421   6.871
 5601SOL    HW117702   5.150   2.422   6.956
 5601SOL    HW217703   5.299   2.440   6.891
 5602SOL     OW17704   5.159   1.095   2.461
 5602SOL    HW117705   5.064   1.065   2.456
 5602SOL    HW217706   5.213   1.030   2.514
 5603SOL     OW17707   3.459   1.389   6.697
 5603SOL    HW117708   3.452   1.407   6.795
 5603SOL    HW217709   3.431   1.471   6.647
 5604SOL     OW17710   2.183   4.499   4.216
 5604SOL    HW117711   2.114   4.501   4.288
 5604SOL    HW217712   2.236   4.414   4.222
 5605SOL     OW17713   3.563   0.059   4.066
 5605SOL    HW117714   3.620   0.092   3.990
 5605SOL    HW217715   3.501   7.015   4.033
 5606SOL     OW17716   3.999   4.746   0.502
 5606SOL    HW117717   3.959   4.706   0.584
 5606SOL    HW217718   4.081   4.694   0.476
 5607SOL     OW17719   1.767   1.761   1.746
 5607SOL    HW117720   1.758   1.859   1.726
 5607SOL    HW217721   1.761   1.747   1.844
 5608SOL     OW17722   6.144   6.187   3.104
 5608SOL    HW117723   6.157   6.138   3.190
 5608SOL    HW217724   6.209   6.152   3.036
 5609SOL     OW17725   0.192   0.699   0.700
 5609SOL    HW117726   0.205   0.600   0.699
 5609SOL    HW217727   0.197   0.734   0.606
 5610SOL     OW17728   5.690   6.601   6.168
 5610SOL    HW117729   5.611   6.587   6.108
 5610SOL    HW217730   5.719   6.513   6.206
 5611SOL     OW17731   0.190   3.725   1.919
 5611SOL    HW117732   0.203   3.655   1.849
 5611SOL    HW217733   0.108   3.779   1.897
 5612SOL     OW17734   4.917   2.625   0.861
 5612SOL    HW117735   4.853   2.607   0.935
 5612SOL    HW217736   4.951   2.538   0.824
 5613SOL     OW17737   6.731   5.059   4.825
 5613SOL    HW117738   6.641   5.038   4.786
 5613SOL    HW217739   6.722   5.130   4.894
 5614SOL     OW17740   6.340   2.228   4.481
 5614SOL    HW117741   6.269   2.245   4.549
 5614SOL    HW217742   6.320   2.142   4.433
 5615SOL     OW17743   0.858   3.930   3.129
 5615SOL    HW117744   0.908   3.979   3.201
 5615SOL    HW217745   0.781   3.881   3.170
 5616SOL     OW17746   1.481   2.675   2.012
 5616SOL    HW117747   1.442   2.766   2.001
 5616SOL    HW217748   1.559   2.679   2.074
 5617SOL     OW17749   0.914   5.517   5.659
 5617SOL    HW117750   0.829   5.473   5.689
 5617SOL    HW217751   0.953   5.467   5.582
 5618SOL     OW17752   5.359   1.506   3.150
 5618SOL    HW117753   5.419   1.565   3.096
 5618SOL    HW217754   5.329   1.556   3.232
 5619SOL     OW17755   3.774   4.006   4.494
 5619SOL    HW117756   3.692   4.062   4.498
 5619SOL    HW217757   3.810   4.005   4.401
 5620SOL     OW17758   4.746   4.360   5.021
 5620SOL    HW117759   4.748   4.450   4.977
 5620SOL    HW217760   4.718   4.291   4.954
 5621SOL     OW17761   0.715   3.718   0.478
 5621SOL    HW117762   0.641   3.655   0.455
 5621SOL    HW217763   0.717   3.733   0.577
 5622SOL     OW17764   5.833   4.886   3.939
 5622SOL    HW117765   5.890   4.806   3.958
 5622SOL    HW217766   5.884   4.951   3.883
 5623SOL     OW17767   4.800   4.562   3.579
 5623SOL    HW117768   4.738   4.594   3.651
 5623SOL    HW217769   4.783   4.614   3.495
 5624SOL     OW17770   4.849   3.900   4.484
 5624SOL    HW117771   4.890   3.810   4.503
 5624SOL    HW217772   4.860   3.922   4.388
 5625SOL     OW17773   3.790   0.173   6.719
 5625SOL    HW117774   3.846   0.110   6.772
 5625SOL    HW217775   3.756   0.126   6.637
 5626SOL     OW17776   1.848   4.371   6.024
 5626SOL    HW117777   1.891   4.359   6.113
 5626SOL    HW217778   1.918   4.384   5.954
 5627SOL     OW17779   0.802   5.120   1.168
 5627SOL    HW117780   0.799   5.134   1.267
 5627SOL    HW217781   0.734   5.179   1.125
 5628SOL     OW17782   1.523   2.492   7.017
 5628SOL    HW117783   1.548   2.418   0.053
 5628SOL    HW217784   1.434   2.474   6.977
 5629SOL     OW17785   1.063   3.135   4.952
 5629SOL    HW117786   1.097   3.042   4.941
 5629SOL    HW217787   1.129   3.189   5.005
 5630SOL     OW17788   0.932   4.447   6.829
 5630SOL    HW117789   0.959   4.491   6.743
 5630SOL    HW217790   0.966   4.353   6.831
 5631SOL     OW17791   2.488   0.973   3.581
 5631SOL    HW117792   2.433   0.948   3.661
 5631SOL    HW217793   2.556   1.042   3.608
 5632SOL     OW17794   3.010   6.394   5.860
 5632SOL    HW117795   3.067   6.443   5.926
 5632SOL    HW217796   2.916   6.425   5.867
 5633SOL     OW17797   1.454   4.907   4.943
 5633SOL    HW117798   1.507   4.832   4.981
 5633SOL    HW217799   1.362   4.875   4.920
 5634SOL     OW17800   1.155   0.421   1.498
 5634SOL    HW117801   1.075   0.423   1.558
 5634SOL    HW217802   1.155   0.337   1.445
 5635SOL     OW17803   3.782   0.731   3.326
 5635SOL    HW117804   3.767   0.707   3.230
 5635SOL    HW217805   3.757   0.654   3.384
 5636SOL     OW17806   4.667   0.121   5.157
 5636SOL    HW117807   4.710   0.031   5.161
 5636SOL    HW217808   4.706   0.180   5.228
 5637SOL     OW17809   5.724   6.653   5.165
 5637SOL    HW117810   5.767   6.631   5.077
 5637SOL    HW217811   5.698   6.568   5.211
 5638SOL     OW17812   1.754   6.081   0.292
 5638SOL    HW117813   1.761   6.147   0.217
 5638SOL    HW217814   1.818   6.006   0.276
 5639SOL     OW17815   3.439   0.005   1.699
 5639SOL    HW117816   3.486   0.091   1.679
 5639SOL    HW217817   3.450   7.010   1.796
 5640SOL     OW17818   4.602   6.531   4.276
 5640SOL    HW117819   4.654   6.596   4.221
 5640SOL    HW217820   4.565   6.459   4.218
 5641SOL     OW17821   6.284   5.093   3.823
 5641SOL    HW117822   6.246   5.051   3.905
 5641SOL    HW217823   6.228   5.069   3.744
 5642SOL     OW17824   1.797   1.510   6.544
 5642SOL    HW117825   1.794   1.529   6.446
 5642SOL    HW217826   1.857   1.433   6.561
 5643SOL     OW17827   4.631   2.217   3.841
 5643SOL    HW117828   4.569   2.267   3.781
 5643SOL    HW217829   4.720   2.208   3.797
 5644SOL     OW17830   2.615   0.847   5.045
 5644SOL    HW117831   2.685   0.844   5.116
 5644SOL    HW217832   2.642   0.790   4.968
 5645SOL     OW17833   6.934   6.172   4.432
 5645SOL    HW117834   6.843   6.173   4.474
 5645SOL    HW217835   6.940   6.096   4.367
 5646SOL     OW17836   6.373   1.105   2.542
 5646SOL    HW117837   6.411   1.017   2.514
 5646SOL    HW217838   6.275   1.097   2.555
 5647SOL     OW17839   5.694   3.546   6.630
 5647SOL    HW117840   5.645   3.616   6.578
 5647SOL    HW217841   5.689   3.459   6.581
 5648SOL     OW17842   1.613   2.158   4.661
 5648SOL    HW117843   1.548   2.222   4.619
 5648SOL    HW217844   1.698   2.160   4.609
 5649SOL     OW17845   6.648   0.434   4.843
 5649SOL    HW117846   6.587   0.412   4.918
 5649SOL    HW217847   6.651   0.358   4.778
 5650SOL     OW17848   6.081   4.650   5.808
 5650SOL    HW117849   6.003   4.597   5.842
 5650SOL    HW217850   6.074   4.745   5.840
 5651SOL     OW17851   5.483   0.700   3.170
 5651SOL    HW117852   5.531   0.753   3.101
 5651SOL    HW217853   5.513   0.605   3.166
 5652SOL     OW17854   3.528   4.482   6.540
 5652SOL    HW117855   3.476   4.415   6.486
 5652SOL    HW217856   3.558   4.439   6.625
 5653SOL     OW17857   1.953   0.151   5.377
 5653SOL    HW117858   1.943   0.102   5.463
 5653SOL    HW217859   2.031   0.114   5.326
 5654SOL     OW17860   3.235   6.864   0.018
 5654SOL    HW117861   3.157   6.806   0.043
 5654SOL    HW217862   3.295   6.875   0.096
 5655SOL     OW17863   5.761   4.808   2.131
 5655SOL    HW117864   5.778   4.802   2.033
 5655SOL    HW217865   5.796   4.895   2.165
 5656SOL     OW17866   2.537   4.331   6.601
 5656SOL    HW117867   2.524   4.264   6.674
 5656SOL    HW217868   2.587   4.288   6.525
 5657SOL     OW17869   5.149   5.296   1.550
 5657SOL    HW117870   5.248   5.300   1.535
 5657SOL    HW217871   5.126   5.341   1.636
 5658SOL     OW17872   4.457   6.548   6.138
 5658SOL    HW117873   4.448   6.619   6.068
 5658SOL    HW217874   4.397   6.471   6.117
 5659SOL     OW17875   3.029   3.196   2.511
 5659SOL    HW117876   2.949   3.255   2.498
 5659SOL    HW217877   3.032   3.165   2.606
 5660SOL     OW17878   0.792   4.344   2.005
 5660SOL    HW117879   0.847   4.349   2.088
 5660SOL    HW217880   0.773   4.248   1.984
 5661SOL     OW17881   5.641   5.287   5.365
 5661SOL    HW117882   5.667   5.256   5.457
 5661SOL    HW217883   5.656   5.386   5.358
 5662SOL     OW17884   1.625   4.524   5.240
 5662SOL    HW117885   1.665   4.433   5.246
 5662SOL    HW217886   1.697   4.593   5.244
 5663SOL     OW17887   2.549   3.307   0.356
 5663SOL    HW117888   2.636   3.266   0.329
 5663SOL    HW217889   2.477   3.237   0.353
 5664SOL     OW17890   6.226   0.115   1.371
 5664SOL    HW117891   6.151   0.103   1.305
 5664SOL    HW217892   6.189   0.110   1.464
 5665SOL     OW17893   1.087   0.488   5.854
 5665SOL    HW117894   1.129   0.569   5.813
 5665SOL    HW217895   1.120   0.406   5.807
 5666SOL     OW17896   4.848   5.889   6.295
 5666SOL    HW117897   4.773   5.955   6.293
 5666SOL    HW217898   4.925   5.925   6.243
 5667SOL     OW17899   5.584   5.087   2.993
 5667SOL    HW117900   5.615   5.182   2.989
 5667SOL    HW217901   5.621   5.036   2.916
 5668SOL     OW17902   6.628   2.773   6.194
 5668SOL    HW117903   6.591   2.799   6.283
 5668SOL    HW217904   6.552   2.749   6.133
 5669SOL     OW17905   1.452   1.881   5.724
 5669SOL    HW117906   1.431   1.885   5.626
 5669SOL    HW217907   1.551   1.892   5.737
 5670SOL     OW17908   1.416   2.888   2.746
 5670SOL    HW117909   1.500   2.835   2.739
 5670SOL    HW217910   1.383   2.911   2.654
 5671SOL     OW17911   0.597   0.862   6.228
 5671SOL    HW117912   0.622   0.879   6.323
 5671SOL    HW217913   0.531   0.931   6.198
 5672SOL     OW17914   3.956   4.572   6.167
 5672SOL    HW117915   3.955   4.573   6.067
 5672SOL    HW217916   3.863   4.582   6.202
 5673SOL     OW17917   2.170   6.119   1.261
 5673SOL    HW117918   2.075   6.105   1.289
 5673SOL    HW217919   2.177   6.110   1.161
 5674SOL     OW17920   0.411   2.982   0.122
 5674SOL    HW117921   0.462   2.898   0.140
 5674SOL    HW217922   0.438   3.018   0.033
 5675SOL     OW17923   4.336   1.474   5.851
 5675SOL    HW117924   4.372   1.437   5.765
 5675SOL    HW217925   4.238   1.489   5.842
 5676SOL     OW17926   2.027   5.614   1.872
 5676SOL    HW117927   2.099   5.676   1.839
 5676SOL    HW217928   1.939   5.660   1.864
 5677SOL     OW17929   5.996   1.063   3.503
 5677SOL    HW117930   6.072   1.116   3.465
 5677SOL    HW217931   5.966   1.104   3.589
 5678SOL     OW17932   1.089   5.388   2.455
 5678SOL    HW117933   1.082   5.342   2.366
 5678SOL    HW217934   1.029   5.467   2.456
 5679SOL     OW17935   3.713   6.155   5.699
 5679SOL    HW117936   3.777   6.083   5.728
 5679SOL    HW217937   3.655   6.180   5.777
 5680SOL     OW17938   0.835   0.271   6.454
 5680SOL    HW117939   0.841   0.299   6.550
 5680SOL    HW217940   0.828   0.352   6.396
 5681SOL     OW17941   3.014   3.350   0.319
 5681SOL    HW117942   3.055   3.269   0.360
 5681SOL    HW217943   3.082   3.423   0.313
 5682SOL     OW17944   2.126   5.101   4.487
 5682SOL    HW117945   2.210   5.051   4.508
 5682SOL    HW217946   2.069   5.107   4.569
 5683SOL     OW17947   3.122   3.418   4.596
 5683SOL    HW117948   3.067   3.349   4.549
 5683SOL    HW217949   3.216   3.384   4.607
 5684SOL     OW17950   3.256   3.959   2.661
 5684SOL    HW117951   3.195   3.902   2.605
 5684SOL    HW217952   3.203   3.999   2.736
 5685SOL     OW17953   6.546   0.757   2.000
 5685SOL    HW117954   6.614   0.815   1.955
 5685SOL    HW217955   6.459   0.765   1.951
 5686SOL     OW17956   3.244   4.456   6.272
 5686SOL    HW117957   3.303   4.382   6.304
 5686SOL    HW217958   3.189   4.490   6.348
 5687SOL     OW17959   4.977   6.929   5.749
 5687SOL    HW117960   4.992   6.845   5.801
 5687SOL    HW217961   4.953   6.906   5.655
 5688SOL     OW17962   5.498   1.295   2.219
 5688SOL    HW117963   5.524   1.341   2.134
 5688SOL    HW217964   5.402   1.314   2.239
 5689SOL     OW17965   3.948   3.778   5.379
 5689SOL    HW117966   3.897   3.859   5.407
 5689SOL    HW217967   3.985   3.733   5.460
 5690SOL     OW17968   2.944   0.602   2.562
 5690SOL    HW117969   2.928   0.530   2.630
 5690SOL    HW217970   3.023   0.657   2.590
 5691SOL     OW17971   3.272   0.397   4.668
 5691SOL    HW117972   3.185   0.349   4.685
 5691SOL    HW217973   3.253   0.491   4.642
 5692SOL     OW17974   6.262   2.907   0.692
 5692SOL    HW117975   6.165   2.919   0.714
 5692SOL    HW217976   6.317   2.920   0.774
 5693SOL     OW17977   5.646   3.337   2.004
 5693SOL    HW117978   5.686   3.283   2.078
 5693SOL    HW217979   5.566   3.385   2.038
 5694SOL     OW17980   1.952   2.342   5.014
 5694SOL    HW117981   1.852   2.342   5.012
 5694SOL    HW217982   1.985   2.398   5.090
 5695SOL     OW17983   1.670   3.564   2.903
 5695SOL    HW117984   1.629   3.567   2.812
 5695SOL    HW217985   1.766   3.537   2.896
 5696SOL     OW17986   3.007   1.607   6.481
 5696SOL    HW117987   2.921   1.591   6.529
 5696SOL    HW217988   2.988   1.644   6.390
 5697SOL     OW17989   6.338   3.790   0.921
 5697SOL    HW117990   6.283   3.838   0.990
 5697SOL    HW217991   6.430   3.773   0.957
 5698SOL     OW17992   1.877   4.943   4.387
 5698SOL    HW117993   1.924   4.894   4.460
 5698SOL    HW217994   1.908   4.908   4.298
 5699SOL     OW17995   1.261   2.200   5.413
 5699SOL    HW117996   1.188   2.166   5.354
 5699SOL    HW217997   1.305   2.278   5.369
 5700SOL     OW17998   1.896   5.081   4.654
 5700SOL    HW117999   1.837   5.150   4.696
 5700SOL    HW218000   1.859   5.056   4.564
 5701SOL     OW18001   4.786   2.158   2.473
 5701SOL    HW118002   4.686   2.157   2.469
 5701SOL    HW218003   4.816   2.178   2.567
 5702SOL     OW18004   4.359   0.962   7.013
 5702SOL    HW118005   4.309   0.892   6.961
 5702SOL    HW218006   4.344   0.948   0.084
 5703SOL     OW18007   4.723   4.060   2.699
 5703SOL    HW118008   4.711   4.132   2.631
 5703SOL    HW218009   4.695   3.972   2.660
 5704SOL     OW18010   5.260   3.326   3.961
 5704SOL    HW118011   5.170   3.313   3.920
 5704SOL    HW218012   5.269   3.422   3.990
 5705SOL     OW18013   6.461   0.838   4.591
 5705SOL    HW118014   6.374   0.885   4.604
 5705SOL    HW218015   6.468   0.762   4.655
 5706SOL     OW18016   2.213   1.314   5.851
 5706SOL    HW118017   2.125   1.343   5.813
 5706SOL    HW218018   2.220   1.214   5.846
 5707SOL     OW18019   4.627   0.459   1.368
 5707SOL    HW118020   4.681   0.505   1.438
 5707SOL    HW218021   4.565   0.393   1.411
 5708SOL     OW18022   0.896   6.735   0.380
 5708SOL    HW118023   0.801   6.718   0.356
 5708SOL    HW218024   0.925   6.823   0.341
 5709SOL     OW18025   0.232   2.722   0.775
 5709SOL    HW118026   0.196   2.764   0.858
 5709SOL    HW218027   0.303   2.655   0.800
 5710SOL     OW18028   3.227   5.176   6.262
 5710SOL    HW118029   3.160   5.102   6.260
 5710SOL    HW218030   3.319   5.138   6.274
 5711SOL     OW18031   5.409   1.004   5.440
 5711SOL    HW118032   5.500   1.003   5.480
 5711SOL    HW218033   5.372   0.911   5.438
 5712SOL     OW18034   4.780   6.916   5.948
 5712SOL    HW118035   4.742   6.825   5.931
 5712SOL    HW218036   4.848   6.938   5.879
 5713SOL     OW18037   0.418   3.442   2.807
 5713SOL    HW118038   0.401   3.494   2.724
 5713SOL    HW218039   0.473   3.361   2.784
 5714SOL     OW18040   2.473   0.850   1.152
 5714SOL    HW118041   2.414   0.880   1.077
 5714SOL    HW218042   2.563   0.826   1.115
 5715SOL     OW18043   0.263   5.612   3.984
 5715SOL    HW118044   0.248   5.542   4.054
 5715SOL    HW218045   0.361   5.619   3.965
 5716SOL     OW18046   1.528   2.721   4.633
 5716SOL    HW118047   1.539   2.779   4.713
 5716SOL    HW218048   1.611   2.667   4.619
 5717SOL     OW18049   0.379   4.794   5.490
 5717SOL    HW118050   0.440   4.734   5.541
 5717SOL    HW218051   0.286   4.759   5.494
 5718SOL     OW18052   2.294   5.892   5.945
 5718SOL    HW118053   2.286   5.990   5.964
 5718SOL    HW218054   2.330   5.845   6.025
 5719SOL     OW18055   1.428   0.942   0.193
 5719SOL    HW118056   1.516   0.900   0.214
 5719SOL    HW218057   1.367   0.934   0.273
 5720SOL     OW18058   2.162   5.902   4.009
 5720SOL    HW118059   2.156   5.896   3.910
 5720SOL    HW218060   2.102   5.833   4.050
 5721SOL     OW18061   6.047   5.227   6.778
 5721SOL    HW118062   6.109   5.299   6.746
 5721SOL    HW218063   5.954   5.263   6.783
 5722SOL     OW18064   5.072   0.766   3.792
 5722SOL    HW118065   5.094   0.753   3.889
 5722SOL    HW218066   5.008   0.695   3.763
 5723SOL     OW18067   6.273   5.645   1.053
 5723SOL    HW118068   6.190   5.693   1.024
 5723SOL    HW218069   6.279   5.557   1.006
 5724SOL     OW18070   4.756   2.991   5.986
 5724SOL    HW118071   4.824   2.943   6.041
 5724SOL    HW218072   4.765   2.962   5.890
 5725SOL     OW18073   6.428   0.031   5.468
 5725SOL    HW118074   6.460   0.009   5.376
 5725SOL    HW218075   6.359   0.103   5.464
 5726SOL     OW18076   4.313   5.969   5.322
 5726SOL    HW118077   4.334   5.871   5.318
 5726SOL    HW218078   4.349   6.008   5.407
 5727SOL     OW18079   5.403   3.381   3.350
 5727SOL    HW118080   5.450   3.293   3.362
 5727SOL    HW218081   5.350   3.378   3.265
 5728SOL     OW18082   3.577   0.796   4.989
 5728SOL    HW118083   3.655   0.792   5.052
 5728SOL    HW218084   3.501   0.745   5.028
 5729SOL     OW18085   3.303   1.587   3.959
 5729SOL    HW118086   3.335   1.499   3.996
 5729SOL    HW218087   3.233   1.624   4.021
 5730SOL     OW18088   3.960   5.295   0.026
 5730SOL    HW118089   4.017   5.339   0.095
 5730SOL    HW218090   3.952   5.198   0.047
 5731SOL     OW18091   4.120   1.234   4.896
 5731SOL    HW118092   4.154   1.253   4.988
 5731SOL    HW218093   4.037   1.179   4.901
 5732SOL     OW18094   6.151   3.944   4.752
 5732SOL    HW118095   6.213   4.013   4.789
 5732SOL    HW218096   6.200   3.886   4.688
 5733SOL     OW18097   1.979   6.074   0.760
 5733SOL    HW118098   1.897   6.050   0.811
 5733SOL    HW218099   2.029   5.991   0.734
 5734SOL     OW18100   1.810   0.367   6.341
 5734SOL    HW118101   1.779   0.383   6.434
 5734SOL    HW218102   1.849   0.275   6.334
 5735SOL     OW18103   5.807   1.327   0.936
 5735SOL    HW118104   5.751   1.305   0.856
 5735SOL    HW218105   5.759   1.299   1.019
 5736SOL     OW18106   4.012   3.622   6.466
 5736SOL    HW118107   4.002   3.593   6.561
 5736SOL    HW218108   3.934   3.678   6.440
 5737SOL     OW18109   4.960   5.490   2.562
 5737SOL    HW118110   4.971   5.462   2.657
 5737SOL    HW218111   5.032   5.556   2.538
 5738SOL     OW18112   3.223   1.412   1.353
 5738SOL    HW118113   3.236   1.379   1.447
 5738SOL    HW218114   3.138   1.463   1.347
 5739SOL     OW18115   2.104   1.225   6.163
 5739SOL    HW118116   2.168   1.155   6.130
 5739SOL    HW218117   2.010   1.194   6.148
 5740SOL     OW18118   5.596   2.414   2.678
 5740SOL    HW118119   5.574   2.339   2.741
 5740SOL    HW218120   5.523   2.481   2.679
 5741SOL     OW18121   1.493   3.511   3.876
 5741SOL    HW118122   1.400   3.547   3.878
 5741SOL    HW218123   1.512   3.462   3.961
 5742SOL     OW18124   6.435   4.476   2.358
 5742SOL    HW118125   6.521   4.429   2.335
 5742SOL    HW218126   6.360   4.410   2.356
 5743SOL     OW18127   3.347   0.014   5.969
 5743SOL    HW118128   3.300   6.954   5.951
 5743SOL    HW218129   3.444   7.024   5.984
 5744SOL     OW18130   5.380   5.975   4.603
 5744SOL    HW118131   5.454   5.937   4.658
 5744SOL    HW218132   5.401   6.070   4.581
 5745SOL     OW18133   2.155   3.976   2.779
 5745SOL    HW118134   2.246   3.936   2.774
 5745SOL    HW218135   2.162   4.073   2.800
 5746SOL     OW18136   4.753   0.587   3.510
 5746SOL    HW118137   4.744   0.493   3.475
 5746SOL    HW218138   4.823   0.635   3.458
 5747SOL     OW18139   0.803   0.111   1.783
 5747SOL    HW118140   0.747   0.105   1.701
 5747SOL    HW218141   0.885   0.055   1.772
 5748SOL     OW18142   6.290   0.417   6.682
 5748SOL    HW118143   6.324   0.374   6.766
 5748SOL    HW218144   6.281   0.348   6.610
 5749SOL     OW18145   2.013   6.217   5.956
 5749SOL    HW118146   2.000   6.246   6.050
 5749SOL    HW218147   1.926   6.187   5.918
 5750SOL     OW18148   6.266   2.376   3.997
 5750SOL    HW118149   6.364   2.378   3.975
 5750SOL    HW218150   6.239   2.464   4.036
 5751SOL     OW18151   6.725   4.089   4.563
 5751SOL    HW118152   6.735   4.187   4.583
 5751SOL    HW218153   6.629   4.063   4.574
 5752SOL     OW18154   5.467   1.809   6.477
 5752SOL    HW118155   5.543   1.871   6.460
 5752SOL    HW218156   5.391   1.859   6.517
 5753SOL     OW18157   3.626   3.654   3.820
 5753SOL    HW118158   3.545   3.694   3.778
 5753SOL    HW218159   3.701   3.654   3.755
 5754SOL     OW18160   5.914   0.542   0.642
 5754SOL    HW118161   5.945   0.485   0.718
 5754SOL    HW218162   5.822   0.577   0.663
 5755SOL     OW18163   0.836   4.226   6.421
 5755SOL    HW118164   0.824   4.127   6.436
 5755SOL    HW218165   0.769   4.276   6.476
 5756SOL     OW18166   5.338   6.785   1.516
 5756SOL    HW118167   5.277   6.793   1.437
 5756SOL    HW218168   5.418   6.844   1.502
 5757SOL     OW18169   1.915   2.046   3.929
 5757SOL    HW118170   1.991   2.099   3.968
 5757SOL    HW218171   1.924   1.950   3.957
 5758SOL     OW18172   6.343   6.838   2.999
 5758SOL    HW118173   6.272   6.866   2.935
 5758SOL    HW218174   6.311   6.852   3.093
 5759SOL     OW18175   3.269   6.095   2.691
 5759SOL    HW118176   3.324   6.018   2.659
 5759SOL    HW218177   3.267   6.095   2.791
 5760SOL     OW18178   0.214   2.436   6.980
 5760SOL    HW118179   0.131   2.477   7.017
 5760SOL    HW218180   0.196   2.402   6.888
 5761SOL     OW18181   0.097   6.910   5.465
 5761SOL    HW118182   0.094   6.990   5.405
 5761SOL    HW218183   0.113   6.939   5.559
 5762SOL     OW18184   0.781   6.584   6.072
 5762SOL    HW118185   0.804   6.589   5.975
 5762SOL    HW218186   0.687   6.551   6.082
 5763SOL     OW18187   4.765   0.401   6.846
 5763SOL    HW118188   4.701   0.347   6.791
 5763SOL    HW218189   4.802   0.475   6.790
 5764SOL     OW18190   3.499   6.181   4.147
 5764SOL    HW118191   3.432   6.209   4.078
 5764SOL    HW218192   3.588   6.221   4.125
 5765SOL     OW18193   6.072   6.862   2.905
 5765SOL    HW118194   5.989   6.896   2.861
 5765SOL    HW218195   6.058   6.860   3.004
 5766SOL     OW18196   0.912   0.955   4.383
 5766SOL    HW118197   0.886   0.860   4.365
 5766SOL    HW218198   0.924   1.002   4.296
 5767SOL     OW18199   6.335   0.144   0.464
 5767SOL    HW118200   6.345   0.223   0.525
 5767SOL    HW218201   6.414   0.083   0.477
 5768SOL     OW18202   1.599   0.432   5.209
 5768SOL    HW118203   1.547   0.445   5.294
 5768SOL    HW218204   1.547   0.373   5.147
 5769SOL     OW18205   1.334   2.191   6.319
 5769SOL    HW118206   1.287   2.174   6.232
 5769SOL    HW218207   1.348   2.289   6.331
 5770SOL     OW18208   1.143   3.206   1.873
 5770SOL    HW118209   1.061   3.226   1.818
 5770SOL    HW218210   1.132   3.243   1.965
 5771SOL     OW18211   3.310   6.005   3.337
 5771SOL    HW118212   3.229   6.064   3.343
 5771SOL    HW218213   3.306   5.951   3.253
 5772SOL     OW18214   2.803   1.633   3.350
 5772SOL    HW118215   2.844   1.583   3.274
 5772SOL    HW218216   2.772   1.568   3.420
 5773SOL     OW18217   5.366   0.372   3.961
 5773SOL    HW118218   5.386   0.435   3.886
 5773SOL    HW218219   5.442   0.373   4.027
 5774SOL     OW18220   0.971   6.772   3.887
 5774SOL    HW118221   1.013   6.682   3.873
 5774SOL    HW218222   0.878   6.771   3.849
 5775SOL     OW18223   5.947   5.108   2.410
 5775SOL    HW118224   6.023   5.120   2.474
 5775SOL    HW218225   5.881   5.043   2.448
 5776SOL     OW18226   4.139   0.870   4.313
 5776SOL    HW118227   4.096   0.818   4.239
 5776SOL    HW218228   4.128   0.967   4.295
 5777SOL     OW18229   6.835   1.240   1.662
 5777SOL    HW118230   6.884   1.188   1.592
 5777SOL    HW218231   6.740   1.208   1.668
 5778SOL     OW18232   0.026   0.818   6.113
 5778SOL    HW118233   0.104   0.872   6.145
 5778SOL    HW218234   6.974   0.835   6.173
 5779SOL     OW18235   5.600   1.576   0.136
 5779SOL    HW118236   5.645   1.487   0.129
 5779SOL    HW218237   5.658   1.640   0.186
 5780SOL     OW18238   5.660   4.706   4.210
 5780SOL    HW118239   5.588   4.646   4.245
 5780SOL    HW218240   5.625   4.759   4.133
 5781SOL     OW18241   1.056   6.398   5.513
 5781SOL    HW118242   1.153   6.416   5.524
 5781SOL    HW218243   1.037   6.302   5.534
 5782SOL     OW18244   5.359   0.975   1.406
 5782SOL    HW118245   5.310   0.907   1.460
 5782SOL    HW218246   5.327   0.971   1.311
 5783SOL     OW18247   2.221   2.489   6.630
 5783SOL    HW118248   2.151   2.543   6.584
 5783SOL    HW218249   2.237   2.405   6.579
 5784SOL     OW18250   6.755   6.039   0.293
 5784SOL    HW118251   6.776   5.944   0.315
 5784SOL    HW218252   6.661   6.059   0.318
 5785SOL     OW18253   1.562   1.253   2.315
 5785SOL    HW118254   1.570   1.315   2.393
 5785SOL    HW218255   1.604   1.294   2.234
 5786SOL     OW18256   5.506   4.635   1.933
 5786SOL    HW118257   5.415   4.636   1.891
 5786SOL    HW218258   5.515   4.555   1.991
 5787SOL     OW18259   1.990   2.566   6.280
 5787SOL    HW118260   2.037   2.495   6.333
 5787SOL    HW218261   1.931   2.522   6.211
 5788SOL     OW18262   3.420   0.988   4.279
 5788SOL    HW118263   3.445   1.083   4.297
 5788SOL    HW218264   3.327   0.985   4.241
 5789SOL     OW18265   3.203   4.851   6.285
 5789SOL    HW118266   3.278   4.872   6.223
 5789SOL    HW218267   3.231   4.781   6.350
 5790SOL     OW18268   2.100   3.201   4.170
 5790SOL    HW118269   2.153   3.117   4.157
 5790SOL    HW218270   2.109   3.259   4.089
 5791SOL     OW18271   1.285   0.992   3.494
 5791SOL    HW118272   1.228   1.049   3.554
 5791SOL    HW218273   1.261   1.009   3.399
 5792SOL     OW18274   1.081   1.261   3.272
 5792SOL    HW118275   1.127   1.331   3.328
 5792SOL    HW218276   0.995   1.234   3.316
 5793SOL     OW18277   6.402   1.415   5.349
 5793SOL    HW118278   6.354   1.376   5.427
 5793SOL    HW218279   6.432   1.508   5.371
 5794SOL     OW18280   6.963   3.679   6.659
 5794SOL    HW118281   0.018   3.723   6.619
 5794SOL    HW218282   6.970   3.580   6.647
 5795SOL     OW18283   6.718   4.322   0.156
 5795SOL    HW118284   6.729   4.267   0.073
 5795SOL    HW218285   6.621   4.321   0.183
 5796SOL     OW18286   2.905   1.789   0.509
 5796SOL    HW118287   2.883   1.886   0.514
 5796SOL    HW218288   2.826   1.739   0.476
 5797SOL     OW18289   3.176   3.458   6.013
 5797SOL    HW118290   3.255   3.405   5.981
 5797SOL    HW218291   3.094   3.428   5.964
 5798SOL     OW18292   6.060   4.587   3.990
 5798SOL    HW118293   6.139   4.529   4.010
 5798SOL    HW218294   5.980   4.552   4.038
 5799SOL     OW18295   4.955   0.219   3.971
 5799SOL    HW118296   4.975   0.312   4.002
 5799SOL    HW218297   4.888   0.177   4.032
 5800SOL     OW18298   5.438   6.306   6.237
 5800SOL    HW118299   5.486   6.344   6.316
 5800SOL    HW218300   5.444   6.206   6.240
 5801SOL     OW18301   1.895   0.731   2.026
 5801SOL    HW118302   1.843   0.657   2.068
 5801SOL    HW218303   1.834   0.807   2.004
 5802SOL     OW18304   0.456   2.744   4.568
 5802SOL    HW118305   0.494   2.763   4.478
 5802SOL    HW218306   0.365   2.703   4.558
 5803SOL     OW18307   1.522   4.867   0.865
 5803SOL    HW118308   1.480   4.824   0.786
 5803SOL    HW218309   1.622   4.861   0.857
 5804SOL     OW18310   0.466   2.922   6.683
 5804SOL    HW118311   0.561   2.931   6.712
 5804SOL    HW218312   0.409   2.984   6.736
 5805SOL     OW18313   4.717   3.406   6.678
 5805SOL    HW118314   4.618   3.401   6.696
 5805SOL    HW218315   4.734   3.470   6.603
 5806SOL     OW18316   5.966   6.115   5.637
 5806SOL    HW118317   6.062   6.093   5.654
 5806SOL    HW218318   5.909   6.080   5.712
 5807SOL     OW18319   2.378   4.257   1.273
 5807SOL    HW118320   2.353   4.212   1.188
 5807SOL    HW218321   2.420   4.346   1.254
 5808SOL     OW18322   6.746   1.870   3.624
 5808SOL    HW118323   6.822   1.814   3.591
 5808SOL    HW218324   6.736   1.857   3.723
 5809SOL     OW18325   0.701   3.595   3.448
 5809SOL    HW118326   0.656   3.629   3.530
 5809SOL    HW218327   0.747   3.508   3.469
 5810SOL     OW18328   3.625   1.698   3.075
 5810SOL    HW118329   3.583   1.626   3.020
 5810SOL    HW218330   3.555   1.739   3.134
 5811SOL     OW18331   3.094   6.805   1.117
 5811SOL    HW118332   3.131   6.794   1.209
 5811SOL    HW218333   2.999   6.835   1.123
 5812SOL     OW18334   5.118   0.552   4.488
 5812SOL    HW118335   5.188   0.524   4.553
 5812SOL    HW218336   5.097   0.477   4.426
 5813SOL     OW18337   1.351   2.531   4.715
 5813SOL    HW118338   1.373   2.450   4.662
 5813SOL    HW218339   1.402   2.609   4.679
 5814SOL     OW18340   0.351   4.852   1.184
 5814SOL    HW118341   0.394   4.766   1.156
 5814SOL    HW218342   0.418   4.926   1.178
 5815SOL     OW18343   4.388   6.394   5.192
 5815SOL    HW118344   4.343   6.469   5.239
 5815SOL    HW218345   4.443   6.430   5.116
 5816SOL     OW18346   5.338   6.707   6.582
 5816SOL    HW118347   5.282   6.685   6.502
 5816SOL    HW218348   5.343   6.627   6.642
 5817SOL     OW18349   6.370   2.573   6.268
 5817SOL    HW118350   6.337   2.484   6.239
 5817SOL    HW218351   6.358   2.639   6.194
 5818SOL     OW18352   5.926   6.635   4.971
 5818SOL    HW118353   5.861   6.579   4.919
 5818SOL    HW218354   5.983   6.688   4.908
 5819SOL     OW18355   6.404   0.936   1.750
 5819SOL    HW118356   6.354   0.895   1.674
 5819SOL    HW218357   6.360   0.912   1.836
 5820SOL     OW18358   5.400   4.711   1.475
 5820SOL    HW118359   5.318   4.654   1.466
 5820SOL    HW218360   5.377   4.798   1.517
 5821SOL     OW18361   2.940   6.495   2.566
 5821SOL    HW118362   2.961   6.407   2.609
 5821SOL    HW218363   3.002   6.511   2.490
 5822SOL     OW18364   0.275   0.463   3.077
 5822SOL    HW118365   0.296   0.365   3.082
 5822SOL    HW218366   0.271   0.491   2.982
 5823SOL     OW18367   1.248   2.413   3.762
 5823SOL    HW118368   1.212   2.444   3.675
 5823SOL    HW218369   1.196   2.455   3.837
 5824SOL     OW18370   4.893   0.578   3.756
 5824SOL    HW118371   4.828   0.548   3.825
 5824SOL    HW218372   4.844   0.605   3.673
 5825SOL     OW18373   2.674   1.237   1.802
 5825SOL    HW118374   2.679   1.144   1.839
 5825SOL    HW218375   2.759   1.259   1.754
 5826SOL     OW18376   0.287   6.465   3.148
 5826SOL    HW118377   0.326   6.445   3.238
 5826SOL    HW218378   0.319   6.554   3.117
 5827SOL     OW18379   1.743   5.326   6.087
 5827SOL    HW118380   1.757   5.337   5.989
 5827SOL    HW218381   1.790   5.243   6.118
 5828SOL     OW18382   6.587   1.656   1.105
 5828SOL    HW118383   6.573   1.667   1.204
 5828SOL    HW218384   6.659   1.589   1.089
 5829SOL     OW18385   1.918   0.967   1.385
 5829SOL    HW118386   1.895   0.902   1.459
 5829SOL    HW218387   1.867   0.942   1.303
 5830SOL     OW18388   1.313   0.903   5.980
 5830SOL    HW118389   1.334   0.825   6.038
 5830SOL    HW218390   1.218   0.897   5.948
 5831SOL     OW18391   5.658   5.576   2.820
 5831SOL    HW118392   5.711   5.657   2.844
 5831SOL    HW218393   5.561   5.600   2.814
 5832SOL     OW18394   4.083   3.402   4.271
 5832SOL    HW118395   4.021   3.480   4.266
 5832SOL    HW218396   4.110   3.386   4.366
 5833SOL     OW18397   3.095   3.029   4.122
 5833SOL    HW118398   3.172   3.040   4.059
 5833SOL    HW218399   3.089   2.934   4.152
 5834SOL     OW18400   5.492   1.537   6.505
 5834SOL    HW118401   5.502   1.492   6.416
 5834SOL    HW218402   5.451   1.628   6.491
 5835SOL     OW18403   5.706   2.582   4.355
 5835SOL    HW118404   5.702   2.531   4.441
 5835SOL    HW218405   5.730   2.677   4.373
 5836SOL     OW18406   3.688   6.803   3.787
 5836SOL    HW118407   3.607   6.854   3.817
 5836SOL    HW218408   3.703   6.818   3.690
 5837SOL     OW18409   3.920   4.289   0.088
 5837SOL    HW118410   3.963   4.226   0.152
 5837SOL    HW218411   3.821   4.276   0.088
 5838SOL     OW18412   0.948   1.364   5.896
 5838SOL    HW118413   0.907   1.312   5.971
 5838SOL    HW218414   1.042   1.388   5.920
 5839SOL     OW18415   0.177   2.687   2.496
 5839SOL    HW118416   0.194   2.771   2.547
 5839SOL    HW218417   0.178   2.708   2.398
 5840SOL     OW18418   3.266   5.510   0.407
 5840SOL    HW118419   3.365   5.519   0.402
 5840SOL    HW218420   3.227   5.509   0.315
 5841SOL     OW18421   6.444   2.634   3.235
 5841SOL    HW118422   6.511   2.598   3.300
 5841SOL    HW218423   6.361   2.661   3.283
 5842SOL     OW18424   3.599   2.384   0.979
 5842SOL    HW118425   3.580   2.465   1.035
 5842SOL    HW218426   3.550   2.305   1.018
 5843SOL     OW18427   0.244   1.879   1.608
 5843SOL    HW118428   0.196   1.890   1.695
 5843SOL    HW218429   0.256   1.781   1.589
 5844SOL     OW18430   1.805   6.503   6.344
 5844SOL    HW118431   1.802   6.578   6.410
 5844SOL    HW218432   1.751   6.528   6.263
 5845SOL     OW18433   2.460   2.531   4.264
 5845SOL    HW118434   2.454   2.513   4.363
 5845SOL    HW218435   2.546   2.495   4.229
 5846SOL     OW18436   0.413   3.367   6.665
 5846SOL    HW118437   0.335   3.311   6.637
 5846SOL    HW218438   0.458   3.405   6.585
 5847SOL     OW18439   1.377   2.594   4.065
 5847SOL    HW118440   1.290   2.562   4.029
 5847SOL    HW218441   1.363   2.676   4.120
 5848SOL     OW18442   1.084   4.525   3.465
 5848SOL    HW118443   1.000   4.571   3.495
 5848SOL    HW218444   1.144   4.509   3.543
 5849SOL     OW18445   2.012   0.420   5.474
 5849SOL    HW118446   2.111   0.419   5.468
 5849SOL    HW218447   1.975   0.338   5.430
 5850SOL     OW18448   1.038   5.100   2.956
 5850SOL    HW118449   1.100   5.072   2.883
 5850SOL    HW218450   1.020   5.198   2.949
 5851SOL     OW18451   6.876   3.615   2.060
 5851SOL    HW118452   6.893   3.680   1.986
 5851SOL    HW218453   6.963   3.573   2.088
 5852SOL     OW18454   3.872   6.564   2.517
 5852SOL    HW118455   3.872   6.485   2.578
 5852SOL    HW218456   3.831   6.643   2.564
 5853SOL     OW18457   4.949   4.068   5.143
 5853SOL    HW118458   4.901   3.980   5.147
 5853SOL    HW218459   4.920   4.117   5.061
 5854SOL     OW18460   1.496   1.050   6.727
 5854SOL    HW118461   1.421   1.043   6.661
 5854SOL    HW218462   1.461   1.031   6.819
 5855SOL     OW18463   1.858   1.945   5.234
 5855SOL    HW118464   1.879   2.013   5.164
 5855SOL    HW218465   1.760   1.947   5.254
 5856SOL     OW18466   0.722   6.651   3.834
 5856SOL    HW118467   0.661   6.605   3.770
 5856SOL    HW218468   0.668   6.702   3.901
 5857SOL     OW18469   0.738   2.452   5.418
 5857SOL    HW118470   0.722   2.375   5.479
 5857SOL    HW218471   0.830   2.446   5.380
 5858SOL     OW18472   2.993   0.257   4.149
 5858SOL    HW118473   3.065   0.303   4.098
 5858SOL    HW218474   2.918   0.234   4.088
 5859SOL     OW18475   5.709   4.951   1.729
 5859SOL    HW118476   5.762   5.004   1.795
 5859SOL    HW218477   5.719   4.853   1.748
 5860SOL     OW18478   6.502   4.563   0.356
 5860SOL    HW118479   6.486   4.528   0.449
 5860SOL    HW218480   6.472   4.495   0.289
 5861SOL     OW18481   6.687   2.260   4.714
 5861SOL    HW118482   6.714   2.176   4.667
 5861SOL    HW218483   6.667   2.331   4.647
 5862SOL     OW18484   6.188   5.241   4.190
 5862SOL    HW118485   6.197   5.319   4.128
 5862SOL    HW218486   6.210   5.156   4.141
 5863SOL     OW18487   2.048   1.565   0.785
 5863SOL    HW118488   2.050   1.665   0.774
 5863SOL    HW218489   2.023   1.543   0.879
 5864SOL     OW18490   4.656   5.126   0.223
 5864SOL    HW118491   4.602   5.046   0.194
 5864SOL    HW218492   4.645   5.200   0.157
 5865SOL     OW18493   4.361   0.399   3.026
 5865SOL    HW118494   4.431   0.415   3.094
 5865SOL    HW218495   4.361   0.303   2.999
 5866SOL     OW18496   3.759   1.905   6.713
 5866SOL    HW118497   3.672   1.874   6.675
 5866SOL    HW218498   3.743   1.989   6.767
 5867SOL     OW18499   6.725   3.092   2.136
 5867SOL    HW118500   6.681   3.171   2.093
 5867SOL    HW218501   6.662   3.013   2.132
 5868SOL     OW18502   0.388   6.071   5.629
 5868SOL    HW118503   0.467   6.032   5.581
 5868SOL    HW218504   0.310   6.075   5.566
 5869SOL     OW18505   2.493   5.081   4.691
 5869SOL    HW118506   2.469   5.171   4.654
 5869SOL    HW218507   2.433   5.012   4.650
 5870SOL     OW18508   5.778   6.151   4.667
 5870SOL    HW118509   5.842   6.104   4.728
 5870SOL    HW218510   5.688   6.107   4.673
 5871SOL     OW18511   3.604   4.729   0.759
 5871SOL    HW118512   3.551   4.742   0.675
 5871SOL    HW218513   3.607   4.814   0.811
 5872SOL     OW18514   4.304   5.907   3.902
 5872SOL    HW118515   4.229   5.918   3.837
 5872SOL    HW218516   4.349   5.819   3.885
 5873SOL     OW18517   1.913   3.286   1.262
 5873SOL    HW118518   1.972   3.211   1.292
 5873SOL    HW218519   1.957   3.373   1.282
 5874SOL     OW18520   0.423   4.720   6.481
 5874SOL    HW118521   0.392   4.779   6.554
 5874SOL    HW218522   0.507   4.757   6.441
 5875SOL     OW18523   4.262   2.468   1.109
 5875SOL    HW118524   4.190   2.513   1.056
 5875SOL    HW218525   4.237   2.470   1.206
 5876SOL     OW18526   4.093   4.262   5.935
 5876SOL    HW118527   3.996   4.286   5.928
 5876SOL    HW218528   4.115   4.242   6.031
 5877SOL     OW18529   5.883   6.139   2.983
 5877SOL    HW118530   5.948   6.212   3.007
 5877SOL    HW218531   5.934   6.060   2.950
 5878SOL     OW18532   4.994   4.011   3.086
 5878SOL    HW118533   5.080   4.060   3.072
 5878SOL    HW218534   4.954   4.039   3.174
 5879SOL     OW18535   3.067   4.522   5.750
 5879SOL    HW118536   3.105   4.610   5.721
 5879SOL    HW218537   2.975   4.512   5.713
 5880SOL     OW18538   5.771   2.292   0.918
 5880SOL    HW118539   5.800   2.386   0.932
 5880SOL    HW218540   5.849   2.230   0.928
 5881SOL     OW18541   0.847   6.052   3.754
 5881SOL    HW118542   0.792   6.076   3.675
 5881SOL    HW218543   0.796   6.070   3.838
 5882SOL     OW18544   1.202   5.828   4.605
 5882SOL    HW118545   1.103   5.829   4.622
 5882SOL    HW218546   1.244   5.755   4.660
 5883SOL     OW18547   0.334   5.786   0.200
 5883SOL    HW118548   0.254   5.739   0.238
 5883SOL    HW218549   0.305   5.864   0.146
 5884SOL     OW18550   0.797   1.205   1.357
 5884SOL    HW118551   0.756   1.193   1.267
 5884SOL    HW218552   0.777   1.126   1.414
 5885SOL     OW18553   6.769   5.948   2.018
 5885SOL    HW118554   6.824   5.865   2.018
 5885SOL    HW218555   6.757   5.981   1.925
 5886SOL     OW18556   1.881   4.258   3.151
 5886SOL    HW118557   1.818   4.185   3.178
 5886SOL    HW218558   1.958   4.260   3.214
 5887SOL     OW18559   2.248   3.479   1.524
 5887SOL    HW118560   2.317   3.528   1.577
 5887SOL    HW218561   2.272   3.382   1.520
 5888SOL     OW18562   3.462   6.303   1.847
 5888SOL    HW118563   3.457   6.327   1.750
 5888SOL    HW218564   3.374   6.322   1.890
 5889SOL     OW18565   4.665   1.195   1.616
 5889SOL    HW118566   4.720   1.261   1.563
 5889SOL    HW218567   4.676   1.104   1.577
 5890SOL     OW18568   2.546   5.055   3.023
 5890SOL    HW118569   2.479   5.026   2.955
 5890SOL    HW218570   2.636   5.018   2.999
 5891SOL     OW18571   2.269   3.152   6.826
 5891SOL    HW118572   2.313   3.099   6.753
 5891SOL    HW218573   2.319   3.139   6.911
 5892SOL     OW18574   0.507   2.253   1.852
 5892SOL    HW118575   0.591   2.210   1.818
 5892SOL    HW218576   0.430   2.225   1.795
 5893SOL     OW18577   7.026   6.138   1.169
 5893SOL    HW118578   0.082   6.086   1.188
 5893SOL    HW218579   6.988   6.172   1.255
 5894SOL     OW18580   3.143   5.433   6.832
 5894SOL    HW118581   3.092   5.495   6.892
 5894SOL    HW218582   3.109   5.340   6.843
 5895SOL     OW18583   6.116   2.424   4.379
 5895SOL    HW118584   6.175   2.410   4.458
 5895SOL    HW218585   6.052   2.347   4.371
 5896SOL     OW18586   5.266   2.346   0.811
 5896SOL    HW118587   5.338   2.283   0.840
 5896SOL    HW218588   5.186   2.333   0.870
 5897SOL     OW18589   3.205   3.524   0.321
 5897SOL    HW118590   3.186   3.557   0.414
 5897SOL    HW218591   3.298   3.549   0.295
 5898SOL     OW18592   3.989   0.359   6.654
 5898SOL    HW118593   3.954   0.441   6.699
 5898SOL    HW218594   3.918   0.288   6.653
 5899SOL     OW18595   6.938   0.323   0.739
 5899SOL    HW118596   6.930   0.332   0.640
 5899SOL    HW218597   7.014   0.379   0.771
 5900SOL     OW18598   5.208   5.883   2.142
 5900SOL    HW118599   5.127   5.824   2.147
 5900SOL    HW218600   5.284   5.839   2.190
 5901SOL     OW18601   0.958   0.159   4.617
 5901SOL    HW118602   1.035   0.095   4.612
 5901SOL    HW218603   0.981   0.243   4.569
 5902SOL     OW18604   4.573   4.051   5.684
 5902SOL    HW118605   4.507   4.095   5.623
 5902SOL    HW218606   4.626   3.983   5.634
 5903SOL     OW18607   4.962   1.212   6.393
 5903SOL    HW118608   5.062   1.223   6.396
 5903SOL    HW218609   4.928   1.189   6.484
 5904SOL     OW18610   0.093   5.477   1.388
 5904SOL    HW118611   0.123   5.382   1.390
 5904SOL    HW218612   0.075   5.505   1.294
 5905SOL     OW18613   6.495   1.868   4.825
 5905SOL    HW118614   6.498   1.870   4.725
 5905SOL    HW218615   6.577   1.913   4.862
 5906SOL     OW18616   4.163   0.555   4.591
 5906SOL    HW118617   4.104   0.571   4.512
 5906SOL    HW218618   4.153   0.631   4.656
 5907SOL     OW18619   1.017   3.393   5.846
 5907SOL    HW118620   0.952   3.329   5.806
 5907SOL    HW218621   1.109   3.374   5.812
 5908SOL     OW18622   4.862   2.906   6.729
 5908SOL    HW118623   4.947   2.921   6.678
 5908SOL    HW218624   4.871   2.944   6.821
 5909SOL     OW18625   6.955   4.890   3.062
 5909SOL    HW118626   6.930   4.905   3.158
 5909SOL    HW218627   6.877   4.914   3.004
 5910SOL     OW18628   1.768   4.090   2.614
 5910SOL    HW118629   1.861   4.085   2.577
 5910SOL    HW218630   1.720   4.166   2.571
 5911SOL     OW18631   0.549   1.187   4.975
 5911SOL    HW118632   0.524   1.091   4.989
 5911SOL    HW218633   0.643   1.201   5.007
 5912SOL     OW18634   0.814   3.860   6.030
 5912SOL    HW118635   0.727   3.839   5.985
 5912SOL    HW218636   0.874   3.907   5.966
 5913SOL     OW18637   1.928   3.029   5.475
 5913SOL    HW118638   1.831   3.019   5.498
 5913SOL    HW218639   1.939   3.031   5.376
 5914SOL     OW18640   0.903   5.657   0.346
 5914SOL    HW118641   0.891   5.619   0.254
 5914SOL    HW218642   0.853   5.600   0.412
 5915SOL     OW18643   5.670   4.236   4.666
 5915SOL    HW118644   5.750   4.221   4.725
 5915SOL    HW218645   5.618   4.152   4.657
 5916SOL     OW18646   3.499   0.771   6.631
 5916SOL    HW118647   3.521   0.693   6.690
 5916SOL    HW218648   3.541   0.757   6.541
 5917SOL     OW18649   3.197   3.524   1.925
 5917SOL    HW118650   3.233   3.545   2.015
 5917SOL    HW218651   3.269   3.486   1.867
 5918SOL     OW18652   3.296   2.166   3.745
 5918SOL    HW118653   3.377   2.169   3.803
 5918SOL    HW218654   3.322   2.155   3.649
 5919SOL     OW18655   1.640   1.309   6.057
 5919SOL    HW118656   1.740   1.301   6.051
 5919SOL    HW218657   1.610   1.287   6.150
 5920SOL     OW18658   1.807   3.707   6.565
 5920SOL    HW118659   1.820   3.616   6.524
 5920SOL    HW218660   1.875   3.770   6.529
 5921SOL     OW18661   3.457   6.694   4.078
 5921SOL    HW118662   3.526   6.682   4.149
 5921SOL    HW218663   3.491   6.656   3.992
 5922SOL     OW18664   6.710   5.127   2.451
 5922SOL    HW118665   6.790   5.172   2.412
 5922SOL    HW218666   6.629   5.150   2.397
 5923SOL     OW18667   0.988   6.825   3.166
 5923SOL    HW118668   0.990   6.801   3.069
 5923SOL    HW218669   1.076   6.863   3.194
 5924SOL     OW18670   6.125   2.268   4.664
 5924SOL    HW118671   6.082   2.288   4.752
 5924SOL    HW218672   6.099   2.176   4.634
 5925SOL     OW18673   6.746   6.980   1.175
 5925SOL    HW118674   6.718   0.036   1.127
 5925SOL    HW218675   6.668   6.940   1.223
 5926SOL     OW18676   2.666   6.959   1.961
 5926SOL    HW118677   2.636   6.864   1.958
 5926SOL    HW218678   2.686   6.990   1.868
 5927SOL     OW18679   1.850   5.730   1.235
 5927SOL    HW118680   1.767   5.776   1.201
 5927SOL    HW218681   1.902   5.693   1.158
 5928SOL     OW18682   6.185   6.524   1.008
 5928SOL    HW118683   6.278   6.516   1.043
 5928SOL    HW218684   6.173   6.462   0.930
 5929SOL     OW18685   0.480   0.426   6.615
 5929SOL    HW118686   0.519   0.498   6.557
 5929SOL    HW218687   0.426   0.364   6.558
 5930SOL     OW18688   6.838   1.770   4.801
 5930SOL    HW118689   6.859   1.760   4.899
 5930SOL    HW218690   6.778   1.695   4.773
 5931SOL     OW18691   6.329   4.686   0.860
 5931SOL    HW118692   6.392   4.652   0.930
 5931SOL    HW218693   6.372   4.761   0.810
 5932SOL     OW18694   2.484   0.681   0.780
 5932SOL    HW118695   2.392   0.707   0.806
 5932SOL    HW218696   2.526   0.628   0.854
 5933SOL     OW18697   5.553   2.596   3.396
 5933SOL    HW118698   5.641   2.554   3.374
 5933SOL    HW218699   5.558   2.639   3.486
 5934SOL     OW18700   4.165   3.577   1.780
 5934SOL    HW118701   4.151   3.635   1.860
 5934SOL    HW218702   4.235   3.617   1.721
 5935SOL     OW18703   3.842   3.469   2.788
 5935SOL    HW118704   3.921   3.409   2.795
 5935SOL    HW218705   3.856   3.537   2.716
 5936SOL     OW18706   6.649   6.046   6.936
 5936SOL    HW118707   6.583   6.121   6.924
 5936SOL    HW218708   6.736   6.084   6.967
 5937SOL     OW18709   0.844   3.347   1.185
 5937SOL    HW118710   0.863   3.437   1.223
 5937SOL    HW218711   0.752   3.319   1.209
 5938SOL     OW18712   3.013   5.146   1.204
 5938SOL    HW118713   2.939   5.170   1.267
 5938SOL    HW218714   3.009   5.048   1.184
 5939SOL     OW18715   0.326   7.016   2.481
 5939SOL    HW118716   0.418   6.979   2.488
 5939SOL    HW218717   0.281   6.979   2.399
 5940SOL     OW18718   4.515   4.488   2.566
 5940SOL    HW118719   4.554   4.407   2.610
 5940SOL    HW218720   4.492   4.466   2.471
 5941SOL     OW18721   6.188   2.908   3.973
 5941SOL    HW118722   6.268   2.911   4.033
 5941SOL    HW218723   6.154   2.814   3.968
 5942SOL     OW18724   0.191   1.948   5.084
 5942SOL    HW118725   0.276   1.937   5.135
 5942SOL    HW218726   0.126   2.001   5.139
 5943SOL     OW18727   1.411   6.189   0.915
 5943SOL    HW118728   1.436   6.093   0.905
 5943SOL    HW218729   1.321   6.204   0.874
 5944SOL     OW18730   5.072   2.883   3.293
 5944SOL    HW118731   5.108   2.844   3.209
 5944SOL    HW218732   5.079   2.815   3.367
 5945SOL     OW18733   6.411   6.351   6.532
 5945SOL    HW118734   6.511   6.353   6.529
 5945SOL    HW218735   6.378   6.274   6.478
 5946SOL     OW18736   3.964   2.169   5.280
 5946SOL    HW118737   3.921   2.249   5.322
 5946SOL    HW218738   3.977   2.098   5.349
 5947SOL     OW18739   5.875   4.009   3.349
 5947SOL    HW118740   5.776   3.998   3.342
 5947SOL    HW218741   5.909   4.054   3.266
 5948SOL     OW18742   2.382   5.519   3.198
 5948SOL    HW118743   2.475   5.525   3.235
 5948SOL    HW218744   2.316   5.515   3.273
 5949SOL     OW18745   5.217   4.177   3.051
 5949SOL    HW118746   5.298   4.133   3.089
 5949SOL    HW218747   5.238   4.271   3.025
 5950SOL     OW18748   0.859   2.067   5.435
 5950SOL    HW118749   0.799   2.122   5.493
 5950SOL    HW218750   0.865   2.108   5.344
 5951SOL     OW18751   2.132   0.696   3.215
 5951SOL    HW118752   2.089   0.620   3.264
 5951SOL    HW218753   2.063   0.762   3.187
 5952SOL     OW18754   6.908   6.652   4.417
 5952SOL    HW118755   6.941   6.567   4.377
 5952SOL    HW218756   6.833   6.632   4.481
 5953SOL     OW18757   1.579   3.983   5.892
 5953SOL    HW118758   1.589   4.063   5.952
 5953SOL    HW218759   1.490   3.942   5.906
 5954SOL     OW18760   1.250   4.484   6.453
 5954SOL    HW118761   1.185   4.516   6.384
 5954SOL    HW218762   1.278   4.390   6.432
 5955SOL     OW18763   3.548   5.281   2.102
 5955SOL    HW118764   3.480   5.210   2.087
 5955SOL    HW218765   3.502   5.369   2.114
 5956SOL     OW18766   0.309   1.321   0.978
 5956SOL    HW118767   0.387   1.315   0.917
 5956SOL    HW218768   0.284   1.417   0.991
 5957SOL     OW18769   3.918   6.597   6.516
 5957SOL    HW118770   4.017   6.589   6.530
 5957SOL    HW218771   3.891   6.545   6.435
 5958SOL     OW18772   1.006   5.948   2.353
 5958SOL    HW118773   1.002   6.008   2.273
 5958SOL    HW218774   1.073   5.876   2.337
 5959SOL     OW18775   1.254   0.325   5.302
 5959SOL    HW118776   1.296   0.413   5.326
 5959SOL    HW218777   1.172   0.311   5.356
 5960SOL     OW18778   3.414   5.812   5.110
 5960SOL    HW118779   3.420   5.827   5.012
 5960SOL    HW218780   3.355   5.881   5.151
 5961SOL     OW18781   3.391   0.380   5.234
 5961SOL    HW118782   3.385   0.362   5.136
 5961SOL    HW218783   3.374   0.296   5.285
 5962SOL     OW18784   5.498   4.198   3.368
 5962SOL    HW118785   5.469   4.293   3.384
 5962SOL    HW218786   5.468   4.169   3.278
 5963SOL     OW18787   4.297   3.974   1.734
 5963SOL    HW118788   4.201   3.948   1.744
 5963SOL    HW218789   4.325   4.032   1.811
 5964SOL     OW18790   1.469   3.518   5.074
 5964SOL    HW118791   1.429   3.591   5.130
 5964SOL    HW218792   1.550   3.482   5.121
 5965SOL     OW18793   2.151   2.451   4.418
 5965SOL    HW118794   2.143   2.536   4.365
 5965SOL    HW218795   2.080   2.387   4.389
 5966SOL     OW18796   1.249   5.291   4.134
 5966SOL    HW118797   1.209   5.329   4.218
 5966SOL    HW218798   1.343   5.323   4.124
 5967SOL     OW18799   5.054   5.583   0.794
 5967SOL    HW118800   5.031   5.489   0.769
 5967SOL    HW218801   5.153   5.595   0.794
 5968SOL     OW18802   2.164   2.015   4.326
 5968SOL    HW118803   2.216   1.929   4.327
 5968SOL    HW218804   2.228   2.092   4.323
 5969SOL     OW18805   0.587   2.393   3.243
 5969SOL    HW118806   0.644   2.313   3.228
 5969SOL    HW218807   0.614   2.466   3.180
 5970SOL     OW18808   1.835   4.294   3.488
 5970SOL    HW118809   1.911   4.328   3.543
 5970SOL    HW218810   1.767   4.252   3.547
 5971SOL     OW18811   3.106   5.751   3.611
 5971SOL    HW118812   3.084   5.849   3.606
 5971SOL    HW218813   3.037   5.705   3.667
 5972SOL     OW18814   4.785   6.894   1.404
 5972SOL    HW118815   4.723   6.972   1.398
 5972SOL    HW218816   4.805   6.876   1.501
 5973SOL     OW18817   2.857   4.879   3.275
 5973SOL    HW118818   2.898   4.864   3.364
 5973SOL    HW218819   2.773   4.826   3.266
 5974SOL     OW18820   0.643   3.834   6.810
 5974SOL    HW118821   0.732   3.881   6.813
 5974SOL    HW218822   0.571   3.902   6.793
 5975SOL     OW18823   1.780   2.979   6.622
 5975SOL    HW118824   1.857   2.935   6.576
 5975SOL    HW218825   1.752   2.925   6.701
 5976SOL     OW18826   3.171   4.067   4.344
 5976SOL    HW118827   3.214   4.130   4.408
 5976SOL    HW218828   3.095   4.020   4.389
 5977SOL     OW18829   0.453   3.749   3.137
 5977SOL    HW118830   0.503   3.723   3.054
 5977SOL    HW218831   0.368   3.795   3.111
 5978SOL     OW18832   5.396   5.155   1.266
 5978SOL    HW118833   5.431   5.061   1.256
 5978SOL    HW218834   5.297   5.152   1.282
 5979SOL     OW18835   1.216   0.905   1.867
 5979SOL    HW118836   1.241   0.998   1.894
 5979SOL    HW218837   1.258   0.839   1.930
 5980SOL     OW18838   5.823   2.958   5.394
 5980SOL    HW118839   5.730   2.991   5.380
 5980SOL    HW218840   5.888   3.032   5.376
 5981SOL     OW18841   3.501   2.225   0.587
 5981SOL    HW118842   3.486   2.319   0.616
 5981SOL    HW218843   3.418   2.190   0.543
 5982SOL     OW18844   6.281   2.880   6.571
 5982SOL    HW118845   6.306   2.912   6.662
 5982SOL    HW218846   6.186   2.848   6.572
 5983SOL     OW18847   6.982   0.802   4.031
 5983SOL    HW118848   6.965   0.900   4.029
 5983SOL    HW218849   0.006   0.777   4.114
 5984SOL     OW18850   0.368   0.279   6.382
 5984SOL    HW118851   0.341   0.331   6.302
 5984SOL    HW218852   0.409   0.192   6.353
 5985SOL     OW18853   5.871   3.426   3.918
 5985SOL    HW118854   5.779   3.451   3.889
 5985SOL    HW218855   5.892   3.333   3.888
 5986SOL     OW18856   3.319   3.775   2.265
 5986SOL    HW118857   3.349   3.817   2.351
 5986SOL    HW218858   3.293   3.680   2.281
 5987SOL     OW18859   4.331   0.214   5.229
 5987SOL    HW118860   4.279   0.272   5.167
 5987SOL    HW218861   4.334   0.256   5.320
 5988SOL     OW18862   3.323   6.891   5.662
 5988SOL    HW118863   3.277   6.830   5.726
 5988SOL    HW218864   3.397   6.939   5.708
 5989SOL     OW18865   3.312   1.573   6.579
 5989SOL    HW118866   3.281   1.582   6.485
 5989SOL    HW218867   3.243   1.612   6.640
 5990SOL     OW18868   2.519   6.222   3.339
 5990SOL    HW118869   2.465   6.138   3.337
 5990SOL    HW218870   2.523   6.258   3.432
 5991SOL     OW18871   4.130   4.704   2.755
 5991SOL    HW118872   4.197   4.632   2.736
 5991SOL    HW218873   4.108   4.753   2.671
 5992SOL     OW18874   3.583   1.756   4.092
 5992SOL    HW118875   3.565   1.847   4.131
 5992SOL    HW218876   3.528   1.744   4.010
 5993SOL     OW18877   2.577   5.685   4.155
 5993SOL    HW118878   2.622   5.596   4.164
 5993SOL    HW218879   2.478   5.672   4.156
 5994SOL     OW18880   6.353   2.318   0.695
 5994SOL    HW118881   6.319   2.373   0.619
 5994SOL    HW218882   6.383   2.378   0.769
 5995SOL     OW18883   0.344   3.877   1.739
 5995SOL    HW118884   0.295   3.949   1.689
 5995SOL    HW218885   0.286   3.844   1.813
 5996SOL     OW18886   1.307   6.306   6.081
 5996SOL    HW118887   1.333   6.213   6.055
 5996SOL    HW218888   1.258   6.348   6.004
 5997SOL     OW18889   0.073   0.221   1.527
 5997SOL    HW118890   0.094   0.215   1.430
 5997SOL    HW218891   7.001   0.206   1.541
 5998SOL     OW18892   4.859   3.641   2.867
 5998SOL    HW118893   4.858   3.611   2.963
 5998SOL    HW218894   4.845   3.740   2.863
 5999SOL     OW18895   2.176   3.192   3.169
 5999SOL    HW118896   2.088   3.230   3.198
 5999SOL    HW218897   2.182   3.192   3.070
 6000SOL     OW18898   5.131   0.975   3.605
 6000SOL    HW118899   5.227   1.002   3.610
 6000SOL    HW218900   5.113   0.902   3.672
 6001SOL     OW18901   4.664   1.075   6.742
 6001SOL    HW118902   4.659   1.090   6.841
 6001SOL    HW218903   4.581   1.112   6.699
 6002SOL     OW18904   2.078   0.155   2.220
 6002SOL    HW118905   2.068   0.255   2.216
 6002SOL    HW218906   1.993   0.113   2.189
 6003SOL     OW18907   5.211   5.268   3.656
 6003SOL    HW118908   5.191   5.296   3.562
 6003SOL    HW218909   5.239   5.172   3.657
 6004SOL     OW18910   0.829   3.223   2.034
 6004SOL    HW118911   0.793   3.134   2.063
 6004SOL    HW218912   0.759   3.293   2.044
 6005SOL     OW18913   2.344   6.494   2.415
 6005SOL    HW118914   2.286   6.556   2.362
 6005SOL    HW218915   2.289   6.451   2.487
 6006SOL     OW18916   2.264   6.582   6.242
 6006SOL    HW118917   2.281   6.679   6.260
 6006SOL    HW218918   2.170   6.571   6.207
 6007SOL     OW18919   5.637   3.675   4.666
 6007SOL    HW118920   5.607   3.699   4.759
 6007SOL    HW218921   5.659   3.578   4.663
 6008SOL     OW18922   5.506   3.885   2.053
 6008SOL    HW118923   5.501   3.918   2.147
 6008SOL    HW218924   5.446   3.941   1.995
 6009SOL     OW18925   3.286   1.521   4.892
 6009SOL    HW118926   3.186   1.521   4.886
 6009SOL    HW218927   3.315   1.600   4.946
 6010SOL     OW18928   1.984   5.235   3.434
 6010SOL    HW118929   2.059   5.214   3.496
 6010SOL    HW218930   1.923   5.303   3.476
 6011SOL     OW18931   6.524   2.397   1.519
 6011SOL    HW118932   6.472   2.338   1.456
 6011SOL    HW218933   6.509   2.366   1.613
 6012SOL     OW18934   0.840   2.271   0.824
 6012SOL    HW118935   0.816   2.348   0.884
 6012SOL    HW218936   0.756   2.229   0.790
 6013SOL     OW18937   5.295   1.328   2.513
 6013SOL    HW118938   5.260   1.240   2.482
 6013SOL    HW218939   5.393   1.322   2.530
 6014SOL     OW18940   5.931   1.661   0.113
 6014SOL    HW118941   5.869   1.712   0.054
 6014SOL    HW218942   5.897   1.664   0.207
 6015SOL     OW18943   6.079   6.748   4.261
 6015SOL    HW118944   6.152   6.798   4.213
 6015SOL    HW218945   6.118   6.666   4.303
 6016SOL     OW18946   0.851   0.055   5.205
 6016SOL    HW118947   0.935   0.044   5.259
 6016SOL    HW218948   0.840   0.151   5.178
 6017SOL     OW18949   0.346   3.541   2.560
 6017SOL    HW118950   0.409   3.571   2.489
 6017SOL    HW218951   0.293   3.620   2.592
 6018SOL     OW18952   3.337   4.832   1.845
 6018SOL    HW118953   3.268   4.767   1.812
 6018SOL    HW218954   3.423   4.785   1.861
 6019SOL     OW18955   7.000   6.906   3.662
 6019SOL    HW118956   7.021   6.997   3.697
 6019SOL    HW218957   6.967   6.848   3.736
 6020SOL     OW18958   2.658   6.540   3.036
 6020SOL    HW118959   2.656   6.523   2.937
 6020SOL    HW218960   2.635   6.635   3.054
 6021SOL     OW18961   2.700   1.000   3.222
 6021SOL    HW118962   2.626   0.942   3.255
 6021SOL    HW218963   2.678   1.096   3.241
 6022SOL     OW18964   3.430   2.463   5.672
 6022SOL    HW118965   3.434   2.434   5.576
 6022SOL    HW218966   3.351   2.522   5.685
 6023SOL     OW18967   0.529   1.956   2.007
 6023SOL    HW118968   0.594   2.031   2.020
 6023SOL    HW218969   0.517   1.940   1.909
 6024SOL     OW18970   5.997   4.642   1.948
 6024SOL    HW118971   6.059   4.701   1.998
 6024SOL    HW218972   6.027   4.547   1.956
 6025SOL     OW18973   4.486   2.489   2.343
 6025SOL    HW118974   4.574   2.478   2.391
 6025SOL    HW218975   4.433   2.405   2.351
 6026SOL     OW18976   1.229   4.251   5.243
 6026SOL    HW118977   1.273   4.337   5.267
 6026SOL    HW218978   1.133   4.252   5.273
 6027SOL     OW18979   3.660   4.252   0.096
 6027SOL    HW118980   3.660   4.352   0.084
 6027SOL    HW218981   3.587   4.212   0.040
 6028SOL     OW18982   1.062   4.205   5.716
 6028SOL    HW118983   1.153   4.168   5.699
 6028SOL    HW218984   1.061   4.251   5.805
 6029SOL     OW18985   1.752   5.134   1.313
 6029SOL    HW118986   1.801   5.087   1.386
 6029SOL    HW218987   1.708   5.216   1.350
 6030SOL     OW18988   1.849   6.440   1.558
 6030SOL    HW118989   1.860   6.538   1.576
 6030SOL    HW218990   1.868   6.389   1.642
 6031SOL     OW18991   4.564   0.804   4.541
 6031SOL    HW118992   4.575   0.858   4.458
 6031SOL    HW218993   4.526   0.714   4.517
 6032SOL     OW18994   1.327   2.353   2.253
 6032SOL    HW118995   1.260   2.320   2.187
 6032SOL    HW218996   1.303   2.446   2.282
 6033SOL     OW18997   0.424   6.859   4.296
 6033SOL    HW118998   0.520   6.863   4.323
 6033SOL    HW218999   0.409   6.780   4.237
 6034SOL     OW19000   3.178   4.994   4.523
 6034SOL    HW119001   3.104   4.935   4.490
 6034SOL    HW219002   3.168   5.007   4.622
 6035SOL     OW19003   4.747   0.258   4.125
 6035SOL    HW119004   4.690   0.262   4.043
 6035SOL    HW219005   4.725   0.335   4.184
 6036SOL     OW19006   5.277   1.214   5.588
 6036SOL    HW119007   5.178   1.201   5.594
 6036SOL    HW219008   5.321   1.129   5.558
 6037SOL     OW19009   7.015   4.842   4.328
 6037SOL    HW119010   6.998   4.898   4.409
 6037SOL    HW219011   0.088   4.832   4.315
 6038SOL     OW19012   0.199   3.233   6.574
 6038SOL    HW119013   0.150   3.304   6.523
 6038SOL    HW219014   0.136   3.187   6.636
 6039SOL     OW19015   3.160   3.706   3.486
 6039SOL    HW119016   3.104   3.705   3.569
 6039SOL    HW219017   3.111   3.661   3.412
 6040SOL     OW19018   1.405   0.907   1.000
 6040SOL    HW119019   1.386   0.997   0.962
 6040SOL    HW219020   1.454   0.916   1.086
 6041SOL     OW19021   0.647   3.307   6.168
 6041SOL    HW119022   0.744   3.304   6.192
 6041SOL    HW219023   0.604   3.219   6.191
 6042SOL     OW19024   5.877   6.005   4.867
 6042SOL    HW119025   5.904   6.086   4.919
 6042SOL    HW219026   5.916   5.924   4.909
 6043SOL     OW19027   6.479   4.202   3.262
 6043SOL    HW119028   6.480   4.172   3.358
 6043SOL    HW219029   6.540   4.280   3.251
 6044SOL     OW19030   1.370   1.142   0.861
 6044SOL    HW119031   1.452   1.200   0.866
 6044SOL    HW219032   1.291   1.199   0.839
 6045SOL     OW19033   6.089   3.665   6.600
 6045SOL    HW119034   6.135   3.633   6.517
 6045SOL    HW219035   6.144   3.737   6.643
 6046SOL     OW19036   0.675   3.854   0.122
 6046SOL    HW119037   0.665   3.883   0.026
 6046SOL    HW219038   0.761   3.806   0.134
 6047SOL     OW19039   1.078   6.665   5.103
 6047SOL    HW119040   1.119   6.605   5.034
 6047SOL    HW219041   1.123   6.649   5.191
 6048SOL     OW19042   4.951   6.554   3.616
 6048SOL    HW119043   4.970   6.622   3.687
 6048SOL    HW219044   5.025   6.553   3.550
 6049SOL     OW19045   0.157   5.437   0.553
 6049SOL    HW119046   0.231   5.500   0.527
 6049SOL    HW219047   0.132   5.380   0.475
 6050SOL     OW19048   5.593   4.438   5.269
 6050SOL    HW119049   5.550   4.472   5.186
 6050SOL    HW219050   5.688   4.469   5.272
 6051SOL     OW19051   2.378   1.907   3.382
 6051SOL    HW119052   2.329   1.852   3.314
 6051SOL    HW219053   2.313   1.961   3.435
 6052SOL     OW19054   0.476   1.923   6.942
 6052SOL    HW119055   0.479   2.013   6.898
 6052SOL    HW219056   0.381   1.892   6.947
 6053SOL     OW19057   0.911   0.512   6.283
 6053SOL    HW119058   0.838   0.475   6.225
 6053SOL    HW219059   0.999   0.492   6.241
 6054SOL     OW19060   0.601   3.953   6.315
 6054SOL    HW119061   0.571   4.048   6.302
 6054SOL    HW219062   0.690   3.952   6.360
 6055SOL     OW19063   5.591   6.284   2.697
 6055SOL    HW119064   5.617   6.188   2.706
 6055SOL    HW219065   5.674   6.340   2.688
 6056SOL     OW19066   5.495   2.741   6.463
 6056SOL    HW119067   5.431   2.684   6.514
 6056SOL    HW219068   5.460   2.756   6.371
 6057SOL     OW19069   5.033   0.438   6.496
 6057SOL    HW119070   5.097   0.408   6.567
 6057SOL    HW219071   5.028   0.368   6.425
 6058SOL     OW19072   5.574   2.363   5.555
 6058SOL    HW119073   5.519   2.446   5.541
 6058SOL    HW219074   5.599   2.324   5.467
 6059SOL     OW19075   6.969   6.250   6.700
 6059SOL    HW119076   6.979   6.187   6.623
 6059SOL    HW219077   0.028   6.255   6.751
 6060SOL     OW19078   3.486   5.679   6.721
 6060SOL    HW119079   3.495   5.777   6.736
 6060SOL    HW219080   3.576   5.636   6.732
 6061SOL     OW19081   2.235   1.458   6.704
 6061SOL    HW119082   2.281   1.542   6.676
 6061SOL    HW219083   2.259   1.384   6.641
 6062SOL     OW19084   1.255   6.459   3.225
 6062SOL    HW119085   1.194   6.432   3.299
 6062SOL    HW219086   1.336   6.503   3.263
 6063SOL     OW19087   6.091   6.399   6.879
 6063SOL    HW119088   6.040   6.477   6.842
 6063SOL    HW219089   6.173   6.432   6.926
 6064SOL     OW19090   0.690   5.502   2.055
 6064SOL    HW119091   0.645   5.466   1.973
 6064SOL    HW219092   0.633   5.483   2.135
 6065SOL     OW19093   4.881   6.864   1.129
 6065SOL    HW119094   4.943   6.941   1.144
 6065SOL    HW219095   4.839   6.837   1.215
 6066SOL     OW19096   5.272   2.212   5.400
 6066SOL    HW119097   5.216   2.179   5.476
 6066SOL    HW219098   5.368   2.188   5.415
 6067SOL     OW19099   4.968   1.235   0.195
 6067SOL    HW119100   4.913   1.317   0.207
 6067SOL    HW219101   4.908   1.158   0.174
 6068SOL     OW19102   5.116   0.983   5.426
 6068SOL    HW119103   5.164   0.997   5.340
 6068SOL    HW219104   5.029   1.031   5.424
 6069SOL     OW19105   6.939   4.980   3.311
 6069SOL    HW119106   6.852   4.975   3.359
 6069SOL    HW219107   6.991   5.059   3.344
 6070SOL     OW19108   4.868   3.309   1.383
 6070SOL    HW119109   4.919   3.224   1.368
 6070SOL    HW219110   4.776   3.288   1.414
 6071SOL     OW19111   5.726   0.770   5.694
 6071SOL    HW119112   5.775   0.687   5.724
 6071SOL    HW219113   5.628   0.752   5.694
 6072SOL     OW19114   5.760   1.326   1.801
 6072SOL    HW119115   5.732   1.232   1.782
 6072SOL    HW219116   5.831   1.353   1.736
 6073SOL     OW19117   5.423   1.058   0.653
 6073SOL    HW119118   5.452   1.142   0.608
 6073SOL    HW219119   5.480   0.982   0.623
 6074SOL     OW19120   0.543   1.330   5.650
 6074SOL    HW119121   0.517   1.375   5.565
 6074SOL    HW219122   0.632   1.365   5.680
 6075SOL     OW19123   5.066   3.211   5.858
 6075SOL    HW119124   5.001   3.285   5.875
 6075SOL    HW219125   5.028   3.125   5.894
 6076SOL     OW19126   3.498   0.373   3.657
 6076SOL    HW119127   3.425   0.327   3.605
 6076SOL    HW219128   3.540   0.307   3.721
 6077SOL     OW19129   5.338   5.348   2.879
 6077SOL    HW119130   5.320   5.437   2.837
 6077SOL    HW219131   5.429   5.349   2.922
 6078SOL     OW19132   2.287   4.605   4.582
 6078SOL    HW119133   2.201   4.566   4.547
 6078SOL    HW219134   2.296   4.583   4.679
 6079SOL     OW19135   3.262   2.303   0.439
 6079SOL    HW119136   3.244   2.212   0.402
 6079SOL    HW219137   3.176   2.345   0.468
 6080SOL     OW19138   6.329   3.456   3.716
 6080SOL    HW119139   6.253   3.395   3.693
 6080SOL    HW219140   6.356   3.440   3.811
 6081SOL     OW19141   0.777   4.089   1.948
 6081SOL    HW119142   0.849   4.024   1.924
 6081SOL    HW219143   0.688   4.050   1.925
 6082SOL     OW19144   4.873   1.861   5.325
 6082SOL    HW119145   4.794   1.872   5.265
 6082SOL    HW219146   4.867   1.929   5.399
 6083SOL     OW19147   1.478   6.010   0.359
 6083SOL    HW119148   1.429   5.968   0.283
 6083SOL    HW219149   1.575   6.020   0.336
 6084SOL     OW19150   0.435   5.914   6.318
 6084SOL    HW119151   0.531   5.938   6.335
 6084SOL    HW219152   0.427   5.867   6.230
 6085SOL     OW19153   5.454   4.905   2.011
 6085SOL    HW119154   5.478   4.811   1.986
 6085SOL    HW219155   5.536   4.962   2.011
 6086SOL     OW19156   3.126   2.126   1.988
 6086SOL    HW119157   3.063   2.202   2.001
 6086SOL    HW219158   3.083   2.041   2.019
 6087SOL     OW19159   3.534   0.941   0.396
 6087SOL    HW119160   3.602   0.884   0.441
 6087SOL    HW219161   3.442   0.907   0.418
 6088SOL     OW19162   0.752   1.028   4.616
 6088SOL    HW119163   0.752   0.973   4.699
 6088SOL    HW219164   0.835   1.009   4.563
 6089SOL     OW19165   7.006   3.424   1.437
 6089SOL    HW119166   6.996   3.518   1.405
 6089SOL    HW219167   6.975   3.418   1.532
 6090SOL     OW19168   6.318   6.828   4.079
 6090SOL    HW119169   6.279   6.744   4.040
 6090SOL    HW219170   6.365   6.805   4.164
 6091SOL     OW19171   6.609   2.193   2.293
 6091SOL    HW119172   6.603   2.095   2.310
 6091SOL    HW219173   6.689   2.231   2.340
 6092SOL     OW19174   0.302   3.135   1.616
 6092SOL    HW119175   0.230   3.140   1.685
 6092SOL    HW219176   0.267   3.173   1.530
 6093SOL     OW19177   0.925   4.374   0.612
 6093SOL    HW119178   0.936   4.300   0.546
 6093SOL    HW219179   1.008   4.431   0.613
 6094SOL     OW19180   0.410   1.349   1.317
 6094SOL    HW119181   0.343   1.422   1.324
 6094SOL    HW219182   0.380   1.282   1.248
 6095SOL     OW19183   0.482   4.097   4.838
 6095SOL    HW119184   0.433   4.178   4.871
 6095SOL    HW219185   0.484   4.098   4.738
 6096SOL     OW19186   5.732   1.937   2.980
 6096SOL    HW119187   5.790   2.015   3.005
 6096SOL    HW219188   5.714   1.940   2.882
 6097SOL     OW19189   3.878   1.150   2.939
 6097SOL    HW119190   3.869   1.079   2.870
 6097SOL    HW219191   3.812   1.135   3.012
 6098SOL     OW19192   0.329   1.166   6.920
 6098SOL    HW119193   0.260   1.234   6.942
 6098SOL    HW219194   0.319   1.137   6.825
 6099SOL     OW19195   5.902   4.168   4.298
 6099SOL    HW119196   5.914   4.266   4.315
 6099SOL    HW219197   5.878   4.122   4.384
 6100SOL     OW19198   6.961   2.918   1.422
 6100SOL    HW119199   0.026   2.895   1.458
 6100SOL    HW219200   6.925   2.841   1.370
 6101SOL     OW19201   6.057   6.661   3.372
 6101SOL    HW119202   6.054   6.587   3.306
 6101SOL    HW219203   6.151   6.674   3.404
 6102SOL     OW19204   3.704   6.265   4.940
 6102SOL    HW119205   3.634   6.263   4.869
 6102SOL    HW219206   3.736   6.172   4.958
 6103SOL     OW19207   5.481   1.853   4.681
 6103SOL    HW119208   5.561   1.793   4.680
 6103SOL    HW219209   5.455   1.874   4.586
 6104SOL     OW19210   2.453   2.614   1.103
 6104SOL    HW119211   2.411   2.527   1.078
 6104SOL    HW219212   2.552   2.601   1.112
 6105SOL     OW19213   3.504   5.279   4.526
 6105SOL    HW119214   3.468   5.261   4.618
 6105SOL    HW219215   3.566   5.205   4.500
 6106SOL     OW19216   1.762   5.224   4.185
 6106SOL    HW119217   1.827   5.217   4.110
 6106SOL    HW219218   1.774   5.146   4.246
 6107SOL     OW19219   1.851   4.870   5.706
 6107SOL    HW119220   1.870   4.944   5.641
 6107SOL    HW219221   1.899   4.787   5.677
 6108SOL     OW19222   5.595   1.502   4.606
 6108SOL    HW119223   5.623   1.591   4.643
 6108SOL    HW219224   5.670   1.462   4.555
 6109SOL     OW19225   0.530   4.424   1.938
 6109SOL    HW119226   0.524   4.522   1.921
 6109SOL    HW219227   0.618   4.403   1.981
 6110SOL     OW19228   3.429   1.805   3.234
 6110SOL    HW119229   3.349   1.746   3.220
 6110SOL    HW219230   3.403   1.900   3.221
 6111SOL     OW19231   0.878   4.639   3.561
 6111SOL    HW119232   0.904   4.713   3.498
 6111SOL    HW219233   0.781   4.649   3.585
 6112SOL     OW19234   2.339   0.706   1.334
 6112SOL    HW119235   2.396   0.767   1.279
 6112SOL    HW219236   2.253   0.689   1.286
 6113SOL     OW19237   0.779   5.138   6.032
 6113SOL    HW119238   0.749   5.113   6.124
 6113SOL    HW219239   0.717   5.099   5.965
 6114SOL     OW19240   3.847   4.221   1.325
 6114SOL    HW119241   3.825   4.124   1.324
 6114SOL    HW219242   3.827   4.259   1.415
 6115SOL     OW19243   0.420   3.937   2.921
 6115SOL    HW119244   0.391   4.031   2.904
 6115SOL    HW219245   0.493   3.912   2.857
 6116SOL     OW19246   4.194   2.875   0.997
 6116SOL    HW119247   4.141   2.898   1.079
 6116SOL    HW219248   4.133   2.836   0.928
 6117SOL     OW19249   5.340   6.438   4.283
 6117SOL    HW119250   5.256   6.397   4.319
 6117SOL    HW219251   5.327   6.461   4.187
 6118SOL     OW19252   6.386   0.520   3.514
 6118SOL    HW119253   6.349   0.447   3.456
 6118SOL    HW219254   6.461   0.484   3.569
 6119SOL     OW19255   6.156   4.776   5.178
 6119SOL    HW119256   6.121   4.837   5.107
 6119SOL    HW219257   6.191   4.693   5.136
 6120SOL     OW19258   2.785   1.888   2.344
 6120SOL    HW119259   2.849   1.882   2.420
 6120SOL    HW219260   2.712   1.953   2.367
 6121SOL     OW19261   0.241   1.701   3.288
 6121SOL    HW119262   0.256   1.663   3.379
 6121SOL    HW219263   0.170   1.771   3.293
 6122SOL     OW19264   3.915   5.727   4.255
 6122SOL    HW119265   3.909   5.774   4.167
 6122SOL    HW219266   3.956   5.788   4.323
 6123SOL     OW19267   0.103   2.267   2.966
 6123SOL    HW119268   0.060   2.347   3.008
 6123SOL    HW219269   0.199   2.262   2.996
 6124SOL     OW19270   2.890   0.504   4.799
 6124SOL    HW119271   2.955   0.564   4.845
 6124SOL    HW219272   2.801   0.511   4.843
 6125SOL     OW19273   1.256   3.991   2.847
 6125SOL    HW119274   1.319   4.037   2.910
 6125SOL    HW219275   1.199   3.927   2.898
 6126SOL     OW19276   3.404   0.033   2.719
 6126SOL    HW119277   3.489   0.033   2.772
 6126SOL    HW219278   3.328   0.063   2.778
 6127SOL     OW19279   2.154   5.791   1.250
 6127SOL    HW119280   2.060   5.788   1.216
 6127SOL    HW219281   2.167   5.873   1.305
 6128SOL     OW19282   5.668   3.739   1.590
 6128SOL    HW119283   5.637   3.695   1.674
 6128SOL    HW219284   5.764   3.715   1.573
 6129SOL     OW19285   6.317   3.928   3.534
 6129SOL    HW119286   6.233   3.979   3.513
 6129SOL    HW219287   6.365   3.906   3.448
 6130SOL     OW19288   6.434   3.425   2.576
 6130SOL    HW119289   6.386   3.447   2.492
 6130SOL    HW219290   6.373   3.441   2.654
 6131SOL     OW19291   0.170   2.059   5.378
 6131SOL    HW119292   0.268   2.049   5.360
 6131SOL    HW219293   0.147   2.015   5.465
 6132SOL     OW19294   0.137   3.099   0.521
 6132SOL    HW119295   0.049   3.070   0.484
 6132SOL    HW219296   0.133   3.197   0.542
 6133SOL     OW19297   1.370   4.733   0.671
 6133SOL    HW119298   1.284   4.747   0.721
 6133SOL    HW219299   1.377   4.637   0.643
 6134SOL     OW19300   4.628   4.492   5.895
 6134SOL    HW119301   4.588   4.505   5.805
 6134SOL    HW219302   4.571   4.535   5.964
 6135SOL     OW19303   5.614   6.362   1.819
 6135SOL    HW119304   5.621   6.438   1.883
 6135SOL    HW219305   5.682   6.372   1.747
 6136SOL     OW19306   1.748   1.743   2.382
 6136SOL    HW119307   1.825   1.804   2.398
 6136SOL    HW219308   1.733   1.686   2.463
 6137SOL     OW19309   2.881   0.059   5.925
 6137SOL    HW119310   2.805   0.039   5.864
 6137SOL    HW219311   2.846   0.078   6.017
 6138SOL     OW19312   4.255   0.335   3.430
 6138SOL    HW119313   4.287   0.341   3.524
 6138SOL    HW219314   4.325   0.373   3.369
 6139SOL     OW19315   2.818   6.611   3.620
 6139SOL    HW119316   2.777   6.630   3.531
 6139SOL    HW219317   2.823   6.695   3.673
 6140SOL     OW19318   2.236   5.531   1.354
 6140SOL    HW119319   2.156   5.510   1.410
 6140SOL    HW219320   2.218   5.614   1.301
 6141SOL     OW19321   0.692   5.998   4.596
 6141SOL    HW119322   0.610   5.944   4.615
 6141SOL    HW219323   0.706   6.064   4.670
 6142SOL     OW19324   0.179   2.843   4.215
 6142SOL    HW119325   0.178   2.912   4.143
 6142SOL    HW219326   0.108   2.774   4.198
 6143SOL     OW19327   6.560   5.824   6.761
 6143SOL    HW119328   6.556   5.743   6.819
 6143SOL    HW219329   6.574   5.905   6.818
 6144SOL     OW19330   0.334   5.650   4.888
 6144SOL    HW119331   0.277   5.711   4.834
 6144SOL    HW219332   0.276   5.594   4.947
 6145SOL     OW19333   5.758   5.428   3.619
 6145SOL    HW119334   5.840   5.404   3.671
 6145SOL    HW219335   5.729   5.521   3.643
 6146SOL     OW19336   6.086   1.280   4.022
 6146SOL    HW119337   6.151   1.320   4.087
 6146SOL    HW219338   6.131   1.208   3.970
 6147SOL     OW19339   1.060   4.131   3.943
 6147SOL    HW119340   1.001   4.115   4.021
 6147SOL    HW219341   1.115   4.213   3.959
 6148SOL     OW19342   5.671   6.420   3.757
 6148SOL    HW119343   5.716   6.509   3.768
 6148SOL    HW219344   5.724   6.363   3.696
 6149SOL     OW19345   0.537   5.584   4.538
 6149SOL    HW119346   0.567   5.578   4.443
 6149SOL    HW219347   0.551   5.496   4.583
 6150SOL     OW19348   4.527   6.743   6.835
 6150SOL    HW119349   4.555   6.688   6.914
 6150SOL    HW219350   4.576   6.830   6.836
 6151SOL     OW19351   4.325   0.557   5.308
 6151SOL    HW119352   4.351   0.605   5.391
 6151SOL    HW219353   4.235   0.515   5.320
 6152SOL     OW19354   6.348   3.476   6.605
 6152SOL    HW119355   6.277   3.506   6.542
 6152SOL    HW219356   6.437   3.509   6.573
 6153SOL     OW19357   3.740   5.863   5.591
 6153SOL    HW119358   3.695   5.925   5.528
 6153SOL    HW219359   3.732   5.769   5.558
 6154SOL     OW19360   5.338   2.792   3.522
 6154SOL    HW119361   5.263   2.729   3.502
 6154SOL    HW219362   5.302   2.876   3.563
 6155SOL     OW19363   3.129   4.956   4.818
 6155SOL    HW119364   3.058   4.891   4.845
 6155SOL    HW219365   3.210   4.942   4.875
 6156SOL     OW19366   5.450   0.408   4.273
 6156SOL    HW119367   5.460   0.371   4.366
 6156SOL    HW219368   5.383   0.482   4.274
 6157SOL     OW19369   1.160   7.004   4.548
 6157SOL    HW119370   1.167   6.910   4.513
 6157SOL    HW219371   1.250   0.009   4.578
 6158SOL     OW19372   4.876   6.190   0.267
 6158SOL    HW119373   4.805   6.206   0.336
 6158SOL    HW219374   4.951   6.139   0.309
 6159SOL     OW19375   4.389   3.421   6.181
 6159SOL    HW119376   4.445   3.426   6.264
 6159SOL    HW219377   4.298   3.459   6.199
 6160SOL     OW19378   6.245   4.953   0.600
 6160SOL    HW119379   6.199   5.006   0.529
 6160SOL    HW219380   6.197   4.866   0.614
 6161SOL     OW19381   5.026   0.716   6.540
 6161SOL    HW119382   5.101   0.739   6.603
 6161SOL    HW219383   5.043   0.627   6.499
 6162SOL     OW19384   5.517   6.055   3.813
 6162SOL    HW119385   5.492   6.126   3.747
 6162SOL    HW219386   5.487   5.966   3.779
 6163SOL     OW19387   0.363   4.077   3.194
 6163SOL    HW119388   0.323   4.089   3.103
 6163SOL    HW219389   0.291   4.054   3.259
 6164SOL     OW19390   4.822   3.361   0.743
 6164SOL    HW119391   4.775   3.423   0.805
 6164SOL    HW219392   4.756   3.314   0.685
 6165SOL     OW19393   3.389   0.181   1.303
 6165SOL    HW119394   3.408   0.130   1.219
 6165SOL    HW219395   3.470   0.235   1.327
 6166SOL     OW19396   3.182   0.311   0.806
 6166SOL    HW119397   3.128   0.320   0.722
 6166SOL    HW219398   3.274   0.281   0.783
 6167SOL     OW19399   0.490   4.972   3.249
 6167SOL    HW119400   0.414   5.016   3.201
 6167SOL    HW219401   0.577   5.010   3.216
 6168SOL     OW19402   0.203   2.183   1.674
 6168SOL    HW119403   0.190   2.104   1.734
 6168SOL    HW219404   0.241   2.153   1.587
 6169SOL     OW19405   1.960   4.009   1.341
 6169SOL    HW119406   2.057   4.007   1.318
 6169SOL    HW219407   1.928   4.104   1.343
 6170SOL     OW19408   5.939   1.970   4.253
 6170SOL    HW119409   6.011   2.018   4.201
 6170SOL    HW219410   5.851   1.984   4.208
 6171SOL     OW19411   6.437   2.558   6.554
 6171SOL    HW119412   6.534   2.580   6.565
 6171SOL    HW219413   6.412   2.562   6.458
 6172SOL     OW19414   6.883   4.493   3.313
 6172SOL    HW119415   6.942   4.433   3.366
 6172SOL    HW219416   6.925   4.510   3.224
 6173SOL     OW19417   5.544   6.215   2.411
 6173SOL    HW119418   5.524   6.269   2.492
 6173SOL    HW219419   5.631   6.167   2.422
 6174SOL     OW19420   0.583   1.817   3.525
 6174SOL    HW119421   0.584   1.908   3.567
 6174SOL    HW219422   0.528   1.755   3.580
 6175SOL     OW19423   4.656   2.122   6.466
 6175SOL    HW119424   4.683   2.212   6.501
 6175SOL    HW219425   4.640   2.060   6.542
 6176SOL     OW19426   2.497   5.384   6.009
 6176SOL    HW119427   2.495   5.406   6.106
 6176SOL    HW219428   2.410   5.341   5.983
 6177SOL     OW19429   6.148   5.192   1.336
 6177SOL    HW119430   6.197   5.208   1.421
 6177SOL    HW219431   6.050   5.204   1.351
 6178SOL     OW19432   4.334   4.486   1.759
 6178SOL    HW119433   4.374   4.559   1.814
 6178SOL    HW219434   4.366   4.397   1.793
 6179SOL     OW19435   4.901   5.539   4.589
 6179SOL    HW119436   4.870   5.546   4.494
 6179SOL    HW219437   4.827   5.567   4.650
 6180SOL     OW19438   1.414   3.399   6.393
 6180SOL    HW119439   1.424   3.456   6.311
 6180SOL    HW219440   1.499   3.351   6.412
 6181SOL     OW19441   0.453   6.660   6.976
 6181SOL    HW119442   0.355   6.644   6.961
 6181SOL    HW219443   0.471   6.758   6.971
 6182SOL     OW19444   2.892   2.517   5.914
 6182SOL    HW119445   2.938   2.588   5.860
 6182SOL    HW219446   2.851   2.450   5.852
 6183SOL     OW19447   0.206   0.420   0.661
 6183SOL    HW119448   0.170   0.420   0.567
 6183SOL    HW219449   0.305   0.409   0.659
 6184SOL     OW19450   3.741   6.477   5.320
 6184SOL    HW119451   3.717   6.574   5.330
 6184SOL    HW219452   3.749   6.436   5.411
 6185SOL     OW19453   3.213   2.976   3.079
 6185SOL    HW119454   3.256   2.893   3.045
 6185SOL    HW219455   3.225   2.982   3.178
 6186SOL     OW19456   0.766   1.200   2.115
 6186SOL    HW119457   0.847   1.207   2.173
 6186SOL    HW219458   0.737   1.291   2.086
 6187SOL     OW19459   3.909   2.492   5.867
 6187SOL    HW119460   3.917   2.591   5.857
 6187SOL    HW219461   3.825   2.470   5.918
 6188SOL     OW19462   0.903   1.498   5.467
 6188SOL    HW119463   0.842   1.453   5.533
 6188SOL    HW219464   0.878   1.594   5.459
 6189SOL     OW19465   6.929   5.018   0.750
 6189SOL    HW119466   6.836   5.012   0.787
 6189SOL    HW219467   6.985   5.074   0.811
 6190SOL     OW19468   1.341   2.920   3.422
 6190SOL    HW119469   1.392   2.897   3.505
 6190SOL    HW219470   1.405   2.946   3.350
 6191SOL     OW19471   2.368   4.917   6.646
 6191SOL    HW119472   2.330   4.841   6.700
 6191SOL    HW219473   2.424   4.974   6.705
 6192SOL     OW19474   2.883   1.405   0.974
 6192SOL    HW119475   2.795   1.407   1.022
 6192SOL    HW219476   2.922   1.313   0.980
 6193SOL     OW19477   4.873   5.349   0.122
 6193SOL    HW119478   4.832   5.403   0.049
 6193SOL    HW219479   4.972   5.364   0.124
 6194SOL     OW19480   5.090   6.835   6.026
 6194SOL    HW119481   5.115   6.884   6.110
 6194SOL    HW219482   5.058   6.743   6.050
 6195SOL     OW19483   5.359   5.041   5.553
 6195SOL    HW119484   5.378   5.025   5.456
 6195SOL    HW219485   5.297   4.970   5.587
 6196SOL     OW19486   0.022   3.720   3.433
 6196SOL    HW119487   6.998   3.762   3.509
 6196SOL    HW219488   0.035   3.623   3.451
 6197SOL     OW19489   0.196   5.229   1.399
 6197SOL    HW119490   0.199   5.199   1.304
 6197SOL    HW219491   0.258   5.173   1.453
 6198SOL     OW19492   6.364   2.158   5.615
 6198SOL    HW119493   6.280   2.136   5.666
 6198SOL    HW219494   6.435   2.092   5.639
 6199SOL     OW19495   2.277   0.005   5.770
 6199SOL    HW119496   2.183   7.016   5.800
 6199SOL    HW219497   2.339   7.020   5.848
 6200SOL     OW19498   1.407   6.457   6.925
 6200SOL    HW119499   1.464   6.468   7.007
 6200SOL    HW219500   1.447   6.387   6.866
 6201SOL     OW19501   1.161   4.808   3.594
 6201SOL    HW119502   1.081   4.863   3.618
 6201SOL    HW219503   1.157   4.784   3.497
 6202SOL     OW19504   4.830   1.811   1.863
 6202SOL    HW119505   4.924   1.777   1.858
 6202SOL    HW219506   4.798   1.834   1.771
 6203SOL     OW19507   0.504   0.794   2.648
 6203SOL    HW119508   0.454   0.865   2.599
 6203SOL    HW219509   0.570   0.836   2.711
 6204SOL     OW19510   1.166   5.865   4.344
 6204SOL    HW119511   1.092   5.931   4.331
 6204SOL    HW219512   1.198   5.869   4.439
 6205SOL     OW19513   0.318   4.271   3.380
 6205SOL    HW119514   0.290   4.355   3.334
 6205SOL    HW219515   0.350   4.205   3.312
 6206SOL     OW19516   5.514   2.461   3.999
 6206SOL    HW119517   5.582   2.415   4.055
 6206SOL    HW219518   5.558   2.504   3.921
 6207SOL     OW19519   1.963   6.023   3.219
 6207SOL    HW119520   1.974   6.051   3.314
 6207SOL    HW219521   2.045   6.046   3.167
 6208SOL     OW19522   4.251   4.323   6.233
 6208SOL    HW119523   4.276   4.284   6.321
 6208SOL    HW219524   4.257   4.423   6.238
 6209SOL     OW19525   3.272   0.907   2.579
 6209SOL    HW119526   3.332   0.832   2.551
 6209SOL    HW219527   3.196   0.871   2.634
 6210SOL     OW19528   5.578   0.169   4.159
 6210SOL    HW119529   5.625   0.115   4.229
 6210SOL    HW219530   5.536   0.249   4.200
 6211SOL     OW19531   5.179   2.784   5.433
 6211SOL    HW119532   5.088   2.826   5.437
 6211SOL    HW219533   5.246   2.854   5.410
 6212SOL     OW19534   4.786   4.075   4.687
 6212SOL    HW119535   4.694   4.109   4.666
 6212SOL    HW219536   4.824   4.030   4.606
 6213SOL     OW19537   5.220   5.848   0.446
 6213SOL    HW119538   5.285   5.772   0.452
 6213SOL    HW219539   5.131   5.813   0.418
 6214SOL     OW19540   6.916   6.484   6.116
 6214SOL    HW119541   6.929   6.497   6.018
 6214SOL    HW219542   6.828   6.440   6.132
 6215SOL     OW19543   5.193   3.133   5.615
 6215SOL    HW119544   5.121   3.146   5.682
 6215SOL    HW219545   5.161   3.164   5.525
 6216SOL     OW19546   5.743   2.657   6.473
 6216SOL    HW119547   5.653   2.700   6.480
 6216SOL    HW219548   5.735   2.559   6.491
 6217SOL     OW19549   0.403   4.154   2.445
 6217SOL    HW119550   0.429   4.167   2.349
 6217SOL    HW219551   0.448   4.072   2.481
 6218SOL     OW19552   4.995   6.440   1.575
 6218SOL    HW119553   4.906   6.439   1.532
 6218SOL    HW219554   5.006   6.358   1.632
 6219SOL     OW19555   2.136   0.445   0.081
 6219SOL    HW119556   2.210   0.512   0.086
 6219SOL    HW219557   2.175   0.353   0.069
 6220SOL     OW19558   2.370   0.807   2.716
 6220SOL    HW119559   2.305   0.882   2.706
 6220SOL    HW219560   2.447   0.837   2.773
 6221SOL     OW19561   4.164   5.295   5.326
 6221SOL    HW119562   4.208   5.311   5.238
 6221SOL    HW219563   4.221   5.233   5.381
 6222SOL     OW19564   0.677   1.062   1.721
 6222SOL    HW119565   0.743   1.029   1.790
 6222SOL    HW219566   0.684   1.161   1.713
 6223SOL     OW19567   6.645   5.190   3.511
 6223SOL    HW119568   6.659   5.109   3.568
 6223SOL    HW219569   6.634   5.162   3.416
 6224SOL     OW19570   4.298   0.268   0.186
 6224SOL    HW119571   4.387   0.250   0.228
 6224SOL    HW219572   4.226   0.260   0.255
 6225SOL     OW19573   5.869   5.117   6.113
 6225SOL    HW119574   5.784   5.066   6.102
 6225SOL    HW219575   5.941   5.055   6.143
 6226SOL     OW19576   1.790   0.917   3.742
 6226SOL    HW119577   1.728   0.891   3.815
 6226SOL    HW219578   1.755   0.998   3.694
 6227SOL     OW19579   1.644   4.604   5.997
 6227SOL    HW119580   1.713   4.533   5.985
 6227SOL    HW219581   1.682   4.692   5.970
 6228SOL     OW19582   1.353   3.511   3.623
 6228SOL    HW119583   1.389   3.432   3.673
 6228SOL    HW219584   1.272   3.546   3.671
 6229SOL     OW19585   0.479   4.944   4.182
 6229SOL    HW119586   0.421   4.941   4.100
 6229SOL    HW219587   0.521   4.854   4.196
 6230SOL     OW19588   1.273   1.002   0.414
 6230SOL    HW119589   1.304   1.077   0.471
 6230SOL    HW219590   1.216   0.940   0.469
 6231SOL     OW19591   1.369   5.813   5.516
 6231SOL    HW119592   1.323   5.776   5.436
 6231SOL    HW219593   1.448   5.756   5.539
 6232SOL     OW19594   3.905   0.891   6.282
 6232SOL    HW119595   3.860   0.878   6.193
 6232SOL    HW219596   3.953   0.807   6.307
 6233SOL     OW19597   6.869   4.249   1.349
 6233SOL    HW119598   6.770   4.235   1.358
 6233SOL    HW219599   6.888   4.344   1.327
 6234SOL     OW19600   4.718   4.708   2.377
 6234SOL    HW119601   4.715   4.621   2.327
 6234SOL    HW219602   4.799   4.759   2.349
 6235SOL     OW19603   0.828   1.190   0.938
 6235SOL    HW119604   0.902   1.233   0.990
 6235SOL    HW219605   0.850   1.191   0.841
 6236SOL     OW19606   5.950   6.329   1.993
 6236SOL    HW119607   5.894   6.292   1.918
 6236SOL    HW219608   5.895   6.394   2.046
 6237SOL     OW19609   4.023   0.949   3.557
 6237SOL    HW119610   3.942   0.984   3.510
 6237SOL    HW219611   4.063   0.874   3.503
 6238SOL     OW19612   2.224   6.326   3.124
 6238SOL    HW119613   2.212   6.407   3.068
 6238SOL    HW219614   2.322   6.311   3.140
 6239SOL     OW19615   4.560   1.342   4.135
 6239SOL    HW119616   4.571   1.301   4.226
 6239SOL    HW219617   4.565   1.441   4.142
 6240SOL     OW19618   4.100   3.674   4.135
 6240SOL    HW119619   4.186   3.722   4.121
 6240SOL    HW219620   4.090   3.601   4.068
 6241SOL     OW19621   3.837   0.673   2.757
 6241SOL    HW119622   3.907   0.630   2.814
 6241SOL    HW219623   3.749   0.628   2.772
 6242SOL     OW19624   3.137   1.903   4.591
 6242SOL    HW119625   3.155   2.001   4.582
 6242SOL    HW219626   3.224   1.855   4.606
 6243SOL     OW19627   3.502   0.591   0.188
 6243SOL    HW119628   3.435   0.518   0.201
 6243SOL    HW219629   3.529   0.627   0.277
 6244SOL     OW19630   5.426   2.531   1.792
 6244SOL    HW119631   5.470   2.594   1.728
 6244SOL    HW219632   5.397   2.449   1.743
 6245SOL     OW19633   6.859   5.087   1.681
 6245SOL    HW119634   6.957   5.068   1.669
 6245SOL    HW219635   6.805   5.022   1.629
 6246SOL     OW19636   0.824   6.329   5.231
 6246SOL    HW119637   0.916   6.331   5.269
 6246SOL    HW219638   0.818   6.258   5.161
 6247SOL     OW19639   5.561   4.688   2.265
 6247SOL    HW119640   5.566   4.588   2.267
 6247SOL    HW219641   5.641   4.724   2.217
 6248SOL     OW19642   4.846   2.540   5.833
 6248SOL    HW119643   4.900   2.461   5.802
 6248SOL    HW219644   4.824   2.598   5.754
 6249SOL     OW19645   5.679   2.350   3.572
 6249SOL    HW119646   5.660   2.260   3.611
 6249SOL    HW219647   5.706   2.340   3.476
 6250SOL     OW19648   5.065   6.897   5.130
 6250SOL    HW119649   5.066   6.809   5.082
 6250SOL    HW219650   5.031   6.968   5.068
 6251SOL     OW19651   2.788   1.059   4.125
 6251SOL    HW119652   2.853   1.115   4.074
 6251SOL    HW219653   2.760   0.981   4.069
 6252SOL     OW19654   2.203   4.786   6.803
 6252SOL    HW119655   2.212   4.710   6.867
 6252SOL    HW219656   2.127   4.845   6.831
 6253SOL     OW19657   4.980   6.231   4.127
 6253SOL    HW119658   4.906   6.264   4.069
 6253SOL    HW219659   5.011   6.142   4.094
 6254SOL     OW19660   6.659   6.774   1.901
 6254SOL    HW119661   6.736   6.772   1.965
 6254SOL    HW219662   6.573   6.774   1.951
 6255SOL     OW19663   3.146   6.775   1.389
 6255SOL    HW119664   3.179   6.869   1.386
 6255SOL    HW219665   3.176   6.732   1.475
 6256SOL     OW19666   6.946   4.322   2.273
 6256SOL    HW119667   7.004   4.241   2.285
 6256SOL    HW219668   7.001   4.405   2.284
 6257SOL     OW19669   4.006   3.929   0.403
 6257SOL    HW119670   4.052   3.903   0.488
 6257SOL    HW219671   3.958   4.016   0.417
 6258SOL     OW19672   4.314   5.377   4.166
 6258SOL    HW119673   4.243   5.447   4.157
 6258SOL    HW219674   4.301   5.308   4.094
 6259SOL     OW19675   5.114   6.854   4.515
 6259SOL    HW119676   5.032   6.889   4.560
 6259SOL    HW219677   5.095   6.762   4.479
 6260SOL     OW19678   3.271   2.087   0.104
 6260SOL    HW119679   3.176   2.062   0.085
 6260SOL    HW219680   3.289   2.178   0.065
 6261SOL     OW19681   4.475   6.178   1.340
 6261SOL    HW119682   4.566   6.206   1.371
 6261SOL    HW219683   4.430   6.125   1.412
 6262SOL     OW19684   5.926   1.818   3.956
 6262SOL    HW119685   5.883   1.733   3.925
 6262SOL    HW219686   5.865   1.865   4.020
 6263SOL     OW19687   6.575   6.140   6.211
 6263SOL    HW119688   6.600   6.079   6.136
 6263SOL    HW219689   6.551   6.230   6.174
 6264SOL     OW19690   1.073   6.665   0.624
 6264SOL    HW119691   1.158   6.650   0.574
 6264SOL    HW219692   1.003   6.700   0.562
 6265SOL     OW19693   4.253   6.004   6.563
 6265SOL    HW119694   4.200   6.074   6.611
 6265SOL    HW219695   4.227   6.003   6.466
 6266SOL     OW19696   2.654   5.313   3.812
 6266SOL    HW119697   2.593   5.344   3.738
 6266SOL    HW219698   2.688   5.222   3.791
 6267SOL     OW19699   0.226   6.805   4.062
 6267SOL    HW119700   0.162   6.774   4.132
 6267SOL    HW219701   0.271   6.725   4.021
 6268SOL     OW19702   3.173   2.255   0.742
 6268SOL    HW119703   3.117   2.274   0.823
 6268SOL    HW219704   3.134   2.178   0.692
 6269SOL     OW19705   0.652   5.268   0.711
 6269SOL    HW119706   0.566   5.230   0.675
 6269SOL    HW219707   0.728   5.208   0.684
 6270SOL     OW19708   1.662   5.891   1.125
 6270SOL    HW119709   1.655   5.881   1.026
 6270SOL    HW219710   1.717   5.972   1.147
 6271SOL     OW19711   6.813   3.287   5.301
 6271SOL    HW119712   6.857   3.270   5.389
 6271SOL    HW219713   6.731   3.231   5.293
 6272SOL     OW19714   6.320   0.577   0.468
 6272SOL    HW119715   6.324   0.584   0.368
 6272SOL    HW219716   6.255   0.645   0.503
 6273SOL     OW19717   0.367   6.651   2.812
 6273SOL    HW119718   0.402   6.670   2.904
 6273SOL    HW219719   0.370   6.553   2.795
 6274SOL     OW19720   3.050   6.156   4.263
 6274SOL    HW119721   3.148   6.141   4.271
 6274SOL    HW219722   3.001   6.078   4.303
 6275SOL     OW19723   3.084   5.403   1.215
 6275SOL    HW119724   3.060   5.305   1.213
 6275SOL    HW219725   3.023   5.451   1.278
 6276SOL     OW19726   2.182   4.482   2.685
 6276SOL    HW119727   2.177   4.404   2.748
 6276SOL    HW219728   2.134   4.560   2.724
 6277SOL     OW19729   5.535   1.823   1.140
 6277SOL    HW119730   5.483   1.880   1.077
 6277SOL    HW219731   5.493   1.826   1.230
 6278SOL     OW19732   4.349   2.999   0.234
 6278SOL    HW119733   4.283   2.993   0.160
 6278SOL    HW219734   4.308   2.966   0.319
 6279SOL     OW19735   0.925   6.113   1.800
 6279SOL    HW119736   1.008   6.162   1.826
 6279SOL    HW219737   0.862   6.110   1.877
 6280SOL     OW19738   4.985   0.754   6.931
 6280SOL    HW119739   5.005   0.829   6.869
 6280SOL    HW219740   5.027   0.670   6.896
 6281SOL     OW19741   5.826   3.840   6.136
 6281SOL    HW119742   5.884   3.815   6.059
 6281SOL    HW219743   5.846   3.934   6.164
 6282SOL     OW19744   6.919   4.917   6.219
 6282SOL    HW119745   6.907   4.896   6.122
 6282SOL    HW219746   6.865   4.853   6.274
 6283SOL     OW19747   3.092   6.356   4.538
 6283SOL    HW119748   3.011   6.308   4.573
 6283SOL    HW219749   3.171   6.296   4.542
 6284SOL     OW19750   2.035   4.953   5.973
 6284SOL    HW119751   2.119   4.935   6.023
 6284SOL    HW219752   2.023   4.883   5.902
 6285SOL     OW19753   1.889   4.781   4.092
 6285SOL    HW119754   1.819   4.818   4.031
 6285SOL    HW219755   1.979   4.797   4.052
 6286SOL     OW19756   0.817   3.418   7.013
 6286SOL    HW119757   0.873   3.335   7.012
 6286SOL    HW219758   0.735   3.403   0.041
 6287SOL     OW19759   3.992   5.215   4.884
 6287SOL    HW119760   3.915   5.245   4.940
 6287SOL    HW219761   3.965   5.134   4.832
 6288SOL     OW19762   3.125   4.096   5.673
 6288SOL    HW119763   3.154   4.048   5.590
 6288SOL    HW219764   3.027   4.081   5.687
 6289SOL     OW19765   2.890   5.800   5.805
 6289SOL    HW119766   2.806   5.830   5.760
 6289SOL    HW219767   2.900   5.701   5.797
 6290SOL     OW19768   6.606   0.620   3.204
 6290SOL    HW119769   6.592   0.544   3.267
 6290SOL    HW219770   6.541   0.612   3.127
 6291SOL     OW19771   3.041   3.136   1.928
 6291SOL    HW119772   3.031   3.231   1.958
 6291SOL    HW219773   3.107   3.132   1.853
 6292SOL     OW19774   0.835   4.156   4.786
 6292SOL    HW119775   0.741   4.164   4.751
 6292SOL    HW219776   0.879   4.077   4.744
 6293SOL     OW19777   3.219   1.742   0.798
 6293SOL    HW119778   3.216   1.645   0.774
 6293SOL    HW219779   3.302   1.761   0.851
 6294SOL     OW19780   0.380   0.531   2.068
 6294SOL    HW119781   0.337   0.586   1.997
 6294SOL    HW219782   0.408   0.590   2.144
 6295SOL     OW19783   4.760   3.173   5.652
 6295SOL    HW119784   4.670   3.168   5.696
 6295SOL    HW219785   4.803   3.083   5.654
 6296SOL     OW19786   6.625   2.353   0.412
 6296SOL    HW119787   6.577   2.414   0.349
 6296SOL    HW219788   6.559   2.297   0.462
 6297SOL     OW19789   0.812   1.751   4.703
 6297SOL    HW119790   0.713   1.754   4.686
 6297SOL    HW219791   0.843   1.840   4.737
 6298SOL     OW19792   0.499   1.154   5.859
 6298SOL    HW119793   0.402   1.161   5.879
 6298SOL    HW219794   0.525   1.226   5.795
 6299SOL     OW19795   3.411   1.808   3.877
 6299SOL    HW119796   3.362   1.724   3.901
 6299SOL    HW219797   3.383   1.838   3.786
 6300SOL     OW19798   2.652   2.238   0.693
 6300SOL    HW119799   2.729   2.301   0.681
 6300SOL    HW219800   2.680   2.162   0.753
 6301SOL     OW19801   4.515   5.784   0.730
 6301SOL    HW119802   4.592   5.844   0.708
 6301SOL    HW219803   4.495   5.725   0.651
 6302SOL     OW19804   1.972   3.484   0.881
 6302SOL    HW119805   2.048   3.499   0.945
 6302SOL    HW219806   1.979   3.548   0.805
 6303SOL     OW19807   6.522   4.615   5.253
 6303SOL    HW119808   6.427   4.586   5.241
 6303SOL    HW219809   6.583   4.537   5.239
 6304SOL     OW19810   2.088   2.689   4.938
 6304SOL    HW119811   2.052   2.721   5.025
 6304SOL    HW219812   2.187   2.703   4.935
 6305SOL     OW19813   1.471   6.245   5.118
 6305SOL    HW119814   1.384   6.206   5.085
 6305SOL    HW219815   1.517   6.291   5.042
 6306SOL     OW19816   1.982   4.100   4.146
 6306SOL    HW119817   2.010   4.115   4.241
 6306SOL    HW219818   2.045   4.035   4.103
 6307SOL     OW19819   3.763   3.145   2.179
 6307SOL    HW119820   3.848   3.146   2.127
 6307SOL    HW219821   3.763   3.220   2.245
 6308SOL     OW19822   1.837   0.644   1.095
 6308SOL    HW119823   1.876   0.579   1.030
 6308SOL    HW219824   1.773   0.704   1.047
 6309SOL     OW19825   2.014   5.787   4.858
 6309SOL    HW119826   2.043   5.764   4.765
 6309SOL    HW219827   2.058   5.872   4.886
 6310SOL     OW19828   0.835   6.721   2.641
 6310SOL    HW119829   0.873   6.744   2.730
 6310SOL    HW219830   0.846   6.624   2.623
 6311SOL     OW19831   4.999   1.268   6.033
 6311SOL    HW119832   4.972   1.361   6.057
 6311SOL    HW219833   4.940   1.202   6.079
 6312SOL     OW19834   4.300   4.730   1.433
 6312SOL    HW119835   4.366   4.656   1.425
 6312SOL    HW219836   4.327   4.805   1.372
 6313SOL     OW19837   5.602   5.359   2.990
 6313SOL    HW119838   5.595   5.419   3.070
 6313SOL    HW219839   5.651   5.406   2.917
 6314SOL     OW19840   1.834   5.504   2.849
 6314SOL    HW119841   1.818   5.594   2.888
 6314SOL    HW219842   1.885   5.514   2.763
 6315SOL     OW19843   1.908   2.480   3.570
 6315SOL    HW119844   1.978   2.504   3.503
 6315SOL    HW219845   1.951   2.463   3.659
 6316SOL     OW19846   4.926   0.675   5.602
 6316SOL    HW119847   4.942   0.603   5.670
 6316SOL    HW219848   4.920   0.635   5.511
 6317SOL     OW19849   4.687   4.372   3.266
 6317SOL    HW119850   4.648   4.435   3.198
 6317SOL    HW219851   4.690   4.417   3.355
 6318SOL     OW19852   5.807   6.407   0.269
 6318SOL    HW119853   5.817   6.445   0.177
 6318SOL    HW219854   5.787   6.309   0.263
 6319SOL     OW19855   5.460   2.100   4.068
 6319SOL    HW119856   5.391   2.145   4.125
 6319SOL    HW219857   5.422   2.017   4.029
 6320SOL     OW19858   6.052   2.716   6.589
 6320SOL    HW119859   5.953   2.723   6.583
 6320SOL    HW219860   6.089   2.677   6.505
 6321SOL     OW19861   0.427   3.121   6.916
 6321SOL    HW119862   0.359   3.194   6.919
 6321SOL    HW219863   0.507   3.152   6.865
 6322SOL     OW19864   2.229   1.047   2.667
 6322SOL    HW119865   2.213   1.109   2.590
 6322SOL    HW219866   2.296   1.088   2.729
 6323SOL     OW19867   1.489   5.906   0.787
 6323SOL    HW119868   1.472   5.891   0.689
 6323SOL    HW219869   1.425   5.851   0.841
 6324SOL     OW19870   5.355   4.262   2.399
 6324SOL    HW119871   5.337   4.172   2.361
 6324SOL    HW219872   5.320   4.332   2.337
 6325SOL     OW19873   0.867   3.567   3.775
 6325SOL    HW119874   0.800   3.507   3.731
 6325SOL    HW219875   0.849   3.570   3.874
 6326SOL     OW19876   5.810   5.682   4.801
 6326SOL    HW119877   5.728   5.636   4.835
 6326SOL    HW219878   5.860   5.720   4.879
 6327SOL     OW19879   0.602   0.820   2.104
 6327SOL    HW119880   0.627   0.805   2.008
 6327SOL    HW219881   0.542   0.900   2.110
 6328SOL     OW19882   3.996   3.736   4.629
 6328SOL    HW119883   4.040   3.743   4.540
 6328SOL    HW219884   3.896   3.732   4.617
 6329SOL     OW19885   0.029   3.218   4.524
 6329SOL    HW119886   0.046   3.218   4.622
 6329SOL    HW219887   0.065   3.134   4.483
 6330SOL     OW19888   4.379   1.733   3.483
 6330SOL    HW119889   4.475   1.761   3.487
 6330SOL    HW219890   4.370   1.652   3.425
 6331SOL     OW19891   1.413   2.575   3.569
 6331SOL    HW119892   1.318   2.604   3.560
 6331SOL    HW219893   1.426   2.532   3.659
 6332SOL     OW19894   4.305   1.429   0.422
 6332SOL    HW119895   4.338   1.388   0.337
 6332SOL    HW219896   4.240   1.502   0.402
 6333SOL     OW19897   6.149   2.055   0.161
 6333SOL    HW119898   6.061   2.100   0.174
 6333SOL    HW219899   6.211   2.115   0.111
 6334SOL     OW19900   2.872   1.259   2.369
 6334SOL    HW119901   2.953   1.256   2.310
 6334SOL    HW219902   2.792   1.230   2.317
 6335SOL     OW19903   6.120   2.469   5.386
 6335SOL    HW119904   6.194   2.482   5.452
 6335SOL    HW219905   6.059   2.397   5.419
 6336SOL     OW19906   0.974   5.823   5.942
 6336SOL    HW119907   1.039   5.792   5.873
 6336SOL    HW219908   1.013   5.809   6.033
 6337SOL     OW19909   6.452   0.636   5.695
 6337SOL    HW119910   6.414   0.562   5.639
 6337SOL    HW219911   6.546   0.654   5.666
 6338SOL     OW19912   1.220   0.742   2.176
 6338SOL    HW119913   1.193   0.757   2.271
 6338SOL    HW219914   1.140   0.754   2.117
 6339SOL     OW19915   0.239   4.344   3.852
 6339SOL    HW119916   0.229   4.295   3.939
 6339SOL    HW219917   0.260   4.440   3.869
 6340SOL     OW19918   2.953   5.616   6.957
 6340SOL    HW119919   2.924   5.584   6.867
 6340SOL    HW219920   2.896   5.693   6.984
 6341SOL     OW19921   1.281   4.475   3.066
 6341SOL    HW119922   1.340   4.545   3.106
 6341SOL    HW219923   1.273   4.398   3.129
 6342SOL     OW19924   2.821   6.824   1.167
 6342SOL    HW119925   2.759   6.851   1.093
 6342SOL    HW219926   2.769   6.775   1.237
 6343SOL     OW19927   1.860   3.462   7.005
 6343SOL    HW119928   1.772   3.477   6.960
 6343SOL    HW219929   1.898   3.374   6.977
 6344SOL     OW19930   1.989   0.835   4.000
 6344SOL    HW119931   2.073   0.848   4.054
 6344SOL    HW219932   1.976   0.913   3.940
 6345SOL     OW19933   0.132   3.649   4.232
 6345SOL    HW119934   0.121   3.624   4.328
 6345SOL    HW219935   0.187   3.733   4.226
 6346SOL     OW19936   0.745   4.458   4.230
 6346SOL    HW119937   0.838   4.471   4.265
 6346SOL    HW219938   0.739   4.494   4.137
 6347SOL     OW19939   1.863   1.428   2.270
 6347SOL    HW119940   1.862   1.350   2.208
 6347SOL    HW219941   1.769   1.458   2.287
 6348SOL     OW19942   0.538   2.365   7.023
 6348SOL    HW119943   0.581   2.448   6.988
 6348SOL    HW219944   0.548   2.363   0.097
 6349SOL     OW19945   6.006   0.944   0.931
 6349SOL    HW119946   6.009   0.845   0.949
 6349SOL    HW219947   6.099   0.979   0.918
 6350SOL     OW19948   6.849   0.116   1.527
 6350SOL    HW119949   6.849   0.099   1.625
 6350SOL    HW219950   6.788   0.193   1.506
 6351SOL     OW19951   6.667   2.188   2.585
 6351SOL    HW119952   6.716   2.274   2.574
 6351SOL    HW219953   6.630   2.183   2.678
 6352SOL     OW19954   3.384   0.628   5.121
 6352SOL    HW119955   3.319   0.704   5.127
 6352SOL    HW219956   3.343   0.546   5.159
 6353SOL     OW19957   3.776   6.377   5.598
 6353SOL    HW119958   3.751   6.451   5.661
 6353SOL    HW219959   3.749   6.289   5.637
 6354SOL     OW19960   6.347   4.988   3.361
 6354SOL    HW119961   6.435   4.943   3.349
 6354SOL    HW219962   6.326   4.995   3.459
 6355SOL     OW19963   4.138   6.501   0.137
 6355SOL    HW119964   4.069   6.432   0.113
 6355SOL    HW219965   4.158   6.495   0.235
 6356SOL     OW19966   0.045   6.962   6.514
 6356SOL    HW119967   7.021   7.018   6.580
 6356SOL    HW219968   0.039   7.005   6.423
 6357SOL     OW19969   4.774   2.112   3.602
 6357SOL    HW119970   4.734   2.201   3.581
 6357SOL    HW219971   4.814   2.073   3.520
 6358SOL     OW19972   1.184   0.748   4.609
 6358SOL    HW119973   1.253   0.702   4.553
 6358SOL    HW219974   1.185   0.709   4.701
 6359SOL     OW19975   6.965   4.660   1.263
 6359SOL    HW119976   7.026   4.721   1.314
 6359SOL    HW219977   6.887   4.713   1.229
 6360SOL     OW19978   3.184   2.725   0.467
 6360SOL    HW119979   3.152   2.636   0.500
 6360SOL    HW219980   3.120   2.761   0.400
 6361SOL     OW19981   0.482   1.473   3.233
 6361SOL    HW119982   0.578   1.499   3.223
 6361SOL    HW219983   0.443   1.456   3.143
 6362SOL     OW19984   2.078   5.200   0.117
 6362SOL    HW119985   2.062   5.273   0.051
 6362SOL    HW219986   2.010   5.206   0.190
 6363SOL     OW19987   0.312   1.608   1.582
 6363SOL    HW119988   0.274   1.586   1.493
 6363SOL    HW219989   0.374   1.536   1.611
 6364SOL     OW19990   2.784   2.314   3.350
 6364SOL    HW119991   2.793   2.379   3.426
 6364SOL    HW219992   2.807   2.222   3.381
 6365SOL     OW19993   6.013   0.063   1.942
 6365SOL    HW119994   5.950   0.126   1.896
 6365SOL    HW219995   6.106   0.097   1.934
 6366SOL     OW19996   6.565   1.723   5.247
 6366SOL    HW119997   6.600   1.791   5.183
 6366SOL    HW219998   6.633   1.652   5.262
 6367SOL     OW19999   1.902   3.415   4.469
 6367SOL    HW120000   1.981   3.358   4.445
 6367SOL    HW220001   1.893   3.418   4.569
 6368SOL     OW20002   5.623   3.319   5.138
 6368SOL    HW120003   5.541   3.375   5.123
 6368SOL    HW220004   5.682   3.364   5.205
 6369SOL     OW20005   2.991   4.483   0.898
 6369SOL    HW120006   3.066   4.472   0.963
 6369SOL    HW220007   3.000   4.415   0.826
 6370SOL     OW20008   6.192   3.407   5.103
 6370SOL    HW120009   6.284   3.382   5.135
 6370SOL    HW220010   6.139   3.445   5.178
 6371SOL     OW20011   6.177   4.243   1.441
 6371SOL    HW120012   6.250   4.311   1.437
 6371SOL    HW220013   6.089   4.289   1.453
 6372SOL     OW20014   5.599   1.679   1.907
 6372SOL    HW120015   5.544   1.762   1.913
 6372SOL    HW220016   5.684   1.700   1.857
 6373SOL     OW20017   5.537   1.856   1.606
 6373SOL    HW120018   5.602   1.875   1.532
 6373SOL    HW220019   5.560   1.913   1.686
 6374SOL     OW20020   3.823   3.422   6.271
 6374SOL    HW120021   3.786   3.415   6.364
 6374SOL    HW220022   3.818   3.517   6.241
 6375SOL     OW20023   5.296   1.646   2.050
 6375SOL    HW120024   5.289   1.726   2.110
 6375SOL    HW220025   5.286   1.563   2.104
 6376SOL     OW20026   3.483   6.507   6.821
 6376SOL    HW120027   3.507   6.601   6.845
 6376SOL    HW220028   3.405   6.478   6.876
 6377SOL     OW20029   0.130   1.898   0.379
 6377SOL    HW120030   0.226   1.897   0.350
 6377SOL    HW220031   0.073   1.929   0.303
 6378SOL     OW20032   6.246   4.035   2.501
 6378SOL    HW120033   6.212   4.043   2.407
 6378SOL    HW220034   6.204   3.956   2.545
 6379SOL     OW20035   2.166   4.593   6.598
 6379SOL    HW120036   2.195   4.661   6.667
 6379SOL    HW220037   2.086   4.544   6.632
 6380SOL     OW20038   2.155   2.710   4.411
 6380SOL    HW120039   2.194   2.773   4.477
 6380SOL    HW220040   2.209   2.713   4.327
 6381SOL     OW20041   3.391   4.724   0.588
 6381SOL    HW120042   3.296   4.732   0.617
 6381SOL    HW220043   3.426   4.814   0.561
 6382SOL     OW20044   1.909   1.154   1.006
 6382SOL    HW120045   1.987   1.186   1.060
 6382SOL    HW220046   1.929   1.165   0.908
 6383SOL     OW20047   2.926   1.912   2.095
 6383SOL    HW120048   2.861   1.943   2.026
 6383SOL    HW220049   2.877   1.892   2.180
 6384SOL     OW20050   0.694   1.438   2.035
 6384SOL    HW120051   0.677   1.423   1.938
 6384SOL    HW220052   0.704   1.536   2.053
 6385SOL     OW20053   0.485   3.637   1.684
 6385SOL    HW120054   0.463   3.734   1.697
 6385SOL    HW220055   0.416   3.594   1.627
 6386SOL     OW20056   3.001   4.883   1.103
 6386SOL    HW120057   2.906   4.853   1.110
 6386SOL    HW220058   3.051   4.820   1.044
 6387SOL     OW20059   6.384   1.753   5.783
 6387SOL    HW120060   6.422   1.707   5.702
 6387SOL    HW220061   6.400   1.695   5.863
 6388SOL     OW20062   6.639   5.031   2.074
 6388SOL    HW120063   6.735   5.038   2.047
 6388SOL    HW220064   6.621   5.094   2.150
 6389SOL     OW20065   6.887   0.613   0.554
 6389SOL    HW120066   6.950   0.537   0.537
 6389SOL    HW220067   6.794   0.578   0.563
 6390SOL     OW20068   4.326   5.946   0.501
 6390SOL    HW120069   4.423   5.925   0.512
 6390SOL    HW220070   4.284   5.877   0.442
 6391SOL     OW20071   0.984   1.625   4.496
 6391SOL    HW120072   1.001   1.689   4.422
 6391SOL    HW220073   0.955   1.675   4.578
 6392SOL     OW20074   4.664   6.428   3.015
 6392SOL    HW120075   4.681   6.525   2.997
 6392SOL    HW220076   4.566   6.412   3.025
 6393SOL     OW20077   2.109   4.093   0.409
 6393SOL    HW120078   2.074   4.115   0.319
 6393SOL    HW220079   2.207   4.114   0.413
 6394SOL     OW20080   1.481   5.236   1.920
 6394SOL    HW120081   1.409   5.304   1.933
 6394SOL    HW220082   1.521   5.247   1.829
 6395SOL     OW20083   1.147   3.602   5.144
 6395SOL    HW120084   1.158   3.641   5.052
 6395SOL    HW220085   1.106   3.670   5.204
 6396SOL     OW20086   1.045   3.504   4.029
 6396SOL    HW120087   1.018   3.415   3.994
 6396SOL    HW220088   0.968   3.544   4.080
 6397SOL     OW20089   1.274   3.765   4.909
 6397SOL    HW120090   1.365   3.804   4.893
 6397SOL    HW220091   1.210   3.839   4.930
 6398SOL     OW20092   0.046   0.212   2.232
 6398SOL    HW120093   0.126   0.272   2.236
 6398SOL    HW220094   0.071   0.121   2.266
 6399SOL     OW20095   2.215   0.014   6.095
 6399SOL    HW120096   2.152   0.020   6.018
 6399SOL    HW220097   2.261   6.951   6.094
 6400SOL     OW20098   1.734   6.984   2.788
 6400SOL    HW120099   1.796   6.964   2.712
 6400SOL    HW220100   1.787   7.021   2.865
 6401SOL     OW20101   4.048   4.660   1.043
 6401SOL    HW120102   3.968   4.719   1.035
 6401SOL    HW220103   4.108   4.696   1.115
 6402SOL     OW20104   3.717   3.285   6.767
 6402SOL    HW120105   3.766   3.200   6.784
 6402SOL    HW220106   3.714   3.339   6.852
 6403SOL     OW20107   3.597   5.345   6.161
 6403SOL    HW120108   3.573   5.320   6.068
 6403SOL    HW220109   3.684   5.393   6.161
 6404SOL     OW20110   5.008   6.661   6.614
 6404SOL    HW120111   4.996   6.720   6.694
 6404SOL    HW220112   5.101   6.624   6.614
 6405SOL     OW20113   4.170   1.085   3.759
 6405SOL    HW120114   4.101   1.068   3.688
 6405SOL    HW220115   4.258   1.106   3.715
 6406SOL     OW20116   0.391   3.266   2.243
 6406SOL    HW120117   0.295   3.267   2.272
 6406SOL    HW220118   0.405   3.332   2.170
 6407SOL     OW20119   1.046   7.010   2.662
 6407SOL    HW120120   1.112   0.019   2.595
 6407SOL    HW220121   1.043   6.910   2.654
 6408SOL     OW20122   0.713   0.268   2.787
 6408SOL    HW120123   0.780   0.201   2.819
 6408SOL    HW220124   0.621   0.231   2.799
 6409SOL     OW20125   6.603   4.456   3.742
 6409SOL    HW120126   6.687   4.503   3.770
 6409SOL    HW220127   6.524   4.513   3.763
 6410SOL     OW20128   2.482   0.500   6.927
 6410SOL    HW120129   2.501   0.536   6.836
 6410SOL    HW220130   2.485   0.575   6.994
 6411SOL     OW20131   1.560   2.155   4.270
 6411SOL    HW120132   1.580   2.060   4.292
 6411SOL    HW220133   1.491   2.159   4.198
 6412SOL     OW20134   4.900   0.241   0.156
 6412SOL    HW120135   4.929   0.257   0.062
 6412SOL    HW220136   4.903   0.327   0.207
 6413SOL     OW20137   4.504   5.758   3.413
 6413SOL    HW120138   4.471   5.716   3.329
 6413SOL    HW220139   4.596   5.795   3.398
 6414SOL     OW20140   3.142   0.088   6.923
 6414SOL    HW120141   3.169   0.182   6.945
 6414SOL    HW220142   3.207   0.024   6.965
 6415SOL     OW20143   0.213   1.537   3.741
 6415SOL    HW120144   0.164   1.557   3.656
 6415SOL    HW220145   0.186   1.447   3.775
 6416SOL     OW20146   2.523   4.476   0.789
 6416SOL    HW120147   2.553   4.389   0.826
 6416SOL    HW220148   2.435   4.465   0.743
 6417SOL     OW20149   4.910   3.025   5.232
 6417SOL    HW120150   4.951   2.981   5.152
 6417SOL    HW220151   4.861   3.107   5.203
 6418SOL     OW20152   4.826   5.827   6.947
 6418SOL    HW120153   4.737   5.813   6.991
 6418SOL    HW220154   4.821   5.906   6.886
 6419SOL     OW20155   1.528   6.830   6.832
 6419SOL    HW120156   1.432   6.821   6.806
 6419SOL    HW220157   1.586   6.795   6.759
 6420SOL     OW20158   2.951   5.183   3.812
 6420SOL    HW120159   2.955   5.221   3.719
 6420SOL    HW220160   3.017   5.109   3.820
 6421SOL     OW20161   4.393   6.354   1.966
 6421SOL    HW120162   4.384   6.259   1.937
 6421SOL    HW220163   4.345   6.367   2.052
 6422SOL     OW20164   1.057   0.943   5.902
 6422SOL    HW120165   1.002   0.997   5.838
 6422SOL    HW220166   1.002   0.921   5.982
 6423SOL     OW20167   1.111   3.618   3.663
 6423SOL    HW120168   1.119   3.549   3.590
 6423SOL    HW220169   1.020   3.613   3.704
 6424SOL     OW20170   5.861   4.513   5.919
 6424SOL    HW120171   5.846   4.476   6.011
 6424SOL    HW220172   5.773   4.519   5.871
 6425SOL     OW20173   1.090   6.883   4.095
 6425SOL    HW120174   1.052   6.848   4.009
 6425SOL    HW220175   1.020   6.938   4.142
 6426SOL     OW20176   3.651   5.206   3.964
 6426SOL    HW120177   3.708   5.177   4.041
 6426SOL    HW220178   3.697   5.280   3.914
 6427SOL     OW20179   2.893   3.612   2.555
 6427SOL    HW120180   2.879   3.544   2.483
 6427SOL    HW220181   2.865   3.574   2.643
 6428SOL     OW20182   7.016   4.009   6.644
 6428SOL    HW120183   0.020   4.100   6.614
 6428SOL    HW220184   6.916   4.010   6.657
 6429SOL     OW20185   3.070   1.476   4.539
 6429SOL    HW120186   3.051   1.412   4.614
 6429SOL    HW220187   3.169   1.481   4.524
 6430SOL     OW20188   6.286   1.354   4.208
 6430SOL    HW120189   6.370   1.301   4.197
 6430SOL    HW220190   6.266   1.365   4.305
 6431SOL     OW20191   3.500   5.282   3.062
 6431SOL    HW120192   3.596   5.268   3.087
 6431SOL    HW220193   3.453   5.194   3.060
 6432SOL     OW20194   3.479   3.596   0.207
 6432SOL    HW120195   3.570   3.577   0.172
 6432SOL    HW220196   3.485   3.658   0.285
 6433SOL     OW20197   4.158   5.617   6.364
 6433SOL    HW120198   4.071   5.637   6.409
 6433SOL    HW220199   4.211   5.552   6.418
 6434SOL     OW20200   6.390   5.027   6.871
 6434SOL    HW120201   6.393   5.127   6.878
 6434SOL    HW220202   6.332   5.001   6.793
 6435SOL     OW20203   4.306   0.497   0.391
 6435SOL    HW120204   4.260   0.481   0.304
 6435SOL    HW220205   4.252   0.456   0.465
 6436SOL     OW20206   1.150   1.475   3.634
 6436SOL    HW120207   1.194   1.501   3.548
 6436SOL    HW220208   1.207   1.504   3.711
 6437SOL     OW20209   1.000   2.748   7.001
 6437SOL    HW120210   0.949   2.832   6.979
 6437SOL    HW220211   1.055   2.721   6.921
 6438SOL     OW20212   1.095   5.652   1.967
 6438SOL    HW120213   1.105   5.645   1.868
 6438SOL    HW220214   1.011   5.703   1.989
 6439SOL     OW20215   4.051   6.115   2.960
 6439SOL    HW120216   4.022   6.208   2.982
 6439SOL    HW220217   4.068   6.065   3.046
 6440SOL     OW20218   2.307   2.162   5.193
 6440SOL    HW120219   2.381   2.186   5.129
 6440SOL    HW220220   2.346   2.149   5.284
 6441SOL     OW20221   1.273   1.034   2.230
 6441SOL    HW120222   1.258   0.939   2.201
 6441SOL    HW220223   1.359   1.040   2.280
 6442SOL     OW20224   3.170   1.998   3.913
 6442SOL    HW120225   3.196   1.902   3.905
 6442SOL    HW220226   3.208   2.049   3.836
 6443SOL     OW20227   2.455   1.479   6.437
 6443SOL    HW120228   2.374   1.461   6.381
 6443SOL    HW220229   2.444   1.565   6.486
 6444SOL     OW20230   6.508   4.024   5.720
 6444SOL    HW120231   6.531   3.995   5.813
 6444SOL    HW220232   6.592   4.044   5.670
 6445SOL     OW20233   3.216   3.011   3.356
 6445SOL    HW120234   3.178   3.085   3.411
 6445SOL    HW220235   3.293   2.969   3.405
 6446SOL     OW20236   0.234   0.490   1.386
 6446SOL    HW120237   0.292   0.550   1.332
 6446SOL    HW220238   0.262   0.395   1.373
 6447SOL     OW20239   0.681   3.822   2.135
 6447SOL    HW120240   0.672   3.894   2.067
 6447SOL    HW220241   0.677   3.733   2.090
 6448SOL     OW20242   3.817   4.273   1.681
 6448SOL    HW120243   3.807   4.232   1.772
 6448SOL    HW220244   3.912   4.301   1.668
 6449SOL     OW20245   4.341   6.482   6.924
 6449SOL    HW120246   4.422   6.523   6.965
 6449SOL    HW220247   4.318   6.397   6.972
 6450SOL     OW20248   4.596   3.762   0.884
 6450SOL    HW120249   4.590   3.784   0.787
 6450SOL    HW220250   4.637   3.672   0.895
 6451SOL     OW20251   4.549   3.474   1.409
 6451SOL    HW120252   4.540   3.452   1.507
 6451SOL    HW220253   4.591   3.564   1.400
 6452SOL     OW20254   4.777   1.609   3.971
 6452SOL    HW120255   4.802   1.589   4.066
 6452SOL    HW220256   4.680   1.632   3.966
 6453SOL     OW20257   2.946   0.351   2.674
 6453SOL    HW120258   3.007   0.305   2.738
 6453SOL    HW220259   2.963   0.317   2.581
 6454SOL     OW20260   4.732   3.452   5.595
 6454SOL    HW120261   4.779   3.369   5.626
 6454SOL    HW220262   4.709   3.509   5.674
 6455SOL     OW20263   0.271   3.220   5.728
 6455SOL    HW120264   0.261   3.172   5.641
 6455SOL    HW220265   0.293   3.316   5.711
 6456SOL     OW20266   5.850   2.036   3.733
 6456SOL    HW120267   5.914   1.980   3.680
 6456SOL    HW220268   5.900   2.111   3.776
 6457SOL     OW20269   1.799   6.069   2.990
 6457SOL    HW120270   1.867   6.029   3.052
 6457SOL    HW220271   1.747   6.139   3.039
 6458SOL     OW20272   1.313   6.676   4.537
 6458SOL    HW120273   1.371   6.737   4.590
 6458SOL    HW220274   1.370   6.608   4.490
 6459SOL     OW20275   6.965   3.228   3.737
 6459SOL    HW120276   6.999   3.319   3.712
 6459SOL    HW220277   0.014   3.174   3.776
 6460SOL     OW20278   1.502   5.516   5.841
 6460SOL    HW120279   1.435   5.574   5.888
 6460SOL    HW220280   1.551   5.569   5.773
 6461SOL     OW20281   6.191   0.512   2.242
 6461SOL    HW120282   6.251   0.512   2.161
 6461SOL    HW220283   6.222   0.441   2.306
 6462SOL     OW20284   2.860   4.143   5.404
 6462SOL    HW120285   2.929   4.193   5.351
 6462SOL    HW220286   2.826   4.066   5.350
 6463SOL     OW20287   4.730   3.565   1.716
 6463SOL    HW120288   4.759   3.564   1.812
 6463SOL    HW220289   4.665   3.490   1.701
 6464SOL     OW20290   0.676   3.808   3.292
 6464SOL    HW120291   0.691   3.735   3.359
 6464SOL    HW220292   0.583   3.801   3.255
 6465SOL     OW20293   2.953   1.045   2.588
 6465SOL    HW120294   2.994   1.105   2.519
 6465SOL    HW220295   2.855   1.062   2.592
 6466SOL     OW20296   6.064   5.008   6.968
 6466SOL    HW120297   6.054   5.087   6.907
 6466SOL    HW220298   6.152   4.964   6.950
 6467SOL     OW20299   2.921   3.362   6.216
 6467SOL    HW120300   2.893   3.441   6.270
 6467SOL    HW220301   3.007   3.326   6.251
 6468SOL     OW20302   0.549   1.197   6.453
 6468SOL    HW120303   0.581   1.245   6.371
 6468SOL    HW220304   0.603   1.114   6.465
 6469SOL     OW20305   3.272   1.101   1.042
 6469SOL    HW120306   3.253   1.073   1.136
 6469SOL    HW220307   3.347   1.046   1.005
 6470SOL     OW20308   6.131   1.104   6.652
 6470SOL    HW120309   6.191   1.047   6.595
 6470SOL    HW220310   6.057   1.048   6.689
 6471SOL     OW20311   0.184   6.717   4.988
 6471SOL    HW120312   0.188   6.759   5.079
 6471SOL    HW220313   0.134   6.778   4.926
 6472SOL     OW20314   1.065   6.093   0.984
 6472SOL    HW120315   1.112   6.081   1.072
 6472SOL    HW220316   1.131   6.126   0.916
 6473SOL     OW20317   3.239   1.642   3.544
 6473SOL    HW120318   3.214   1.596   3.629
 6473SOL    HW220319   3.219   1.582   3.467
 6474SOL     OW20320   4.362   6.938   4.278
 6474SOL    HW120321   4.368   6.850   4.325
 6474SOL    HW220322   4.304   7.000   4.331
 6475SOL     OW20323   5.486   5.598   4.521
 6475SOL    HW120324   5.441   5.621   4.434
 6475SOL    HW220325   5.584   5.583   4.504
 6476SOL     OW20326   5.243   4.280   4.069
 6476SOL    HW120327   5.332   4.294   4.112
 6476SOL    HW220328   5.241   4.325   3.980
 6477SOL     OW20329   0.771   7.005   0.901
 6477SOL    HW120330   0.735   6.979   0.990
 6477SOL    HW220331   0.730   6.948   0.830
 6478SOL     OW20332   2.202   6.654   0.150
 6478SOL    HW120333   2.275   6.674   0.215
 6478SOL    HW220334   2.121   6.623   0.199
 6479SOL     OW20335   4.641   5.216   5.064
 6479SOL    HW120336   4.663   5.181   5.155
 6479SOL    HW220337   4.631   5.316   5.069
 6480SOL     OW20338   2.504   0.475   4.618
 6480SOL    HW120339   2.585   0.531   4.602
 6480SOL    HW220340   2.507   0.394   4.560
 6481SOL     OW20341   4.309   3.608   1.225
 6481SOL    HW120342   4.373   3.606   1.301
 6481SOL    HW220343   4.332   3.683   1.164
 6482SOL     OW20344   5.513   3.467   4.137
 6482SOL    HW120345   5.610   3.485   4.154
 6482SOL    HW220346   5.476   3.539   4.078
 6483SOL     OW20347   1.736   6.422   5.505
 6483SOL    HW120348   1.726   6.518   5.532
 6483SOL    HW220349   1.809   6.380   5.558
 6484SOL     OW20350   3.548   0.782   4.021
 6484SOL    HW120351   3.536   0.875   3.987
 6484SOL    HW220352   3.590   0.786   4.112
 6485SOL     OW20353   2.432   4.890   5.155
 6485SOL    HW120354   2.530   4.873   5.146
 6485SOL    HW220355   2.409   4.976   5.109
 6486SOL     OW20356   6.914   3.253   2.671
 6486SOL    HW120357   6.995   3.281   2.621
 6486SOL    HW220358   6.935   3.172   2.726
 6487SOL     OW20359   6.199   5.768   4.582
 6487SOL    HW120360   6.232   5.706   4.510
 6487SOL    HW220361   6.275   5.794   4.641
 6488SOL     OW20362   3.503   5.145   2.757
 6488SOL    HW120363   3.437   5.106   2.821
 6488SOL    HW220364   3.592   5.100   2.770
 6489SOL     OW20365   0.009   4.253   5.291
 6489SOL    HW120366   7.010   4.164   5.254
 6489SOL    HW220367   0.094   4.245   5.344
 6490SOL     OW20368   2.039   3.196   5.979
 6490SOL    HW120369   2.078   3.176   6.069
 6490SOL    HW220370   2.110   3.236   5.921
 6491SOL     OW20371   0.587   6.852   2.249
 6491SOL    HW120372   0.627   6.819   2.163
 6491SOL    HW220373   0.660   6.872   2.315
 6492SOL     OW20374   4.114   3.340   2.813
 6492SOL    HW120375   4.111   3.256   2.759
 6492SOL    HW220376   4.133   3.318   2.909
 6493SOL     OW20377   2.578   4.926   3.906
 6493SOL    HW120378   2.538   4.982   3.833
 6493SOL    HW220379   2.653   4.976   3.950
 6494SOL     OW20380   6.298   1.179   1.821
 6494SOL    HW120381   6.317   1.098   1.766
 6494SOL    HW220382   6.215   1.165   1.874
 6495SOL     OW20383   6.815   5.910   2.646
 6495SOL    HW120384   6.853   5.848   2.716
 6495SOL    HW220385   6.717   5.922   2.662
 6496SOL     OW20386   2.754   2.563   1.121
 6496SOL    HW120387   2.772   2.475   1.165
 6496SOL    HW220388   2.804   2.636   1.168
 6497SOL     OW20389   0.134   3.371   0.904
 6497SOL    HW120390   0.147   3.275   0.881
 6497SOL    HW220391   0.076   3.378   0.985
 6498SOL     OW20392   2.862   4.921   4.611
 6498SOL    HW120393   2.800   4.891   4.539
 6498SOL    HW220394   2.882   5.019   4.599
 6499SOL     OW20395   5.315   1.803   2.934
 6499SOL    HW120396   5.263   1.722   2.908
 6499SOL    HW220397   5.260   1.885   2.919
 6500SOL     OW20398   1.814   3.768   2.608
 6500SOL    HW120399   1.780   3.861   2.596
 6500SOL    HW220400   1.912   3.770   2.627
 6501SOL     OW20401   6.161   0.666   2.948
 6501SOL    HW120402   6.233   0.673   2.878
 6501SOL    HW220403   6.072   0.672   2.904
 6502SOL     OW20404   0.686   3.028   2.991
 6502SOL    HW120405   0.627   3.092   2.943
 6502SOL    HW220406   0.677   2.937   2.951
 6503SOL     OW20407   0.957   3.040   5.763
 6503SOL    HW120408   0.874   3.090   5.789
 6503SOL    HW220409   1.013   3.095   5.702
 6504SOL     OW20410   4.014   6.514   5.884
 6504SOL    HW120411   4.061   6.601   5.898
 6504SOL    HW220412   4.049   6.469   5.802
 6505SOL     OW20413   0.505   6.940   0.104
 6505SOL    HW120414   0.463   7.011   0.162
 6505SOL    HW220415   0.586   6.978   0.059
 6506SOL     OW20416   1.141   5.327   2.174
 6506SOL    HW120417   1.201   5.248   2.157
 6506SOL    HW220418   1.154   5.395   2.103
 6507SOL     OW20419   5.307   5.213   0.664
 6507SOL    HW120420   5.249   5.264   0.600
 6507SOL    HW220421   5.277   5.230   0.758
 6508SOL     OW20422   6.708   1.546   4.596
 6508SOL    HW120423   6.779   1.575   4.531
 6508SOL    HW220424   6.727   1.452   4.626
 6509SOL     OW20425   2.683   1.764   6.392
 6509SOL    HW120426   2.661   1.741   6.297
 6509SOL    HW220427   2.620   1.833   6.425
 6510SOL     OW20428   4.266   5.038   4.362
 6510SOL    HW120429   4.187   5.091   4.392
 6510SOL    HW220430   4.325   5.020   4.440
 6511SOL     OW20431   3.732   3.003   0.018
 6511SOL    HW120432   3.725   3.100   0.041
 6511SOL    HW220433   3.647   2.973   7.000
 6512SOL     OW20434   5.319   1.563   2.386
 6512SOL    HW120435   5.263   1.622   2.444
 6512SOL    HW220436   5.289   1.468   2.397
 6513SOL     OW20437   3.326   4.339   1.219
 6513SOL    HW120438   3.305   4.245   1.244
 6513SOL    HW220439   3.414   4.366   1.259
 6514SOL     OW20440   5.683   5.570   5.364
 6514SOL    HW120441   5.757   5.533   5.308
 6514SOL    HW220442   5.720   5.638   5.427
 6515SOL     OW20443   0.528   4.700   1.905
 6515SOL    HW120444   0.552   4.722   2.000
 6515SOL    HW220445   0.449   4.755   1.877
 6516SOL     OW20446   5.942   1.181   3.761
 6516SOL    HW120447   5.972   1.276   3.771
 6516SOL    HW220448   5.843   1.176   3.773
 6517SOL     OW20449   0.022   3.754   1.393
 6517SOL    HW120450   0.039   3.853   1.391
 6517SOL    HW220451   0.109   3.705   1.398
 6518SOL     OW20452   1.323   1.551   2.692
 6518SOL    HW120453   1.227   1.576   2.681
 6518SOL    HW220454   1.338   1.515   2.784
 6519SOL     OW20455   2.232   1.911   3.127
 6519SOL    HW120456   2.255   1.857   3.046
 6519SOL    HW220457   2.265   2.005   3.115
 6520SOL     OW20458   5.767   6.881   6.650
 6520SOL    HW120459   5.813   6.918   6.570
 6520SOL    HW220460   5.723   6.955   6.701
 6521SOL     OW20461   1.942   4.738   4.548
 6521SOL    HW120462   1.996   4.661   4.514
 6521SOL    HW220463   1.993   4.787   4.619
 6522SOL     OW20464   2.627   3.131   5.370
 6522SOL    HW120465   2.552   3.159   5.431
 6522SOL    HW220466   2.590   3.073   5.297
 6523SOL     OW20467   4.753   6.815   0.894
 6523SOL    HW120468   4.731   6.727   0.938
 6523SOL    HW220469   4.820   6.864   0.951
 6524SOL     OW20470   3.937   2.390   1.130
 6524SOL    HW120471   3.854   2.407   1.077
 6524SOL    HW220472   3.912   2.349   1.218
 6525SOL     OW20473   3.150   5.181   3.607
 6525SOL    HW120474   3.164   5.082   3.618
 6525SOL    HW220475   3.177   5.228   3.691
 6526SOL     OW20476   6.179   6.557   0.529
 6526SOL    HW120477   6.222   6.515   0.449
 6526SOL    HW220478   6.083   6.529   0.533
 6527SOL     OW20479   5.485   2.502   0.962
 6527SOL    HW120480   5.498   2.485   1.060
 6527SOL    HW220481   5.441   2.423   0.920
 6528SOL     OW20482   4.550   0.251   0.842
 6528SOL    HW120483   4.631   0.294   0.802
 6528SOL    HW220484   4.577   0.172   0.896
 6529SOL     OW20485   3.378   6.050   1.322
 6529SOL    HW120486   3.349   5.955   1.309
 6529SOL    HW220487   3.334   6.087   1.404
 6530SOL     OW20488   0.992   3.054   4.389
 6530SOL    HW120489   1.008   3.026   4.294
 6530SOL    HW220490   1.073   3.035   4.444
 6531SOL     OW20491   2.951   3.247   4.168
 6531SOL    HW120492   2.948   3.330   4.113
 6531SOL    HW220493   3.008   3.179   4.122
 6532SOL     OW20494   0.637   5.964   6.863
 6532SOL    HW120495   0.573   5.920   6.801
 6532SOL    HW220496   0.642   6.062   6.843
 6533SOL     OW20497   5.859   5.310   1.318
 6533SOL    HW120498   5.823   5.374   1.251
 6533SOL    HW220499   5.824   5.218   1.298
 6534SOL     OW20500   6.367   2.952   4.545
 6534SOL    HW120501   6.355   2.957   4.645
 6534SOL    HW220502   6.366   2.856   4.517
 6535SOL     OW20503   5.460   3.259   6.663
 6535SOL    HW120504   5.518   3.207   6.600
 6535SOL    HW220505   5.518   3.310   6.727
 6536SOL     OW20506   6.806   5.876   5.843
 6536SOL    HW120507   6.899   5.845   5.827
 6536SOL    HW220508   6.797   5.910   5.937
 6537SOL     OW20509   6.701   4.959   4.015
 6537SOL    HW120510   6.792   4.938   3.980
 6537SOL    HW220511   6.706   5.041   4.072
 6538SOL     OW20512   1.434   4.223   3.914
 6538SOL    HW120513   1.369   4.252   3.984
 6538SOL    HW220514   1.514   4.283   3.917
 6539SOL     OW20515   5.679   6.332   5.807
 6539SOL    HW120516   5.661   6.396   5.732
 6539SOL    HW220517   5.778   6.325   5.821
 6540SOL     OW20518   0.777   3.185   5.363
 6540SOL    HW120519   0.716   3.174   5.285
 6540SOL    HW220520   0.767   3.106   5.424
 6541SOL     OW20521   3.298   1.778   6.120
 6541SOL    HW120522   3.219   1.835   6.138
 6541SOL    HW220523   3.273   1.703   6.058
 6542SOL     OW20524   1.899   5.002   1.487
 6542SOL    HW120525   1.980   5.030   1.540
 6542SOL    HW220526   1.925   4.933   1.421
 6543SOL     OW20527   4.330   1.957   3.631
 6543SOL    HW120528   4.327   1.869   3.585
 6543SOL    HW220529   4.420   1.969   3.674
 6544SOL     OW20530   1.038   1.310   1.082
 6544SOL    HW120531   1.107   1.286   1.151
 6544SOL    HW220532   1.077   1.296   0.991
 6545SOL     OW20533   6.483   4.348   0.555
 6545SOL    HW120534   6.469   4.345   0.654
 6545SOL    HW220535   6.394   4.354   0.509
 6546SOL     OW20536   4.293   5.812   4.239
 6546SOL    HW120537   4.263   5.739   4.300
 6546SOL    HW220538   4.324   5.772   4.153
 6547SOL     OW20539   6.713   6.145   4.812
 6547SOL    HW120540   6.705   6.112   4.906
 6547SOL    HW220541   6.800   6.192   4.800
 6548SOL     OW20542   1.846   0.848   5.020
 6548SOL    HW120543   1.941   0.853   5.051
 6548SOL    HW220544   1.816   0.752   5.019
 6549SOL     OW20545   2.284   1.925   2.060
 6549SOL    HW120546   2.370   1.874   2.050
 6549SOL    HW220547   2.210   1.872   2.018
 6550SOL     OW20548   5.514   0.632   1.990
 6550SOL    HW120549   5.457   0.689   2.048
 6550SOL    HW220550   5.597   0.606   2.039
 6551SOL     OW20551   2.449   5.784   1.050
 6551SOL    HW120552   2.419   5.696   1.084
 6551SOL    HW220553   2.375   5.850   1.057
 6552SOL     OW20554   2.135   3.552   6.670
 6552SOL    HW120555   2.085   3.469   6.649
 6552SOL    HW220556   2.072   3.622   6.704
 6553SOL     OW20557   0.545   1.758   3.272
 6553SOL    HW120558   0.458   1.709   3.260
 6553SOL    HW220559   0.547   1.799   3.364
 6554SOL     OW20560   2.610   1.453   4.292
 6554SOL    HW120561   2.652   1.426   4.379
 6554SOL    HW220562   2.670   1.425   4.217
 6555SOL     OW20563   2.090   3.568   1.754
 6555SOL    HW120564   2.118   3.523   1.669
 6555SOL    HW220565   2.124   3.516   1.832
 6556SOL     OW20566   4.880   3.015   3.737
 6556SOL    HW120567   4.977   2.990   3.740
 6556SOL    HW220568   4.826   2.935   3.709
 6557SOL     OW20569   1.966   6.932   2.603
 6557SOL    HW120570   1.983   6.983   2.687
 6557SOL    HW220571   2.035   6.861   2.592
 6558SOL     OW20572   4.868   5.989   0.558
 6558SOL    HW120573   4.959   6.011   0.523
 6558SOL    HW220574   4.810   5.958   0.484
 6559SOL     OW20575   0.163   1.892   6.252
 6559SOL    HW120576   0.140   1.939   6.337
 6559SOL    HW220577   0.111   1.806   6.246
 6560SOL     OW20578   6.916   4.004   6.186
 6560SOL    HW120579   6.984   3.982   6.256
 6560SOL    HW220580   6.935   4.095   6.149
 6561SOL     OW20581   2.504   5.507   6.918
 6561SOL    HW120582   2.509   5.571   6.995
 6561SOL    HW220583   2.586   5.451   6.917
 6562SOL     OW20584   5.151   2.832   1.217
 6562SOL    HW120585   5.124   2.922   1.253
 6562SOL    HW220586   5.212   2.845   1.139
 6563SOL     OW20587   5.792   4.105   6.241
 6563SOL    HW120588   5.707   4.154   6.222
 6563SOL    HW220589   5.816   4.117   6.338
 6564SOL     OW20590   6.113   3.825   2.567
 6564SOL    HW120591   6.115   3.730   2.538
 6564SOL    HW220592   6.126   3.830   2.666
 6565SOL     OW20593   5.368   5.251   1.826
 6565SOL    HW120594   5.391   5.277   1.732
 6565SOL    HW220595   5.451   5.251   1.882
 6566SOL     OW20596   5.627   6.062   4.949
 6566SOL    HW120597   5.706   6.002   4.947
 6566SOL    HW220598   5.557   6.023   5.008
 6567SOL     OW20599   2.688   0.234   2.399
 6567SOL    HW120600   2.744   0.237   2.481
 6567SOL    HW220601   2.712   0.153   2.345
 6568SOL     OW20602   5.298   1.704   0.979
 6568SOL    HW120603   5.381   1.650   0.996
 6568SOL    HW220604   5.319   1.777   0.914
 6569SOL     OW20605   1.229   4.101   3.463
 6569SOL    HW120606   1.192   4.014   3.496
 6569SOL    HW220607   1.299   4.134   3.526
 6570SOL     OW20608   4.391   0.097   2.297
 6570SOL    HW120609   4.360   0.163   2.228
 6570SOL    HW220610   4.436   0.020   2.252
 6571SOL     OW20611   2.210   6.806   3.466
 6571SOL    HW120612   2.136   6.739   3.472
 6571SOL    HW220613   2.292   6.762   3.430
 6572SOL     OW20614   0.692   0.041   4.059
 6572SOL    HW120615   0.619   0.080   4.115
 6572SOL    HW220616   0.780   0.054   4.105
 6573SOL     OW20617   1.102   2.000   3.274
 6573SOL    HW120618   1.042   2.055   3.215
 6573SOL    HW220619   1.145   1.928   3.219
 6574SOL     OW20620   1.538   5.351   1.357
 6574SOL    HW120621   1.454   5.318   1.314
 6574SOL    HW220622   1.529   5.448   1.380
 6575SOL     OW20623   0.102   0.668   4.279
 6575SOL    HW120624   0.101   0.568   4.277
 6575SOL    HW220625   0.031   0.701   4.341
 6576SOL     OW20626   4.192   0.583   3.170
 6576SOL    HW120627   4.230   0.508   3.115
 6576SOL    HW220628   4.227   0.670   3.136
 6577SOL     OW20629   3.067   0.728   5.496
 6577SOL    HW120630   3.085   0.809   5.552
 6577SOL    HW220631   3.150   0.704   5.446
 6578SOL     OW20632   0.673   5.911   0.694
 6578SOL    HW120633   0.770   5.902   0.715
 6578SOL    HW220634   0.659   5.903   0.595
 6579SOL     OW20635   2.308   1.934   2.613
 6579SOL    HW120636   2.340   1.990   2.536
 6579SOL    HW220637   2.386   1.884   2.652
 6580SOL     OW20638   3.049   2.472   6.821
 6580SOL    HW120639   3.054   2.375   6.799
 6580SOL    HW220640   3.066   2.485   6.918
 6581SOL     OW20641   0.885   2.006   2.204
 6581SOL    HW120642   0.893   1.961   2.115
 6581SOL    HW220643   0.927   1.948   2.274
 6582SOL     OW20644   3.804   6.612   3.056
 6582SOL    HW120645   3.787   6.547   3.130
 6582SOL    HW220646   3.901   6.636   3.056
 6583SOL     OW20647   2.050   4.621   0.357
 6583SOL    HW120648   2.003   4.533   0.354
 6583SOL    HW220649   1.984   4.693   0.375
 6584SOL     OW20650   4.848   3.541   5.363
 6584SOL    HW120651   4.800   3.491   5.435
 6584SOL    HW220652   4.783   3.568   5.292
 6585SOL     OW20653   4.995   6.245   1.750
 6585SOL    HW120654   5.041   6.161   1.777
 6585SOL    HW220655   4.975   6.300   1.832
 6586SOL     OW20656   6.420   1.892   0.009
 6586SOL    HW120657   6.509   1.863   7.000
 6586SOL    HW220658   6.432   1.935   0.099
 6587SOL     OW20659   2.696   4.819   5.146
 6587SOL    HW120660   2.756   4.761   5.092
 6587SOL    HW220661   2.737   4.836   5.236
 6588SOL     OW20662   1.558   2.454   0.355
 6588SOL    HW120663   1.624   2.507   0.409
 6588SOL    HW220664   1.538   2.503   0.271
 6589SOL     OW20665   5.986   0.992   6.932
 6589SOL    HW120666   6.016   1.039   7.015
 6589SOL    HW220667   5.978   0.894   6.950
 6590SOL     OW20668   0.338   5.982   4.333
 6590SOL    HW120669   0.394   5.951   4.409
 6590SOL    HW220670   0.285   6.063   4.360
 6591SOL     OW20671   6.195   3.632   3.450
 6591SOL    HW120672   6.161   3.548   3.409
 6591SOL    HW220673   6.119   3.696   3.464
 6592SOL     OW20674   0.712   0.419   4.114
 6592SOL    HW120675   0.670   0.510   4.121
 6592SOL    HW220676   0.690   0.366   4.195
 6593SOL     OW20677   0.443   6.575   3.729
 6593SOL    HW120678   0.389   6.633   3.667
 6593SOL    HW220679   0.437   6.611   3.822
 6594SOL     OW20680   5.488   6.885   6.282
 6594SOL    HW120681   5.475   6.792   6.246
 6594SOL    HW220682   5.459   6.952   6.214
 6595SOL     OW20683   0.481   6.694   4.618
 6595SOL    HW120684   0.449   6.759   4.686
 6595SOL    HW220685   0.561   6.732   4.571
 6596SOL     OW20686   4.553   0.754   3.292
 6596SOL    HW120687   4.522   0.764   3.197
 6596SOL    HW220688   4.651   0.736   3.293
 6597SOL     OW20689   0.823   5.210   1.816
 6597SOL    HW120690   0.729   5.210   1.780
 6597SOL    HW220691   0.821   5.191   1.914
 6598SOL     OW20692   1.607   5.357   1.685
 6598SOL    HW120693   1.688   5.298   1.689
 6598SOL    HW220694   1.635   5.452   1.701
 6599SOL     OW20695   0.464   5.586   0.783
 6599SOL    HW120696   0.557   5.560   0.810
 6599SOL    HW220697   0.445   5.552   0.691
 6600SOL     OW20698   5.189   0.157   4.593
 6600SOL    HW120699   5.289   0.148   4.596
 6600SOL    HW220700   5.154   0.109   4.513
 6601SOL     OW20701   1.107   2.027   3.674
 6601SOL    HW120702   1.143   2.060   3.761
 6601SOL    HW220703   1.145   2.081   3.599
 6602SOL     OW20704   6.143   6.405   0.777
 6602SOL    HW120705   6.132   6.476   0.707
 6602SOL    HW220706   6.238   6.374   0.779
 6603SOL     OW20707   6.936   4.782   2.709
 6603SOL    HW120708   6.897   4.800   2.618
 6603SOL    HW220709   6.869   4.804   2.779
 6604SOL     OW20710   2.357   4.697   2.699
 6604SOL    HW120711   2.411   4.694   2.615
 6604SOL    HW220712   2.338   4.604   2.731
 6605SOL     OW20713   6.784   5.563   0.713
 6605SOL    HW120714   6.774   5.604   0.804
 6605SOL    HW220715   6.876   5.580   0.679
 6606SOL     OW20716   1.012   5.411   3.465
 6606SOL    HW120717   0.969   5.487   3.513
 6606SOL    HW220718   1.050   5.444   3.379
 6607SOL     OW20719   0.697   2.763   4.265
 6607SOL    HW120720   0.750   2.802   4.190
 6607SOL    HW220721   0.600   2.778   4.248
 6608SOL     OW20722   0.990   6.910   4.989
 6608SOL    HW120723   0.897   6.920   4.954
 6608SOL    HW220724   1.002   6.818   5.025
 6609SOL     OW20725   2.563   2.143   6.980
 6609SOL    HW120726   2.595   2.202   6.905
 6609SOL    HW220727   2.571   2.047   6.953
 6610SOL     OW20728   3.133   5.218   0.103
 6610SOL    HW120729   3.200   5.292   0.093
 6610SOL    HW220730   3.081   5.232   0.187
 6611SOL     OW20731   2.666   0.762   4.790
 6611SOL    HW120732   2.742   0.806   4.741
 6611SOL    HW220733   2.581   0.775   4.738
 6612SOL     OW20734   5.754   0.625   0.007
 6612SOL    HW120735   5.851   0.599   0.004
 6612SOL    HW220736   5.746   0.723   0.026
 6613SOL     OW20737   5.442   6.192   0.780
 6613SOL    HW120738   5.517   6.201   0.845
 6613SOL    HW220739   5.452   6.260   0.708
 6614SOL     OW20740   4.094   5.872   0.812
 6614SOL    HW120741   4.155   5.928   0.756
 6614SOL    HW220742   4.000   5.880   0.778
 6615SOL     OW20743   3.644   5.856   5.843
 6615SOL    HW120744   3.675   5.847   5.748
 6615SOL    HW220745   3.571   5.791   5.861
 6616SOL     OW20746   4.016   2.128   6.794
 6616SOL    HW120747   3.974   2.189   6.861
 6616SOL    HW220748   4.105   2.165   6.766
 6617SOL     OW20749   4.249   1.936   4.201
 6617SOL    HW120750   4.215   1.941   4.107
 6617SOL    HW220751   4.172   1.927   4.264
 6618SOL     OW20752   6.124   2.632   3.753
 6618SOL    HW120753   6.046   2.578   3.721
 6618SOL    HW220754   6.129   2.626   3.853
 6619SOL     OW20755   4.926   5.145   3.562
 6619SOL    HW120756   4.896   5.165   3.656
 6619SOL    HW220757   4.981   5.062   3.562
 6620SOL     OW20758   1.361   2.820   4.210
 6620SOL    HW120759   1.306   2.904   4.204
 6620SOL    HW220760   1.444   2.839   4.262
 6621SOL     OW20761   3.592   3.824   3.457
 6621SOL    HW120762   3.649   3.883   3.513
 6621SOL    HW220763   3.516   3.876   3.420
 6622SOL     OW20764   0.051   4.942   1.083
 6622SOL    HW120765   0.107   4.997   1.145
 6622SOL    HW220766   7.023   5.002   1.025
 6623SOL     OW20767   3.440   3.856   4.076
 6623SOL    HW120768   3.535   3.827   4.091
 6623SOL    HW220769   3.388   3.844   4.161
 6624SOL     OW20770   2.568   2.306   2.587
 6624SOL    HW120771   2.614   2.283   2.672
 6624SOL    HW220772   2.636   2.328   2.517
 6625SOL     OW20773   1.147   5.576   6.353
 6625SOL    HW120774   1.231   5.586   6.299
 6625SOL    HW220775   1.148   5.643   6.428
 6626SOL     OW20776   3.502   6.216   5.864
 6626SOL    HW120777   3.413   6.173   5.878
 6626SOL    HW220778   3.538   6.248   5.953
 6627SOL     OW20779   2.542   0.217   4.513
 6627SOL    HW120780   2.469   0.214   4.445
 6627SOL    HW220781   2.516   0.161   4.592
 6628SOL     OW20782   4.110   6.602   3.517
 6628SOL    HW120783   4.036   6.568   3.575
 6628SOL    HW220784   4.183   6.639   3.575
 6629SOL     OW20785   5.162   5.596   5.277
 6629SOL    HW120786   5.123   5.514   5.319
 6629SOL    HW220787   5.108   5.621   5.196
 6630SOL     OW20788   1.561   0.090   0.795
 6630SOL    HW120789   1.543   7.021   0.769
 6630SOL    HW220790   1.588   0.142   0.715
 6631SOL     OW20791   1.896   1.718   5.395
 6631SOL    HW120792   1.891   1.809   5.355
 6631SOL    HW220793   1.902   1.650   5.322
 6632SOL     OW20794   1.137   0.730   5.778
 6632SOL    HW120795   1.095   0.814   5.812
 6632SOL    HW220796   1.208   0.752   5.711
 6633SOL     OW20797   5.211   0.472   5.802
 6633SOL    HW120798   5.241   0.456   5.708
 6633SOL    HW220799   5.114   0.447   5.811
 6634SOL     OW20800   2.910   2.260   4.101
 6634SOL    HW120801   2.992   2.304   4.137
 6634SOL    HW220802   2.925   2.236   4.005
 6635SOL     OW20803   4.605   5.516   6.249
 6635SOL    HW120804   4.520   5.505   6.197
 6635SOL    HW220805   4.666   5.578   6.200
 6636SOL     OW20806   4.936   1.828   1.204
 6636SOL    HW120807   4.848   1.842   1.158
 6636SOL    HW220808   5.009   1.872   1.153
 6637SOL     OW20809   0.427   3.683   0.124
 6637SOL    HW120810   0.346   3.740   0.109
 6637SOL    HW220811   0.508   3.742   0.133
 6638SOL     OW20812   3.278   3.462   4.281
 6638SOL    HW120813   3.261   3.540   4.340
 6638SOL    HW220814   3.194   3.435   4.235
 6639SOL     OW20815   6.322   2.149   2.951
 6639SOL    HW120816   6.418   2.155   2.926
 6639SOL    HW220817   6.303   2.060   2.992
 6640SOL     OW20818   0.293   3.182   4.276
 6640SOL    HW120819   0.334   3.263   4.318
 6640SOL    HW220820   0.251   3.126   4.347
 6641SOL     OW20821   5.533   2.266   0.415
 6641SOL    HW120822   5.481   2.189   0.378
 6641SOL    HW220823   5.471   2.328   0.464
 6642SOL     OW20824   0.698   4.979   6.615
 6642SOL    HW120825   0.602   4.960   6.594
 6642SOL    HW220826   0.738   4.902   6.664
 6643SOL     OW20827   6.415   5.589   5.889
 6643SOL    HW120828   6.478   5.665   5.877
 6643SOL    HW220829   6.377   5.562   5.800
 6644SOL     OW20830   2.227   6.740   3.191
 6644SOL    HW120831   2.189   6.808   3.254
 6644SOL    HW220832   2.279   6.672   3.243
 6645SOL     OW20833   4.795   2.730   5.631
 6645SOL    HW120834   4.840   2.731   5.542
 6645SOL    HW220835   4.697   2.718   5.619
 6646SOL     OW20836   4.120   6.751   5.890
 6646SOL    HW120837   4.141   6.757   5.987
 6646SOL    HW220838   4.195   6.789   5.836
 6647SOL     OW20839   3.255   5.102   0.491
 6647SOL    HW120840   3.218   5.193   0.472
 6647SOL    HW220841   3.183   5.045   0.532
 6648SOL     OW20842   3.177   6.266   4.818
 6648SOL    HW120843   3.188   6.330   4.895
 6648SOL    HW220844   3.080   6.255   4.798
 6649SOL     OW20845   5.381   1.935   5.509
 6649SOL    HW120846   5.466   1.942   5.456
 6649SOL    HW220847   5.386   1.856   5.570
 6650SOL     OW20848   2.807   0.804   4.468
 6650SOL    HW120849   2.827   0.778   4.373
 6650SOL    HW220850   2.776   0.724   4.519
 6651SOL     OW20851   6.030   1.462   3.728
 6651SOL    HW120852   6.105   1.405   3.693
 6651SOL    HW220853   5.993   1.517   3.653
 6652SOL     OW20854   6.873   4.892   7.004
 6652SOL    HW120855   6.965   4.880   6.966
 6652SOL    HW220856   6.853   4.990   7.013
 6653SOL     OW20857   5.548   3.477   6.866
 6653SOL    HW120858   5.612   3.493   6.941
 6653SOL    HW220859   5.580   3.524   6.784
 6654SOL     OW20860   0.060   1.928   3.223
 6654SOL    HW120861   0.010   1.966   3.146
 6654SOL    HW220862   0.127   1.995   3.256
 6655SOL     OW20863   6.531   5.275   1.415
 6655SOL    HW120864   6.452   5.328   1.446
 6655SOL    HW220865   6.613   5.331   1.419
 6656SOL     OW20866   5.945   1.789   2.545
 6656SOL    HW120867   5.929   1.765   2.449
 6656SOL    HW220868   6.041   1.812   2.558
 6657SOL     OW20869   5.362   1.903   3.872
 6657SOL    HW120870   5.440   1.883   3.813
 6657SOL    HW220871   5.311   1.818   3.889
 6658SOL     OW20872   6.271   4.884   3.589
 6658SOL    HW120873   6.187   4.829   3.594
 6658SOL    HW220874   6.349   4.828   3.618
 6659SOL     OW20875   0.733   6.392   0.916
 6659SOL    HW120876   0.753   6.490   0.906
 6659SOL    HW220877   0.716   6.352   0.826
 6660SOL     OW20878   1.655   0.763   3.538
 6660SOL    HW120879   1.706   0.786   3.621
 6660SOL    HW220880   1.567   0.722   3.563
 6661SOL     OW20881   3.539   6.565   3.337
 6661SOL    HW120882   3.457   6.619   3.320
 6661SOL    HW220883   3.542   6.488   3.273
 6662SOL     OW20884   3.798   5.824   1.196
 6662SOL    HW120885   3.777   5.904   1.252
 6662SOL    HW220886   3.733   5.751   1.218
 6663SOL     OW20887   1.445   4.924   5.958
 6663SOL    HW120888   1.542   4.905   5.972
 6663SOL    HW220889   1.413   4.879   5.875
 6664SOL     OW20890   2.841   6.876   1.561
 6664SOL    HW120891   2.881   6.797   1.608
 6664SOL    HW220892   2.911   6.946   1.549
 6665SOL     OW20893   2.913   0.085   0.053
 6665SOL    HW120894   2.948   0.120   0.141
 6665SOL    HW220895   2.989   0.074   7.016
 6666SOL     OW20896   2.633   0.178   0.143
 6666SOL    HW120897   2.706   0.225   0.093
 6666SOL    HW220898   2.664   0.161   0.237
 6667SOL     OW20899   1.539   5.387   0.128
 6667SOL    HW120900   1.585   5.383   0.217
 6667SOL    HW220901   1.496   5.476   0.117
 6668SOL     OW20902   6.763   3.360   5.857
 6668SOL    HW120903   6.695   3.290   5.837
 6668SOL    HW220904   6.852   3.331   5.820
 6669SOL     OW20905   0.879   3.837   3.496
 6669SOL    HW120906   0.846   3.811   3.587
 6669SOL    HW220907   0.802   3.865   3.439
 6670SOL     OW20908   2.049   3.841   0.944
 6670SOL    HW120909   2.079   3.936   0.937
 6670SOL    HW220910   2.087   3.800   1.027
 6671SOL     OW20911   5.577   5.143   0.328
 6671SOL    HW120912   5.634   5.188   0.260
 6671SOL    HW220913   5.530   5.212   0.383
 6672SOL     OW20914   1.858   2.422   1.003
 6672SOL    HW120915   1.796   2.490   0.966
 6672SOL    HW220916   1.895   2.366   0.929
 6673SOL     OW20917   5.521   3.825   4.200
 6673SOL    HW120918   5.620   3.828   4.195
 6673SOL    HW220919   5.487   3.751   4.141
 6674SOL     OW20920   6.335   1.518   6.901
 6674SOL    HW120921   6.286   1.476   6.825
 6674SOL    HW220922   6.276   1.584   6.947
 6675SOL     OW20923   5.392   1.040   0.929
 6675SOL    HW120924   5.468   0.979   0.953
 6675SOL    HW220925   5.395   1.060   0.831
 6676SOL     OW20926   0.646   3.666   5.247
 6676SOL    HW120927   0.569   3.686   5.307
 6676SOL    HW220928   0.688   3.579   5.274
 6677SOL     OW20929   0.441   2.148   0.308
 6677SOL    HW120930   0.500   2.229   0.304
 6677SOL    HW220931   0.494   2.068   0.336
 6678SOL     OW20932   3.205   4.213   6.716
 6678SOL    HW120933   3.164   4.215   6.624
 6678SOL    HW220934   3.299   4.180   6.709
 6679SOL     OW20935   1.579   6.539   3.266
 6679SOL    HW120936   1.615   6.578   3.351
 6679SOL    HW220937   1.574   6.611   3.196
 6680SOL     OW20938   5.877   5.241   1.794
 6680SOL    HW120939   5.910   5.156   1.835
 6680SOL    HW220940   5.935   5.317   1.821
 6681SOL     OW20941   3.019   6.494   0.722
 6681SOL    HW120942   2.991   6.488   0.627
 6681SOL    HW220943   3.000   6.407   0.768
 6682SOL     OW20944   1.826   5.045   6.138
 6682SOL    HW120945   1.833   4.968   6.201
 6682SOL    HW220946   1.908   5.049   6.080
 6683SOL     OW20947   6.405   6.632   6.127
 6683SOL    HW120948   6.415   6.712   6.186
 6683SOL    HW220949   6.371   6.661   6.037
 6684SOL     OW20950   3.030   0.220   5.767
 6684SOL    HW120951   3.125   0.192   5.758
 6684SOL    HW220952   2.981   0.155   5.825
 6685SOL     OW20953   3.991   3.298   0.580
 6685SOL    HW120954   3.994   3.299   0.680
 6685SOL    HW220955   4.085   3.299   0.544
 6686SOL     OW20956   4.208   4.789   5.439
 6686SOL    HW120957   4.171   4.699   5.461
 6686SOL    HW220958   4.237   4.791   5.344
 6687SOL     OW20959   0.135   2.620   1.148
 6687SOL    HW120960   0.207   2.621   1.218
 6687SOL    HW220961   0.065   2.553   1.173
 6688SOL     OW20962   5.769   6.143   0.248
 6688SOL    HW120963   5.744   6.093   0.331
 6688SOL    HW220964   5.687   6.158   0.193
 6689SOL     OW20965   3.792   4.672   5.654
 6689SOL    HW120966   3.865   4.739   5.647
 6689SOL    HW220967   3.815   4.592   5.598
 6690SOL     OW20968   0.656   0.582   0.064
 6690SOL    HW120969   0.663   0.572   6.991
 6690SOL    HW220970   0.586   0.649   0.087
 6691SOL     OW20971   2.378   2.154   2.432
 6691SOL    HW120972   2.444   2.216   2.474
 6691SOL    HW220973   2.306   2.207   2.388
 6692SOL     OW20974   4.169   6.596   2.471
 6692SOL    HW120975   4.071   6.587   2.454
 6692SOL    HW220976   4.218   6.593   2.383
 6693SOL     OW20977   3.062   1.274   6.206
 6693SOL    HW120978   3.112   1.216   6.142
 6693SOL    HW220979   2.973   1.298   6.167
 6694SOL     OW20980   4.688   4.092   1.774
 6694SOL    HW120981   4.607   4.149   1.787
 6694SOL    HW220982   4.672   4.029   1.698
 6695SOL     OW20983   3.008   1.991   0.019
 6695SOL    HW120984   2.984   2.087   0.008
 6695SOL    HW220985   2.933   1.943   0.066
 6696SOL     OW20986   3.842   3.394   5.297
 6696SOL    HW120987   3.900   3.328   5.248
 6696SOL    HW220988   3.855   3.381   5.395
 6697SOL     OW20989   4.257   1.216   2.854
 6697SOL    HW120990   4.185   1.274   2.817
 6697SOL    HW220991   4.217   1.128   2.881
 6698SOL     OW20992   2.564   3.308   1.324
 6698SOL    HW120993   2.650   3.308   1.375
 6698SOL    HW220994   2.491   3.271   1.381
 6699SOL     OW20995   1.543   3.696   5.500
 6699SOL    HW120996   1.507   3.704   5.406
 6699SOL    HW220997   1.615   3.765   5.513
 6700SOL     OW20998   4.755   6.429   1.450
 6700SOL    HW120999   4.786   6.465   1.361
 6700SOL    HW221000   4.704   6.501   1.498
 6701SOL     OW21001   6.627   0.602   1.102
 6701SOL    HW121002   6.682   0.685   1.103
 6701SOL    HW221003   6.677   0.529   1.056
 6702SOL     OW21004   5.179   2.709   1.570
 6702SOL    HW121005   5.115   2.683   1.642
 6702SOL    HW221006   5.140   2.784   1.517
 6703SOL     OW21007   6.832   0.787   1.098
 6703SOL    HW121008   6.905   0.752   1.157
 6703SOL    HW221009   6.869   0.808   1.008
 6704SOL     OW21010   1.985   5.836   6.368
 6704SOL    HW121011   1.987   5.787   6.281
 6704SOL    HW221012   1.984   5.770   6.444
 6705SOL     OW21013   1.807   4.194   2.856
 6705SOL    HW121014   1.729   4.193   2.918
 6705SOL    HW221015   1.785   4.139   2.775
 6706SOL     OW21016   0.333   5.719   1.684
 6706SOL    HW121017   0.313   5.678   1.772
 6706SOL    HW221018   0.250   5.721   1.628
 6707SOL     OW21019   5.526   0.911   2.949
 6707SOL    HW121020   5.569   0.941   2.864
 6707SOL    HW221021   5.469   0.984   2.985
 6708SOL     OW21022   0.323   3.059   1.196
 6708SOL    HW121023   0.283   2.983   1.145
 6708SOL    HW221024   0.395   3.102   1.141
 6709SOL     OW21025   2.274   4.210   2.318
 6709SOL    HW121026   2.252   4.183   2.224
 6709SOL    HW221027   2.309   4.131   2.368
 6710SOL     OW21028   5.068   2.270   1.826
 6710SOL    HW121029   5.020   2.351   1.861
 6710SOL    HW221030   5.010   2.224   1.759
 6711SOL     OW21031   4.172   5.180   6.502
 6711SOL    HW121032   4.103   5.252   6.509
 6711SOL    HW221033   4.139   5.098   6.548
 6712SOL     OW21034   5.883   3.486   0.924
 6712SOL    HW121035   5.923   3.394   0.921
 6712SOL    HW221036   5.937   3.544   0.985
 6713SOL     OW21037   2.421   5.062   4.247
 6713SOL    HW121038   2.388   4.969   4.233
 6713SOL    HW221039   2.520   5.064   4.237
 6714SOL     OW21040   6.330   0.888   2.959
 6714SOL    HW121041   6.309   0.813   3.021
 6714SOL    HW221042   6.429   0.896   2.947
 6715SOL     OW21043   0.478   6.852   4.846
 6715SOL    HW121044   0.485   6.951   4.849
 6715SOL    HW221045   0.440   6.818   4.932
 6716SOL     OW21046   1.870   4.308   1.747
 6716SOL    HW121047   1.890   4.307   1.845
 6716SOL    HW221048   1.885   4.216   1.710
 6717SOL     OW21049   6.088   3.009   5.748
 6717SOL    HW121050   6.180   3.033   5.718
 6717SOL    HW221051   6.022   3.074   5.711
 6718SOL     OW21052   5.010   2.109   0.613
 6718SOL    HW121053   4.945   2.033   0.606
 6718SOL    HW221054   5.072   2.107   0.535
 6719SOL     OW21055   1.064   6.963   0.533
 6719SOL    HW121056   0.966   6.979   0.523
 6719SOL    HW221057   1.089   6.968   0.630
 6720SOL     OW21058   1.730   1.722   4.617
 6720SOL    HW121059   1.662   1.755   4.682
 6720SOL    HW221060   1.794   1.796   4.595
 6721SOL     OW21061   6.636   6.544   0.690
 6721SOL    HW121062   6.623   6.501   0.600
 6721SOL    HW221063   6.580   6.627   0.696
 6722SOL     OW21064   6.899   3.694   1.633
 6722SOL    HW121065   6.799   3.694   1.643
 6722SOL    HW221066   6.924   3.727   1.542
 6723SOL     OW21067   2.274   4.260   3.539
 6723SOL    HW121068   2.254   4.168   3.505
 6723SOL    HW221069   2.192   4.298   3.582
 6724SOL     OW21070   2.384   3.520   5.487
 6724SOL    HW121071   2.345   3.450   5.428
 6724SOL    HW221072   2.367   3.610   5.447
 6725SOL     OW21073   4.796   2.660   3.396
 6725SOL    HW121074   4.812   2.741   3.339
 6725SOL    HW221075   4.721   2.607   3.358
 6726SOL     OW21076   0.148   1.206   0.544
 6726SOL    HW121077   0.247   1.204   0.560
 6726SOL    HW221078   0.105   1.129   0.591
 6727SOL     OW21079   1.019   5.857   5.444
 6727SOL    HW121080   0.951   5.864   5.371
 6727SOL    HW221081   1.089   5.791   5.418
 6728SOL     OW21082   3.814   1.645   5.628
 6728SOL    HW121083   3.728   1.663   5.677
 6728SOL    HW221084   3.889   1.692   5.674
 6729SOL     OW21085   4.501   1.578   2.305
 6729SOL    HW121086   4.546   1.557   2.392
 6729SOL    HW221087   4.426   1.514   2.290
 6730SOL     OW21088   6.716   2.058   1.487
 6730SOL    HW121089   6.711   2.127   1.559
 6730SOL    HW221090   6.810   2.027   1.476
 6731SOL     OW21091   4.090   0.520   5.600
 6731SOL    HW121092   4.142   0.582   5.658
 6731SOL    HW221093   4.014   0.481   5.653
 6732SOL     OW21094   6.578   4.642   6.381
 6732SOL    HW121095   6.500   4.609   6.435
 6732SOL    HW221096   6.659   4.648   6.440
 6733SOL     OW21097   5.797   4.758   6.105
 6733SOL    HW121098   5.731   4.830   6.128
 6733SOL    HW221099   5.773   4.718   6.017
 6734SOL     OW21100   5.739   2.217   4.747
 6734SOL    HW121101   5.645   2.191   4.729
 6734SOL    HW221102   5.766   2.291   4.685
 6735SOL     OW21103   5.476   2.158   4.841
 6735SOL    HW121104   5.399   2.103   4.873
 6735SOL    HW221105   5.490   2.235   4.903
 6736SOL     OW21106   4.256   3.271   0.795
 6736SOL    HW121107   4.158   3.284   0.814
 6736SOL    HW221108   4.273   3.177   0.767
 6737SOL     OW21109   5.769   2.269   1.961
 6737SOL    HW121110   5.748   2.204   1.889
 6737SOL    HW221111   5.796   2.219   2.044
 6738SOL     OW21112   2.011   6.799   3.003
 6738SOL    HW121113   2.096   6.773   3.050
 6738SOL    HW221114   2.006   6.752   2.915
 6739SOL     OW21115   0.578   0.594   6.128
 6739SOL    HW121116   0.631   0.577   6.044
 6739SOL    HW221117   0.579   0.692   6.148
 6740SOL     OW21118   0.892   7.009   1.380
 6740SOL    HW121119   0.827   6.985   1.452
 6740SOL    HW221120   0.848   7.000   1.291
 6741SOL     OW21121   3.128   2.010   0.608
 6741SOL    HW121122   3.192   1.984   0.535
 6741SOL    HW221123   3.077   1.929   0.638
 6742SOL     OW21124   6.503   4.466   2.877
 6742SOL    HW121125   6.468   4.492   2.787
 6742SOL    HW221126   6.433   4.415   2.926
 6743SOL     OW21127   4.231   4.599   6.855
 6743SOL    HW121128   4.182   4.574   6.771
 6743SOL    HW221129   4.329   4.590   6.840
 6744SOL     OW21130   6.731   6.650   5.481
 6744SOL    HW121131   6.818   6.644   5.433
 6744SOL    HW221132   6.709   6.746   5.499
 6745SOL     OW21133   5.818   3.335   4.920
 6745SOL    HW121134   5.855   3.395   4.992
 6745SOL    HW221135   5.733   3.293   4.953
 6746SOL     OW21136   0.991   2.825   3.119
 6746SOL    HW121137   0.960   2.918   3.099
 6746SOL    HW221138   1.003   2.775   3.033
 6747SOL     OW21139   0.399   6.298   5.146
 6747SOL    HW121140   0.300   6.306   5.135
 6747SOL    HW221141   0.438   6.389   5.158
 6748SOL     OW21142   1.578   2.566   3.890
 6748SOL    HW121143   1.513   2.583   3.964
 6748SOL    HW221144   1.630   2.483   3.909
 6749SOL     OW21145   3.156   5.260   2.198
 6749SOL    HW121146   3.144   5.291   2.104
 6749SOL    HW221147   3.121   5.330   2.261
 6750SOL     OW21148   3.727   0.704   5.744
 6750SOL    HW121149   3.657   0.768   5.776
 6750SOL    HW221150   3.801   0.755   5.699
 6751SOL     OW21151   4.345   1.654   4.520
 6751SOL    HW121152   4.407   1.583   4.554
 6751SOL    HW221153   4.307   1.627   4.432
 6752SOL     OW21154   2.211   5.341   2.544
 6752SOL    HW121155   2.230   5.253   2.500
 6752SOL    HW221156   2.271   5.411   2.505
 6753SOL     OW21157   3.487   4.165   6.807
 6753SOL    HW121158   3.535   4.098   6.751
 6753SOL    HW221159   3.460   4.124   6.894
 6754SOL     OW21160   5.617   0.411   0.161
 6754SOL    HW121161   5.574   0.442   0.246
 6754SOL    HW221162   5.676   0.484   0.126
 6755SOL     OW21163   3.549   6.042   5.495
 6755SOL    HW121164   3.583   6.099   5.420
 6755SOL    HW221165   3.586   6.076   5.582
 6756SOL     OW21166   4.670   3.190   5.333
 6756SOL    HW121167   4.710   3.162   5.420
 6756SOL    HW221168   4.619   3.275   5.346
 6757SOL     OW21169   3.258   0.288   1.814
 6757SOL    HW121170   3.174   0.260   1.861
 6757SOL    HW221171   3.237   0.310   1.719
 6758SOL     OW21172   4.752   2.764   3.655
 6758SOL    HW121173   4.781   2.706   3.579
 6758SOL    HW221174   4.756   2.712   3.740
 6759SOL     OW21175   1.650   2.257   1.866
 6759SOL    HW121176   1.631   2.239   1.963
 6759SOL    HW221177   1.709   2.337   1.858
 6760SOL     OW21178   5.126   1.956   5.620
 6760SOL    HW121179   5.206   1.947   5.559
 6760SOL    HW221180   5.150   1.922   5.711
 6761SOL     OW21181   3.001   0.241   4.994
 6761SOL    HW121182   2.966   0.181   5.066
 6761SOL    HW221183   3.023   0.187   4.913
 6762SOL     OW21184   5.419   4.853   4.500
 6762SOL    HW121185   5.518   4.845   4.486
 6762SOL    HW221186   5.399   4.941   4.543
 6763SOL     OW21187   5.411   5.990   4.126
 6763SOL    HW121188   5.493   5.934   4.139
 6763SOL    HW221189   5.335   5.934   4.096
 6764SOL     OW21190   1.268   4.771   2.254
 6764SOL    HW121191   1.299   4.685   2.294
 6764SOL    HW221192   1.334   4.801   2.185
 6765SOL     OW21193   0.348   4.486   2.392
 6765SOL    HW121194   0.415   4.421   2.356
 6765SOL    HW221195   0.337   4.471   2.490
 6766SOL     OW21196   5.785   0.221   1.447
 6766SOL    HW121197   5.806   0.258   1.538
 6766SOL    HW221198   5.690   0.243   1.424
 6767SOL     OW21199   2.716   0.136   1.329
 6767SOL    HW121200   2.794   0.083   1.297
 6767SOL    HW221201   2.654   0.078   1.382
 6768SOL     OW21202   2.380   0.872   6.329
 6768SOL    HW121203   2.366   0.860   6.427
 6768SOL    HW221204   2.450   0.808   6.297
 6769SOL     OW21205   5.581   2.721   1.607
 6769SOL    HW121206   5.627   2.798   1.651
 6769SOL    HW221207   5.644   2.644   1.601
 6770SOL     OW21208   6.997   1.501   1.479
 6770SOL    HW121209   6.919   1.500   1.416
 6770SOL    HW221210   6.969   1.544   1.565
 6771SOL     OW21211   4.439   0.586   4.008
 6771SOL    HW121212   4.422   0.642   4.089
 6771SOL    HW221213   4.423   0.640   3.925
 6772SOL     OW21214   3.078   0.976   5.618
 6772SOL    HW121215   3.136   1.000   5.696
 6772SOL    HW221216   3.003   1.042   5.611
 6773SOL     OW21217   0.254   3.035   2.987
 6773SOL    HW121218   0.199   2.958   2.956
 6773SOL    HW221219   0.214   3.074   3.071
 6774SOL     OW21220   1.533   1.533   5.922
 6774SOL    HW121221   1.562   1.448   5.965
 6774SOL    HW221222   1.575   1.611   5.970
 6775SOL     OW21223   0.431   3.332   0.461
 6775SOL    HW121224   0.473   3.416   0.427
 6775SOL    HW221225   0.337   3.350   0.488
 6776SOL     OW21226   6.331   6.691   5.860
 6776SOL    HW121227   6.247   6.643   5.833
 6776SOL    HW221228   6.345   6.769   5.799
 6777SOL     OW21229   4.377   4.620   0.212
 6777SOL    HW121230   4.435   4.622   0.294
 6777SOL    HW221231   4.393   4.535   0.162
 6778SOL     OW21232   6.704   5.334   3.255
 6778SOL    HW121233   6.619   5.386   3.244
 6778SOL    HW221234   6.771   5.390   3.304
 6779SOL     OW21235   5.274   3.400   6.503
 6779SOL    HW121236   5.323   3.361   6.425
 6779SOL    HW221237   5.315   3.367   6.588
 6780SOL     OW21238   1.389   2.105   1.418
 6780SOL    HW121239   1.459   2.139   1.480
 6780SOL    HW221240   1.432   2.074   1.333
 6781SOL     OW21241   6.032   4.296   5.143
 6781SOL    HW121242   5.993   4.206   5.160
 6781SOL    HW221243   5.980   4.365   5.193
 6782SOL     OW21244   6.452   1.524   3.695
 6782SOL    HW121245   6.427   1.600   3.756
 6782SOL    HW221246   6.544   1.493   3.717
 6783SOL     OW21247   1.227   5.348   0.204
 6783SOL    HW121248   1.151   5.411   0.218
 6783SOL    HW221249   1.304   5.397   0.163
 6784SOL     OW21250   3.923   3.414   0.195
 6784SOL    HW121251   4.009   3.371   0.169
 6784SOL    HW221252   3.933   3.458   0.284
 6785SOL     OW21253   5.132   6.465   1.303
 6785SOL    HW121254   5.097   6.556   1.325
 6785SOL    HW221255   5.094   6.399   1.368
 6786SOL     OW21256   2.178   3.412   5.283
 6786SOL    HW121257   2.161   3.448   5.192
 6786SOL    HW221258   2.143   3.318   5.289
 6787SOL     OW21259   0.967   4.393   2.591
 6787SOL    HW121260   0.890   4.335   2.563
 6787SOL    HW221261   1.013   4.352   2.670
 6788SOL     OW21262   2.750   3.787   1.148
 6788SOL    HW121263   2.732   3.703   1.199
 6788SOL    HW221264   2.691   3.860   1.182
 6789SOL     OW21265   1.966   4.805   3.047
 6789SOL    HW121266   1.874   4.805   3.088
 6789SOL    HW221267   2.021   4.877   3.089
 6790SOL     OW21268   1.228   3.136   1.463
 6790SOL    HW121269   1.264   3.203   1.399
 6790SOL    HW221270   1.160   3.079   1.418
 6791SOL     OW21271   3.481   3.859   5.265
 6791SOL    HW121272   3.422   3.810   5.329
 6791SOL    HW221273   3.566   3.885   5.311
 6792SOL     OW21274   1.147   5.052   0.766
 6792SOL    HW121275   1.167   4.957   0.741
 6792SOL    HW221276   1.114   5.055   0.861
 6793SOL     OW21277   5.621   0.898   0.563
 6793SOL    HW121278   5.584   0.808   0.541
 6793SOL    HW221279   5.713   0.888   0.600
 6794SOL     OW21280   3.226   1.824   5.649
 6794SOL    HW121281   3.279   1.902   5.682
 6794SOL    HW221282   3.162   1.795   5.720
 6795SOL     OW21283   4.135   5.971   6.970
 6795SOL    HW121284   4.228   5.974   6.932
 6795SOL    HW221285   4.071   6.016   6.907
 6796SOL     OW21286   3.854   2.140   2.349
 6796SOL    HW121287   3.756   2.140   2.370
 6796SOL    HW221288   3.868   2.105   2.256
 6797SOL     OW21289   6.910   2.465   2.965
 6797SOL    HW121290   6.894   2.544   3.026
 6797SOL    HW221291   6.955   2.496   2.882
 6798SOL     OW21292   6.371   0.205   2.079
 6798SOL    HW121293   6.470   0.202   2.071
 6798SOL    HW221294   6.340   0.300   2.074
 6799SOL     OW21295   4.799   5.851   2.201
 6799SOL    HW121296   4.829   5.762   2.166
 6799SOL    HW221297   4.869   5.888   2.262
 6800SOL     OW21298   3.519   3.720   6.329
 6800SOL    HW121299   3.558   3.808   6.301
 6800SOL    HW221300   3.566   3.687   6.411
 6801SOL     OW21301   0.224   3.135   3.418
 6801SOL    HW121302   0.300   3.201   3.417
 6801SOL    HW221303   0.259   3.044   3.438
 6802SOL     OW21304   3.354   5.097   2.442
 6802SOL    HW121305   3.322   5.069   2.352
 6802SOL    HW221306   3.284   5.076   2.510
 6803SOL     OW21307   4.629   2.121   6.848
 6803SOL    HW121308   4.635   2.078   6.939
 6803SOL    HW221309   4.627   2.050   6.778
 6804SOL     OW21310   1.738   5.827   3.212
 6804SOL    HW121311   1.818   5.886   3.206
 6804SOL    HW221312   1.752   5.758   3.283
 6805SOL     OW21313   6.471   1.533   5.618
 6805SOL    HW121314   6.401   1.463   5.608
 6805SOL    HW221315   6.537   1.504   5.688
 6806SOL     OW21316   4.851   5.731   5.254
 6806SOL    HW121317   4.881   5.826   5.246
 6806SOL    HW221318   4.819   5.714   5.348
 6807SOL     OW21319   4.567   3.216   6.943
 6807SOL    HW121320   4.555   3.303   6.991
 6807SOL    HW221321   4.645   3.224   6.880
 6808SOL     OW21322   2.923   4.792   3.918
 6808SOL    HW121323   2.929   4.816   4.014
 6808SOL    HW221324   2.998   4.836   3.868
 6809SOL     OW21325   1.007   3.163   6.384
 6809SOL    HW121326   1.041   3.166   6.290
 6809SOL    HW221327   0.933   3.230   6.395
 6810SOL     OW21328   6.121   1.807   3.370
 6810SOL    HW121329   6.118   1.882   3.305
 6810SOL    HW221330   6.203   1.752   3.354
 6811SOL     OW21331   5.037   6.243   2.325
 6811SOL    HW121332   4.945   6.212   2.351
 6811SOL    HW221333   5.048   6.235   2.225
 6812SOL     OW21334   3.571   3.227   3.111
 6812SOL    HW121335   3.476   3.258   3.109
 6812SOL    HW221336   3.628   3.289   3.057
 6813SOL     OW21337   5.337   3.819   1.011
 6813SOL    HW121338   5.270   3.877   1.057
 6813SOL    HW221339   5.381   3.871   0.938
 6814SOL     OW21340   2.043   2.923   0.704
 6814SOL    HW121341   2.000   2.988   0.767
 6814SOL    HW221342   1.985   2.911   0.623
 6815SOL     OW21343   1.327   6.646   6.741
 6815SOL    HW121344   1.366   6.596   6.818
 6815SOL    HW221345   1.294   6.581   6.672
 6816SOL     OW21346   5.269   4.484   1.267
 6816SOL    HW121347   5.233   4.569   1.303
 6816SOL    HW221348   5.222   4.407   1.310
 6817SOL     OW21349   1.799   2.020   6.120
 6817SOL    HW121350   1.741   2.100   6.102
 6817SOL    HW221351   1.869   2.013   6.049
 6818SOL     OW21352   4.088   5.138   1.018
 6818SOL    HW121353   4.009   5.144   1.080
 6818SOL    HW221354   4.058   5.103   0.930
 6819SOL     OW21355   2.745   1.286   3.738
 6819SOL    HW121356   2.823   1.330   3.783
 6819SOL    HW221357   2.702   1.222   3.801
 6820SOL     OW21358   1.605   5.013   4.684
 6820SOL    HW121359   1.641   4.919   4.690
 6820SOL    HW221360   1.556   5.034   4.768
 6821SOL     OW21361   1.920   1.778   4.046
 6821SOL    HW121362   1.826   1.782   4.081
 6821SOL    HW221363   1.977   1.727   4.110
 6822SOL     OW21364   5.454   1.382   5.485
 6822SOL    HW121365   5.446   1.380   5.385
 6822SOL    HW221366   5.390   1.317   5.525
 6823SOL     OW21367   4.168   3.627   2.275
 6823SOL    HW121368   4.266   3.609   2.282
 6823SOL    HW221369   4.119   3.541   2.270
 6824SOL     OW21370   0.832   5.607   4.805
 6824SOL    HW121371   0.892   5.558   4.868
 6824SOL    HW221372   0.738   5.574   4.816
 6825SOL     OW21373   5.749   0.082   4.340
 6825SOL    HW121374   5.803   0.124   4.268
 6825SOL    HW221375   5.762   7.010   4.338
 6826SOL     OW21376   1.160   2.589   3.561
 6826SOL    HW121377   1.062   2.608   3.565
 6826SOL    HW221378   1.180   2.540   3.476
 6827SOL     OW21379   4.334   5.693   5.274
 6827SOL    HW121380   4.370   5.692   5.367
 6827SOL    HW221381   4.242   5.653   5.274
 6828SOL     OW21382   2.149   2.456   1.074
 6828SOL    HW121383   2.060   2.412   1.059
 6828SOL    HW221384   2.134   2.550   1.105
 6829SOL     OW21385   5.918   4.405   3.633
 6829SOL    HW121386   5.924   4.345   3.713
 6829SOL    HW221387   5.823   4.433   3.619
 6830SOL     OW21388   4.557   1.275   3.738
 6830SOL    HW121389   4.651   1.255   3.764
 6830SOL    HW221390   4.515   1.193   3.698
 6831SOL     OW21391   0.936   1.803   6.404
 6831SOL    HW121392   0.940   1.708   6.372
 6831SOL    HW221393   1.013   1.854   6.367
 6832SOL     OW21394   2.727   4.866   1.507
 6832SOL    HW121395   2.788   4.830   1.436
 6832SOL    HW221396   2.779   4.880   1.591
 6833SOL     OW21397   4.339   6.247   6.756
 6833SOL    HW121398   4.403   6.225   6.682
 6833SOL    HW221399   4.331   6.347   6.764
 6834SOL     OW21400   2.626   4.666   2.555
 6834SOL    HW121401   2.633   4.648   2.653
 6834SOL    HW221402   2.564   4.599   2.513
 6835SOL     OW21403   3.822   6.653   3.951
 6835SOL    HW121404   3.823   6.684   4.047
 6835SOL    HW221405   3.775   6.720   3.895
 6836SOL     OW21406   3.435   5.217   0.832
 6836SOL    HW121407   3.476   5.194   0.744
 6836SOL    HW221408   3.506   5.212   0.903
 6837SOL     OW21409   0.868   3.600   3.155
 6837SOL    HW121410   0.864   3.700   3.163
 6837SOL    HW221411   0.915   3.562   3.234
 6838SOL     OW21412   2.574   2.598   0.548
 6838SOL    HW121413   2.546   2.626   0.640
 6838SOL    HW221414   2.596   2.680   0.494
 6839SOL     OW21415   3.825   1.285   2.040
 6839SOL    HW121416   3.890   1.227   1.992
 6839SOL    HW221417   3.870   1.328   2.119
 6840SOL     OW21418   0.790   0.822   5.747
 6840SOL    HW121419   0.809   0.916   5.777
 6840SOL    HW221420   0.833   0.758   5.810
 6841SOL     OW21421   6.495   2.860   5.744
 6841SOL    HW121422   6.420   2.809   5.786
 6841SOL    HW221423   6.582   2.817   5.767
 6842SOL     OW21424   2.650   4.691   2.853
 6842SOL    HW121425   2.579   4.692   2.923
 6842SOL    HW221426   2.718   4.761   2.872
 6843SOL     OW21427   3.613   6.056   1.469
 6843SOL    HW121428   3.520   6.076   1.438
 6843SOL    HW221429   3.617   6.061   1.568
 6844SOL     OW21430   5.733   6.942   5.435
 6844SOL    HW121431   5.827   6.962   5.460
 6844SOL    HW221432   5.729   6.855   5.386
 6845SOL     OW21433   5.818   2.444   3.334
 6845SOL    HW121434   5.914   2.416   3.344
 6845SOL    HW221435   5.812   2.519   3.268
 6846SOL     OW21436   1.473   3.119   0.442
 6846SOL    HW121437   1.499   3.031   0.403
 6846SOL    HW221438   1.538   3.143   0.515
 6847SOL     OW21439   6.855   2.178   3.663
 6847SOL    HW121440   6.858   2.107   3.592
 6847SOL    HW221441   6.901   2.260   3.630
 6848SOL     OW21442   6.891   4.112   4.290
 6848SOL    HW121443   6.895   4.022   4.247
 6848SOL    HW221444   6.834   4.107   4.371
 6849SOL     OW21445   3.202   3.959   5.436
 6849SOL    HW121446   3.153   3.889   5.383
 6849SOL    HW221447   3.248   4.022   5.374
 6850SOL     OW21448   5.870   0.343   4.500
 6850SOL    HW121449   5.966   0.335   4.472
 6850SOL    HW221450   5.819   0.263   4.467
 6851SOL     OW21451   2.044   4.331   3.677
 6851SOL    HW121452   2.012   4.415   3.720
 6851SOL    HW221453   2.094   4.276   3.744
 6852SOL     OW21454   4.659   2.873   0.556
 6852SOL    HW121455   4.583   2.840   0.612
 6852SOL    HW221456   4.649   2.841   0.462
 6853SOL     OW21457   5.363   5.238   5.742
 6853SOL    HW121458   5.360   5.338   5.734
 6853SOL    HW221459   5.401   5.199   5.659
 6854SOL     OW21460   5.662   6.038   5.568
 6854SOL    HW121461   5.737   6.102   5.555
 6854SOL    HW221462   5.613   6.062   5.652
 6855SOL     OW21463   4.300   5.888   2.955
 6855SOL    HW121464   4.290   5.974   3.005
 6855SOL    HW221465   4.396   5.864   2.949
 6856SOL     OW21466   6.360   2.453   1.161
 6856SOL    HW121467   6.361   2.356   1.188
 6856SOL    HW221468   6.337   2.509   1.240
 6857SOL     OW21469   1.320   4.673   6.033
 6857SOL    HW121470   1.229   4.713   6.023
 6857SOL    HW221471   1.389   4.742   6.012
 6858SOL     OW21472   1.424   3.155   1.860
 6858SOL    HW121473   1.345   3.212   1.882
 6858SOL    HW221474   1.432   3.145   1.761
 6859SOL     OW21475   2.823   2.487   0.629
 6859SOL    HW121476   2.742   2.518   0.578
 6859SOL    HW221477   2.839   2.549   0.706
 6860SOL     OW21478   0.466   0.274   6.972
 6860SOL    HW121479   0.506   0.362   6.946
 6860SOL    HW221480   0.510   0.201   6.920
 6861SOL     OW21481   5.923   3.529   6.762
 6861SOL    HW121482   5.986   3.554   6.689
 6861SOL    HW221483   5.830   3.527   6.726
 6862SOL     OW21484   0.779   5.485   3.119
 6862SOL    HW121485   0.810   5.414   3.056
 6862SOL    HW221486   0.843   5.562   3.117
 6863SOL     OW21487   4.909   1.367   5.474
 6863SOL    HW121488   4.964   1.449   5.459
 6863SOL    HW221489   4.949   1.313   5.548
 6864SOL     OW21490   2.181   3.523   6.223
 6864SOL    HW121491   2.185   3.434   6.270
 6864SOL    HW221492   2.228   3.591   6.278
 6865SOL     OW21493   1.599   1.016   3.016
 6865SOL    HW121494   1.502   0.994   3.008
 6865SOL    HW221495   1.645   0.995   2.930
 6866SOL     OW21496   1.602   4.708   6.551
 6866SOL    HW121497   1.563   4.659   6.473
 6866SOL    HW221498   1.534   4.772   6.587
 6867SOL     OW21499   1.697   1.955   6.664
 6867SOL    HW121500   1.623   2.019   6.686
 6867SOL    HW221501   1.784   1.995   6.693
 6868SOL     OW21502   4.030   5.125   3.881
 6868SOL    HW121503   4.012   5.071   3.963
 6868SOL    HW221504   4.026   5.065   3.801
 6869SOL     OW21505   1.064   0.319   5.474
 6869SOL    HW121506   1.097   0.289   5.563
 6869SOL    HW221507   0.975   0.362   5.484
 6870SOL     OW21508   6.565   2.870   6.434
 6870SOL    HW121509   6.599   2.962   6.453
 6870SOL    HW221510   6.469   2.864   6.462
 6871SOL     OW21511   5.831   2.762   3.493
 6871SOL    HW121512   5.736   2.747   3.519
 6871SOL    HW221513   5.838   2.844   3.437
 6872SOL     OW21514   2.143   4.902   1.052
 6872SOL    HW121515   2.131   4.805   1.072
 6872SOL    HW221516   2.054   4.948   1.057
 6873SOL     OW21517   0.594   3.595   2.945
 6873SOL    HW121518   0.510   3.561   2.903
 6873SOL    HW221519   0.672   3.571   2.887
 6874SOL     OW21520   3.889   5.914   1.837
 6874SOL    HW121521   3.903   5.877   1.745
 6874SOL    HW221522   3.883   6.014   1.832
 6875SOL     OW21523   2.755   0.236   6.412
 6875SOL    HW121524   2.661   0.258   6.437
 6875SOL    HW221525   2.813   0.317   6.425
 6876SOL     OW21526   5.874   5.716   3.369
 6876SOL    HW121527   5.820   5.682   3.446
 6876SOL    HW221528   5.856   5.660   3.288
 6877SOL     OW21529   1.317   3.879   1.686
 6877SOL    HW121530   1.416   3.873   1.687
 6877SOL    HW221531   1.283   3.880   1.780
 6878SOL     OW21532   1.490   0.088   3.523
 6878SOL    HW121533   1.399   0.064   3.557
 6878SOL    HW221534   1.482   0.140   3.438
 6879SOL     OW21535   1.488   1.086   1.268
 6879SOL    HW121536   1.509   0.996   1.306
 6879SOL    HW221537   1.571   1.142   1.267
 6880SOL     OW21538   1.064   6.900   0.201
 6880SOL    HW121539   1.164   6.907   0.206
 6880SOL    HW221540   1.024   6.992   0.197
 6881SOL     OW21541   6.759   3.634   1.384
 6881SOL    HW121542   6.660   3.641   1.382
 6881SOL    HW221543   6.798   3.679   1.304
 6882SOL     OW21544   2.599   6.595   6.732
 6882SOL    HW121545   2.650   6.672   6.694
 6882SOL    HW221546   2.501   6.615   6.729
 6883SOL     OW21547   4.578   0.015   0.973
 6883SOL    HW121548   4.482   0.002   0.945
 6883SOL    HW221549   4.636   6.979   0.921
 6884SOL     OW21550   1.580   5.544   3.151
 6884SOL    HW121551   1.556   5.556   3.248
 6884SOL    HW221552   1.546   5.623   3.099
 6885SOL     OW21553   5.491   4.329   4.154
 6885SOL    HW121554   5.495   4.313   4.253
 6885SOL    HW221555   5.570   4.284   4.111
 6886SOL     OW21556   5.755   3.684   0.592
 6886SOL    HW121557   5.837   3.722   0.634
 6886SOL    HW221558   5.771   3.588   0.568
 6887SOL     OW21559   5.233   5.984   5.671
 6887SOL    HW121560   5.299   5.918   5.706
 6887SOL    HW221561   5.197   5.952   5.583
 6888SOL     OW21562   7.006   4.157   1.594
 6888SOL    HW121563   6.935   4.110   1.648
 6888SOL    HW221564   6.962   4.213   1.524
 6889SOL     OW21565   0.729   2.967   5.510
 6889SOL    HW121566   0.785   2.903   5.562
 6889SOL    HW221567   0.656   2.917   5.462
 6890SOL     OW21568   5.076   4.790   3.778
 6890SOL    HW121569   5.105   4.862   3.841
 6890SOL    HW221570   4.990   4.751   3.810
 6891SOL     OW21571   1.473   1.458   0.407
 6891SOL    HW121572   1.439   1.505   0.326
 6891SOL    HW221573   1.566   1.425   0.390
 6892SOL     OW21574   1.306   0.598   5.354
 6892SOL    HW121575   1.225   0.625   5.301
 6892SOL    HW221576   1.337   0.676   5.408
 6893SOL     OW21577   6.070   3.255   0.892
 6893SOL    HW121578   6.162   3.232   0.921
 6893SOL    HW221579   6.004   3.219   0.958
 6894SOL     OW21580   5.608   5.240   6.912
 6894SOL    HW121581   5.561   5.295   6.981
 6894SOL    HW221582   5.665   5.171   6.957
 6895SOL     OW21583   1.431   5.281   2.859
 6895SOL    HW121584   1.505   5.256   2.922
 6895SOL    HW221585   1.415   5.380   2.863
 6896SOL     OW21586   4.812   1.123   6.166
 6896SOL    HW121587   4.863   1.159   6.244
 6896SOL    HW221588   4.745   1.190   6.136
 6897SOL     OW21589   4.117   2.163   4.945
 6897SOL    HW121590   4.127   2.254   4.988
 6897SOL    HW221591   4.182   2.100   4.986
 6898SOL     OW21592   1.730   6.379   1.099
 6898SOL    HW121593   1.820   6.391   1.057
 6898SOL    HW221594   1.662   6.426   1.043
 6899SOL     OW21595   6.366   5.092   3.017
 6899SOL    HW121596   6.375   5.181   2.973
 6899SOL    HW221597   6.301   5.098   3.092
 6900SOL     OW21598   0.359   4.829   4.873
 6900SOL    HW121599   0.366   4.732   4.897
 6900SOL    HW221600   0.334   4.838   4.777
 6901SOL     OW21601   5.176   4.272   6.091
 6901SOL    HW121602   5.112   4.256   6.016
 6901SOL    HW221603   5.188   4.187   6.142
 6902SOL     OW21604   0.285   5.799   5.224
 6902SOL    HW121605   0.251   5.797   5.129
 6902SOL    HW221606   0.370   5.851   5.227
 6903SOL     OW21607   0.425   6.622   5.240
 6903SOL    HW121608   0.481   6.591   5.317
 6903SOL    HW221609   0.476   6.609   5.155
 6904SOL     OW21610   0.629   0.058   6.481
 6904SOL    HW121611   0.702   0.126   6.474
 6904SOL    HW221612   0.663   6.995   6.450
 6905SOL     OW21613   4.692   6.085   5.403
 6905SOL    HW121614   4.610   6.135   5.432
 6905SOL    HW221615   4.694   6.079   5.303
 6906SOL     OW21616   2.677   2.053   3.573
 6906SOL    HW121617   2.769   2.063   3.536
 6906SOL    HW221618   2.654   1.956   3.579
 6907SOL     OW21619   5.835   3.430   0.501
 6907SOL    HW121620   5.754   3.441   0.443
 6907SOL    HW221621   5.842   3.335   0.530
 6908SOL     OW21622   2.944   5.078   0.931
 6908SOL    HW121623   2.864   5.039   0.886
 6908SOL    HW221624   2.993   5.005   0.980
 6909SOL     OW21625   5.606   5.232   2.553
 6909SOL    HW121626   5.566   5.140   2.550
 6909SOL    HW221627   5.667   5.239   2.632
 6910SOL     OW21628   1.736   2.468   2.369
 6910SOL    HW121629   1.795   2.509   2.438
 6910SOL    HW221630   1.731   2.369   2.384
 6911SOL     OW21631   2.182   6.917   5.339
 6911SOL    HW121632   2.193   6.891   5.243
 6911SOL    HW221633   2.214   7.010   5.352
 6912SOL     OW21634   2.275   4.235   6.325
 6912SOL    HW121635   2.330   4.316   6.344
 6912SOL    HW221636   2.242   4.195   6.410
 6913SOL     OW21637   4.114   5.401   6.155
 6913SOL    HW121638   4.038   5.423   6.095
 6913SOL    HW221639   4.129   5.477   6.219
 6914SOL     OW21640   1.022   1.814   2.445
 6914SOL    HW121641   1.063   1.766   2.522
 6914SOL    HW221642   1.070   1.788   2.361
 6915SOL     OW21643   6.188   3.277   4.113
 6915SOL    HW121644   6.137   3.199   4.149
 6915SOL    HW221645   6.218   3.335   4.189
 6916SOL     OW21646   4.236   6.160   5.638
 6916SOL    HW121647   4.312   6.175   5.574
 6916SOL    HW221648   4.261   6.087   5.703
 6917SOL     OW21649   3.346   5.498   2.032
 6917SOL    HW121650   3.269   5.554   2.059
 6917SOL    HW221651   3.314   5.407   2.005
 6918SOL     OW21652   1.535   3.756   6.454
 6918SOL    HW121653   1.558   3.793   6.364
 6918SOL    HW221654   1.620   3.739   6.506
 6919SOL     OW21655   6.550   6.086   3.772
 6919SOL    HW121656   6.493   6.084   3.854
 6919SOL    HW221657   6.536   6.173   3.723
 6920SOL     OW21658   0.550   3.351   5.529
 6920SOL    HW121659   0.503   3.275   5.484
 6920SOL    HW221660   0.487   3.400   5.588
 6921SOL     OW21661   3.514   0.398   5.741
 6921SOL    HW121662   3.572   0.318   5.758
 6921SOL    HW221663   3.566   0.466   5.689
 6922SOL     OW21664   2.508   4.129   6.771
 6922SOL    HW121665   2.576   4.154   6.840
 6922SOL    HW221666   2.547   4.063   6.707
 6923SOL     OW21667   4.880   6.952   2.860
 6923SOL    HW121668   4.843   6.922   2.772
 6923SOL    HW221669   4.805   6.984   2.918
 6924SOL     OW21670   3.037   4.861   1.588
 6924SOL    HW121671   3.066   4.788   1.650
 6924SOL    HW221672   3.028   4.824   1.495
 6925SOL     OW21673   6.131   0.192   4.481
 6925SOL    HW121674   6.129   0.234   4.391
 6925SOL    HW221675   6.223   0.200   4.520
 6926SOL     OW21676   2.675   2.834   0.434
 6926SOL    HW121677   2.711   2.902   0.498
 6926SOL    HW221678   2.620   2.880   0.365
 6927SOL     OW21679   3.291   6.697   5.421
 6927SOL    HW121680   3.268   6.737   5.510
 6927SOL    HW221681   3.351   6.758   5.371
 6928SOL     OW21682   4.037   5.623   0.696
 6928SOL    HW121683   3.993   5.664   0.616
 6928SOL    HW221684   4.064   5.695   0.760
 6929SOL     OW21685   4.682   5.958   3.478
 6929SOL    HW121686   4.637   5.984   3.563
 6929SOL    HW221687   4.777   5.988   3.479
 6930SOL     OW21688   0.465   6.090   2.425
 6930SOL    HW121689   0.472   6.145   2.509
 6930SOL    HW221690   0.407   6.011   2.443
 6931SOL     OW21691   4.060   2.486   0.210
 6931SOL    HW121692   4.122   2.558   0.179
 6931SOL    HW221693   4.101   2.435   0.285
 6932SOL     OW21694   3.824   0.574   6.778
 6932SOL    HW121695   3.761   0.512   6.824
 6932SOL    HW221696   3.794   0.588   6.683
 6933SOL     OW21697   3.725   6.033   6.088
 6933SOL    HW121698   3.697   5.970   6.015
 6933SOL    HW221699   3.816   6.069   6.067
 6934SOL     OW21700   4.587   5.786   0.041
 6934SOL    HW121701   4.529   5.777   6.987
 6934SOL    HW221702   4.554   5.860   0.099
 6935SOL     OW21703   4.194   5.641   2.043
 6935SOL    HW121704   4.125   5.712   2.050
 6935SOL    HW221705   4.256   5.661   1.967
 6936SOL     OW21706   1.236   1.276   0.134
 6936SOL    HW121707   1.317   1.260   0.190
 6936SOL    HW221708   1.192   1.361   0.162
 6937SOL     OW21709   6.566   4.149   0.403
 6937SOL    HW121710   6.569   4.241   0.440
 6937SOL    HW221711   6.516   4.089   0.466
 6938SOL     OW21712   2.865   0.062   5.128
 6938SOL    HW121713   2.856   7.004   5.074
 6938SOL    HW221714   2.793   0.065   5.197
 6939SOL     OW21715   6.502   3.070   3.142
 6939SOL    HW121716   6.469   3.014   3.066
 6939SOL    HW221717   6.602   3.066   3.145
 6940SOL     OW21718   0.253   6.716   1.259
 6940SOL    HW121719   0.201   6.735   1.176
 6940SOL    HW221720   0.256   6.617   1.274
 6941SOL     OW21721   4.037   3.370   2.245
 6941SOL    HW121722   3.967   3.341   2.310
 6941SOL    HW221723   4.058   3.295   2.181
 6942SOL     OW21724   0.285   5.479   2.693
 6942SOL    HW121725   0.347   5.407   2.726
 6942SOL    HW221726   0.238   5.520   2.771
 6943SOL     OW21727   3.327   5.228   5.460
 6943SOL    HW121728   3.405   5.276   5.420
 6943SOL    HW221729   3.295   5.277   5.541
 6944SOL     OW21730   1.153   5.033   6.182
 6944SOL    HW121731   1.130   5.014   6.087
 6944SOL    HW221732   1.205   4.957   6.220
 6945SOL     OW21733   3.824   1.644   0.751
 6945SOL    HW121734   3.896   1.647   0.682
 6945SOL    HW221735   3.750   1.586   0.719
 6946SOL     OW21736   5.730   5.158   4.052
 6946SOL    HW121737   5.752   5.061   4.045
 6946SOL    HW221738   5.666   5.182   3.978
 6947SOL     OW21739   6.526   3.307   5.607
 6947SOL    HW121740   6.571   3.244   5.670
 6947SOL    HW221741   6.534   3.400   5.643
 6948SOL     OW21742   0.397   5.621   6.548
 6948SOL    HW121743   0.408   5.578   6.638
 6948SOL    HW221744   0.479   5.603   6.493
 6949SOL     OW21745   2.068   1.469   3.481
 6949SOL    HW121746   2.040   1.431   3.568
 6949SOL    HW221747   1.989   1.508   3.434
 6950SOL     OW21748   1.863   1.148   4.210
 6950SOL    HW121749   1.930   1.112   4.275
 6950SOL    HW221750   1.775   1.103   4.224
 6951SOL     OW21751   0.996   3.206   0.015
 6951SOL    HW121752   1.045   3.131   6.997
 6951SOL    HW221753   1.036   3.293   7.015
 6952SOL     OW21754   4.654   4.806   3.723
 6952SOL    HW121755   4.734   4.784   3.779
 6952SOL    HW221756   4.653   4.904   3.703
 6953SOL     OW21757   0.623   0.727   1.489
 6953SOL    HW121758   0.611   0.648   1.549
 6953SOL    HW221759   0.561   0.800   1.518
 6954SOL     OW21760   6.674   5.345   6.189
 6954SOL    HW121761   6.688   5.279   6.263
 6954SOL    HW221762   6.719   5.312   6.106
 6955SOL     OW21763   3.422   5.417   2.846
 6955SOL    HW121764   3.416   5.370   2.758
 6955SOL    HW221765   3.457   5.353   2.915
 6956SOL     OW21766   6.321   4.601   3.142
 6956SOL    HW121767   6.255   4.526   3.135
 6956SOL    HW221768   6.399   4.583   3.082
 6957SOL     OW21769   5.383   4.154   5.531
 6957SOL    HW121770   5.293   4.197   5.542
 6957SOL    HW221771   5.432   4.198   5.455
 6958SOL     OW21772   3.425   3.588   1.443
 6958SOL    HW121773   3.336   3.612   1.482
 6958SOL    HW221774   3.424   3.492   1.413
 6959SOL     OW21775   0.134   3.462   3.413
 6959SOL    HW121776   0.092   3.438   3.501
 6959SOL    HW221777   0.233   3.449   3.418
 6960SOL     OW21778   5.262   4.763   0.560
 6960SOL    HW121779   5.334   4.829   0.583
 6960SOL    HW221780   5.291   4.707   0.483
 6961SOL     OW21781   4.678   2.754   4.546
 6961SOL    HW121782   4.616   2.829   4.572
 6961SOL    HW221783   4.734   2.783   4.468
 6962SOL     OW21784   2.487   7.006   0.648
 6962SOL    HW121785   2.442   6.918   0.665
 6962SOL    HW221786   2.423   0.042   0.603
 6963SOL     OW21787   0.522   0.195   0.196
 6963SOL    HW121788   0.618   0.209   0.174
 6963SOL    HW221789   0.465   0.230   0.121
 6964SOL     OW21790   2.417   1.506   5.669
 6964SOL    HW121791   2.355   1.429   5.684
 6964SOL    HW221792   2.364   1.590   5.656
 6965SOL     OW21793   1.752   1.525   0.355
 6965SOL    HW121794   1.761   1.485   0.264
 6965SOL    HW221795   1.828   1.587   0.372
 6966SOL     OW21796   0.943   6.289   0.639
 6966SOL    HW121797   0.845   6.269   0.640
 6966SOL    HW221798   0.970   6.318   0.547
 6967SOL     OW21799   3.982   6.932   6.778
 6967SOL    HW121800   4.000   6.834   6.764
 6967SOL    HW221801   4.043   6.985   6.719
 6968SOL     OW21802   4.492   0.436   1.798
 6968SOL    HW121803   4.485   0.525   1.843
 6968SOL    HW221804   4.439   0.368   1.850
 6969SOL     OW21805   1.549   3.339   2.701
 6969SOL    HW121806   1.488   3.285   2.643
 6969SOL    HW221807   1.547   3.434   2.672
 6970SOL     OW21808   3.149   5.998   5.798
 6970SOL    HW121809   3.082   5.930   5.767
 6970SOL    HW221810   3.195   6.038   5.719
 6971SOL     OW21811   0.401   3.780   0.497
 6971SOL    HW121812   0.483   3.776   0.554
 6971SOL    HW221813   0.404   3.862   0.440
 6972SOL     OW21814   5.821   3.432   1.254
 6972SOL    HW121815   5.842   3.455   1.159
 6972SOL    HW221816   5.762   3.351   1.256
 6973SOL     OW21817   1.028   0.928   2.793
 6973SOL    HW121818   0.994   1.008   2.842
 6973SOL    HW221819   1.071   0.865   2.858
 6974SOL     OW21820   4.030   3.754   2.842
 6974SOL    HW121821   4.074   3.736   2.755
 6974SOL    HW221822   3.999   3.849   2.845
 6975SOL     OW21823   3.219   5.314   5.698
 6975SOL    HW121824   3.133   5.304   5.649
 6975SOL    HW221825   3.204   5.300   5.796
 6976SOL     OW21826   5.109   5.043   5.380
 6976SOL    HW121827   5.205   5.039   5.354
 6976SOL    HW221828   5.097   5.004   5.471
 6977SOL     OW21829   4.011   5.143   2.312
 6977SOL    HW121830   4.053   5.088   2.240
 6977SOL    HW221831   3.913   5.125   2.314
 6978SOL     OW21832   0.428   3.351   1.114
 6978SOL    HW121833   0.446   3.286   1.041
 6978SOL    HW221834   0.424   3.444   1.077
 6979SOL     OW21835   1.176   4.307   2.857
 6979SOL    HW121836   1.215   4.215   2.868
 6979SOL    HW221837   1.109   4.323   2.929
 6980SOL     OW21838   3.010   4.831   2.858
 6980SOL    HW121839   3.104   4.859   2.837
 6980SOL    HW221840   2.964   4.803   2.775
 6981SOL     OW21841   4.475   2.513   6.905
 6981SOL    HW121842   4.496   2.598   6.954
 6981SOL    HW221843   4.504   2.522   6.810
 6982SOL     OW21844   6.568   6.243   2.106
 6982SOL    HW121845   6.662   6.276   2.113
 6982SOL    HW221846   6.559   6.160   2.161
 6983SOL     OW21847   6.624   0.590   4.214
 6983SOL    HW121848   6.584   0.673   4.252
 6983SOL    HW221849   6.622   0.517   4.282
 6984SOL     OW21850   1.639   4.326   3.312
 6984SOL    HW121851   1.731   4.328   3.351
 6984SOL    HW221852   1.619   4.414   3.268
 6985SOL     OW21853   5.079   3.311   0.808
 6985SOL    HW121854   4.989   3.331   0.769
 6985SOL    HW221855   5.110   3.221   0.777
 6986SOL     OW21856   4.603   6.121   4.721
 6986SOL    HW121857   4.596   6.023   4.702
 6986SOL    HW221858   4.697   6.142   4.751
 6987SOL     OW21859   0.300   1.630   6.704
 6987SOL    HW121860   0.250   1.712   6.732
 6987SOL    HW221861   0.299   1.622   6.605
 6988SOL     OW21862   1.363   0.361   6.318
 6988SOL    HW121863   1.287   0.399   6.266
 6988SOL    HW221864   1.403   0.431   6.376
 6989SOL     OW21865   0.455   3.121   2.609
 6989SOL    HW121866   0.390   3.046   2.603
 6989SOL    HW221867   0.469   3.160   2.518
 6990SOL     OW21868   2.998   5.353   6.448
 6990SOL    HW121869   3.037   5.278   6.502
 6990SOL    HW221870   3.072   5.409   6.410
 6991SOL     OW21871   5.111   4.092   4.251
 6991SOL    HW121872   5.146   4.089   4.344
 6991SOL    HW221873   5.140   4.177   4.207
 6992SOL     OW21874   1.695   5.204   5.584
 6992SOL    HW121875   1.692   5.250   5.673
 6992SOL    HW221876   1.656   5.263   5.514
 6993SOL     OW21877   4.431   2.190   1.935
 6993SOL    HW121878   4.408   2.118   2.000
 6993SOL    HW221879   4.446   2.276   1.983
 6994SOL     OW21880   2.459   1.153   3.149
 6994SOL    HW121881   2.372   1.198   3.172
 6994SOL    HW221882   2.524   1.222   3.117
 6995SOL     OW21883   6.796   5.063   0.285
 6995SOL    HW121884   6.745   5.097   0.364
 6995SOL    HW221885   6.738   5.069   0.203
 6996SOL     OW21886   1.360   1.012   6.965
 6996SOL    HW121887   1.384   1.007   0.036
 6996SOL    HW221888   1.279   0.956   6.948
 6997SOL     OW21889   5.908   6.109   6.096
 6997SOL    HW121890   5.930   6.202   6.067
 6997SOL    HW221891   5.866   6.060   6.019
 6998SOL     OW21892   0.236   1.176   5.906
 6998SOL    HW121893   0.203   1.097   5.856
 6998SOL    HW221894   0.178   1.255   5.887
 6999SOL     OW21895   0.667   2.596   6.903
 6999SOL    HW121896   0.584   2.595   6.848
 6999SOL    HW221897   0.747   2.591   6.843
 7000SOL     OW21898   0.656   4.930   2.485
 7000SOL    HW121899   0.716   4.996   2.439
 7000SOL    HW221900   0.687   4.837   2.465
 7001SOL     OW21901   0.881   1.456   3.677
 7001SOL    HW121902   0.837   1.526   3.620
 7001SOL    HW221903   0.979   1.457   3.660
 7002SOL     OW21904   1.429   4.716   2.927
 7002SOL    HW121905   1.375   4.798   2.947
 7002SOL    HW221906   1.455   4.672   3.013
 7003SOL     OW21907   0.114   5.240   6.675
 7003SOL    HW121908   0.128   5.260   6.578
 7003SOL    HW221909   0.195   5.195   6.712
 7004SOL     OW21910   0.956   0.451   6.948
 7004SOL    HW121911   0.938   0.392   0.001
 7004SOL    HW221912   1.038   0.505   6.965
 7005SOL     OW21913   2.022   5.052   0.453
 7005SOL    HW121914   2.113   5.069   0.417
 7005SOL    HW221915   2.027   5.044   0.553
 7006SOL     OW21916   1.265   0.323   3.579
 7006SOL    HW121917   1.195   0.394   3.572
 7006SOL    HW221918   1.242   0.260   3.653
 7007SOL     OW21919   2.008   6.607   6.140
 7007SOL    HW121920   1.977   6.701   6.150
 7007SOL    HW221921   1.943   6.545   6.185
 7008SOL     OW21922   6.174   2.947   2.934
 7008SOL    HW121923   6.257   2.896   2.960
 7008SOL    HW221924   6.130   2.983   3.016
 7009SOL     OW21925   5.366   5.217   2.217
 7009SOL    HW121926   5.308   5.234   2.138
 7009SOL    HW221927   5.314   5.233   2.301
 7010SOL     OW21928   4.926   2.506   3.047
 7010SOL    HW121929   4.864   2.475   3.119
 7010SOL    HW221930   4.892   2.592   3.008
 7011SOL     OW21931   2.051   5.746   6.881
 7011SOL    HW121932   2.139   5.794   6.893
 7011SOL    HW221933   2.007   5.735   6.970
 7012SOL     OW21934   0.879   3.587   0.301
 7012SOL    HW121935   0.899   3.623   0.210
 7012SOL    HW221936   0.823   3.652   0.351
 7013SOL     OW21937   2.424   2.529   6.823
 7013SOL    HW121938   2.353   2.511   6.755
 7013SOL    HW221939   2.441   2.446   6.876
 7014SOL     OW21940   0.322   3.875   1.270
 7014SOL    HW121941   0.389   3.926   1.323
 7014SOL    HW221942   0.254   3.939   1.232
 7015SOL     OW21943   5.985   6.763   1.339
 7015SOL    HW121944   5.952   6.788   1.430
 7015SOL    HW221945   6.081   6.736   1.344
 7016SOL     OW21946   2.546   5.005   0.943
 7016SOL    HW121947   2.591   5.050   1.021
 7016SOL    HW221948   2.513   4.916   0.971
 7017SOL     OW21949   6.197   3.826   6.897
 7017SOL    HW121950   6.124   3.863   6.840
 7017SOL    HW221951   6.285   3.840   6.852
 7018SOL     OW21952   6.561   2.455   4.251
 7018SOL    HW121953   6.582   2.436   4.347
 7018SOL    HW221954   6.640   2.434   4.194
 7019SOL     OW21955   3.101   6.553   2.342
 7019SOL    HW121956   3.135   6.467   2.304
 7019SOL    HW221957   3.086   6.619   2.269
 7020SOL     OW21958   6.534   1.870   0.597
 7020SOL    HW121959   6.632   1.885   0.605
 7020SOL    HW221960   6.497   1.840   0.685
 7021SOL     OW21961   0.722   2.329   4.806
 7021SOL    HW121962   0.671   2.260   4.857
 7021SOL    HW221963   0.670   2.415   4.804
 7022SOL     OW21964   2.031   3.510   1.370
 7022SOL    HW121965   1.977   3.575   1.425
 7022SOL    HW221966   2.118   3.494   1.415
 7023SOL     OW21967   6.479   1.781   0.855
 7023SOL    HW121968   6.489   1.727   0.938
 7023SOL    HW221969   6.454   1.875   0.880
 7024SOL     OW21970   3.597   4.682   5.372
 7024SOL    HW121971   3.565   4.654   5.462
 7024SOL    HW221972   3.669   4.620   5.341
 7025SOL     OW21973   3.624   0.520   0.993
 7025SOL    HW121974   3.643   0.471   0.908
 7025SOL    HW221975   3.702   0.513   1.054
 7026SOL     OW21976   3.147   2.315   1.463
 7026SOL    HW121977   3.063   2.260   1.472
 7026SOL    HW221978   3.150   2.383   1.536
 7027SOL     OW21979   2.660   4.309   0.526
 7027SOL    HW121980   2.617   4.240   0.585
 7027SOL    HW221981   2.609   4.395   0.532
 7028SOL     OW21982   3.123   0.453   2.053
 7028SOL    HW121983   3.219   0.429   2.067
 7028SOL    HW221984   3.117   0.548   2.024
 7029SOL     OW21985   3.385   4.163   3.269
 7029SOL    HW121986   3.387   4.234   3.199
 7029SOL    HW221987   3.338   4.082   3.234
 7030SOL     OW21988   5.680   6.960   4.883
 7030SOL    HW121989   5.698   0.022   4.839
 7030SOL    HW221990   5.666   6.890   4.813
 7031SOL     OW21991   5.739   4.619   1.092
 7031SOL    HW121992   5.833   4.643   1.069
 7031SOL    HW221993   5.707   4.676   1.168
 7032SOL     OW21994   3.580   4.997   3.819
 7032SOL    HW121995   3.635   4.925   3.862
 7032SOL    HW221996   3.605   5.085   3.859
 7033SOL     OW21997   2.545   1.771   5.571
 7033SOL    HW121998   2.521   1.841   5.638
 7033SOL    HW221999   2.568   1.686   5.619
 7034SOL     OW22000   6.424   2.424   2.809
 7034SOL    HW122001   6.366   2.502   2.785
 7034SOL    HW222002   6.441   2.425   2.908
 7035SOL     OW22003   3.681   2.461   0.733
 7035SOL    HW122004   3.649   2.411   0.813
 7035SOL    HW222005   3.740   2.401   0.678
 7036SOL     OW22006   6.674   1.730   2.061
 7036SOL    HW122007   6.761   1.720   2.109
 7036SOL    HW222008   6.631   1.816   2.088
 7037SOL     OW22009   0.370   1.707   5.187
 7037SOL    HW122010   0.377   1.619   5.140
 7037SOL    HW222011   0.452   1.721   5.243
 7038SOL     OW22012   1.258   3.731   0.194
 7038SOL    HW122013   1.210   3.708   0.279
 7038SOL    HW222014   1.212   3.807   0.148
 7039SOL     OW22015   6.114   0.332   1.789
 7039SOL    HW122016   6.062   0.373   1.715
 7039SOL    HW222017   6.159   0.249   1.757
 7040SOL     OW22018   4.896   3.000   4.725
 7040SOL    HW122019   4.983   2.978   4.682
 7040SOL    HW222020   4.833   2.923   4.716
 7041SOL     OW22021   0.702   6.359   2.791
 7041SOL    HW122022   0.737   6.361   2.697
 7041SOL    HW222023   0.768   6.405   2.851
 7042SOL     OW22024   4.523   5.158   5.564
 7042SOL    HW122025   4.502   5.242   5.613
 7042SOL    HW222026   4.522   5.176   5.466
 7043SOL     OW22027   2.171   5.969   0.423
 7043SOL    HW122028   2.251   5.982   0.363
 7043SOL    HW222029   2.175   5.877   0.463
 7044SOL     OW22030   4.977   6.277   5.335
 7044SOL    HW122031   5.025   6.340   5.395
 7044SOL    HW222032   4.886   6.313   5.314
 7045SOL     OW22033   5.233   0.604   1.498
 7045SOL    HW122034   5.247   0.686   1.554
 7045SOL    HW222035   5.289   0.530   1.533
 7046SOL     OW22036   3.129   0.921   2.306
 7046SOL    HW122037   3.077   0.838   2.290
 7046SOL    HW222038   3.171   0.917   2.397
 7047SOL     OW22039   1.020   6.711   1.174
 7047SOL    HW122040   0.922   6.688   1.175
 7047SOL    HW222041   1.049   6.731   1.081
 7048SOL     OW22042   0.582   5.520   4.839
 7048SOL    HW122043   0.563   5.426   4.869
 7048SOL    HW222044   0.497   5.570   4.828
 7049SOL     OW22045   2.176   1.528   5.016
 7049SOL    HW122046   2.175   1.570   4.925
 7049SOL    HW222047   2.097   1.560   5.068
 7050SOL     OW22048   4.173   4.568   0.395
 7050SOL    HW122049   4.194   4.498   0.464
 7050SOL    HW222050   4.241   4.564   0.322
 7051SOL     OW22051   2.080   0.837   2.246
 7051SOL    HW122052   2.031   0.836   2.159
 7051SOL    HW222053   2.078   0.930   2.284
 7052SOL     OW22054   5.777   2.273   2.857
 7052SOL    HW122055   5.678   2.257   2.857
 7052SOL    HW222056   5.804   2.317   2.771
 7053SOL     OW22057   0.843   4.495   3.280
 7053SOL    HW122058   0.793   4.422   3.327
 7053SOL    HW222059   0.880   4.459   3.194
 7054SOL     OW22060   5.150   6.763   0.872
 7054SOL    HW122061   5.077   6.741   0.807
 7054SOL    HW222062   5.175   6.859   0.862
 7055SOL     OW22063   2.156   0.091   7.024
 7055SOL    HW122064   2.134   0.132   6.936
 7055SOL    HW222065   2.188   7.024   7.011
 7056SOL     OW22066   0.760   5.589   1.398
 7056SOL    HW122067   0.699   5.651   1.447
 7056SOL    HW222068   0.855   5.612   1.419
 7057SOL     OW22069   2.985   5.999   4.861
 7057SOL    HW122070   2.904   6.052   4.836
 7057SOL    HW222071   3.023   6.034   4.946
 7058SOL     OW22072   5.735   2.969   5.660
 7058SOL    HW122073   5.791   2.953   5.579
 7058SOL    HW222074   5.659   2.904   5.661
 7059SOL     OW22075   1.844   1.198   3.900
 7059SOL    HW122076   1.894   1.179   3.985
 7059SOL    HW222077   1.747   1.180   3.914
 7060SOL     OW22078   3.041   2.301   0.993
 7060SOL    HW122079   2.996   2.357   1.062
 7060SOL    HW222080   3.072   2.216   1.034
 7061SOL     OW22081   1.208   6.465   1.275
 7061SOL    HW122082   1.222   6.485   1.178
 7061SOL    HW222083   1.113   6.481   1.300
 7062SOL     OW22084   3.573   0.699   5.290
 7062SOL    HW122085   3.495   0.676   5.231
 7062SOL    HW222086   3.645   0.631   5.278
 7063SOL     OW22087   0.084   1.183   1.192
 7063SOL    HW122088   0.123   1.091   1.205
 7063SOL    HW222089   0.136   1.232   1.122
 7064SOL     OW22090   2.232   1.703   5.710
 7064SOL    HW122091   2.210   1.801   5.704
 7064SOL    HW222092   2.165   1.651   5.658
 7065SOL     OW22093   3.214   0.084   2.889
 7065SOL    HW122094   3.173   7.022   2.866
 7065SOL    HW222095   3.209   0.098   2.988
 7066SOL     OW22096   4.390   1.215   1.706
 7066SOL    HW122097   4.484   1.200   1.674
 7066SOL    HW222098   4.333   1.139   1.677
 7067SOL     OW22099   2.918   4.353   5.955
 7067SOL    HW122100   2.966   4.437   5.929
 7067SOL    HW222101   2.899   4.298   5.874
 7068SOL     OW22102   4.518   5.014   2.718
 7068SOL    HW122103   4.477   5.010   2.809
 7068SOL    HW222104   4.531   4.921   2.683
 7069SOL     OW22105   3.264   1.541   5.961
 7069SOL    HW122106   3.360   1.514   5.972
 7069SOL    HW222107   3.226   1.497   5.880
 7070SOL     OW22108   0.601   1.829   5.559
 7070SOL    HW122109   0.550   1.745   5.578
 7070SOL    HW222110   0.696   1.807   5.537
 7071SOL     OW22111   4.443   5.198   6.998
 7071SOL    HW122112   4.478   5.228   6.910
 7071SOL    HW222113   4.389   5.114   6.986
 7072SOL     OW22114   1.345   3.623   5.709
 7072SOL    HW122115   1.417   3.653   5.646
 7072SOL    HW222116   1.325   3.526   5.693
 7073SOL     OW22117   4.339   1.079   4.507
 7073SOL    HW122118   4.402   1.051   4.580
 7073SOL    HW222119   4.365   1.033   4.422
 7074SOL     OW22120   5.791   3.004   2.751
 7074SOL    HW122121   5.779   2.933   2.820
 7074SOL    HW222122   5.888   3.021   2.736
 7075SOL     OW22123   2.033   4.370   2.433
 7075SOL    HW122124   2.092   4.334   2.360
 7075SOL    HW222125   2.032   4.306   2.509
 7076SOL     OW22126   6.248   1.840   1.043
 7076SOL    HW122127   6.286   1.932   1.042
 7076SOL    HW222128   6.297   1.783   0.978
 7077SOL     OW22129   3.688   6.053   2.227
 7077SOL    HW122130   3.691   6.152   2.213
 7077SOL    HW222131   3.685   6.007   2.138
 7078SOL     OW22132   0.016   1.636   7.011
 7078SOL    HW122133   0.020   1.651   0.083
 7078SOL    HW222134   6.949   1.608   6.986
 7079SOL     OW22135   2.609   6.035   5.337
 7079SOL    HW122136   2.564   5.945   5.334
 7079SOL    HW222137   2.708   6.022   5.334
 7080SOL     OW22138   3.719   1.423   6.650
 7080SOL    HW122139   3.745   1.508   6.695
 7080SOL    HW222140   3.620   1.410   6.657
 7081SOL     OW22141   3.573   6.169   6.530
 7081SOL    HW122142   3.622   6.110   6.467
 7081SOL    HW222143   3.546   6.253   6.483
 7082SOL     OW22144   1.565   5.056   2.127
 7082SOL    HW122145   1.565   5.117   2.048
 7082SOL    HW222146   1.654   5.061   2.173
 7083SOL     OW22147   5.463   2.807   3.258
 7083SOL    HW122148   5.370   2.830   3.288
 7083SOL    HW222149   5.499   2.733   3.315
 7084SOL     OW22150   1.321   5.114   0.342
 7084SOL    HW122151   1.275   5.185   0.289
 7084SOL    HW222152   1.405   5.087   0.295
 7085SOL     OW22153   0.343   2.985   2.173
 7085SOL    HW122154   0.386   3.021   2.091
 7085SOL    HW222155   0.313   3.061   2.231
 7086SOL     OW22156   3.866   0.697   3.883
 7086SOL    HW122157   3.813   0.616   3.907
 7086SOL    HW222158   3.804   0.774   3.866
 7087SOL     OW22159   6.118   2.642   4.010
 7087SOL    HW122160   6.027   2.620   4.045
 7087SOL    HW222161   6.187   2.623   4.080
 7088SOL     OW22162   6.145   1.646   5.535
 7088SOL    HW122163   6.149   1.740   5.569
 7088SOL    HW222164   6.119   1.646   5.439
 7089SOL     OW22165   3.680   6.324   2.194
 7089SOL    HW122166   3.671   6.409   2.142
 7089SOL    HW222167   3.626   6.331   2.278
 7090SOL     OW22168   5.726   3.221   1.749
 7090SOL    HW122169   5.712   3.250   1.844
 7090SOL    HW222170   5.688   3.289   1.687
 7091SOL     OW22171   5.541   6.822   5.911
 7091SOL    HW122172   5.454   6.867   5.888
 7091SOL    HW222173   5.609   6.892   5.932
 7092SOL     OW22174   3.975   0.231   6.036
 7092SOL    HW122175   3.982   0.329   6.054
 7092SOL    HW222176   4.051   0.183   6.080
 7093SOL     OW22177   4.236   3.315   0.447
 7093SOL    HW122178   4.280   3.395   0.406
 7093SOL    HW222179   4.305   3.261   0.496
 7094SOL     OW22180   4.285   0.942   5.512
 7094SOL    HW122181   4.230   0.931   5.429
 7094SOL    HW222182   4.298   1.039   5.531
 7095SOL     OW22183   2.686   5.223   3.208
 7095SOL    HW122184   2.783   5.209   3.189
 7095SOL    HW222185   2.632   5.166   3.147
 7096SOL     OW22186   0.293   4.791   0.282
 7096SOL    HW122187   0.292   4.752   0.374
 7096SOL    HW222188   0.200   4.817   0.256
 7097SOL     OW22189   4.908   2.070   3.330
 7097SOL    HW122190   4.816   2.108   3.322
 7097SOL    HW222191   4.961   2.092   3.249
 7098SOL     OW22192   1.003   1.155   2.259
 7098SOL    HW122193   1.093   1.135   2.220
 7098SOL    HW222194   0.976   1.081   2.320
 7099SOL     OW22195   3.030   1.441   5.131
 7099SOL    HW122196   2.959   1.400   5.188
 7099SOL    HW222197   3.023   1.541   5.136
 7100SOL     OW22198   0.893   4.349   1.159
 7100SOL    HW122199   0.854   4.343   1.067
 7100SOL    HW222200   0.826   4.318   1.226
 7101SOL     OW22201   2.579   0.035   4.139
 7101SOL    HW122202   2.575   7.019   4.048
 7101SOL    HW222203   2.612   6.993   4.205
 7102SOL     OW22204   5.308   2.076   2.521
 7102SOL    HW122205   5.402   2.047   2.535
 7102SOL    HW222206   5.258   2.005   2.471
 7103SOL     OW22207   6.558   3.668   4.681
 7103SOL    HW122208   6.513   3.631   4.600
 7103SOL    HW222209   6.626   3.736   4.654
 7104SOL     OW22210   4.368   2.300   4.322
 7104SOL    HW122211   4.293   2.276   4.260
 7104SOL    HW222212   4.357   2.395   4.351
 7105SOL     OW22213   3.033   3.573   1.607
 7105SOL    HW122214   3.109   3.627   1.643
 7105SOL    HW222215   2.999   3.511   1.678
 7106SOL     OW22216   2.230   2.157   2.754
 7106SOL    HW122217   2.252   2.064   2.725
 7106SOL    HW222218   2.218   2.215   2.674
 7107SOL     OW22219   3.754   0.405   0.778
 7107SOL    HW122220   3.706   0.356   0.705
 7107SOL    HW222221   3.842   0.361   0.795
 7108SOL     OW22222   2.662   6.556   1.824
 7108SOL    HW122223   2.639   6.528   1.731
 7108SOL    HW222224   2.581   6.592   1.870
 7109SOL     OW22225   2.265   5.247   5.996
 7109SOL    HW122226   2.231   5.213   5.909
 7109SOL    HW222227   2.284   5.169   6.057
 7110SOL     OW22228   2.601   5.526   5.783
 7110SOL    HW122229   2.549   5.610   5.765
 7110SOL    HW222230   2.560   5.477   5.860
 7111SOL     OW22231   6.405   2.080   3.867
 7111SOL    HW122232   6.307   2.099   3.873
 7111SOL    HW222233   6.426   2.038   3.779
 7112SOL     OW22234   6.623   4.757   4.235
 7112SOL    HW122235   6.631   4.826   4.162
 7112SOL    HW222236   6.703   4.697   4.233
 7113SOL     OW22237   3.287   0.088   5.017
 7113SOL    HW122238   3.269   0.047   4.928
 7113SOL    HW222239   3.313   0.184   5.004
 7114SOL     OW22240   6.169   3.533   0.468
 7114SOL    HW122241   6.140   3.447   0.511
 7114SOL    HW222242   6.144   3.610   0.527
 7115SOL     OW22243   5.093   3.070   6.252
 7115SOL    HW122244   5.177   3.116   6.223
 7115SOL    HW222245   5.033   3.136   6.296
 7116SOL     OW22246   6.846   5.263   4.594
 7116SOL    HW122247   6.860   5.267   4.693
 7116SOL    HW222248   6.800   5.177   4.570
 7117SOL     OW22249   3.017   0.837   2.741
 7117SOL    HW122250   2.932   0.792   2.768
 7117SOL    HW222251   2.996   0.914   2.681
 7118SOL     OW22252   5.528   4.954   5.780
 7118SOL    HW122253   5.461   4.980   5.710
 7118SOL    HW222254   5.620   4.976   5.747
 7119SOL     OW22255   2.636   6.491   3.786
 7119SOL    HW122256   2.706   6.540   3.734
 7119SOL    HW222257   2.552   6.544   3.788
 7120SOL     OW22258   4.506   2.146   2.483
 7120SOL    HW122259   4.478   2.108   2.571
 7120SOL    HW222260   4.426   2.156   2.424
 7121SOL     OW22261   1.625   6.067   1.651
 7121SOL    HW122262   1.537   6.049   1.696
 7121SOL    HW222263   1.611   6.072   1.552
 7122SOL     OW22264   2.699   2.625   6.493
 7122SOL    HW122265   2.787   2.604   6.451
 7122SOL    HW222266   2.641   2.671   6.426
 7123SOL     OW22267   5.260   3.314   6.141
 7123SOL    HW122268   5.239   3.410   6.160
 7123SOL    HW222269   5.271   3.302   6.043
 7124SOL     OW22270   3.644   2.730   5.818
 7124SOL    HW122271   3.560   2.716   5.870
 7124SOL    HW222272   3.631   2.804   5.752
 7125SOL     OW22273   1.358   5.905   1.716
 7125SOL    HW122274   1.376   5.828   1.776
 7125SOL    HW222275   1.262   5.906   1.691
 7126SOL     OW22276   3.834   4.586   0.080
 7126SOL    HW122277   3.821   4.627   0.171
 7126SOL    HW222278   3.878   4.497   0.090
 7127SOL     OW22279   2.444   0.009   4.967
 7127SOL    HW122280   2.475   0.050   5.053
 7127SOL    HW222281   2.360   0.055   4.937
 7128SOL     OW22282   4.398   3.669   0.539
 7128SOL    HW122283   4.481   3.725   0.543
 7128SOL    HW222284   4.395   3.608   0.618
 7129SOL     OW22285   6.796   1.893   0.655
 7129SOL    HW122286   6.883   1.933   0.627
 7129SOL    HW222287   6.792   1.889   0.755
 7130SOL     OW22288   3.335   6.976   3.355
 7130SOL    HW122289   3.381   6.940   3.437
 7130SOL    HW222290   3.236   6.976   3.370
 7131SOL     OW22291   2.435   1.527   2.615
 7131SOL    HW122292   2.502   1.586   2.571
 7131SOL    HW222293   2.445   1.534   2.714
 7132SOL     OW22294   5.503   4.948   2.539
 7132SOL    HW122295   5.497   4.937   2.440
 7132SOL    HW222296   5.413   4.935   2.580
 7133SOL     OW22297   3.965   6.653   2.270
 7133SOL    HW122298   3.898   6.682   2.201
 7133SOL    HW222299   3.917   6.633   2.356
 7134SOL     OW22300   6.381   4.739   6.124
 7134SOL    HW122301   6.402   4.779   6.035
 7134SOL    HW222302   6.444   4.775   6.193
 7135SOL     OW22303   2.523   5.691   0.118
 7135SOL    HW122304   2.590   5.740   0.174
 7135SOL    HW222305   2.431   5.711   0.152
 7136SOL     OW22306   1.180   3.100   2.893
 7136SOL    HW122307   1.083   3.077   2.902
 7136SOL    HW222308   1.223   3.037   2.828
 7137SOL     OW22309   1.344   6.933   1.792
 7137SOL    HW122310   1.312   6.935   1.887
 7137SOL    HW222311   1.349   6.839   1.760
 7138SOL     OW22312   6.718   4.122   0.991
 7138SOL    HW122313   6.656   4.075   0.928
 7138SOL    HW222314   6.813   4.101   0.966
 7139SOL     OW22315   5.667   5.860   0.962
 7139SOL    HW122316   5.700   5.766   0.959
 7139SOL    HW222317   5.574   5.864   0.927
 7140SOL     OW22318   6.008   3.805   0.618
 7140SOL    HW122319   6.009   3.894   0.572
 7140SOL    HW222320   6.102   3.779   0.643
 7141SOL     OW22321   2.490   2.386   0.390
 7141SOL    HW122322   2.505   2.478   0.426
 7141SOL    HW222323   2.495   2.320   0.465
 7142SOL     OW22324   3.961   6.091   5.985
 7142SOL    HW122325   3.926   6.073   5.893
 7142SOL    HW222326   4.047   6.043   5.998
 7143SOL     OW22327   2.846   3.258   5.696
 7143SOL    HW122328   2.847   3.268   5.597
 7143SOL    HW222329   2.787   3.328   5.736
 7144SOL     OW22330   6.081   1.655   6.295
 7144SOL    HW122331   5.981   1.661   6.299
 7144SOL    HW222332   6.121   1.697   6.376
 7145SOL     OW22333   0.335   3.571   6.927
 7145SOL    HW122334   0.324   3.472   6.934
 7145SOL    HW222335   0.337   3.611   7.019
 7146SOL     OW22336   0.208   1.605   4.391
 7146SOL    HW122337   0.233   1.571   4.482
 7146SOL    HW222338   0.282   1.661   4.354
 7147SOL     OW22339   6.748   0.618   6.929
 7147SOL    HW122340   6.779   0.650   7.018
 7147SOL    HW222341   6.823   0.623   6.863
 7148SOL     OW22342   5.432   6.677   0.511
 7148SOL    HW122343   5.352   6.685   0.451
 7148SOL    HW222344   5.514   6.667   0.456
 7149SOL     OW22345   6.939   3.642   0.372
 7149SOL    HW122346   0.003   3.615   0.341
 7149SOL    HW222347   6.891   3.563   0.411
 7150SOL     OW22348   2.308   2.253   0.023
 7150SOL    HW122349   2.390   2.197   0.010
 7150SOL    HW222350   2.320   2.308   0.106
 7151SOL     OW22351   5.740   2.355   6.990
 7151SOL    HW122352   5.771   2.370   6.896
 7151SOL    HW222353   5.640   2.363   6.994
 7152SOL     OW22354   5.938   0.390   4.769
 7152SOL    HW122355   5.897   0.397   4.678
 7152SOL    HW222356   5.944   0.481   4.811
 7153SOL     OW22357   4.984   5.861   0.140
 7153SOL    HW122358   4.932   5.803   0.201
 7153SOL    HW222359   4.953   5.848   0.046
 7154SOL     OW22360   5.096   6.174   2.065
 7154SOL    HW122361   5.191   6.189   2.038
 7154SOL    HW222362   5.084   6.078   2.092
 7155SOL     OW22363   1.136   0.141   1.467
 7155SOL    HW122364   1.121   0.135   1.566
 7155SOL    HW222365   1.083   0.069   1.421
 7156SOL     OW22366   0.147   3.365   5.413
 7156SOL    HW122367   0.123   3.434   5.481
 7156SOL    HW222368   0.137   3.404   5.321
 7157SOL     OW22369   6.994   4.237   6.101
 7157SOL    HW122370   7.001   4.336   6.112
 7157SOL    HW222371   0.047   4.203   6.052
 7158SOL     OW22372   5.215   6.532   3.491
 7158SOL    HW122373   5.306   6.527   3.533
 7158SOL    HW222374   5.219   6.587   3.408
 7159SOL     OW22375   0.588   6.326   3.707
 7159SOL    HW122376   0.679   6.366   3.704
 7159SOL    HW222377   0.519   6.398   3.711
 7160SOL     OW22378   5.943   6.072   2.269
 7160SOL    HW122379   6.038   6.059   2.297
 7160SOL    HW222380   5.940   6.095   2.172
 7161SOL     OW22381   3.883   2.964   1.494
 7161SOL    HW122382   3.912   3.003   1.581
 7161SOL    HW222383   3.886   2.865   1.499
 7162SOL     OW22384   0.671   6.456   0.272
 7162SOL    HW122385   0.575   6.459   0.299
 7162SOL    HW222386   0.707   6.363   0.285
 7163SOL     OW22387   6.925   5.495   0.280
 7163SOL    HW122388   6.841   5.486   0.226
 7163SOL    HW222389   6.911   5.452   0.369
 7164SOL     OW22390   1.203   6.354   6.792
 7164SOL    HW122391   1.204   6.400   6.703
 7164SOL    HW222392   1.257   6.406   6.858
 7165SOL     OW22393   4.322   2.975   6.062
 7165SOL    HW122394   4.354   2.888   6.024
 7165SOL    HW222395   4.400   3.035   6.079
 7166SOL     OW22396   0.127   6.349   5.890
 7166SOL    HW122397   0.029   6.338   5.877
 7166SOL    HW222398   0.170   6.260   5.904
 7167SOL     OW22399   0.937   3.973   5.825
 7167SOL    HW122400   1.006   3.916   5.779
 7167SOL    HW222401   0.942   4.066   5.790
 7168SOL     OW22402   0.046   0.532   2.012
 7168SOL    HW122403   0.132   0.523   1.962
 7168SOL    HW222404   0.063   0.581   2.098
 7169SOL     OW22405   1.937   4.978   5.291
 7169SOL    HW122406   1.922   5.011   5.385
 7169SOL    HW222407   2.035   4.971   5.274
 7170SOL     OW22408   4.240   2.475   1.804
 7170SOL    HW122409   4.337   2.488   1.780
 7170SOL    HW222410   4.234   2.437   1.896
 7171SOL     OW22411   0.057   5.912   1.691
 7171SOL    HW122412   6.998   5.958   1.716
 7171SOL    HW222413   0.038   5.839   1.626
 7172SOL     OW22414   1.159   2.277   3.475
 7172SOL    HW122415   1.225   2.211   3.439
 7172SOL    HW222416   1.140   2.347   3.406
 7173SOL     OW22417   3.821   5.266   4.341
 7173SOL    HW122418   3.837   5.350   4.289
 7173SOL    HW222419   3.768   5.287   4.423
 7174SOL     OW22420   6.750   3.686   2.985
 7174SOL    HW122421   6.819   3.613   2.981
 7174SOL    HW222422   6.666   3.653   2.941
 7175SOL     OW22423   5.800   2.729   5.933
 7175SOL    HW122424   5.779   2.771   6.021
 7175SOL    HW222425   5.718   2.728   5.875
 7176SOL     OW22426   6.108   1.974   6.232
 7176SOL    HW122427   6.165   1.998   6.311
 7176SOL    HW222428   6.103   1.875   6.223
 7177SOL     OW22429   1.272   5.328   3.447
 7177SOL    HW122430   1.336   5.339   3.371
 7177SOL    HW222431   1.178   5.330   3.412
 7178SOL     OW22432   0.499   6.045   5.348
 7178SOL    HW122433   0.565   6.033   5.274
 7178SOL    HW222434   0.467   6.139   5.349
 7179SOL     OW22435   5.302   4.697   5.403
 7179SOL    HW122436   5.215   4.716   5.358
 7179SOL    HW222437   5.376   4.739   5.351
 7180SOL     OW22438   6.583   1.935   2.456
 7180SOL    HW122439   6.602   1.856   2.514
 7180SOL    HW222440   6.615   2.018   2.501
 7181SOL     OW22441   4.068   0.225   0.321
 7181SOL    HW122442   4.013   0.192   0.245
 7181SOL    HW222443   4.041   0.319   0.344
 7182SOL     OW22444   2.433   0.709   2.469
 7182SOL    HW122445   2.391   0.777   2.530
 7182SOL    HW222446   2.371   0.688   2.394
 7183SOL     OW22447   1.736   0.003   1.003
 7183SOL    HW122448   1.775   0.073   1.063
 7183SOL    HW222449   1.674   0.046   0.937
 7184SOL     OW22450   0.002   1.410   3.284
 7184SOL    HW122451   6.965   1.339   3.315
 7184SOL    HW222452   6.977   1.484   3.241
 7185SOL     OW22453   3.487   0.078   3.662
 7185SOL    HW122454   3.552   0.074   3.737
 7185SOL    HW222455   3.455   7.012   3.640
 7186SOL     OW22456   6.484   2.957   0.898
 7186SOL    HW122457   6.518   2.956   0.804
 7186SOL    HW222458   6.557   2.929   0.961
 7187SOL     OW22459   2.955   3.709   3.657
 7187SOL    HW122460   2.946   3.671   3.749
 7187SOL    HW222461   2.951   3.809   3.662
 7188SOL     OW22462   4.610   5.184   6.671
 7188SOL    HW122463   4.703   5.174   6.708
 7188SOL    HW222464   4.614   5.234   6.585
 7189SOL     OW22465   6.927   1.855   6.035
 7189SOL    HW122466   6.852   1.841   5.970
 7189SOL    HW222467   6.972   1.942   6.016
 7190SOL     OW22468   5.531   5.500   0.864
 7190SOL    HW122469   5.474   5.578   0.840
 7190SOL    HW222470   5.502   5.463   0.953
 7191SOL     OW22471   7.005   5.121   2.381
 7191SOL    HW122472   6.987   5.026   2.405
 7191SOL    HW222473   0.059   5.154   2.432
 7192SOL     OW22474   3.262   4.344   5.766
 7192SOL    HW122475   3.205   4.426   5.761
 7192SOL    HW222476   3.206   4.263   5.748
 7193SOL     OW22477   4.016   1.438   4.479
 7193SOL    HW122478   3.927   1.396   4.463
 7193SOL    HW222479   4.077   1.373   4.523
 7194SOL     OW22480   3.716   2.598   5.348
 7194SOL    HW122481   3.652   2.669   5.319
 7194SOL    HW222482   3.684   2.556   5.433
 7195SOL     OW22483   6.689   4.015   5.182
 7195SOL    HW122484   6.589   4.016   5.170
 7195SOL    HW222485   6.717   4.093   5.237
 7196SOL     OW22486   3.000   3.926   1.370
 7196SOL    HW122487   3.070   3.898   1.304
 7196SOL    HW222488   2.955   3.845   1.407
 7197SOL     OW22489   3.316   4.657   6.648
 7197SOL    HW122490   3.357   4.681   6.736
 7197SOL    HW222491   3.381   4.677   6.574
 7198SOL     OW22492   1.625   6.398   1.846
 7198SOL    HW122493   1.603   6.363   1.755
 7198SOL    HW222494   1.632   6.498   1.843
 7199SOL     OW22495   6.118   1.006   3.888
 7199SOL    HW122496   6.073   0.918   3.903
 7199SOL    HW222497   6.056   1.067   3.840
 7200SOL     OW22498   0.344   4.327   6.219
 7200SOL    HW122499   0.388   4.256   6.164
 7200SOL    HW222500   0.410   4.399   6.239
 7201SOL     OW22501   5.754   5.362   4.686
 7201SOL    HW122502   5.763   5.270   4.646
 7201SOL    HW222503   5.729   5.427   4.615
 7202SOL     OW22504   3.919   6.348   6.072
 7202SOL    HW122505   3.957   6.257   6.053
 7202SOL    HW222506   3.936   6.409   5.995
 7203SOL     OW22507   1.072   1.930   1.203
 7203SOL    HW122508   1.069   1.928   1.303
 7203SOL    HW222509   1.066   2.025   1.172
 7204SOL     OW22510   5.354   0.720   2.846
 7204SOL    HW122511   5.282   0.688   2.908
 7204SOL    HW222512   5.420   0.775   2.897
 7205SOL     OW22513   3.358   1.249   3.909
 7205SOL    HW122514   3.354   1.220   4.005
 7205SOL    HW222515   3.448   1.289   3.890
 7206SOL     OW22516   1.455   2.649   6.544
 7206SOL    HW122517   1.500   2.707   6.476
 7206SOL    HW222518   1.416   2.706   6.616
 7207SOL     OW22519   1.683   2.408   3.441
 7207SOL    HW122520   1.767   2.449   3.476
 7207SOL    HW222521   1.674   2.315   3.477
 7208SOL     OW22522   3.080   0.479   3.475
 7208SOL    HW122523   3.132   0.528   3.545
 7208SOL    HW222524   3.115   0.504   3.385
 7209SOL     OW22525   4.654   1.419   3.197
 7209SOL    HW122526   4.557   1.443   3.206
 7209SOL    HW222527   4.698   1.422   3.286
 7210SOL     OW22528   3.247   1.064   4.939
 7210SOL    HW122529   3.346   1.071   4.927
 7210SOL    HW222530   3.219   1.122   5.015
 7211SOL     OW22531   5.176   5.938   6.255
 7211SOL    HW122532   5.138   6.027   6.229
 7211SOL    HW222533   5.142   5.912   6.346
 7212SOL     OW22534   7.007   5.958   4.293
 7212SOL    HW122535   6.998   5.956   4.194
 7212SOL    HW222536   0.078   5.966   4.318
 7213SOL     OW22537   5.641   2.851   0.409
 7213SOL    HW122538   5.648   2.912   0.488
 7213SOL    HW222539   5.727   2.801   0.397
 7214SOL     OW22540   6.041   1.530   5.900
 7214SOL    HW122541   5.980   1.531   5.821
 7214SOL    HW222542   6.048   1.622   5.938
 7215SOL     OW22543   6.686   1.708   3.008
 7215SOL    HW122544   6.655   1.774   2.940
 7215SOL    HW222545   6.607   1.666   3.053
 7216SOL     OW22546   5.500   6.296   3.949
 7216SOL    HW122547   5.556   6.321   3.869
 7216SOL    HW222548   5.501   6.196   3.960
 7217SOL     OW22549   1.361   3.287   3.041
 7217SOL    HW122550   1.423   3.350   2.994
 7217SOL    HW222551   1.362   3.199   2.994
 7218SOL     OW22552   0.099   2.989   5.658
 7218SOL    HW122553   0.151   2.961   5.578
 7218SOL    HW222554   0.050   2.910   5.696
 7219SOL     OW22555   3.253   5.808   1.316
 7219SOL    HW122556   3.180   5.796   1.248
 7219SOL    HW222557   3.278   5.719   1.354
 7220SOL     OW22558   0.687   3.896   4.350
 7220SOL    HW122559   0.753   3.970   4.363
 7220SOL    HW222560   0.595   3.930   4.372
 7221SOL     OW22561   4.865   4.998   3.990
 7221SOL    HW122562   4.860   5.041   3.900
 7221SOL    HW222563   4.815   5.053   4.057
 7222SOL     OW22564   5.962   5.101   3.745
 7222SOL    HW122565   6.009   5.180   3.783
 7222SOL    HW222566   5.865   5.123   3.732
 7223SOL     OW22567   6.321   5.416   1.531
 7223SOL    HW122568   6.236   5.456   1.496
 7223SOL    HW222569   6.373   5.487   1.579
 7224SOL     OW22570   6.123   2.655   3.253
 7224SOL    HW122571   6.166   2.576   3.209
 7224SOL    HW222572   6.049   2.690   3.196
 7225SOL     OW22573   1.352   5.205   0.598
 7225SOL    HW122574   1.319   5.142   0.669
 7225SOL    HW222575   1.351   5.159   0.509
 7226SOL     OW22576   6.539   6.761   0.370
 7226SOL    HW122577   6.619   6.710   0.338
 7226SOL    HW222578   6.535   6.850   0.324
 7227SOL     OW22579   1.799   0.347   1.851
 7227SOL    HW122580   1.703   0.373   1.844
 7227SOL    HW222581   1.806   0.247   1.850
 7228SOL     OW22582   6.714   3.813   3.532
 7228SOL    HW122583   6.688   3.764   3.448
 7228SOL    HW222584   6.660   3.778   3.608
 7229SOL     OW22585   5.457   6.352   5.204
 7229SOL    HW122586   5.456   6.264   5.252
 7229SOL    HW222587   5.365   6.371   5.169
 7230SOL     OW22588   2.575   4.693   6.305
 7230SOL    HW122589   2.617   4.675   6.216
 7230SOL    HW222590   2.552   4.606   6.349
 7231SOL     OW22591   3.640   2.410   6.887
 7231SOL    HW122592   3.628   2.325   6.835
 7231SOL    HW222593   3.724   2.455   6.857
 7232SOL     OW22594   4.309   5.362   3.314
 7232SOL    HW122595   4.406   5.346   3.300
 7232SOL    HW222596   4.283   5.329   3.405
 7233SOL     OW22597   0.636   1.799   0.093
 7233SOL    HW122598   0.555   1.794   0.034
 7233SOL    HW222599   0.654   1.894   0.118
 7234SOL     OW22600   5.186   5.716   3.880
 7234SOL    HW122601   5.251   5.782   3.843
 7234SOL    HW222602   5.219   5.623   3.864
 7235SOL     OW22603   6.830   0.116   0.898
 7235SOL    HW122604   6.865   0.201   0.858
 7235SOL    HW222605   6.755   0.138   0.961
 7236SOL     OW22606   0.929   4.275   3.073
 7236SOL    HW122607   0.858   4.223   3.026
 7236SOL    HW222608   0.965   4.221   3.148
 7237SOL     OW22609   4.566   1.492   6.290
 7237SOL    HW122610   4.490   1.440   6.329
 7237SOL    HW222611   4.614   1.436   6.223
 7238SOL     OW22612   4.878   3.303   6.873
 7238SOL    HW122613   4.893   3.361   6.953
 7238SOL    HW222614   4.849   3.360   6.796
 7239SOL     OW22615   6.251   2.736   2.404
 7239SOL    HW122616   6.283   2.656   2.352
 7239SOL    HW222617   6.200   2.796   2.343
 7240SOL     OW22618   0.403   1.843   1.071
 7240SOL    HW122619   0.396   1.942   1.059
 7240SOL    HW222620   0.311   1.805   1.083
 7241SOL     OW22621   2.266   0.249   3.052
 7241SOL    HW122622   2.201   0.323   3.032
 7241SOL    HW222623   2.237   0.199   3.133
 7242SOL     OW22624   6.784   3.604   5.756
 7242SOL    HW122625   6.760   3.515   5.795
 7242SOL    HW222626   6.807   3.668   5.830
 7243SOL     OW22627   6.674   4.509   6.653
 7243SOL    HW122628   6.753   4.451   6.632
 7243SOL    HW222629   6.706   4.596   6.690
 7244SOL     OW22630   0.099   5.846   0.508
 7244SOL    HW122631   0.084   5.811   0.600
 7244SOL    HW222632   0.123   5.771   0.446
 7245SOL     OW22633   1.716   2.306   6.736
 7245SOL    HW122634   1.794   2.310   6.673
 7245SOL    HW222635   1.668   2.394   6.736
 7246SOL     OW22636   4.630   7.011   4.790
 7246SOL    HW122637   4.576   6.928   4.775
 7246SOL    HW222638   4.573   0.053   4.837
 7247SOL     OW22639   3.502   4.163   4.862
 7247SOL    HW122640   3.439   4.094   4.898
 7247SOL    HW222641   3.568   4.189   4.932
 7248SOL     OW22642   2.570   2.276   5.233
 7248SOL    HW122643   2.599   2.270   5.137
 7248SOL    HW222644   2.620   2.208   5.287
 7249SOL     OW22645   3.870   5.844   3.037
 7249SOL    HW122646   3.968   5.829   3.051
 7249SOL    HW222647   3.840   5.923   3.090
 7250SOL     OW22648   4.719   5.176   5.332
 7250SOL    HW122649   4.711   5.265   5.377
 7250SOL    HW222650   4.764   5.111   5.394
 7251SOL     OW22651   6.909   5.696   3.909
 7251SOL    HW122652   6.995   5.748   3.904
 7251SOL    HW222653   6.929   5.599   3.920
 7252SOL     OW22654   3.800   3.948   1.930
 7252SOL    HW122655   3.748   3.906   1.856
 7252SOL    HW222656   3.740   4.011   1.981
 7253SOL     OW22657   1.090   5.438   6.028
 7253SOL    HW122658   1.143   5.441   6.113
 7253SOL    HW222659   1.150   5.410   5.953
 7254SOL     OW22660   0.452   3.773   4.162
 7254SOL    HW122661   0.547   3.797   4.142
 7254SOL    HW222662   0.395   3.856   4.160
 7255SOL     OW22663   4.676   4.085   0.834
 7255SOL    HW122664   4.735   4.166   0.833
 7255SOL    HW222665   4.732   4.003   0.846
 7256SOL     OW22666   3.088   0.203   3.433
 7256SOL    HW122667   3.063   0.298   3.453
 7256SOL    HW222668   3.187   0.193   3.438
 7257SOL     OW22669   1.206   1.129   4.928
 7257SOL    HW122670   1.157   1.186   4.863
 7257SOL    HW222671   1.302   1.156   4.932
 7258SOL     OW22672   0.440   1.484   2.966
 7258SOL    HW122673   0.484   1.568   2.935
 7258SOL    HW222674   0.345   1.483   2.935
 7259SOL     OW22675   1.159   3.390   2.400
 7259SOL    HW122676   1.233   3.448   2.366
 7259SOL    HW222677   1.194   3.333   2.475
 7260SOL     OW22678   5.764   2.565   0.956
 7260SOL    HW122679   5.795   2.564   0.861
 7260SOL    HW222680   5.664   2.555   0.958
 7261SOL     OW22681   0.192   4.454   7.015
 7261SOL    HW122682   0.233   4.518   0.054
 7261SOL    HW222683   0.259   4.385   6.989
 7262SOL     OW22684   3.112   0.455   5.075
 7262SOL    HW122685   3.059   0.379   5.037
 7262SOL    HW222686   3.050   0.527   5.105
 7263SOL     OW22687   6.723   4.994   5.822
 7263SOL    HW122688   6.693   4.951   5.736
 7263SOL    HW222689   6.667   4.961   5.897
 7264SOL     OW22690   4.916   2.084   1.408
 7264SOL    HW122691   4.850   2.046   1.343
 7264SOL    HW222692   4.935   2.179   1.384
 7265SOL     OW22693   3.316   6.912   5.237
 7265SOL    HW122694   3.289   6.999   5.194
 7265SOL    HW222695   3.235   6.853   5.246
 7266SOL     OW22696   0.113   0.871   2.543
 7266SOL    HW122697   0.080   0.955   2.587
 7266SOL    HW222698   0.035   0.818   2.510
 7267SOL     OW22699   6.563   3.779   5.276
 7267SOL    HW122700   6.576   3.748   5.371
 7267SOL    HW222701   6.614   3.864   5.262
 7268SOL     OW22702   5.412   6.306   4.605
 7268SOL    HW122703   5.407   6.405   4.616
 7268SOL    HW222704   5.380   6.281   4.514
 7269SOL     OW22705   2.621   5.530   4.852
 7269SOL    HW122706   2.697   5.467   4.871
 7269SOL    HW222707   2.561   5.490   4.783
 7270SOL     OW22708   0.288   1.942   4.421
 7270SOL    HW122709   0.195   1.942   4.458
 7270SOL    HW222710   0.286   1.917   4.325
 7271SOL     OW22711   0.997   5.644   3.077
 7271SOL    HW122712   1.079   5.691   3.045
 7271SOL    HW222713   1.023   5.564   3.131
 7272SOL     OW22714   6.487   4.102   1.865
 7272SOL    HW122715   6.484   4.184   1.922
 7272SOL    HW222716   6.437   4.119   1.780
 7273SOL     OW22717   0.409   1.567   4.601
 7273SOL    HW122718   0.329   1.559   4.661
 7273SOL    HW222719   0.481   1.507   4.635
 7274SOL     OW22720   0.078   5.698   0.290
 7274SOL    HW122721   0.042   5.759   0.218
 7274SOL    HW222722   0.026   5.613   0.290
 7275SOL     OW22723   0.286   5.332   3.243
 7275SOL    HW122724   0.337   5.392   3.180
 7275SOL    HW222725   0.337   5.324   3.329
 7276SOL     OW22726   4.903   6.116   3.490
 7276SOL    HW122727   4.828   6.165   3.536
 7276SOL    HW222728   4.922   6.160   3.402
 7277SOL     OW22729   5.075   0.987   6.815
 7277SOL    HW122730   5.128   0.972   6.732
 7277SOL    HW222731   5.023   1.072   6.808
 7278SOL     OW22732   4.049   3.172   2.039
 7278SOL    HW122733   4.103   3.088   2.036
 7278SOL    HW222734   4.055   3.218   1.950
 7279SOL     OW22735   3.581   6.300   6.104
 7279SOL    HW122736   3.623   6.391   6.105
 7279SOL    HW222737   3.650   6.231   6.127
 7280SOL     OW22738   4.304   6.822   5.622
 7280SOL    HW122739   4.284   6.902   5.565
 7280SOL    HW222740   4.339   6.748   5.563
 7281SOL     OW22741   5.583   0.971   6.300
 7281SOL    HW122742   5.528   0.905   6.249
 7281SOL    HW222743   5.569   0.958   6.398
 7282SOL     OW22744   6.207   6.050   3.328
 7282SOL    HW122745   6.270   6.075   3.401
 7282SOL    HW222746   6.113   6.051   3.362
 7283SOL     OW22747   2.523   1.536   2.873
 7283SOL    HW122748   2.528   1.460   2.937
 7283SOL    HW222749   2.610   1.544   2.824
 7284SOL     OW22750   1.114   1.001   4.557
 7284SOL    HW122751   1.147   0.910   4.580
 7284SOL    HW222752   1.047   0.994   4.482
 7285SOL     OW22753   6.008   4.918   1.618
 7285SOL    HW122754   5.996   4.931   1.716
 7285SOL    HW222755   6.075   4.845   1.602
 7286SOL     OW22756   1.673   3.781   0.230
 7286SOL    HW122757   1.611   3.754   0.303
 7286SOL    HW222758   1.743   3.710   0.217
 7287SOL     OW22759   6.288   2.323   6.215
 7287SOL    HW122760   6.303   2.238   6.264
 7287SOL    HW222761   6.278   2.303   6.117
 7288SOL     OW22762   2.493   0.060   6.886
 7288SOL    HW122763   2.502   0.139   6.947
 7288SOL    HW222764   2.580   0.011   6.883
 7289SOL     OW22765   4.127   1.158   3.266
 7289SOL    HW122766   4.071   1.083   3.299
 7289SOL    HW222767   4.142   1.223   3.341
 7290SOL     OW22768   2.267   6.047   4.219
 7290SOL    HW122769   2.317   6.125   4.182
 7290SOL    HW222770   2.210   6.007   4.147
 7291SOL     OW22771   3.752   5.032   1.408
 7291SOL    HW122772   3.728   4.936   1.392
 7291SOL    HW222773   3.839   5.037   1.456
 7292SOL     OW22774   4.124   0.374   5.114
 7292SOL    HW122775   4.079   0.390   5.202
 7292SOL    HW222776   4.082   0.296   5.068
 7293SOL     OW22777   2.495   0.990   5.834
 7293SOL    HW122778   2.528   1.027   5.747
 7293SOL    HW222779   2.553   0.914   5.863
 7294SOL     OW22780   5.750   5.006   6.966
 7294SOL    HW122781   5.844   4.987   6.993
 7294SOL    HW222782   5.687   4.964   0.005
 7295SOL     OW22783   4.084   6.488   1.776
 7295SOL    HW122784   4.146   6.566   1.783
 7295SOL    HW222785   4.019   6.490   1.852
 7296SOL     OW22786   4.216   5.540   0.488
 7296SOL    HW122787   4.196   5.447   0.457
 7296SOL    HW222788   4.146   5.568   0.555
 7297SOL     OW22789   4.757   6.517   2.167
 7297SOL    HW122790   4.809   6.462   2.102
 7297SOL    HW222791   4.815   6.590   2.204
 7298SOL     OW22792   5.459   2.491   4.558
 7298SOL    HW122793   5.462   2.428   4.635
 7298SOL    HW222794   5.513   2.572   4.579
 7299SOL     OW22795   5.561   3.535   0.408
 7299SOL    HW122796   5.589   3.621   0.450
 7299SOL    HW222797   5.471   3.509   0.441
 7300SOL     OW22798   4.315   5.326   0.961
 7300SOL    HW122799   4.241   5.268   0.995
 7300SOL    HW222800   4.357   5.282   0.881
 7301SOL     OW22801   6.161   1.781   6.564
 7301SOL    HW122802   6.141   1.851   6.632
 7301SOL    HW222803   6.259   1.764   6.561
 7302SOL     OW22804   0.198   1.485   6.337
 7302SOL    HW122805   0.193   1.387   6.357
 7302SOL    HW222806   0.253   1.499   6.255
 7303SOL     OW22807   5.232   0.085   1.759
 7303SOL    HW122808   5.203   7.020   1.786
 7303SOL    HW222809   5.175   0.153   1.805
 7304SOL     OW22810   4.119   3.429   4.000
 7304SOL    HW122811   4.140   3.388   4.089
 7304SOL    HW222812   4.023   3.413   3.978
 7305SOL     OW22813   5.829   2.727   6.857
 7305SOL    HW122814   5.896   2.795   6.828
 7305SOL    HW222815   5.760   2.771   6.916
 7306SOL     OW22816   4.508   4.803   1.687
 7306SOL    HW122817   4.586   4.752   1.726
 7306SOL    HW222818   4.425   4.778   1.737
 7307SOL     OW22819   3.778   6.796   2.133
 7307SOL    HW122820   3.795   6.762   2.041
 7307SOL    HW222821   3.809   6.891   2.141
 7308SOL     OW22822   5.123   0.434   4.071
 7308SOL    HW122823   5.197   0.367   4.071
 7308SOL    HW222824   5.161   0.527   4.065
 7309SOL     OW22825   4.476   4.393   0.107
 7309SOL    HW122826   4.546   4.367   0.174
 7309SOL    HW222827   4.519   4.413   0.019
 7310SOL     OW22828   1.855   5.843   2.062
 7310SOL    HW122829   1.917   5.860   2.138
 7310SOL    HW222830   1.762   5.829   2.097
 7311SOL     OW22831   3.241   2.130   2.381
 7311SOL    HW122832   3.274   2.073   2.457
 7311SOL    HW222833   3.305   2.123   2.305
 7312SOL     OW22834   0.425   2.653   6.775
 7312SOL    HW122835   0.326   2.665   6.769
 7312SOL    HW222836   0.471   2.738   6.746
 7313SOL     OW22837   4.213   2.686   6.312
 7313SOL    HW122838   4.307   2.719   6.303
 7313SOL    HW222839   4.175   2.670   6.221
 7314SOL     OW22840   0.815   2.093   4.491
 7314SOL    HW122841   0.864   2.091   4.578
 7314SOL    HW222842   0.865   2.150   4.425
 7315SOL     OW22843   6.682   1.484   5.813
 7315SOL    HW122844   6.707   1.400   5.765
 7315SOL    HW222845   6.718   1.480   5.906
 7316SOL     OW22846   4.099   3.458   3.389
 7316SOL    HW122847   4.094   3.436   3.487
 7316SOL    HW222848   4.081   3.555   3.376
 7317SOL     OW22849   3.329   0.546   4.197
 7317SOL    HW122850   3.331   0.628   4.139
 7317SOL    HW222851   3.254   0.554   4.262
 7318SOL     OW22852   2.381   0.682   1.628
 7318SOL    HW122853   2.346   0.674   1.535
 7318SOL    HW222854   2.462   0.624   1.638
 7319SOL     OW22855   0.158   4.083   6.331
 7319SOL    HW122856   0.217   4.144   6.278
 7319SOL    HW222857   0.175   4.097   6.429
 7320SOL     OW22858   0.448   1.431   2.199
 7320SOL    HW122859   0.490   1.428   2.109
 7320SOL    HW222860   0.377   1.502   2.200
 7321SOL     OW22861   4.546   1.628   4.105
 7321SOL    HW122862   4.482   1.616   4.029
 7321SOL    HW222863   4.506   1.692   4.171
 7322SOL     OW22864   1.113   2.790   1.500
 7322SOL    HW122865   1.082   2.702   1.465
 7322SOL    HW222866   1.122   2.855   1.424
 7323SOL     OW22867   2.460   4.717   3.056
 7323SOL    HW122868   2.419   4.794   3.105
 7323SOL    HW222869   2.410   4.633   3.078
 7324SOL     OW22870   4.851   5.608   2.943
 7324SOL    HW122871   4.877   5.674   2.872
 7324SOL    HW222872   4.924   5.541   2.954
 7325SOL     OW22873   3.010   6.599   0.121
 7325SOL    HW122874   2.961   6.511   0.113
 7325SOL    HW222875   2.962   6.659   0.184
 7326SOL     OW22876   2.557   1.141   3.945
 7326SOL    HW122877   2.582   1.153   4.041
 7326SOL    HW222878   2.467   1.180   3.928
 7327SOL     OW22879   1.579   3.387   5.983
 7327SOL    HW122880   1.515   3.350   5.917
 7327SOL    HW222881   1.632   3.313   6.025
 7328SOL     OW22882   2.261   6.714   0.451
 7328SOL    HW122883   2.253   6.778   0.527
 7328SOL    HW222884   2.356   6.683   0.443
 7329SOL     OW22885   4.756   3.838   1.632
 7329SOL    HW122886   4.731   3.805   1.541
 7329SOL    HW222887   4.729   3.771   1.701
 7330SOL     OW22888   4.066   2.302   0.917
 7330SOL    HW122889   4.162   2.325   0.930
 7330SOL    HW222890   4.012   2.342   0.991
 7331SOL     OW22891   6.308   1.398   1.154
 7331SOL    HW122892   6.310   1.466   1.227
 7331SOL    HW222893   6.214   1.382   1.126
 7332SOL     OW22894   4.255   6.922   0.436
 7332SOL    HW122895   4.165   6.906   0.476
 7332SOL    HW222896   4.324   6.872   0.489
 7333SOL     OW22897   6.996   4.806   2.391
 7333SOL    HW122898   6.899   4.812   2.415
 7333SOL    HW222899   7.005   4.794   2.292
 7334SOL     OW22900   2.915   0.139   3.228
 7334SOL    HW122901   2.855   0.191   3.166
 7334SOL    HW222902   2.984   0.199   3.266
 7335SOL     OW22903   1.915   3.086   3.134
 7335SOL    HW122904   1.885   3.014   3.197
 7335SOL    HW222905   1.966   3.045   3.059
 7336SOL     OW22906   1.340   6.094   4.668
 7336SOL    HW122907   1.405   6.090   4.743
 7336SOL    HW222908   1.261   6.036   4.688
 7337SOL     OW22909   5.093   1.941   1.556
 7337SOL    HW122910   5.026   1.963   1.485
 7337SOL    HW222911   5.100   1.841   1.564
 7338SOL     OW22912   0.661   3.787   0.769
 7338SOL    HW122913   0.625   3.744   0.852
 7338SOL    HW222914   0.726   3.858   0.793
 7339SOL     OW22915   1.816   5.135   5.087
 7339SOL    HW122916   1.891   5.072   5.106
 7339SOL    HW222917   1.834   5.184   5.002
 7340SOL     OW22918   3.493   0.095   6.425
 7340SOL    HW122919   3.484   0.144   6.338
 7340SOL    HW222920   3.420   0.026   6.432
 7341SOL     OW22921   5.794   2.570   0.145
 7341SOL    HW122922   5.874   2.629   0.129
 7341SOL    HW222923   5.809   2.482   0.101
 7342SOL     OW22924   0.232   6.089   1.550
 7342SOL    HW122925   0.170   6.010   1.560
 7342SOL    HW222926   0.313   6.074   1.606
 7343SOL     OW22927   6.926   3.004   0.762
 7343SOL    HW122928   6.909   2.912   0.797
 7343SOL    HW222929   6.905   3.007   0.664
 7344SOL     OW22930   2.558   0.756   5.568
 7344SOL    HW122931   2.583   0.853   5.567
 7344SOL    HW222932   2.639   0.702   5.586
 7345SOL     OW22933   4.112   5.767   6.649
 7345SOL    HW122934   4.183   5.838   6.651
 7345SOL    HW222935   4.026   5.807   6.619
 7346SOL     OW22936   4.295   4.979   2.004
 7346SOL    HW122937   4.291   5.079   2.001
 7346SOL    HW222938   4.361   4.950   2.073
 7347SOL     OW22939   4.858   0.553   6.310
 7347SOL    HW122940   4.931   0.532   6.374
 7347SOL    HW222941   4.865   0.494   6.230
 7348SOL     OW22942   0.722   6.198   0.218
 7348SOL    HW122943   0.633   6.163   0.245
 7348SOL    HW222944   0.746   6.162   0.127
 7349SOL     OW22945   4.548   1.484   1.272
 7349SOL    HW122946   4.467   1.483   1.213
 7349SOL    HW222947   4.608   1.408   1.247
 7350SOL     OW22948   3.480   1.348   5.180
 7350SOL    HW122949   3.497   1.323   5.275
 7350SOL    HW222950   3.551   1.308   5.122
 7351SOL     OW22951   2.531   4.851   4.833
 7351SOL    HW122952   2.624   4.881   4.852
 7351SOL    HW222953   2.486   4.916   4.772
 7352SOL     OW22954   6.340   2.613   4.185
 7352SOL    HW122955   6.412   2.545   4.195
 7352SOL    HW222956   6.335   2.669   4.268
 7353SOL     OW22957   0.026   2.092   5.916
 7353SOL    HW122958   6.965   2.136   5.896
 7353SOL    HW222959   0.101   2.151   5.885
 7354SOL     OW22960   0.553   1.742   2.924
 7354SOL    HW122961   0.602   1.790   2.997
 7354SOL    HW222962   0.585   1.775   2.835
 7355SOL     OW22963   3.794   1.690   0.436
 7355SOL    HW122964   3.805   1.764   0.370
 7355SOL    HW222965   3.883   1.670   0.479
 7356SOL     OW22966   3.661   4.859   5.809
 7356SOL    HW122967   3.569   4.829   5.833
 7356SOL    HW222968   3.710   4.783   5.765
 7357SOL     OW22969   4.546   6.665   2.018
 7357SOL    HW122970   4.591   6.604   2.084
 7357SOL    HW222971   4.492   6.732   2.068
 7358SOL     OW22972   4.555   0.349   2.550
 7358SOL    HW122973   4.581   0.304   2.464
 7358SOL    HW222974   4.572   0.287   2.627
 7359SOL     OW22975   3.321   6.863   2.377
 7359SOL    HW122976   3.366   6.840   2.291
 7359SOL    HW222977   3.342   6.958   2.402
 7360SOL     OW22978   2.677   4.362   6.123
 7360SOL    HW122979   2.702   4.291   6.057
 7360SOL    HW222980   2.727   4.446   6.101
 7361SOL     OW22981   6.303   0.711   3.875
 7361SOL    HW122982   6.271   0.767   3.951
 7361SOL    HW222983   6.394   0.675   3.896
 7362SOL     OW22984   3.459   5.912   0.673
 7362SOL    HW122985   3.430   5.999   0.713
 7362SOL    HW222986   3.556   5.896   0.693
 7363SOL     OW22987   4.590   1.001   1.117
 7363SOL    HW122988   4.605   0.944   1.036
 7363SOL    HW222989   4.521   0.959   1.175
 7364SOL     OW22990   5.429   5.680   1.501
 7364SOL    HW122991   5.499   5.610   1.488
 7364SOL    HW222992   5.473   5.768   1.518
 7365SOL     OW22993   4.951   3.636   2.220
 7365SOL    HW122994   4.927   3.614   2.126
 7365SOL    HW222995   4.933   3.557   2.279
 7366SOL     OW22996   2.371   6.425   3.576
 7366SOL    HW122997   2.431   6.361   3.625
 7366SOL    HW222998   2.311   6.471   3.641
 7367SOL     OW22999   4.530   1.119   0.510
 7367SOL    HW123000   4.496   1.031   0.478
 7367SOL    HW223001   4.486   1.142   0.598
 7368SOL     OW23002   3.093   4.022   2.873
 7368SOL    HW123003   3.051   3.934   2.849
 7368SOL    HW223004   3.028   4.095   2.853
 7369SOL     OW23005   5.376   3.685   6.982
 7369SOL    HW123006   5.380   3.594   7.024
 7369SOL    HW223007   5.409   3.679   6.888
 7370SOL     OW23008   2.708   0.862   3.948
 7370SOL    HW123009   2.647   0.820   4.016
 7370SOL    HW223010   2.654   0.920   3.888
 7371SOL     OW23011   3.972   0.421   3.347
 7371SOL    HW123012   4.065   0.457   3.346
 7371SOL    HW223013   3.966   0.343   3.409
 7372SOL     OW23014   3.862   1.919   5.420
 7372SOL    HW123015   3.839   1.897   5.515
 7372SOL    HW223016   3.779   1.944   5.371
 7373SOL     OW23017   6.711   3.139   4.539
 7373SOL    HW123018   6.640   3.100   4.481
 7373SOL    HW223019   6.792   3.080   4.538
 7374SOL     OW23020   6.918   3.195   6.245
 7374SOL    HW123021   6.905   3.212   6.343
 7374SOL    HW223022   6.975   3.114   6.233
 7375SOL     OW23023   2.281   1.961   1.589
 7375SOL    HW123024   2.191   1.921   1.575
 7375SOL    HW223025   2.279   2.020   1.669
 7376SOL     OW23026   6.271   5.358   0.493
 7376SOL    HW123027   6.260   5.318   0.584
 7376SOL    HW223028   6.339   5.307   0.442
 7377SOL     OW23029   2.800   5.896   0.818
 7377SOL    HW123030   2.884   5.845   0.805
 7377SOL    HW223031   2.776   5.899   0.915
 7378SOL     OW23032   2.405   4.994   5.500
 7378SOL    HW123033   2.387   5.007   5.598
 7378SOL    HW223034   2.332   4.940   5.460
 7379SOL     OW23035   5.198   2.444   3.121
 7379SOL    HW123036   5.105   2.436   3.085
 7379SOL    HW223037   5.211   2.379   3.195
 7380SOL     OW23038   5.208   3.452   1.478
 7380SOL    HW123039   5.267   3.411   1.549
 7380SOL    HW223040   5.119   3.472   1.517
 7381SOL     OW23041   3.646   0.324   1.355
 7381SOL    HW123042   3.702   0.407   1.355
 7381SOL    HW223043   3.658   0.276   1.442
 7382SOL     OW23044   0.562   2.762   0.089
 7382SOL    HW123045   0.646   2.786   0.138
 7382SOL    HW223046   0.584   2.706   0.010
 7383SOL     OW23047   2.576   6.869   1.011
 7383SOL    HW123048   2.503   6.931   1.041
 7383SOL    HW223049   2.537   6.794   0.958
 7384SOL     OW23050   6.977   0.632   6.766
 7384SOL    HW123051   0.004   0.616   6.683
 7384SOL    HW223052   7.020   0.584   6.843
 7385SOL     OW23053   6.760   4.440   2.800
 7385SOL    HW123054   6.674   4.437   2.851
 7385SOL    HW223055   6.769   4.356   2.746
 7386SOL     OW23056   5.985   3.927   0.917
 7386SOL    HW123057   5.998   3.875   0.832
 7386SOL    HW223058   6.068   3.921   0.973
 7387SOL     OW23059   0.143   5.395   3.843
 7387SOL    HW123060   0.046   5.400   3.867
 7387SOL    HW223061   0.187   5.482   3.866
 7388SOL     OW23062   2.328   4.501   3.178
 7388SOL    HW123063   2.236   4.541   3.185
 7388SOL    HW223064   2.373   4.508   3.267
 7389SOL     OW23065   0.371   2.574   1.039
 7389SOL    HW123066   0.273   2.564   1.058
 7389SOL    HW223067   0.391   2.528   0.952
 7390SOL     OW23068   4.050   1.922   4.394
 7390SOL    HW123069   4.007   1.907   4.483
 7390SOL    HW223070   4.003   1.997   4.347
 7391SOL     OW23071   3.046   3.862   2.173
 7391SOL    HW123072   3.135   3.816   2.182
 7391SOL    HW223073   3.058   3.948   2.125
 7392SOL     OW23074   3.913   6.643   0.560
 7392SOL    HW123075   3.899   6.574   0.631
 7392SOL    HW223076   3.871   6.613   0.475
 7393SOL     OW23077   4.340   5.619   3.212
 7393SOL    HW123078   4.364   5.587   3.120
 7393SOL    HW223079   4.311   5.541   3.268
 7394SOL     OW23080   1.519   1.333   6.712
 7394SOL    HW123081   1.512   1.234   6.704
 7394SOL    HW223082   1.599   1.365   6.662
 7395SOL     OW23083   3.021   5.749   0.774
 7395SOL    HW123084   3.095   5.727   0.710
 7395SOL    HW223085   2.984   5.664   0.812
 7396SOL     OW23086   0.993   5.064   2.083
 7396SOL    HW123087   1.015   5.012   2.165
 7396SOL    HW223088   1.078   5.084   2.032
 7397SOL     OW23089   5.908   5.051   5.095
 7397SOL    HW123090   5.819   5.096   5.101
 7397SOL    HW223091   5.975   5.115   5.056
 7398SOL     OW23092   2.957   5.754   2.286
 7398SOL    HW123093   2.881   5.693   2.261
 7398SOL    HW223094   2.924   5.823   2.350
 7399SOL     OW23095   6.460   2.484   5.508
 7399SOL    HW123096   6.560   2.477   5.517
 7399SOL    HW223097   6.422   2.392   5.497
 7400SOL     OW23098   4.185   3.420   5.522
 7400SOL    HW123099   4.089   3.394   5.524
 7400SOL    HW223100   4.219   3.415   5.428
 7401SOL     OW23101   2.981   2.245   4.633
 7401SOL    HW123102   2.919   2.168   4.618
 7401SOL    HW223103   3.037   2.227   4.714
 7402SOL     OW23104   3.963   4.946   4.725
 7402SOL    HW123105   3.994   4.876   4.790
 7402SOL    HW223106   4.016   4.940   4.641
 7403SOL     OW23107   1.989   5.230   3.986
 7403SOL    HW123108   1.992   5.176   3.902
 7403SOL    HW223109   2.035   5.180   4.059
 7404SOL     OW23110   2.071   2.825   1.347
 7404SOL    HW123111   2.060   2.776   1.260
 7404SOL    HW223112   2.004   2.792   1.413
 7405SOL     OW23113   2.927   6.735   5.529
 7405SOL    HW123114   2.977   6.822   5.526
 7405SOL    HW223115   2.912   6.709   5.625
 7406SOL     OW23116   0.770   3.022   4.712
 7406SOL    HW123117   0.836   3.096   4.701
 7406SOL    HW223118   0.802   2.941   4.662
 7407SOL     OW23119   1.073   6.188   4.544
 7407SOL    HW123120   1.098   6.144   4.630
 7407SOL    HW223121   1.154   6.227   4.501
 7408SOL     OW23122   4.081   5.393   5.567
 7408SOL    HW123123   4.099   5.401   5.469
 7408SOL    HW223124   3.983   5.389   5.583
 7409SOL     OW23125   5.897   5.041   0.979
 7409SOL    HW123126   5.959   5.119   0.972
 7409SOL    HW223127   5.948   4.956   0.968
 7410SOL     OW23128   6.058   1.008   0.250
 7410SOL    HW123129   6.124   0.998   0.324
 7410SOL    HW223130   6.011   1.096   0.258
 7411SOL     OW23131   3.389   2.062   5.748
 7411SOL    HW123132   3.411   2.043   5.844
 7411SOL    HW223133   3.472   2.092   5.701
 7412SOL     OW23134   4.257   6.557   6.464
 7412SOL    HW123135   4.339   6.533   6.516
 7412SOL    HW223136   4.267   6.651   6.429
 7413SOL     OW23137   4.835   0.936   3.737
 7413SOL    HW123138   4.909   0.910   3.674
 7413SOL    HW223139   4.753   0.884   3.714
 7414SOL     OW23140   3.146   0.920   4.722
 7414SOL    HW123141   3.215   0.905   4.651
 7414SOL    HW223142   3.184   0.980   4.792
 7415SOL     OW23143   3.935   0.837   5.607
 7415SOL    HW123144   4.009   0.865   5.668
 7415SOL    HW223145   3.879   0.916   5.583
 7416SOL     OW23146   0.161   0.393   1.768
 7416SOL    HW123147   0.231   0.440   1.714
 7416SOL    HW223148   0.185   0.296   1.777
 7417SOL     OW23149   6.939   0.464   1.637
 7417SOL    HW123150   0.002   0.420   1.638
 7417SOL    HW223151   6.929   0.520   1.720
 7418SOL     OW23152   1.990   3.476   6.056
 7418SOL    HW123153   2.014   3.380   6.042
 7418SOL    HW223154   2.054   3.517   6.121
 7419SOL     OW23155   6.907   2.694   4.616
 7419SOL    HW123156   6.809   2.675   4.605
 7419SOL    HW223157   6.924   2.791   4.600
 7420SOL     OW23158   6.289   6.933   0.074
 7420SOL    HW123159   6.284   6.834   0.086
 7420SOL    HW223160   6.286   6.955   7.003
 7421SOL     OW23161   0.150   4.010   1.078
 7421SOL    HW123162   0.109   4.025   1.168
 7421SOL    HW223163   0.082   4.029   1.007
 7422SOL     OW23164   6.966   3.067   1.986
 7422SOL    HW123165   6.931   3.051   2.079
 7422SOL    HW223166   6.990   2.980   1.944
 7423SOL     OW23167   4.132   2.263   5.778
 7423SOL    HW123168   4.113   2.194   5.848
 7423SOL    HW223169   4.061   2.333   5.781
 7424SOL     OW23170   0.998   1.909   4.329
 7424SOL    HW123171   0.899   1.917   4.320
 7424SOL    HW223172   1.039   2.001   4.331
 7425SOL     OW23173   5.392   0.698   0.827
 7425SOL    HW123174   5.395   0.710   0.728
 7425SOL    HW223175   5.463   0.755   0.869
 7426SOL     OW23176   3.685   3.868   5.468
 7426SOL    HW123177   3.730   3.957   5.451
 7426SOL    HW223178   3.661   3.861   5.564
 7427SOL     OW23179   2.940   0.468   1.456
 7427SOL    HW123180   2.958   0.529   1.533
 7427SOL    HW223181   2.842   0.463   1.439
 7428SOL     OW23182   1.165   6.670   5.360
 7428SOL    HW123183   1.216   6.716   5.432
 7428SOL    HW223184   1.077   6.638   5.395
 7429SOL     OW23185   0.570   0.236   2.242
 7429SOL    HW123186   0.613   0.306   2.185
 7429SOL    HW223187   0.531   0.166   2.182
 7430SOL     OW23188   6.658   3.274   2.497
 7430SOL    HW123189   6.583   3.328   2.534
 7430SOL    HW223190   6.722   3.252   2.571
 7431SOL     OW23191   1.082   2.573   4.819
 7431SOL    HW123192   1.179   2.572   4.792
 7431SOL    HW223193   1.039   2.657   4.787
 7432SOL     OW23194   1.375   0.995   2.824
 7432SOL    HW123195   1.385   0.933   2.746
 7432SOL    HW223196   1.403   1.087   2.797
 7433SOL     OW23197   3.917   6.990   6.101
 7433SOL    HW123198   3.854   7.021   6.172
 7433SOL    HW223199   3.942   0.041   6.042
 7434SOL     OW23200   3.675   0.091   3.424
 7434SOL    HW123201   3.637   0.094   3.331
 7434SOL    HW223202   3.600   0.086   3.490
 7435SOL     OW23203   4.944   4.473   2.943
 7435SOL    HW123204   4.947   4.382   2.901
 7435SOL    HW223205   4.892   4.535   2.884
 7436SOL     OW23206   4.740   2.899   6.345
 7436SOL    HW123207   4.693   2.965   6.287
 7436SOL    HW223208   4.677   2.863   6.414
 7437SOL     OW23209   3.641   0.672   1.637
 7437SOL    HW123210   3.614   0.583   1.673
 7437SOL    HW223211   3.583   0.743   1.677
 7438SOL     OW23212   1.768   0.859   6.312
 7438SOL    HW123213   1.843   0.925   6.309
 7438SOL    HW223214   1.802   0.769   6.283
 7439SOL     OW23215   1.359   4.369   6.040
 7439SOL    HW123216   1.390   4.463   6.048
 7439SOL    HW223217   1.438   4.307   6.036
 7440SOL     OW23218   6.319   2.716   4.452
 7440SOL    HW123219   6.306   2.633   4.507
 7440SOL    HW223220   6.235   2.739   4.404
 7441SOL     OW23221   4.734   6.858   0.616
 7441SOL    HW123222   4.703   6.778   0.566
 7441SOL    HW223223   4.751   6.833   0.711
 7442SOL     OW23224   6.792   1.290   6.104
 7442SOL    HW123225   6.790   1.252   6.011
 7442SOL    HW223226   6.879   1.266   6.147
 7443SOL     OW23227   0.144   6.804   0.303
 7443SOL    HW123228   0.133   6.901   0.323
 7443SOL    HW223229   0.100   6.783   0.215
 7444SOL     OW23230   0.859   6.302   6.615
 7444SOL    HW123231   0.921   6.228   6.641
 7444SOL    HW223232   0.866   6.376   6.683
 7445SOL     OW23233   4.125   6.015   2.223
 7445SOL    HW123234   4.100   6.112   2.219
 7445SOL    HW223235   4.197   5.996   2.156
 7446SOL     OW23236   6.409   5.117   0.334
 7446SOL    HW123237   6.461   5.132   0.249
 7446SOL    HW223238   6.381   5.021   0.339
 7447SOL     OW23239   0.260   5.599   0.964
 7447SOL    HW123240   0.253   5.695   0.990
 7447SOL    HW223241   0.337   5.587   0.901
 7448SOL     OW23242   4.901   4.952   0.027
 7448SOL    HW123243   4.833   5.013   0.068
 7448SOL    HW223244   4.926   4.987   6.963
 7449SOL     OW23245   6.432   3.742   6.271
 7449SOL    HW123246   6.531   3.727   6.273
 7449SOL    HW223247   6.399   3.732   6.177
 7450SOL     OW23248   5.345   3.698   0.266
 7450SOL    HW123249   5.300   3.646   0.193
 7450SOL    HW223250   5.279   3.717   0.339
 7451SOL     OW23251   4.299   5.217   2.822
 7451SOL    HW123252   4.318   5.274   2.901
 7451SOL    HW223253   4.363   5.240   2.748
 7452SOL     OW23254   6.478   6.241   6.850
 7452SOL    HW123255   6.443   6.330   6.880
 7452SOL    HW223256   6.540   6.254   6.773
 7453SOL     OW23257   4.638   4.914   6.466
 7453SOL    HW123258   4.540   4.932   6.462
 7453SOL    HW223259   4.659   4.829   6.417
 7454SOL     OW23260   4.013   1.971   1.242
 7454SOL    HW123261   4.007   1.963   1.143
 7454SOL    HW223262   4.022   1.880   1.283
 7455SOL     OW23263   6.945   0.576   2.690
 7455SOL    HW123264   6.878   0.502   2.687
 7455SOL    HW223265   6.920   0.646   2.623
 7456SOL     OW23266   2.813   0.620   5.444
 7456SOL    HW123267   2.898   0.642   5.491
 7456SOL    HW223268   2.832   0.562   5.365
 7457SOL     OW23269   1.247   1.951   2.694
 7457SOL    HW123270   1.297   1.971   2.610
 7457SOL    HW223271   1.191   1.869   2.681
 7458SOL     OW23272   6.976   6.064   5.138
 7458SOL    HW123273   6.888   6.113   5.143
 7458SOL    HW223274   7.007   6.043   5.230
 7459SOL     OW23275   5.497   6.749   2.911
 7459SOL    HW123276   5.590   6.786   2.913
 7459SOL    HW223277   5.480   6.699   2.996
 7460SOL     OW23278   0.405   0.531   1.057
 7460SOL    HW123279   0.407   0.564   1.151
 7460SOL    HW223280   0.496   0.501   1.031
 7461SOL     OW23281   1.521   4.737   5.700
 7461SOL    HW123282   1.588   4.716   5.772
 7461SOL    HW223283   1.563   4.797   5.632
 7462SOL     OW23284   1.725   4.429   0.148
 7462SOL    HW123285   1.638   4.478   0.138
 7462SOL    HW223286   1.728   4.353   0.083
 7463SOL     OW23287   4.821   4.793   0.544
 7463SOL    HW123288   4.823   4.812   0.446
 7463SOL    HW223289   4.878   4.713   0.563
 7464SOL     OW23290   5.579   5.597   4.968
 7464SOL    HW123291   5.548   5.602   5.063
 7464SOL    HW223292   5.504   5.564   4.910
 7465SOL     OW23293   1.210   3.663   6.725
 7465SOL    HW123294   1.220   3.564   6.732
 7465SOL    HW223295   1.225   3.691   6.631
 7466SOL     OW23296   0.644   0.509   5.837
 7466SOL    HW123297   0.568   0.480   5.895
 7466SOL    HW223298   0.612   0.517   5.743
 7467SOL     OW23299   1.622   3.886   3.601
 7467SOL    HW123300   1.541   3.923   3.648
 7467SOL    HW223301   1.594   3.827   3.526
 7468SOL     OW23302   5.857   2.793   4.726
 7468SOL    HW123303   5.884   2.869   4.667
 7468SOL    HW223304   5.859   2.823   4.821
 7469SOL     OW23305   6.687   1.868   0.002
 7469SOL    HW123306   6.692   1.874   0.102
 7469SOL    HW223307   6.761   1.921   6.988
 7470SOL     OW23308   4.912   3.321   3.925
 7470SOL    HW123309   4.919   3.334   3.826
 7470SOL    HW223310   4.867   3.233   3.943
 7471SOL     OW23311   3.218   0.014   6.578
 7471SOL    HW123312   3.177   0.032   6.667
 7471SOL    HW223313   3.254   6.947   6.576
 7472SOL     OW23314   0.070   0.370   5.366
 7472SOL    HW123315   0.123   0.336   5.444
 7472SOL    HW223316   0.126   0.434   5.313
 7473SOL     OW23317   4.290   0.047   3.259
 7473SOL    HW123318   4.228   6.998   3.278
 7473SOL    HW223319   4.280   0.118   3.329
 7474SOL     OW23320   6.146   2.074   2.031
 7474SOL    HW123321   6.169   2.093   2.127
 7474SOL    HW223322   6.222   2.025   1.988
 7475SOL     OW23323   5.084   3.096   1.281
 7475SOL    HW123324   5.136   3.182   1.276
 7475SOL    HW223325   5.001   3.105   1.226
 7476SOL     OW23326   2.645   1.640   2.490
 7476SOL    HW123327   2.679   1.639   2.584
 7476SOL    HW223328   2.723   1.640   2.427
 7477SOL     OW23329   1.982   3.619   5.632
 7477SOL    HW123330   2.055   3.563   5.593
 7477SOL    HW223331   1.918   3.645   5.560
 7478SOL     OW23332   1.068   2.566   6.761
 7478SOL    HW123333   0.995   2.509   6.722
 7478SOL    HW223334   1.152   2.513   6.770
 7479SOL     OW23335   5.245   2.571   1.999
 7479SOL    HW123336   5.291   2.575   1.911
 7479SOL    HW223337   5.308   2.537   2.069
 7480SOL     OW23338   4.004   6.246   2.177
 7480SOL    HW123339   3.946   6.222   2.255
 7480SOL    HW223340   3.956   6.311   2.119
 7481SOL     OW23341   0.683   4.441   7.019
 7481SOL    HW123342   0.768   4.448   6.967
 7481SOL    HW223343   0.635   4.528   7.018
 7482SOL     OW23344   3.726   1.653   4.787
 7482SOL    HW123345   3.761   1.680   4.876
 7482SOL    HW223346   3.801   1.654   4.720
 7483SOL     OW23347   5.880   1.378   5.428
 7483SOL    HW123348   5.892   1.436   5.508
 7483SOL    HW223349   5.938   1.411   5.354
 7484SOL     OW23350   2.233   6.867   5.067
 7484SOL    HW123351   2.194   6.814   4.991
 7484SOL    HW223352   2.303   6.928   5.031
 7485SOL     OW23353   3.618   0.052   6.984
 7485SOL    HW123354   3.538   0.034   0.015
 7485SOL    HW223355   3.587   0.083   6.894
 7486SOL     OW23356   4.266   6.150   0.880
 7486SOL    HW123357   4.256   6.056   0.913
 7486SOL    HW223358   4.232   6.155   0.786
 7487SOL     OW23359   3.347   6.204   4.614
 7487SOL    HW123360   3.423   6.266   4.629
 7487SOL    HW223361   3.286   6.205   4.694
 7488SOL     OW23362   2.144   6.024   3.469
 7488SOL    HW123363   2.232   6.016   3.423
 7488SOL    HW223364   2.146   5.975   3.556
 7489SOL     OW23365   5.240   3.732   5.940
 7489SOL    HW123366   5.281   3.687   6.019
 7489SOL    HW223367   5.216   3.662   5.871
 7490SOL     OW23368   2.135   2.297   1.570
 7490SOL    HW123369   2.155   2.246   1.486
 7490SOL    HW223370   2.106   2.232   1.641
 7491SOL     OW23371   4.273   3.993   6.015
 7491SOL    HW123372   4.317   4.083   6.017
 7491SOL    HW223373   4.202   3.988   6.085
 7492SOL     OW23374   1.584   1.298   3.012
 7492SOL    HW123375   1.574   1.205   3.048
 7492SOL    HW223376   1.650   1.298   2.937
 7493SOL     OW23377   5.715   4.506   4.569
 7493SOL    HW123378   5.635   4.557   4.538
 7493SOL    HW223379   5.686   4.422   4.615
 7494SOL     OW23380   5.605   1.573   2.158
 7494SOL    HW123381   5.551   1.636   2.214
 7494SOL    HW223382   5.594   1.598   2.061
 7495SOL     OW23383   1.447   3.653   4.170
 7495SOL    HW123384   1.401   3.697   4.093
 7495SOL    HW223385   1.526   3.603   4.138
 7496SOL     OW23386   5.946   3.037   3.446
 7496SOL    HW123387   5.975   2.994   3.531
 7496SOL    HW223388   5.885   3.114   3.467
 7497SOL     OW23389   6.080   0.660   1.012
 7497SOL    HW123390   6.036   0.673   1.101
 7497SOL    HW223391   6.063   0.567   0.980
 7498SOL     OW23392   2.212   6.072   2.786
 7498SOL    HW123393   2.267   6.155   2.793
 7498SOL    HW223394   2.232   6.026   2.699
 7499SOL     OW23395   3.383   1.229   2.863
 7499SOL    HW123396   3.370   1.191   2.772
 7499SOL    HW223397   3.464   1.288   2.863
 7500SOL     OW23398   3.385   1.574   5.239
 7500SOL    HW123399   3.435   1.496   5.202
 7500SOL    HW223400   3.406   1.584   5.336
 7501SOL     OW23401   5.698   1.964   4.816
 7501SOL    HW123402   5.610   1.965   4.769
 7501SOL    HW223403   5.750   2.045   4.792
 7502SOL     OW23404   4.098   1.125   4.269
 7502SOL    HW123405   4.092   1.164   4.361
 7502SOL    HW223406   4.037   1.175   4.208
 7503SOL     OW23407   1.011   5.689   0.987
 7503SOL    HW123408   0.996   5.763   1.053
 7503SOL    HW223409   0.950   5.613   1.008
 7504SOL     OW23410   5.980   6.218   5.000
 7504SOL    HW123411   6.050   6.279   4.963
 7504SOL    HW223412   5.943   6.256   5.085
 7505SOL     OW23413   0.596   6.810   6.772
 7505SOL    HW123414   0.565   6.715   6.782
 7505SOL    HW223415   0.637   6.822   6.682
 7506SOL     OW23416   3.607   2.111   4.415
 7506SOL    HW123417   3.546   2.132   4.492
 7506SOL    HW223418   3.697   2.151   4.432
 7507SOL     OW23419   6.729   3.660   6.095
 7507SOL    HW123420   6.756   3.564   6.089
 7507SOL    HW223421   6.747   3.694   6.187
 7508SOL     OW23422   3.901   6.609   0.274
 7508SOL    HW123423   3.835   6.542   0.242
 7508SOL    HW223424   3.968   6.627   0.202
 7509SOL     OW23425   5.729   4.336   3.020
 7509SOL    HW123426   5.678   4.338   2.935
 7509SOL    HW223427   5.726   4.425   3.064
 7510SOL     OW23428   3.795   4.758   1.408
 7510SOL    HW123429   3.784   4.733   1.505
 7510SOL    HW223430   3.778   4.678   1.351
 7511SOL     OW23431   4.506   6.180   4.315
 7511SOL    HW123432   4.450   6.098   4.328
 7511SOL    HW223433   4.589   6.173   4.371
 7512SOL     OW23434   3.645   5.604   0.892
 7512SOL    HW123435   3.724   5.586   0.950
 7512SOL    HW223436   3.566   5.628   0.948
 7513SOL     OW23437   0.180   0.518   2.817
 7513SOL    HW123438   0.220   0.491   2.730
 7513SOL    HW223439   0.080   0.521   2.808
 7514SOL     OW23440   0.061   0.583   0.198
 7514SOL    HW123441   6.999   0.541   0.220
 7514SOL    HW223442   0.056   0.682   0.213
 7515SOL     OW23443   6.933   5.297   4.887
 7515SOL    HW123444   7.024   5.255   4.881
 7515SOL    HW223445   6.943   5.396   4.899
 7516SOL     OW23446   2.312   5.733   4.182
 7516SOL    HW123447   2.239   5.771   4.125
 7516SOL    HW223448   2.356   5.807   4.234
 7517SOL     OW23449   0.385   2.554   0.405
 7517SOL    HW123450   0.334   2.581   0.324
 7517SOL    HW223451   0.408   2.635   0.459
 7518SOL     OW23452   3.880   2.055   5.027
 7518SOL    HW123453   3.892   2.072   5.125
 7518SOL    HW223454   3.939   2.116   4.975
 7519SOL     OW23455   2.907   6.512   4.805
 7519SOL    HW123456   2.999   6.550   4.810
 7519SOL    HW223457   2.896   6.441   4.874
 7520SOL     OW23458   1.842   0.502   0.835
 7520SOL    HW123459   1.912   0.542   0.776
 7520SOL    HW223460   1.752   0.512   0.792
 7521SOL     OW23461   4.741   1.779   5.643
 7521SOL    HW123462   4.664   1.742   5.590
 7521SOL    HW223463   4.820   1.719   5.633
 7522SOL     OW23464   1.438   6.575   3.949
 7522SOL    HW123465   1.390   6.491   3.975
 7522SOL    HW223466   1.488   6.560   3.864
 7523SOL     OW23467   5.335   1.632   0.196
 7523SOL    HW123468   5.418   1.581   0.174
 7523SOL    HW223469   5.255   1.576   0.174
 7524SOL     OW23470   0.239   4.198   5.117
 7524SOL    HW123471   0.172   4.272   5.105
 7524SOL    HW223472   0.205   4.115   5.073
 7525SOL     OW23473   2.520   4.717   5.484
 7525SOL    HW123474   2.497   4.814   5.487
 7525SOL    HW223475   2.437   4.664   5.464
 7526SOL     OW23476   1.229   3.505   1.094
 7526SOL    HW123477   1.173   3.536   1.171
 7526SOL    HW223478   1.324   3.534   1.109
 7527SOL     OW23479   2.750   5.288   2.661
 7527SOL    HW123480   2.718   5.193   2.666
 7527SOL    HW223481   2.695   5.345   2.722
 7528SOL     OW23482   6.480   2.516   0.242
 7528SOL    HW123483   6.498   2.508   0.144
 7528SOL    HW223484   6.382   2.524   0.258
 7529SOL     OW23485   6.011   2.549   4.682
 7529SOL    HW123486   5.972   2.637   4.710
 7529SOL    HW223487   6.094   2.566   4.629
 7530SOL     OW23488   1.993   2.180   3.403
 7530SOL    HW123489   1.894   2.165   3.397
 7530SOL    HW223490   2.032   2.185   3.311
 7531SOL     OW23491   4.475   1.803   4.303
 7531SOL    HW123492   4.451   1.735   4.372
 7531SOL    HW223493   4.392   1.849   4.270
 7532SOL     OW23494   4.587   4.458   6.369
 7532SOL    HW123495   4.553   4.532   6.313
 7532SOL    HW223496   4.670   4.487   6.417
 7533SOL     OW23497   4.480   4.430   0.658
 7533SOL    HW123498   4.431   4.405   0.742
 7533SOL    HW223499   4.569   4.385   0.657
 7534SOL     OW23500   4.018   6.497   4.903
 7534SOL    HW123501   3.943   6.549   4.944
 7534SOL    HW223502   3.983   6.413   4.861
 7535SOL     OW23503   0.063   6.845   4.792
 7535SOL    HW123504   0.086   6.763   4.739
 7535SOL    HW223505   6.990   6.849   4.805
 7536SOL     OW23506   5.848   0.081   2.910
 7536SOL    HW123507   5.769   0.141   2.898
 7536SOL    HW223508   5.920   0.129   2.960
 7537SOL     OW23509   2.552   0.400   2.046
 7537SOL    HW123510   2.485   0.343   2.092
 7537SOL    HW223511   2.589   0.351   1.967
 7538SOL     OW23512   0.610   4.723   6.957
 7538SOL    HW123513   0.661   4.746   6.874
 7538SOL    HW223514   0.601   4.805   7.014
 7539SOL     OW23515   6.554   0.030   4.931
 7539SOL    HW123516   6.612   6.990   4.884
 7539SOL    HW223517   6.483   0.062   4.868
 7540SOL     OW23518   4.875   3.853   3.919
 7540SOL    HW123519   4.891   3.754   3.921
 7540SOL    HW223520   4.900   3.888   3.829
 7541SOL     OW23521   1.890   4.032   7.006
 7541SOL    HW123522   1.806   3.987   6.977
 7541SOL    HW223523   1.969   3.976   6.979
 7542SOL     OW23524   6.449   6.148   4.916
 7542SOL    HW123525   6.367   6.120   4.867
 7542SOL    HW223526   6.527   6.149   4.852
 7543SOL     OW23527   2.058   0.448   0.393
 7543SOL    HW123528   1.985   0.382   0.412
 7543SOL    HW223529   2.032   0.504   0.314
 7544SOL     OW23530   6.302   1.658   5.165
 7544SOL    HW123531   6.385   1.684   5.215
 7544SOL    HW223532   6.326   1.626   5.074
 7545SOL     OW23533   1.021   5.757   4.989
 7545SOL    HW123534   0.955   5.756   4.914
 7545SOL    HW223535   1.068   5.669   4.993
 7546SOL     OW23536   2.294   3.195   1.764
 7546SOL    HW123537   2.308   3.286   1.801
 7546SOL    HW223538   2.382   3.147   1.757
 7547SOL     OW23539   3.953   0.513   1.869
 7547SOL    HW123540   3.962   0.588   1.935
 7547SOL    HW223541   4.043   0.490   1.831
 7548SOL     OW23542   2.633   2.296   6.173
 7548SOL    HW123543   2.724   2.273   6.207
 7548SOL    HW223544   2.629   2.394   6.150
 7549SOL     OW23545   5.016   0.474   5.357
 7549SOL    HW123546   5.001   0.560   5.308
 7549SOL    HW223547   5.058   0.408   5.295
 7550SOL     OW23548   2.778   6.129   4.786
 7550SOL    HW123549   2.686   6.130   4.825
 7550SOL    HW223550   2.779   6.186   4.704
 7551SOL     OW23551   6.014   2.930   6.775
 7551SOL    HW123552   6.101   2.966   6.809
 7551SOL    HW223553   6.030   2.847   6.722
 7552SOL     OW23554   2.664   6.842   4.271
 7552SOL    HW123555   2.762   6.821   4.273
 7552SOL    HW223556   2.612   6.758   4.288
 7553SOL     OW23557   6.421   0.287   5.787
 7553SOL    HW123558   6.436   0.210   5.848
 7553SOL    HW223559   6.435   0.258   5.693
 7554SOL     OW23560   4.879   1.746   2.115
 7554SOL    HW123561   4.932   1.671   2.075
 7554SOL    HW223562   4.848   1.807   2.042
 7555SOL     OW23563   4.754   5.827   4.329
 7555SOL    HW123564   4.839   5.865   4.292
 7555SOL    HW223565   4.724   5.883   4.406
 7556SOL     OW23566   0.587   5.989   0.941
 7556SOL    HW123567   0.627   5.949   0.858
 7556SOL    HW223568   0.612   6.085   0.946
 7557SOL     OW23569   4.158   6.015   0.227
 7557SOL    HW123570   4.142   6.003   0.129
 7557SOL    HW223571   4.192   5.929   0.265
 7558SOL     OW23572   1.533   1.471   4.046
 7558SOL    HW123573   1.573   1.563   4.048
 7558SOL    HW223574   1.474   1.462   3.966
 7559SOL     OW23575   1.371   6.703   4.915
 7559SOL    HW123576   1.449   6.695   4.977
 7559SOL    HW223577   1.342   6.611   4.887
 7560SOL     OW23578   0.711   1.116   5.321
 7560SOL    HW123579   0.796   1.113   5.373
 7560SOL    HW223580   0.727   1.163   5.234
 7561SOL     OW23581   5.180   1.435   5.886
 7561SOL    HW123582   5.118   1.513   5.888
 7561SOL    HW223583   5.132   1.354   5.920
 7562SOL     OW23584   1.707   5.582   3.773
 7562SOL    HW123585   1.608   5.585   3.769
 7562SOL    HW223586   1.745   5.662   3.726
 7563SOL     OW23587   3.143   6.240   3.244
 7563SOL    HW123588   3.182   6.301   3.313
 7563SOL    HW223589   3.203   6.238   3.164
 7564SOL     OW23590   5.636   3.679   6.282
 7564SOL    HW123591   5.701   3.753   6.262
 7564SOL    HW223592   5.680   3.591   6.269
 7565SOL     OW23593   6.517   3.565   5.700
 7565SOL    HW123594   6.613   3.585   5.722
 7565SOL    HW223595   6.466   3.553   5.785
 7566SOL     OW23596   5.154   4.238   1.378
 7566SOL    HW123597   5.135   4.195   1.290
 7566SOL    HW223598   5.087   4.207   1.445
 7567SOL     OW23599   1.708   0.344   3.017
 7567SOL    HW123600   1.622   0.310   3.057
 7567SOL    HW223601   1.687   0.416   2.950
 7568SOL     OW23602   0.116   4.254   1.234
 7568SOL    HW123603   0.102   4.186   1.306
 7568SOL    HW223604   0.027   4.288   1.203
 7569SOL     OW23605   4.441   3.818   1.370
 7569SOL    HW123606   4.432   3.875   1.452
 7569SOL    HW223607   4.505   3.862   1.307
 7570SOL     OW23608   0.801   2.212   1.775
 7570SOL    HW123609   0.859   2.178   1.701
 7570SOL    HW223610   0.792   2.311   1.768
 7571SOL     OW23611   5.243   1.751   3.493
 7571SOL    HW123612   5.324   1.758   3.435
 7571SOL    HW223613   5.205   1.659   3.485
 7572SOL     OW23614   4.635   6.918   2.318
 7572SOL    HW123615   4.569   6.904   2.244
 7572SOL    HW223616   4.725   6.936   2.279
 7573SOL     OW23617   3.427   0.231   6.189
 7573SOL    HW123618   3.331   0.221   6.162
 7573SOL    HW223619   3.453   0.327   6.184
 7574SOL     OW23620   1.074   3.461   2.797
 7574SOL    HW123621   1.129   3.508   2.728
 7574SOL    HW223622   1.135   3.420   2.865
 7575SOL     OW23623   6.792   0.084   6.961
 7575SOL    HW123624   6.723   0.156   6.962
 7575SOL    HW223625   6.762   0.009   7.021
 7576SOL     OW23626   4.952   3.048   6.956
 7576SOL    HW123627   5.042   3.070   6.994
 7576SOL    HW223628   4.905   3.132   6.930
 7577SOL     OW23629   0.180   0.299   5.613
 7577SOL    HW123630   0.220   0.210   5.634
 7577SOL    HW223631   0.222   0.369   5.671
 7578SOL     OW23632   6.004   5.614   2.274
 7578SOL    HW123633   5.973   5.678   2.344
 7578SOL    HW223634   6.040   5.664   2.196
 7579SOL     OW23635   1.246   1.408   6.353
 7579SOL    HW123636   1.325   1.444   6.302
 7579SOL    HW223637   1.263   1.418   6.451
 7580SOL     OW23638   2.306   5.119   2.359
 7580SOL    HW123639   2.322   5.059   2.280
 7580SOL    HW223640   2.377   5.103   2.427
 7581SOL     OW23641   0.481   0.114   1.056
 7581SOL    HW123642   0.413   0.052   1.017
 7581SOL    HW223643   0.502   0.186   0.989
 7582SOL     OW23644   1.539   0.647   5.547
 7582SOL    HW123645   1.601   0.650   5.625
 7582SOL    HW223646   1.511   0.552   5.530
 7583SOL     OW23647   5.729   3.805   2.698
 7583SOL    HW123648   5.644   3.763   2.666
 7583SOL    HW223649   5.776   3.741   2.759
 7584SOL     OW23650   0.248   1.055   3.361
 7584SOL    HW123651   0.205   1.087   3.446
 7584SOL    HW223652   0.347   1.066   3.367
 7585SOL     OW23653   0.745   1.038   5.928
 7585SOL    HW123654   0.665   1.094   5.907
 7585SOL    HW223655   0.736   1.000   6.020
 7586SOL     OW23656   2.160   6.614   3.716
 7586SOL    HW123657   2.079   6.640   3.663
 7586SOL    HW223658   2.153   6.650   3.809
 7587SOL     OW23659   5.917   0.379   2.204
 7587SOL    HW123660   5.868   0.352   2.287
 7587SOL    HW223661   6.011   0.404   2.228
 7588SOL     OW23662   2.101   3.619   4.787
 7588SOL    HW123663   2.012   3.637   4.828
 7588SOL    HW223664   2.103   3.525   4.752
 7589SOL     OW23665   6.510   6.721   2.147
 7589SOL    HW123666   6.449   6.646   2.119
 7589SOL    HW223667   6.456   6.805   2.157
 7590SOL     OW23668   5.622   0.770   6.535
 7590SOL    HW123669   5.692   0.736   6.598
 7590SOL    HW223670   5.531   0.759   6.576
 7591SOL     OW23671   3.746   4.248   5.004
 7591SOL    HW123672   3.821   4.240   5.070
 7591SOL    HW223673   3.776   4.210   4.916
 7592SOL     OW23674   0.011   0.095   3.159
 7592SOL    HW123675   0.030   0.129   3.066
 7592SOL    HW223676   6.957   0.143   3.195
 7593SOL     OW23677   6.729   2.189   6.175
 7593SOL    HW123678   6.664   2.132   6.125
 7593SOL    HW223679   6.684   2.275   6.201
 7594SOL     OW23680   6.517   4.251   6.090
 7594SOL    HW123681   6.580   4.314   6.137
 7594SOL    HW223682   6.564   4.166   6.068
 7595SOL     OW23683   0.501   3.561   0.355
 7595SOL    HW123684   0.447   3.639   0.386
 7595SOL    HW223685   0.509   3.564   0.255
 7596SOL     OW23686   3.389   1.846   6.759
 7596SOL    HW123687   3.294   1.876   6.767
 7596SOL    HW223688   3.424   1.824   6.850
 7597SOL     OW23689   2.440   4.646   0.085
 7597SOL    HW123690   2.403   4.734   0.116
 7597SOL    HW223691   2.539   4.654   0.076
 7598SOL     OW23692   4.902   0.730   2.478
 7598SOL    HW123693   4.950   0.759   2.395
 7598SOL    HW223694   4.930   0.788   2.554
 7599SOL     OW23695   2.786   3.205   0.274
 7599SOL    HW123696   2.791   3.135   0.203
 7599SOL    HW223697   2.867   3.263   0.270
 7600SOL     OW23698   0.454   6.625   4.015
 7600SOL    HW123699   0.456   6.525   4.013
 7600SOL    HW223700   0.543   6.660   4.046
 7601SOL     OW23701   2.911   6.278   0.895
 7601SOL    HW123702   2.979   6.205   0.890
 7601SOL    HW223703   2.825   6.241   0.932
 7602SOL     OW23704   6.849   1.113   1.289
 7602SOL    HW123705   6.863   1.015   1.303
 7602SOL    HW223706   6.918   1.148   1.226
 7603SOL     OW23707   4.111   0.851   6.751
 7603SOL    HW123708   4.074   0.904   6.675
 7603SOL    HW223709   4.199   0.812   6.725
 7604SOL     OW23710   2.616   1.849   6.061
 7604SOL    HW123711   2.542   1.802   6.013
 7604SOL    HW223712   2.677   1.891   5.994
 7605SOL     OW23713   2.908   6.186   6.513
 7605SOL    HW123714   2.886   6.209   6.418
 7605SOL    HW223715   2.868   6.097   6.535
 7606SOL     OW23716   6.581   1.178   3.628
 7606SOL    HW123717   6.573   1.147   3.533
 7606SOL    HW223718   6.512   1.133   3.684
 7607SOL     OW23719   1.932   5.583   5.500
 7607SOL    HW123720   1.923   5.648   5.424
 7607SOL    HW223721   1.972   5.498   5.466
 7608SOL     OW23722   0.659   2.633   6.240
 7608SOL    HW123723   0.660   2.726   6.277
 7608SOL    HW223724   0.595   2.628   6.164
 7609SOL     OW23725   3.360   0.373   4.932
 7609SOL    HW123726   3.282   0.426   4.966
 7609SOL    HW223727   3.353   0.364   4.832
 7610SOL     OW23728   4.332   6.134   4.813
 7610SOL    HW123729   4.419   6.163   4.775
 7610SOL    HW223730   4.340   6.124   4.912
 7611SOL     OW23731   4.555   2.021   0.068
 7611SOL    HW123732   4.494   1.943   0.058
 7611SOL    HW223733   4.508   2.094   0.118
 7612SOL     OW23734   4.871   3.136   2.244
 7612SOL    HW123735   4.834   3.115   2.153
 7612SOL    HW223736   4.829   3.220   2.278
 7613SOL     OW23737   0.091   0.858   6.646
 7613SOL    HW123738   0.052   0.940   6.689
 7613SOL    HW223739   0.025   0.783   6.652
 7614SOL     OW23740   5.796   5.323   6.742
 7614SOL    HW123741   5.713   5.309   6.796
 7614SOL    HW223742   5.782   5.288   6.650
 7615SOL     OW23743   4.986   3.252   6.422
 7615SOL    HW123744   5.025   3.300   6.501
 7615SOL    HW223745   4.906   3.301   6.389
 7616SOL     OW23746   6.560   6.984   1.727
 7616SOL    HW123747   6.636   6.928   1.760
 7616SOL    HW223748   6.594   0.049   1.704
 7617SOL     OW23749   5.240   4.786   2.895
 7617SOL    HW123750   5.198   4.859   2.842
 7617SOL    HW223751   5.280   4.824   2.979
 7618SOL     OW23752   2.741   2.551   0.008
 7618SOL    HW123753   2.668   2.607   6.996
 7618SOL    HW223754   2.799   2.606   0.068
 7619SOL     OW23755   0.393   0.630   4.816
 7619SOL    HW123756   0.350   0.694   4.880
 7619SOL    HW223757   0.346   0.635   4.728
 7620SOL     OW23758   3.171   4.183   0.443
 7620SOL    HW123759   3.198   4.089   0.465
 7620SOL    HW223760   3.099   4.182   0.374
 7621SOL     OW23761   5.877   4.714   0.737
 7621SOL    HW123762   5.886   4.769   0.654
 7621SOL    HW223763   5.944   4.744   0.804
 7622SOL     OW23764   2.513   3.732   0.802
 7622SOL    HW123765   2.608   3.764   0.812
 7622SOL    HW223766   2.509   3.665   0.727
 7623SOL     OW23767   5.208   5.306   3.359
 7623SOL    HW123768   5.145   5.263   3.294
 7623SOL    HW223769   5.288   5.248   3.371
 7624SOL     OW23770   6.866   2.711   3.068
 7624SOL    HW123771   6.854   2.739   3.163
 7624SOL    HW223772   6.794   2.752   3.011
 7625SOL     OW23773   5.110   0.747   2.221
 7625SOL    HW123774   5.138   0.694   2.141
 7625SOL    HW223775   5.074   0.835   2.191
 7626SOL     OW23776   4.701   6.267   0.445
 7626SOL    HW123777   4.618   6.291   0.396
 7626SOL    HW223778   4.685   6.275   0.544
 7627SOL     OW23779   4.534   2.702   5.565
 7627SOL    HW123780   4.493   2.702   5.474
 7627SOL    HW223781   4.465   2.678   5.633
 7628SOL     OW23782   3.725   2.948   0.926
 7628SOL    HW123783   3.751   3.012   0.855
 7628SOL    HW223784   3.659   2.882   0.890
 7629SOL     OW23785   5.923   2.965   3.960
 7629SOL    HW123786   5.894   2.872   3.936
 7629SOL    HW223787   6.021   2.966   3.976
 7630SOL     OW23788   1.773   5.823   4.031
 7630SOL    HW123789   1.810   5.896   3.974
 7630SOL    HW223790   1.845   5.755   4.048
 7631SOL     OW23791   1.271   1.000   6.603
 7631SOL    HW123792   1.286   1.034   6.511
 7631SOL    HW223793   1.195   1.050   6.646
 7632SOL     OW23794   4.115   5.508   1.051
 7632SOL    HW123795   4.129   5.463   1.140
 7632SOL    HW223796   4.177   5.468   0.984
 7633SOL     OW23797   5.166   0.582   2.020
 7633SOL    HW123798   5.081   0.534   1.998
 7633SOL    HW223799   5.244   0.523   2.001
 7634SOL     OW23800   0.443   2.185   6.800
 7634SOL    HW123801   0.465   2.252   6.729
 7634SOL    HW223802   0.459   2.226   6.890
 7635SOL     OW23803   1.768   2.859   5.902
 7635SOL    HW123804   1.671   2.837   5.894
 7635SOL    HW223805   1.781   2.957   5.886
 7636SOL     OW23806   7.007   3.084   3.521
 7636SOL    HW123807   6.973   3.143   3.594
 7636SOL    HW223808   0.068   3.121   3.487
 7637SOL     OW23809   1.766   4.074   4.740
 7637SOL    HW123810   1.701   4.149   4.741
 7637SOL    HW223811   1.798   4.056   4.834
 7638SOL     OW23812   0.092   6.597   0.787
 7638SOL    HW123813   7.025   6.630   0.774
 7638SOL    HW223814   0.156   6.663   0.747
 7639SOL     OW23815   2.159   6.191   0.586
 7639SOL    HW123816   2.159   6.123   0.513
 7639SOL    HW223817   2.089   6.167   0.653
 7640SOL     OW23818   3.445   0.289   0.760
 7640SOL    HW123819   3.465   0.193   0.778
 7640SOL    HW223820   3.506   0.324   0.689
 7641SOL     OW23821   6.319   4.021   5.514
 7641SOL    HW123822   6.243   4.086   5.524
 7641SOL    HW223823   6.373   4.021   5.598
 7642SOL     OW23824   5.332   0.923   4.096
 7642SOL    HW123825   5.393   0.853   4.057
 7642SOL    HW223826   5.330   0.914   4.195
 7643SOL     OW23827   5.172   2.098   4.086
 7643SOL    HW123828   5.104   2.030   4.112
 7643SOL    HW223829   5.177   2.105   3.986
 7644SOL     OW23830   5.596   4.070   0.372
 7644SOL    HW123831   5.559   4.024   0.291
 7644SOL    HW223832   5.607   4.004   0.446
 7645SOL     OW23833   5.736   4.522   6.470
 7645SOL    HW123834   5.755   4.470   6.553
 7645SOL    HW223835   5.822   4.555   6.431
 7646SOL     OW23836   6.401   1.236   2.815
 7646SOL    HW123837   6.498   1.212   2.816
 7646SOL    HW223838   6.359   1.198   2.733
 7647SOL     OW23839   6.909   1.979   4.112
 7647SOL    HW123840   6.903   2.018   4.204
 7647SOL    HW223841   6.930   2.052   4.046
 7648SOL     OW23842   1.673   2.579   0.898
 7648SOL    HW123843   1.620   2.569   0.814
 7648SOL    HW223844   1.632   2.651   0.954
 7649SOL     OW23845   4.576   0.610   0.417
 7649SOL    HW123846   4.492   0.558   0.430
 7649SOL    HW223847   4.574   0.655   0.328
 7650SOL     OW23848   3.687   2.776   0.297
 7650SOL    HW123849   3.591   2.757   0.277
 7650SOL    HW223850   3.744   2.745   0.221
 7651SOL     OW23851   3.788   5.559   6.200
 7651SOL    HW123852   3.703   5.604   6.230
 7651SOL    HW223853   3.822   5.603   6.117
 7652SOL     OW23854   0.692   0.860   4.828
 7652SOL    HW123855   0.619   0.901   4.883
 7652SOL    HW223856   0.676   0.761   4.820
 7653SOL     OW23857   2.088   6.549   5.891
 7653SOL    HW123858   2.065   6.580   5.983
 7653SOL    HW223859   2.187   6.550   5.878
 7654SOL     OW23860   6.820   2.546   6.019
 7654SOL    HW123861   6.778   2.479   6.081
 7654SOL    HW223862   6.917   2.557   6.042
 7655SOL     OW23863   2.793   1.542   5.591
 7655SOL    HW123864   2.843   1.628   5.588
 7655SOL    HW223865   2.743   1.536   5.678
 7656SOL     OW23866   6.524   3.553   0.072
 7656SOL    HW123867   6.478   3.555   0.161
 7656SOL    HW223868   6.562   3.643   0.053
 7657SOL     OW23869   1.122   3.992   5.034
 7657SOL    HW123870   1.036   4.042   5.041
 7657SOL    HW223871   1.198   4.057   5.030
 7658SOL     OW23872   2.822   0.359   0.925
 7658SOL    HW123873   2.746   0.328   0.869
 7658SOL    HW223874   2.870   0.279   0.963
 7659SOL     OW23875   5.671   4.266   4.994
 7659SOL    HW123876   5.757   4.225   4.966
 7659SOL    HW223877   5.611   4.195   5.031
 7660SOL     OW23878   0.213   6.218   4.898
 7660SOL    HW123879   0.268   6.226   4.815
 7660SOL    HW223880   0.221   6.126   4.936
 7661SOL     OW23881   1.820   0.256   4.727
 7661SOL    HW123882   1.853   0.347   4.752
 7661SOL    HW223883   1.843   0.191   4.799
 7662SOL     OW23884   6.623   6.522   1.800
 7662SOL    HW123885   6.702   6.469   1.769
 7662SOL    HW223886   6.654   6.614   1.826
 7663SOL     OW23887   1.606   5.958   3.543
 7663SOL    HW123888   1.573   6.000   3.458
 7663SOL    HW223889   1.633   6.029   3.607
 7664SOL     OW23890   5.455   2.376   3.111
 7664SOL    HW123891   5.370   2.429   3.104
 7664SOL    HW223892   5.501   2.399   3.197
 7665SOL     OW23893   1.932   6.654   5.018
 7665SOL    HW123894   1.893   6.648   5.110
 7665SOL    HW223895   2.030   6.632   5.022
 7666SOL     OW23896   6.292   4.759   4.030
 7666SOL    HW123897   6.216   4.702   3.999
 7666SOL    HW223898   6.298   4.757   4.130
 7667SOL     OW23899   4.722   5.475   1.482
 7667SOL    HW123900   4.634   5.478   1.530
 7667SOL    HW223901   4.707   5.488   1.384
 7668SOL     OW23902   1.950   5.419   0.614
 7668SOL    HW123903   1.945   5.514   0.644
 7668SOL    HW223904   2.024   5.372   0.663
 7669SOL     OW23905   4.305   2.369   6.599
 7669SOL    HW123906   4.250   2.375   6.515
 7669SOL    HW223907   4.294   2.453   6.652
 7670SOL     OW23908   1.126   0.822   0.938
 7670SOL    HW123909   1.072   0.802   1.019
 7670SOL    HW223910   1.222   0.828   0.962
 7671SOL     OW23911   3.648   1.040   1.957
 7671SOL    HW123912   3.674   1.121   1.905
 7671SOL    HW223913   3.689   0.959   1.914
 7672SOL     OW23914   5.736   2.889   3.169
 7672SOL    HW123915   5.642   2.891   3.202
 7672SOL    HW223916   5.739   2.847   3.079
 7673SOL     OW23917   1.864   6.129   5.324
 7673SOL    HW123918   1.847   6.105   5.420
 7673SOL    HW223919   1.777   6.147   5.278
 7674SOL     OW23920   3.811   5.462   3.771
 7674SOL    HW123921   3.712   5.471   3.763
 7674SOL    HW223922   3.852   5.468   3.680
 7675SOL     OW23923   3.865   6.913   3.052
 7675SOL    HW123924   3.911   6.971   3.119
 7675SOL    HW223925   3.930   6.846   3.015
 7676SOL     OW23926   3.441   3.124   4.168
 7676SOL    HW123927   3.498   3.053   4.209
 7676SOL    HW223928   3.428   3.199   4.233
 7677SOL     OW23929   0.403   6.556   0.732
 7677SOL    HW123930   0.353   6.478   0.769
 7677SOL    HW223931   0.388   6.636   0.790
 7678SOL     OW23932   3.225   1.238   5.160
 7678SOL    HW123933   3.303   1.297   5.178
 7678SOL    HW223934   3.143   1.294   5.148
 7679SOL     OW23935   3.174   5.851   4.025
 7679SOL    HW123936   3.273   5.862   4.036
 7679SOL    HW223937   3.142   5.910   3.952
 7680SOL     OW23938   1.330   5.939   4.088
 7680SOL    HW123939   1.286   5.903   4.006
 7680SOL    HW223940   1.263   5.943   4.163
 7681SOL     OW23941   2.011   2.025   5.928
 7681SOL    HW123942   2.098   2.007   5.972
 7681SOL    HW223943   2.022   2.024   5.828
 7682SOL     OW23944   2.995   0.050   1.526
 7682SOL    HW123945   3.093   0.037   1.508
 7682SOL    HW223946   2.984   0.109   1.607
 7683SOL     OW23947   1.717   4.137   4.059
 7683SOL    HW123948   1.810   4.133   4.094
 7683SOL    HW223949   1.671   4.050   4.077
 7684SOL     OW23950   4.949   3.542   1.548
 7684SOL    HW123951   4.913   3.476   1.482
 7684SOL    HW223952   4.879   3.563   1.616
 7685SOL     OW23953   2.121   0.160   6.631
 7685SOL    HW123954   2.117   0.259   6.647
 7685SOL    HW223955   2.215   0.134   6.608
 7686SOL     OW23956   6.257   0.917   4.913
 7686SOL    HW123957   6.202   0.941   4.834
 7686SOL    HW223958   6.214   0.953   4.996
 7687SOL     OW23959   6.133   3.831   5.398
 7687SOL    HW123960   6.051   3.866   5.443
 7687SOL    HW223961   6.190   3.783   5.465
 7688SOL     OW23962   6.779   3.231   0.813
 7688SOL    HW123963   6.844   3.157   0.794
 7688SOL    HW223964   6.687   3.193   0.819
 7689SOL     OW23965   5.163   6.822   2.938
 7689SOL    HW123966   5.092   6.889   2.918
 7689SOL    HW223967   5.174   6.813   3.037
 7690SOL     OW23968   6.164   4.339   2.366
 7690SOL    HW123969   6.121   4.315   2.453
 7690SOL    HW223970   6.212   4.259   2.330
 7691SOL     OW23971   5.016   2.843   4.065
 7691SOL    HW123972   5.094   2.817   4.008
 7691SOL    HW223973   5.049   2.890   4.147
 7692SOL     OW23974   1.902   6.398   2.126
 7692SOL    HW123975   1.988   6.365   2.086
 7692SOL    HW223976   1.826   6.345   2.090
 7693SOL     OW23977   2.409   2.321   0.687
 7693SOL    HW123978   2.401   2.421   0.681
 7693SOL    HW223979   2.506   2.295   0.691
 7694SOL     OW23980   4.549   2.259   1.394
 7694SOL    HW123981   4.476   2.217   1.447
 7694SOL    HW223982   4.555   2.357   1.417
 7695SOL     OW23983   5.204   6.513   3.994
 7695SOL    HW123984   5.240   6.557   3.912
 7695SOL    HW223985   5.131   6.450   3.968
 7696SOL     OW23986   2.255   1.153   5.572
 7696SOL    HW123987   2.230   1.082   5.507
 7696SOL    HW223988   2.202   1.142   5.656
 7697SOL     OW23989   5.665   6.733   3.241
 7697SOL    HW123990   5.736   6.673   3.279
 7697SOL    HW223991   5.595   6.678   3.196
 7698SOL     OW23992   5.776   1.825   1.437
 7698SOL    HW123993   5.853   1.782   1.391
 7698SOL    HW223994   5.758   1.915   1.396
 7699SOL     OW23995   3.878   5.740   6.000
 7699SOL    HW123996   3.946   5.759   5.929
 7699SOL    HW223997   3.787   5.765   5.965
 7700SOL     OW23998   5.833   4.649   1.564
 7700SOL    HW123999   5.836   4.699   1.650
 7700SOL    HW224000   5.827   4.714   1.488
 7701SOL     OW24001   3.106   1.959   6.406
 7701SOL    HW124002   3.163   1.885   6.442
 7701SOL    HW224003   3.071   1.933   6.316
 7702SOL     OW24004   5.900   6.738   5.629
 7702SOL    HW124005   5.917   6.834   5.650
 7702SOL    HW224006   5.955   6.680   5.689
 7703SOL     OW24007   0.411   6.206   6.968
 7703SOL    HW124008   0.446   6.277   0.003
 7703SOL    HW224009   0.477   6.190   6.895
 7704SOL     OW24010   1.757   2.568   4.548
 7704SOL    HW124011   1.782   2.581   4.452
 7704SOL    HW224012   1.836   2.586   4.606
 7705SOL     OW24013   1.208   4.327   0.429
 7705SOL    HW124014   1.280   4.389   0.460
 7705SOL    HW224015   1.190   4.343   0.332
 7706SOL     OW24016   3.467   3.797   2.005
 7706SOL    HW124017   3.508   3.707   1.988
 7706SOL    HW224018   3.458   3.812   2.104
 7707SOL     OW24019   6.686   5.639   5.637
 7707SOL    HW124020   6.776   5.675   5.662
 7707SOL    HW224021   6.663   5.668   5.544
 7708SOL     OW24022   0.893   0.293   3.526
 7708SOL    HW124023   0.921   0.306   3.431
 7708SOL    HW224024   0.839   0.372   3.556
 7709SOL     OW24025   6.593   4.418   1.284
 7709SOL    HW124026   6.628   4.381   1.198
 7709SOL    HW224027   6.582   4.344   1.350
 7710SOL     OW24028   6.294   3.543   2.767
 7710SOL    HW124029   6.260   3.637   2.773
 7710SOL    HW224030   6.278   3.497   2.855
 7711SOL     OW24031   1.183   4.744   3.314
 7711SOL    HW124032   1.162   4.663   3.370
 7711SOL    HW224033   1.113   4.756   3.245
 7712SOL     OW24034   1.063   4.287   4.776
 7712SOL    HW124035   0.979   4.233   4.771
 7712SOL    HW224036   1.105   4.276   4.866
 7713SOL     OW24037   0.585   5.804   0.076
 7713SOL    HW124038   0.491   5.805   0.110
 7713SOL    HW224039   0.599   5.881   0.014
 7714SOL     OW24040   5.721   1.716   4.690
 7714SOL    HW124041   5.796   1.683   4.632
 7714SOL    HW224042   5.754   1.792   4.747
 7715SOL     OW24043   4.268   4.012   6.431
 7715SOL    HW124044   4.354   4.062   6.444
 7715SOL    HW224045   4.281   3.916   6.458
 7716SOL     OW24046   1.739   0.716   0.057
 7716SOL    HW124047   1.686   0.766   7.014
 7716SOL    HW224048   1.705   0.740   0.148
 7717SOL     OW24049   0.628   2.025   6.064
 7717SOL    HW124050   0.694   1.976   6.007
 7717SOL    HW224051   0.602   1.969   6.142
 7718SOL     OW24052   0.533   3.707   3.653
 7718SOL    HW124053   0.468   3.772   3.612
 7718SOL    HW224054   0.608   3.758   3.695
 7719SOL     OW24055   2.466   6.590   5.083
 7719SOL    HW124056   2.553   6.589   5.034
 7719SOL    HW224057   2.483   6.584   5.181
 7720SOL     OW24058   4.558   0.953   6.270
 7720SOL    HW124059   4.533   0.933   6.176
 7720SOL    HW224060   4.489   1.012   6.312
 7721SOL     OW24061   5.324   5.865   2.449
 7721SOL    HW124062   5.405   5.869   2.391
 7721SOL    HW224063   5.273   5.951   2.441
 7722SOL     OW24064   0.218   6.449   4.641
 7722SOL    HW124065   0.285   6.451   4.715
 7722SOL    HW224066   0.251   6.390   4.568
 7723SOL     OW24067   3.691   4.541   6.333
 7723SOL    HW124068   3.642   4.500   6.410
 7723SOL    HW224069   3.625   4.584   6.271
 7724SOL     OW24070   1.053   4.224   6.666
 7724SOL    HW124071   1.146   4.238   6.633
 7724SOL    HW224072   0.998   4.181   6.594
 7725SOL     OW24073   5.271   2.922   4.906
 7725SOL    HW124074   5.278   2.995   4.838
 7725SOL    HW224075   5.293   2.834   4.862
 7726SOL     OW24076   1.447   2.821   0.689
 7726SOL    HW124077   1.417   2.869   0.772
 7726SOL    HW224078   1.545   2.837   0.675
 7727SOL     OW24079   6.026   0.189   3.104
 7727SOL    HW124080   6.029   0.279   3.147
 7727SOL    HW224081   6.041   0.118   3.172
 7728SOL     OW24082   2.189   3.077   5.563
 7728SOL    HW124083   2.208   3.003   5.629
 7728SOL    HW224084   2.098   3.064   5.524
 7729SOL     OW24085   0.571   0.854   3.060
 7729SOL    HW124086   0.605   0.854   2.966
 7729SOL    HW224087   0.522   0.939   3.078
 7730SOL     OW24088   5.809   3.319   6.537
 7730SOL    HW124089   5.795   3.227   6.572
 7730SOL    HW224090   5.906   3.333   6.519
 7731SOL     OW24091   0.239   0.988   5.690
 7731SOL    HW124092   0.330   0.952   5.713
 7731SOL    HW224093   0.175   0.912   5.680
 7732SOL     OW24094   3.947   1.022   0.454
 7732SOL    HW124095   3.889   1.091   0.498
 7732SOL    HW224096   4.042   1.049   0.460
 7733SOL     OW24097   5.685   6.144   1.614
 7733SOL    HW124098   5.629   6.201   1.554
 7733SOL    HW224099   5.761   6.198   1.651
 7734SOL     OW24100   3.467   4.129   3.965
 7734SOL    HW124101   3.371   4.156   3.952
 7734SOL    HW224102   3.471   4.044   4.018
 7735SOL     OW24103   0.846   5.502   1.119
 7735SOL    HW124104   0.752   5.508   1.087
 7735SOL    HW224105   0.848   5.497   1.219
 7736SOL     OW24106   2.246   1.641   0.978
 7736SOL    HW124107   2.293   1.559   0.945
 7736SOL    HW224108   2.150   1.620   0.997
 7737SOL     OW24109   4.904   4.610   6.257
 7737SOL    HW124110   4.823   4.667   6.275
 7737SOL    HW224111   4.939   4.628   6.165
 7738SOL     OW24112   1.971   0.932   5.397
 7738SOL    HW124113   1.921   0.983   5.467
 7738SOL    HW224114   1.948   0.835   5.403
 7739SOL     OW24115   0.654   2.893   6.300
 7739SOL    HW124116   0.673   2.964   6.367
 7739SOL    HW224117   0.642   2.935   6.210
 7740SOL     OW24118   2.127   0.619   3.891
 7740SOL    HW124119   2.175   0.562   3.958
 7740SOL    HW224120   2.077   0.691   3.939
 7741SOL     OW24121   6.249   4.568   6.278
 7741SOL    HW124122   6.257   4.475   6.243
 7741SOL    HW224123   6.299   4.631   6.217
 7742SOL     OW24124   4.728   2.610   3.895
 7742SOL    HW124125   4.676   2.550   3.956
 7742SOL    HW224126   4.767   2.556   3.820
 7743SOL     OW24127   3.477   1.158   6.313
 7743SOL    HW124128   3.503   1.249   6.280
 7743SOL    HW224129   3.408   1.119   6.253
 7744SOL     OW24130   6.977   5.911   4.701
 7744SOL    HW124131   6.884   5.876   4.715
 7744SOL    HW224132   6.974   6.010   4.691
 7745SOL     OW24133   3.155   0.325   0.404
 7745SOL    HW124134   3.166   0.239   0.455
 7745SOL    HW224135   3.152   0.401   0.469
 7746SOL     OW24136   6.714   5.937   1.036
 7746SOL    HW124137   6.769   6.010   0.994
 7746SOL    HW224138   6.711   5.950   1.135
 7747SOL     OW24139   6.703   5.930   0.595
 7747SOL    HW124140   6.771   6.004   0.589
 7747SOL    HW224141   6.727   5.857   0.531
 7748SOL     OW24142   4.429   1.267   5.987
 7748SOL    HW124143   4.408   1.355   5.945
 7748SOL    HW224144   4.415   1.194   5.920
 7749SOL     OW24145   2.933   3.814   2.826
 7749SOL    HW124146   2.916   3.738   2.763
 7749SOL    HW224147   2.876   3.803   2.908
 7750SOL     OW24148   5.638   3.947   5.778
 7750SOL    HW124149   5.569   3.907   5.718
 7750SOL    HW224150   5.649   3.891   5.860
 7751SOL     OW24151   0.332   1.703   4.147
 7751SOL    HW124152   0.244   1.660   4.128
 7751SOL    HW224153   0.393   1.637   4.190
 7752SOL     OW24154   5.556   4.244   6.184
 7752SOL    HW124155   5.504   4.245   6.098
 7752SOL    HW224156   5.502   4.288   6.255
 7753SOL     OW24157   2.051   1.241   5.010
 7753SOL    HW124158   2.051   1.245   4.910
 7753SOL    HW224159   2.128   1.293   5.046
 7754SOL     OW24160   6.786   1.270   0.518
 7754SOL    HW124161   6.850   1.312   0.454
 7754SOL    HW224162   6.836   1.222   0.589
 7755SOL     OW24163   1.361   6.486   5.474
 7755SOL    HW124164   1.408   6.566   5.438
 7755SOL    HW224165   1.408   6.403   5.444
 7756SOL     OW24166   3.637   6.645   2.854
 7756SOL    HW124167   3.719   6.639   2.912
 7756SOL    HW224168   3.572   6.574   2.881
 7757SOL     OW24169   3.617   1.710   5.244
 7757SOL    HW124170   3.604   1.803   5.278
 7757SOL    HW224171   3.528   1.667   5.227
 7758SOL     OW24172   2.667   1.140   6.246
 7758SOL    HW124173   2.699   1.063   6.301
 7758SOL    HW224174   2.735   1.214   6.250
 7759SOL     OW24175   2.407   0.000   4.651
 7759SOL    HW124176   2.336   6.983   4.596
 7759SOL    HW224177   2.371   0.018   4.743
 7760SOL     OW24178   5.495   1.715   2.739
 7760SOL    HW124179   5.589   1.747   2.750
 7760SOL    HW224180   5.435   1.763   2.803
 7761SOL     OW24181   4.652   0.793   6.839
 7761SOL    HW124182   4.664   0.882   6.796
 7761SOL    HW224183   4.700   0.792   6.927
 7762SOL     OW24184   1.920   2.112   0.886
 7762SOL    HW124185   1.936   2.197   0.837
 7762SOL    HW224186   1.885   2.043   0.822
 7763SOL     OW24187   1.875   3.046   0.877
 7763SOL    HW124188   1.807   3.113   0.847
 7763SOL    HW224189   1.841   2.998   0.958
 7764SOL     OW24190   3.555   3.537   2.230
 7764SOL    HW124191   3.525   3.539   2.325
 7764SOL    HW224192   3.642   3.587   2.221
 7765SOL     OW24193   0.720   1.715   2.057
 7765SOL    HW124194   0.665   1.781   2.007
 7765SOL    HW224195   0.766   1.760   2.134
 7766SOL     OW24196   6.760   3.421   0.040
 7766SOL    HW124197   6.841   3.475   0.020
 7766SOL    HW224198   6.687   3.480   0.072
 7767SOL     OW24199   6.006   3.923   4.985
 7767SOL    HW124200   6.082   3.907   5.048
 7767SOL    HW224201   6.032   3.895   4.892
 7768SOL     OW24202   4.212   5.183   1.399
 7768SOL    HW124203   4.217   5.086   1.372
 7768SOL    HW224204   4.117   5.208   1.417
 7769SOL     OW24205   4.836   1.459   3.701
 7769SOL    HW124206   4.802   1.473   3.794
 7769SOL    HW224207   4.929   1.422   3.704
 7770SOL     OW24208   2.964   6.474   1.089
 7770SOL    HW124209   2.930   6.390   1.047
 7770SOL    HW224210   3.032   6.517   1.030
 7771SOL     OW24211   2.469   0.832   4.412
 7771SOL    HW124212   2.440   0.926   4.431
 7771SOL    HW224213   2.394   0.769   4.431
 7772SOL     OW24214   5.478   0.900   5.924
 7772SOL    HW124215   5.445   0.992   5.905
 7772SOL    HW224216   5.452   0.839   5.849
 7773SOL     OW24217   4.386   4.761   6.077
 7773SOL    HW124218   4.424   4.738   5.987
 7773SOL    HW224219   4.288   4.780   6.068
 7774SOL     OW24220   4.211   1.121   0.375
 7774SOL    HW124221   4.275   1.045   0.387
 7774SOL    HW224222   4.206   1.147   0.279
 7775SOL     OW24223   0.725   6.603   1.508
 7775SOL    HW124224   0.762   6.527   1.561
 7775SOL    HW224225   0.649   6.570   1.452
 7776SOL     OW24226   3.017   4.418   1.222
 7776SOL    HW124227   3.097   4.472   1.247
 7776SOL    HW224228   3.045   4.340   1.166
 7777SOL     OW24229   0.433   0.694   6.761
 7777SOL    HW124230   0.361   0.626   6.772
 7777SOL    HW224231   0.394   0.778   6.724
 7778SOL     OW24232   5.012   2.443   2.793
 7778SOL    HW124233   5.004   2.531   2.747
 7778SOL    HW224234   4.981   2.452   2.888
 7779SOL     OW24235   4.589   3.068   0.132
 7779SOL    HW124236   4.580   3.133   0.057
 7779SOL    HW224237   4.499   3.052   0.174
 7780SOL     OW24238   1.679   0.479   4.302
 7780SOL    HW124239   1.684   0.474   4.402
 7780SOL    HW224240   1.678   0.574   4.273
 7781SOL     OW24241   2.476   4.009   5.570
 7781SOL    HW124242   2.422   4.020   5.654
 7781SOL    HW224243   2.526   4.094   5.551
 7782SOL     OW24244   4.979   4.579   6.922
 7782SOL    HW124245   5.010   4.501   6.977
 7782SOL    HW224246   4.997   4.664   6.972
 7783SOL     OW24247   3.515   6.095   0.007
 7783SOL    HW124248   3.441   6.141   0.056
 7783SOL    HW224249   3.576   6.163   6.993
 7784SOL     OW24250   6.691   3.248   0.257
 7784SOL    HW124251   6.734   3.303   0.185
 7784SOL    HW224252   6.591   3.258   0.251
 7785SOL     OW24253   1.674   6.565   6.119
 7785SOL    HW124254   1.612   6.643   6.128
 7785SOL    HW224255   1.720   6.569   6.030
 7786SOL     OW24256   4.016   4.121   5.223
 7786SOL    HW124257   3.996   4.070   5.140
 7786SOL    HW224258   4.107   4.098   5.256
 7787SOL     OW24259   3.357   2.070   5.445
 7787SOL    HW124260   3.379   2.112   5.533
 7787SOL    HW224261   3.279   2.009   5.455
 7788SOL     OW24262   6.998   2.400   1.242
 7788SOL    HW124263   7.025   2.376   1.336
 7788SOL    HW224264   6.985   2.316   1.190
 7789SOL     OW24265   0.659   0.472   1.607
 7789SOL    HW124266   0.727   0.451   1.537
 7789SOL    HW224267   0.658   0.399   1.675
 7790SOL     OW24268   0.145   3.632   3.130
 7790SOL    HW124269   0.222   3.569   3.130
 7790SOL    HW224270   0.112   3.645   3.223
 7791SOL     OW24271   6.789   5.906   6.105
 7791SOL    HW124272   6.886   5.927   6.121
 7791SOL    HW224273   6.766   5.819   6.148
 7792SOL     OW24274   1.508   5.954   6.717
 7792SOL    HW124275   1.487   5.864   6.755
 7792SOL    HW224276   1.424   5.994   6.679
 7793SOL     OW24277   2.484   0.078   6.201
 7793SOL    HW124278   2.399   0.049   6.156
 7793SOL    HW224279   2.461   0.138   6.278
 7794SOL     OW24280   5.023   4.660   2.715
 7794SOL    HW124281   5.054   4.723   2.787
 7794SOL    HW224282   5.094   4.653   2.645
 7795SOL     OW24283   2.547   4.017   6.306
 7795SOL    HW124284   2.593   4.106   6.311
 7795SOL    HW224285   2.610   3.950   6.268
 7796SOL     OW24286   4.047   3.723   3.638
 7796SOL    HW124287   4.073   3.742   3.543
 7796SOL    HW224288   4.028   3.809   3.685
 7797SOL     OW24289   1.582   6.133   3.827
 7797SOL    HW124290   1.482   6.138   3.835
 7797SOL    HW224291   1.618   6.074   3.898
 7798SOL     OW24292   5.134   5.072   5.856
 7798SOL    HW124293   5.182   5.014   5.922
 7798SOL    HW224294   5.201   5.120   5.799
 7799SOL     OW24295   5.570   5.934   1.244
 7799SOL    HW124296   5.540   5.972   1.157
 7799SOL    HW224297   5.534   5.990   1.319
 7800SOL     OW24298   0.812   6.440   2.549
 7800SOL    HW124299   0.908   6.419   2.531
 7800SOL    HW224300   0.765   6.457   2.462
 7801SOL     OW24301   4.177   2.370   5.514
 7801SOL    HW124302   4.099   2.431   5.531
 7801SOL    HW224303   4.184   2.304   5.589
 7802SOL     OW24304   5.844   2.174   6.478
 7802SOL    HW124305   5.925   2.218   6.518
 7802SOL    HW224306   5.858   2.164   6.379
 7803SOL     OW24307   3.516   3.039   6.546
 7803SOL    HW124308   3.600   2.986   6.527
 7803SOL    HW224309   3.508   3.112   6.478
 7804SOL     OW24310   4.820   0.909   5.728
 7804SOL    HW124311   4.884   0.844   5.688
 7804SOL    HW224312   4.866   0.964   5.798
 7805SOL     OW24313   5.296   2.945   1.786
 7805SOL    HW124314   5.302   3.044   1.791
 7805SOL    HW224315   5.294   2.916   1.690
 7806SOL     OW24316   5.146   2.694   0.493
 7806SOL    HW124317   5.137   2.674   0.591
 7806SOL    HW224318   5.241   2.679   0.465
 7807SOL     OW24319   0.781   4.653   6.507
 7807SOL    HW124320   0.798   4.662   6.409
 7807SOL    HW224321   0.867   4.660   6.558
 7808SOL     OW24322   0.022   1.884   4.534
 7808SOL    HW124323   0.050   1.911   4.626
 7808SOL    HW224324   7.010   1.792   4.536
 7809SOL     OW24325   1.253   5.931   5.737
 7809SOL    HW124326   1.298   5.900   5.653
 7809SOL    HW224327   1.183   5.864   5.764
 7810SOL     OW24328   3.102   1.224   0.088
 7810SOL    HW124329   3.140   1.141   0.128
 7810SOL    HW224330   3.137   1.304   0.137
 7811SOL     OW24331   6.302   4.470   5.178
 7811SOL    HW124332   6.218   4.421   5.202
 7811SOL    HW224333   6.364   4.408   5.130
 7812SOL     OW24334   1.180   1.834   3.873
 7812SOL    HW124335   1.171   1.883   3.787
 7812SOL    HW224336   1.104   1.858   3.934
 7813SOL     OW24337   5.680   1.378   1.443
 7813SOL    HW124338   5.629   1.454   1.403
 7813SOL    HW224339   5.619   1.324   1.501
 7814SOL     OW24340   1.783   2.985   3.744
 7814SOL    HW124341   1.773   2.886   3.743
 7814SOL    HW224342   1.724   3.025   3.675
 7815SOL     OW24343   6.711   2.184   5.364
 7815SOL    HW124344   6.648   2.240   5.310
 7815SOL    HW224345   6.772   2.243   5.417
 7816SOL     OW24346   7.009   4.547   4.909
 7816SOL    HW124347   6.955   4.516   4.988
 7816SOL    HW224348   0.077   4.516   4.919
 7817SOL     OW24349   5.578   2.742   5.693
 7817SOL    HW124350   5.500   2.719   5.634
 7817SOL    HW224351   5.648   2.671   5.685
 7818SOL     OW24352   6.212   2.824   3.446
 7818SOL    HW124353   6.158   2.757   3.394
 7818SOL    HW224354   6.166   2.845   3.532
 7819SOL     OW24355   1.820   1.432   0.679
 7819SOL    HW124356   1.910   1.451   0.718
 7819SOL    HW224357   1.767   1.516   0.675
 7820SOL     OW24358   2.727   6.721   5.343
 7820SOL    HW124359   2.784   6.719   5.261
 7820SOL    HW224360   2.782   6.693   5.422
 7821SOL     OW24361   2.869   5.974   1.324
 7821SOL    HW124362   2.835   5.962   1.417
 7821SOL    HW224363   2.896   6.070   1.311
 7822SOL     OW24364   0.600   6.473   5.031
 7822SOL    HW124365   0.533   6.494   4.960
 7822SOL    HW224366   0.675   6.421   4.991
 7823SOL     OW24367   2.210   3.345   5.851
 7823SOL    HW124368   2.197   3.387   5.761
 7823SOL    HW224369   2.270   3.403   5.906
 7824SOL     OW24370   0.967   3.520   5.501
 7824SOL    HW124371   1.062   3.498   5.476
 7824SOL    HW224372   0.905   3.483   5.433
 7825SOL     OW24373   2.175   0.836   0.124
 7825SOL    HW124374   2.145   0.855   0.031
 7825SOL    HW224375   2.159   0.917   0.181
 7826SOL     OW24376   0.539   4.434   5.874
 7826SOL    HW124377   0.562   4.385   5.958
 7826SOL    HW224378   0.445   4.470   5.881
 7827SOL     OW24379   5.930   4.924   3.312
 7827SOL    HW124380   5.994   4.861   3.268
 7827SOL    HW224381   5.910   4.891   3.405
 7828SOL     OW24382   1.059   6.129   5.555
 7828SOL    HW124383   1.041   6.043   5.506
 7828SOL    HW224384   1.143   6.119   5.608
 7829SOL     OW24385   4.447   4.872   1.252
 7829SOL    HW124386   4.491   4.958   1.225
 7829SOL    HW224387   4.494   4.795   1.210
 7830SOL     OW24388   1.530   5.324   4.067
 7830SOL    HW124389   1.611   5.304   4.123
 7830SOL    HW224390   1.544   5.289   3.974
 7831SOL     OW24391   1.722   0.017   6.792
 7831SOL    HW124392   1.638   7.006   6.832
 7831SOL    HW224393   1.759   0.088   6.852
 7832SOL     OW24394   0.237   0.782   4.999
 7832SOL    HW124395   0.240   0.772   5.098
 7832SOL    HW224396   0.173   0.855   4.975
 7833SOL     OW24397   0.810   0.586   2.799
 7833SOL    HW124398   0.745   0.514   2.821
 7833SOL    HW224399   0.892   0.575   2.857
 7834SOL     OW24400   0.956   3.241   4.722
 7834SOL    HW124401   0.937   3.338   4.740
 7834SOL    HW224402   1.006   3.202   4.800
 7835SOL     OW24403   3.043   3.098   5.795
 7835SOL    HW124404   3.125   3.071   5.745
 7835SOL    HW224405   2.985   3.153   5.734
 7836SOL     OW24406   3.046   3.589   4.797
 7836SOL    HW124407   3.100   3.545   4.725
 7836SOL    HW224408   2.982   3.523   4.837
 7837SOL     OW24409   0.418   5.879   0.465
 7837SOL    HW124410   0.514   5.880   0.436
 7837SOL    HW224411   0.359   5.875   0.384
 7838SOL     OW24412   4.193   4.524   0.825
 7838SOL    HW124413   4.214   4.621   0.809
 7838SOL    HW224414   4.116   4.517   0.888
 7839SOL     OW24415   5.794   3.793   4.217
 7839SOL    HW124416   5.800   3.821   4.313
 7839SOL    HW224417   5.780   3.694   4.212
 7840SOL     OW24418   2.511   2.204   3.422
 7840SOL    HW124419   2.542   2.299   3.414
 7840SOL    HW224420   2.577   2.153   3.477
 7841SOL     OW24421   4.140   2.416   6.010
 7841SOL    HW124422   4.155   2.345   5.941
 7841SOL    HW224423   4.063   2.473   5.982
 7842SOL     OW24424   0.830   0.269   0.920
 7842SOL    HW124425   0.919   0.294   0.958
 7842SOL    HW224426   0.819   0.170   0.923
 7843SOL     OW24427   6.614   6.003   2.227
 7843SOL    HW124428   6.634   5.978   2.132
 7843SOL    HW224429   6.699   6.017   2.277
 7844SOL     OW24430   2.781   6.884   2.332
 7844SOL    HW124431   2.806   6.960   2.272
 7844SOL    HW224432   2.860   6.858   2.387
 7845SOL     OW24433   0.105   3.490   2.138
 7845SOL    HW124434   0.155   3.480   2.052
 7845SOL    HW224435   0.123   3.411   2.196
 7846SOL     OW24436   0.395   1.802   0.445
 7846SOL    HW124437   0.437   1.721   0.486
 7846SOL    HW224438   0.385   1.873   0.514
 7847SOL     OW24439   5.836   3.710   5.597
 7847SOL    HW124440   5.889   3.763   5.663
 7847SOL    HW224441   5.789   3.636   5.643
 7848SOL     OW24442   5.128   5.043   0.152
 7848SOL    HW124443   5.041   5.009   0.117
 7848SOL    HW224444   5.119   5.066   0.249
 7849SOL     OW24445   4.881   5.346   6.746
 7849SOL    HW124446   4.969   5.393   6.751
 7849SOL    HW224447   4.811   5.410   6.713
 7850SOL     OW24448   6.934   0.888   3.446
 7850SOL    HW124449   7.021   0.844   3.467
 7850SOL    HW224450   6.889   0.839   3.371
 7851SOL     OW24451   1.112   3.869   0.529
 7851SOL    HW124452   1.112   3.950   0.471
 7851SOL    HW224453   1.135   3.788   0.474
 7852SOL     OW24454   1.545   3.283   5.737
 7852SOL    HW124455   1.596   3.366   5.716
 7852SOL    HW224456   1.560   3.215   5.666
 7853SOL     OW24457   4.409   3.138   1.670
 7853SOL    HW124458   4.409   3.048   1.626
 7853SOL    HW224459   4.475   3.139   1.745
 7854SOL     OW24460   4.067   1.124   1.421
 7854SOL    HW124461   4.126   1.138   1.341
 7854SOL    HW224462   4.061   1.209   1.473
 7855SOL     OW24463   5.482   5.910   3.517
 7855SOL    HW124464   5.468   5.968   3.437
 7855SOL    HW224465   5.408   5.924   3.582
 7856SOL     OW24466   2.096   6.243   6.415
 7856SOL    HW124467   2.027   6.263   6.346
 7856SOL    HW224468   2.145   6.160   6.390
 7857SOL     OW24469   6.964   4.458   0.194
 7857SOL    HW124470   6.875   4.415   0.206
 7857SOL    HW224471   6.952   4.556   0.178
 7858SOL     OW24472   0.374   4.287   6.913
 7858SOL    HW124473   0.399   4.192   6.929
 7858SOL    HW224474   0.433   4.327   6.843
 7859SOL     OW24475   4.666   2.463   1.561
 7859SOL    HW124476   4.757   2.501   1.578
 7859SOL    HW224477   4.672   2.363   1.555
 7860SOL     OW24478   2.647   1.831   3.105
 7860SOL    HW124479   2.597   1.749   3.133
 7860SOL    HW224480   2.602   1.912   3.143
 7861SOL     OW24481   1.636   5.453   0.554
 7861SOL    HW124482   1.614   5.547   0.529
 7861SOL    HW224483   1.580   5.426   0.632
 7862SOL     OW24484   0.854   0.360   6.705
 7862SOL    HW124485   0.837   0.444   6.654
 7862SOL    HW224486   0.914   0.380   6.782
 7863SOL     OW24487   0.690   4.984   3.905
 7863SOL    HW124488   0.638   4.900   3.893
 7863SOL    HW224489   0.639   5.061   3.868
 7864SOL     OW24490   3.199   5.824   4.865
 7864SOL    HW124491   3.140   5.905   4.876
 7864SOL    HW224492   3.168   5.752   4.928
 7865SOL     OW24493   6.335   5.408   4.025
 7865SOL    HW124494   6.384   5.371   3.947
 7865SOL    HW224495   6.293   5.495   4.000
 7866SOL     OW24496   1.181   1.168   5.320
 7866SOL    HW124497   1.114   1.160   5.246
 7866SOL    HW224498   1.201   1.077   5.357
 7867SOL     OW24499   4.579   6.053   2.213
 7867SOL    HW124500   4.570   5.968   2.266
 7867SOL    HW224501   4.653   6.108   2.252
 7868SOL     OW24502   4.060   6.146   1.435
 7868SOL    HW124503   4.120   6.080   1.389
 7868SOL    HW224504   4.101   6.172   1.523
 7869SOL     OW24505   5.606   4.927   0.157
 7869SOL    HW124506   5.548   4.848   0.137
 7869SOL    HW224507   5.570   4.977   0.235
 7870SOL     OW24508   6.863   0.712   3.216
 7870SOL    HW124509   6.764   0.700   3.212
 7870SOL    HW224510   6.904   0.634   3.262
 7871SOL     OW24511   4.986   0.558   0.799
 7871SOL    HW124512   4.955   0.563   0.704
 7871SOL    HW224513   4.909   0.573   0.860
 7872SOL     OW24514   6.479   5.382   3.755
 7872SOL    HW124515   6.493   5.284   3.764
 7872SOL    HW224516   6.521   5.429   3.833
 7873SOL     OW24517   5.043   2.282   6.629
 7873SOL    HW124518   4.944   2.272   6.625
 7873SOL    HW224519   5.067   2.342   6.705
 7874SOL     OW24520   6.186   2.133   0.830
 7874SOL    HW124521   6.137   2.060   0.782
 7874SOL    HW224522   6.215   2.202   0.764
 7875SOL     OW24523   6.578   5.164   0.084
 7875SOL    HW124524   6.650   5.174   0.015
 7875SOL    HW224525   6.543   5.070   0.083
 7876SOL     OW24526   1.138   6.725   2.646
 7876SOL    HW124527   1.156   6.636   2.603
 7876SOL    HW224528   1.222   6.779   2.645
 7877SOL     OW24529   1.034   2.910   1.926
 7877SOL    HW124530   1.031   3.003   1.889
 7877SOL    HW224531   1.077   2.849   1.860
 7878SOL     OW24532   4.072   0.558   2.554
 7878SOL    HW124533   4.145   0.603   2.606
 7878SOL    HW224534   4.015   0.627   2.511
 7879SOL     OW24535   2.482   5.869   1.887
 7879SOL    HW124536   2.501   5.966   1.869
 7879SOL    HW224537   2.567   5.818   1.886
 7880SOL     OW24538   1.389   4.916   2.650
 7880SOL    HW124539   1.377   4.817   2.642
 7880SOL    HW224540   1.486   4.938   2.655
 7881SOL     OW24541   4.774   2.786   3.116
 7881SOL    HW124542   4.682   2.783   3.077
 7881SOL    HW224543   4.838   2.820   3.047
 7882SOL     OW24544   0.098   2.740   0.121
 7882SOL    HW124545   0.042   2.674   0.070
 7882SOL    HW224546   0.191   2.704   0.131
 7883SOL     OW24547   0.070   0.317   4.760
 7883SOL    HW124548   0.090   0.220   4.752
 7883SOL    HW224549   0.155   0.367   4.778
 7884SOL     OW24550   1.345   2.997   3.938
 7884SOL    HW124551   1.274   2.928   3.923
 7884SOL    HW224552   1.335   3.034   4.031
 7885SOL     OW24553   6.346   6.222   0.540
 7885SOL    HW124554   6.381   6.165   0.466
 7885SOL    HW224555   6.295   6.166   0.605
 7886SOL     OW24556   4.919   3.447   0.110
 7886SOL    HW124557   4.907   3.418   0.205
 7886SOL    HW224558   5.015   3.470   0.094
 7887SOL     OW24559   4.148   1.680   6.246
 7887SOL    HW124560   4.190   1.756   6.296
 7887SOL    HW224561   4.103   1.715   6.164
 7888SOL     OW24562   4.188   6.057   4.220
 7888SOL    HW124563   4.223   6.126   4.156
 7888SOL    HW224564   4.231   5.969   4.200
 7889SOL     OW24565   6.349   4.571   3.434
 7889SOL    HW124566   6.337   4.609   3.343
 7889SOL    HW224567   6.398   4.636   3.492
 7890SOL     OW24568   2.125   4.261   3.300
 7890SOL    HW124569   2.186   4.252   3.379
 7890SOL    HW224570   2.118   4.358   3.274
 7891SOL     OW24571   0.173   4.339   2.733
 7891SOL    HW124572   0.145   4.435   2.736
 7891SOL    HW224573   0.101   4.285   2.690
 7892SOL     OW24574   2.388   2.487   4.570
 7892SOL    HW124575   2.310   2.437   4.533
 7892SOL    HW224576   2.363   2.583   4.585
 7893SOL     OW24577   5.083   6.194   1.374
 7893SOL    HW124578   5.128   6.146   1.299
 7893SOL    HW224579   5.120   6.162   1.461
 7894SOL     OW24580   2.968   6.940   0.767
 7894SOL    HW124581   2.918   6.865   0.809
 7894SOL    HW224582   2.987   7.010   0.836
 7895SOL     OW24583   1.218   1.744   4.871
 7895SOL    HW124584   1.148   1.812   4.847
 7895SOL    HW224585   1.284   1.737   4.796
 7896SOL     OW24586   3.804   1.804   6.990
 7896SOL    HW124587   3.878   1.744   7.019
 7896SOL    HW224588   3.806   1.814   6.890
 7897SOL     OW24589   3.250   3.970   0.581
 7897SOL    HW124590   3.176   3.903   0.580
 7897SOL    HW224591   3.286   3.978   0.674
 7898SOL     OW24592   5.449   0.802   4.630
 7898SOL    HW124593   5.535   0.758   4.606
 7898SOL    HW224594   5.420   0.863   4.556
 7899SOL     OW24595   4.476   0.654   1.974
 7899SOL    HW124596   4.540   0.717   1.931
 7899SOL    HW224597   4.383   0.690   1.966
 7900SOL     OW24598   0.177   5.858   1.347
 7900SOL    HW124599   0.232   5.776   1.362
 7900SOL    HW224600   0.236   5.933   1.317
 7901SOL     OW24601   5.745   5.086   1.232
 7901SOL    HW124602   5.808   5.041   1.167
 7901SOL    HW224603   5.651   5.063   1.208
 7902SOL     OW24604   4.719   5.175   6.309
 7902SOL    HW124605   4.709   5.093   6.365
 7902SOL    HW224606   4.683   5.254   6.359
 7903SOL     OW24607   1.178   2.165   2.102
 7903SOL    HW124608   1.138   2.144   2.013
 7903SOL    HW224609   1.236   2.089   2.131
 7904SOL     OW24610   5.454   1.677   3.358
 7904SOL    HW124611   5.510   1.645   3.281
 7904SOL    HW224612   5.483   1.632   3.442
 7905SOL     OW24613   2.552   2.216   1.676
 7905SOL    HW124614   2.628   2.280   1.686
 7905SOL    HW224615   2.534   2.172   1.764
 7906SOL     OW24616   1.559   4.065   6.636
 7906SOL    HW124617   1.514   4.014   6.709
 7906SOL    HW224618   1.657   4.070   6.655
 7907SOL     OW24619   0.479   2.787   3.241
 7907SOL    HW124620   0.514   2.881   3.247
 7907SOL    HW224621   0.554   2.725   3.219
 7908SOL     OW24622   0.884   0.896   3.321
 7908SOL    HW124623   0.788   0.911   3.297
 7908SOL    HW224624   0.892   0.814   3.377
 7909SOL     OW24625   3.850   5.553   5.302
 7909SOL    HW124626   3.824   5.456   5.298
 7909SOL    HW224627   3.773   5.606   5.336
 7910SOL     OW24628   6.351   3.205   5.964
 7910SOL    HW124629   6.408   3.253   6.031
 7910SOL    HW224630   6.311   3.124   6.007
 7911SOL     OW24631   6.802   5.879   6.588
 7911SOL    HW124632   6.704   5.862   6.602
 7911SOL    HW224633   6.853   5.840   6.664
 7912SOL     OW24634   6.223   5.186   5.194
 7912SOL    HW124635   6.260   5.101   5.157
 7912SOL    HW224636   6.298   5.252   5.205
 7913SOL     OW24637   1.702   6.037   7.012
 7913SOL    HW124638   1.667   5.943   7.003
 7913SOL    HW224639   1.639   6.100   6.966
 7914SOL     OW24640   5.899   4.347   1.169
 7914SOL    HW124641   5.983   4.309   1.130
 7914SOL    HW224642   5.828   4.350   1.098
 7915SOL     OW24643   3.095   1.288   3.008
 7915SOL    HW124644   3.018   1.266   2.949
 7915SOL    HW224645   3.176   1.306   2.952
 7916SOL     OW24646   3.483   3.506   4.936
 7916SOL    HW124647   3.457   3.442   5.008
 7916SOL    HW224648   3.575   3.541   4.954
 7917SOL     OW24649   3.747   3.981   3.622
 7917SOL    HW124650   3.827   4.009   3.675
 7917SOL    HW224651   3.665   4.026   3.658
 7918SOL     OW24652   6.294   2.069   1.712
 7918SOL    HW124653   6.240   2.061   1.628
 7918SOL    HW224654   6.275   1.990   1.770
 7919SOL     OW24655   5.444   3.456   2.500
 7919SOL    HW124656   5.432   3.424   2.594
 7919SOL    HW224657   5.488   3.384   2.446
 7920SOL     OW24658   0.121   6.389   0.398
 7920SOL    HW124659   0.072   6.375   0.484
 7920SOL    HW224660   0.119   6.305   0.344
 7921SOL     OW24661   3.450   5.079   1.905
 7921SOL    HW124662   3.392   4.998   1.905
 7921SOL    HW224663   3.538   5.057   1.863
 7922SOL     OW24664   1.385   3.829   4.365
 7922SOL    HW124665   1.409   3.747   4.313
 7922SOL    HW224666   1.324   3.804   4.440
 7923SOL     OW24667   1.784   3.244   2.166
 7923SOL    HW124668   1.828   3.172   2.113
 7923SOL    HW224669   1.801   3.229   2.263
 7924SOL     OW24670   2.587   2.105   3.845
 7924SOL    HW124671   2.648   2.180   3.873
 7924SOL    HW224672   2.588   2.097   3.745
 7925SOL     OW24673   1.240   1.622   0.542
 7925SOL    HW124674   1.323   1.655   0.498
 7925SOL    HW224675   1.262   1.593   0.636
 7926SOL     OW24676   3.277   0.860   1.865
 7926SOL    HW124677   3.255   0.875   1.961
 7926SOL    HW224678   3.269   0.763   1.843
 7927SOL     OW24679   4.564   4.887   4.443
 7927SOL    HW124680   4.505   4.809   4.467
 7927SOL    HW224681   4.577   4.889   4.344
 7928SOL     OW24682   0.996   4.047   1.301
 7928SOL    HW124683   0.935   3.974   1.268
 7928SOL    HW224684   1.002   4.120   1.233
 7929SOL     OW24685   3.954   4.023   4.957
 7929SOL    HW124686   3.888   4.060   4.891
 7929SOL    HW224687   4.002   3.946   4.916
 7930SOL     OW24688   3.711   0.193   2.058
 7930SOL    HW124689   3.689   0.176   2.154
 7930SOL    HW224690   3.808   0.214   2.049
 7931SOL     OW24691   2.285   2.797   5.473
 7931SOL    HW124692   2.368   2.788   5.420
 7931SOL    HW224693   2.305   2.843   5.560
 7932SOL     OW24694   2.951   1.639   1.102
 7932SOL    HW124695   2.968   1.721   1.047
 7932SOL    HW224696   2.928   1.563   1.041
 7933SOL     OW24697   1.881   1.096   6.052
 7933SOL    HW124698   1.920   1.042   5.977
 7933SOL    HW224699   1.807   1.044   6.096
 7934SOL     OW24700   4.324   2.583   5.672
 7934SOL    HW124701   4.367   2.495   5.694
 7934SOL    HW224702   4.242   2.566   5.618
 7935SOL     OW24703   4.593   5.020   2.404
 7935SOL    HW124704   4.502   5.057   2.426
 7935SOL    HW224705   4.620   4.955   2.475
 7936SOL     OW24706   4.317   6.112   1.868
 7936SOL    HW124707   4.366   6.058   1.800
 7936SOL    HW224708   4.316   6.063   1.955
 7937SOL     OW24709   5.670   1.983   6.414
 7937SOL    HW124710   5.722   2.061   6.450
 7937SOL    HW224711   5.704   1.960   6.323
 7938SOL     OW24712   6.268   4.284   4.371
 7938SOL    HW124713   6.216   4.223   4.312
 7938SOL    HW224714   6.231   4.280   4.464
 7939SOL     OW24715   5.992   5.383   4.073
 7939SOL    HW124716   6.010   5.471   4.116
 7939SOL    HW224717   5.997   5.310   4.142
 7940SOL     OW24718   1.751   5.950   0.563
 7940SOL    HW124719   1.771   5.994   0.650
 7940SOL    HW224720   1.766   6.014   0.488
 7941SOL     OW24721   0.888   0.688   1.644
 7941SOL    HW124722   0.836   0.604   1.629
 7941SOL    HW224723   0.864   0.755   1.574
 7942SOL     OW24724   0.567   6.506   1.304
 7942SOL    HW124725   0.469   6.491   1.295
 7942SOL    HW224726   0.601   6.560   1.227
 7943SOL     OW24727   6.136   2.543   6.033
 7943SOL    HW124728   6.126   2.636   5.998
 7943SOL    HW224729   6.082   2.480   5.977
 7944SOL     OW24730   6.271   3.954   1.918
 7944SOL    HW124731   6.261   3.861   1.884
 7944SOL    HW224732   6.361   3.965   1.959
 7945SOL     OW24733   6.195   6.445   0.272
 7945SOL    HW124734   6.099   6.420   0.263
 7945SOL    HW224735   6.253   6.367   0.249
 7946SOL     OW24736   1.813   1.296   5.772
 7946SOL    HW124737   1.725   1.331   5.739
 7946SOL    HW224738   1.843   1.350   5.851
 7947SOL     OW24739   3.464   5.489   6.355
 7947SOL    HW124740   3.482   5.441   6.440
 7947SOL    HW224741   3.518   5.449   6.281
 7948SOL     OW24742   1.414   4.447   4.523
 7948SOL    HW124743   1.497   4.491   4.489
 7948SOL    HW224744   1.334   4.500   4.494
 7949SOL     OW24745   0.153   3.833   4.471
 7949SOL    HW124746   0.067   3.790   4.443
 7949SOL    HW224747   0.180   3.799   4.560
 7950SOL     OW24748   2.776   6.006   3.205
 7950SOL    HW124749   2.839   5.930   3.191
 7950SOL    HW224750   2.682   5.972   3.200
 7951SOL     OW24751   2.392   3.439   0.747
 7951SOL    HW124752   2.365   3.401   0.835
 7951SOL    HW224753   2.463   3.381   0.706
 7952SOL     OW24754   6.265   3.742   0.679
 7952SOL    HW124755   6.301   3.749   0.772
 7952SOL    HW224756   6.334   3.702   0.619
 7953SOL     OW24757   2.125   4.288   1.477
 7953SOL    HW124758   2.054   4.318   1.413
 7953SOL    HW224759   2.204   4.254   1.425
 7954SOL     OW24760   5.959   5.402   3.792
 7954SOL    HW124761   5.961   5.501   3.779
 7954SOL    HW224762   5.957   5.381   3.890
 7955SOL     OW24763   1.646   6.391   6.683
 7955SOL    HW124764   1.644   6.345   6.594
 7955SOL    HW224765   1.704   6.472   6.678
 7956SOL     OW24766   5.167   6.234   3.578
 7956SOL    HW124767   5.152   6.319   3.528
 7956SOL    HW224768   5.090   6.172   3.563
 7957SOL     OW24769   1.024   3.032   1.322
 7957SOL    HW124770   1.076   3.014   1.239
 7957SOL    HW224771   0.926   3.037   1.300
 7958SOL     OW24772   1.984   5.668   3.393
 7958SOL    HW124773   2.062   5.640   3.448
 7958SOL    HW224774   1.999   5.642   3.298
 7959SOL     OW24775   4.435   4.391   0.975
 7959SOL    HW124776   4.355   4.378   1.033
 7959SOL    HW224777   4.518   4.369   1.026
 7960SOL     OW24778   1.785   2.324   1.257
 7960SOL    HW124779   1.766   2.397   1.323
 7960SOL    HW224780   1.817   2.364   1.171
 7961SOL     OW24781   1.487   6.430   0.176
 7961SOL    HW124782   1.538   6.515   0.186
 7961SOL    HW224783   1.414   6.427   0.245
 7962SOL     OW24784   1.308   0.066   2.588
 7962SOL    HW124785   1.376   7.019   2.591
 7962SOL    HW224786   1.258   0.061   2.501
 7963SOL     OW24787   0.251   6.011   6.496
 7963SOL    HW124788   0.276   6.107   6.503
 7963SOL    HW224789   0.302   5.969   6.420
 7964SOL     OW24790   6.208   5.422   3.613
 7964SOL    HW124791   6.288   5.363   3.622
 7964SOL    HW224792   6.125   5.368   3.626
 7965SOL     OW24793   3.617   1.941   1.158
 7965SOL    HW124794   3.561   2.023   1.152
 7965SOL    HW224795   3.682   1.950   1.233
 7966SOL     OW24796   0.102   1.580   4.038
 7966SOL    HW124797   0.078   1.580   3.941
 7966SOL    HW224798   0.039   1.639   4.088
 7967SOL     OW24799   2.001   0.415   4.351
 7967SOL    HW124800   2.007   0.502   4.399
 7967SOL    HW224801   1.906   0.381   4.354
 7968SOL     OW24802   2.301   1.345   6.941
 7968SOL    HW124803   2.276   1.376   6.849
 7968SOL    HW224804   2.221   1.308   6.987
 7969SOL     OW24805   4.174   2.263   3.504
 7969SOL    HW124806   4.185   2.256   3.603
 7969SOL    HW224807   4.132   2.180   3.469
 7970SOL     OW24808   0.764   4.832   2.971
 7970SOL    HW124809   0.727   4.923   2.952
 7970SOL    HW224810   0.699   4.781   3.027
 7971SOL     OW24811   3.846   1.856   3.132
 7971SOL    HW124812   3.767   1.801   3.107
 7971SOL    HW224813   3.818   1.950   3.149
 7972SOL     OW24814   5.197   5.288   0.915
 7972SOL    HW124815   5.277   5.317   0.969
 7972SOL    HW224816   5.114   5.302   0.969
 7973SOL     OW24817   6.189   2.170   2.725
 7973SOL    HW124818   6.127   2.248   2.726
 7973SOL    HW224819   6.230   2.159   2.816
 7974SOL     OW24820   4.389   6.394   4.537
 7974SOL    HW124821   4.305   6.352   4.504
 7974SOL    HW224822   4.453   6.322   4.565
 7975SOL     OW24823   1.991   1.112   2.326
 7975SOL    HW124824   1.916   1.134   2.388
 7975SOL    HW224825   1.968   1.141   2.233
 7976SOL     OW24826   0.074   6.153   6.299
 7976SOL    HW124827   0.050   6.126   6.392
 7976SOL    HW224828   0.101   6.250   6.298
 7977SOL     OW24829   5.390   6.162   1.318
 7977SOL    HW124830   5.463   6.222   1.349
 7977SOL    HW224831   5.365   6.186   1.224
 7978SOL     OW24832   3.269   1.458   6.223
 7978SOL    HW124833   3.197   1.390   6.235
 7978SOL    HW224834   3.254   1.509   6.138
 7979SOL     OW24835   4.775   5.551   4.355
 7979SOL    HW124836   4.682   5.517   4.368
 7979SOL    HW224837   4.772   5.650   4.342
 7980SOL     OW24838   2.612   1.022   1.343
 7980SOL    HW124839   2.561   0.972   1.273
 7980SOL    HW224840   2.690   1.068   1.301
 7981SOL     OW24841   0.159   6.193   2.636
 7981SOL    HW124842   0.256   6.170   2.645
 7981SOL    HW224843   0.105   6.133   2.695
 7982SOL     OW24844   0.295   2.605   1.381
 7982SOL    HW124845   0.391   2.605   1.353
 7982SOL    HW224846   0.263   2.510   1.389
 7983SOL     OW24847   5.352   2.146   1.269
 7983SOL    HW124848   5.362   2.244   1.251
 7983SOL    HW224849   5.328   2.132   1.365
 7984SOL     OW24850   5.905   0.949   6.679
 7984SOL    HW124851   5.872   0.857   6.702
 7984SOL    HW224852   5.927   0.999   6.763
 7985SOL     OW24853   0.601   1.671   0.639
 7985SOL    HW124854   0.671   1.740   0.623
 7985SOL    HW224855   0.640   1.595   0.692
 7986SOL     OW24856   5.024   3.820   0.940
 7986SOL    HW124857   5.029   3.901   0.882
 7986SOL    HW224858   4.989   3.743   0.886
 7987SOL     OW24859   1.300   4.057   5.680
 7987SOL    HW124860   1.376   4.049   5.616
 7987SOL    HW224861   1.298   3.976   5.738
 7988SOL     OW24862   2.364   1.213   5.168
 7988SOL    HW124863   2.402   1.258   5.249
 7988SOL    HW224864   2.310   1.134   5.196
 7989SOL     OW24865   2.836   3.642   0.189
 7989SOL    HW124866   2.751   3.667   0.143
 7989SOL    HW224867   2.819   3.626   0.286
 7990SOL     OW24868   2.304   2.799   4.669
 7990SOL    HW124869   2.319   2.798   4.768
 7990SOL    HW224870   2.283   2.892   4.639
 7991SOL     OW24871   2.466   3.142   5.984
 7991SOL    HW124872   2.537   3.089   5.937
 7991SOL    HW224873   2.383   3.143   5.929
 7992SOL     OW24874   2.823   1.201   0.065
 7992SOL    HW124875   2.790   1.216   6.998
 7992SOL    HW224876   2.923   1.199   0.065
 7993SOL     OW24877   3.406   5.771   6.430
 7993SOL    HW124878   3.456   5.690   6.462
 7993SOL    HW224879   3.356   5.811   6.507
 7994SOL     OW24880   5.454   0.081   4.660
 7994SOL    HW124881   5.550   0.090   4.686
 7994SOL    HW224882   5.398   0.068   4.742
 7995SOL     OW24883   4.293   5.240   2.046
 7995SOL    HW124884   4.207   5.287   2.027
 7995SOL    HW224885   4.308   5.237   2.145
 7996SOL     OW24886   4.471   1.895   5.493
 7996SOL    HW124887   4.505   1.980   5.454
 7996SOL    HW224888   4.491   1.893   5.591
 7997SOL     OW24889   5.133   3.345   1.074
 7997SOL    HW124890   5.101   3.343   0.979
 7997SOL    HW224891   5.144   3.440   1.103
 7998SOL     OW24892   6.886   5.601   6.720
 7998SOL    HW124893   6.821   5.639   6.786
 7998SOL    HW224894   6.861   5.506   6.700
 7999SOL     OW24895   3.204   2.216   6.038
 7999SOL    HW124896   3.271   2.274   5.992
 7999SOL    HW224897   3.228   2.209   6.135
 8000SOL     OW24898   5.256   0.733   5.484
 8000SOL    HW124899   5.173   0.789   5.493
 8000SOL    HW224900   5.231   0.639   5.464
 8001SOL     OW24901   2.948   4.725   1.370
 8001SOL    HW124902   2.909   4.692   1.284
 8001SOL    HW224903   3.039   4.684   1.383
 8002SOL     OW24904   4.408   2.318   5.708
 8002SOL    HW124905   4.319   2.273   5.718
 8002SOL    HW224906   4.456   2.315   5.796
 8003SOL     OW24907   5.036   5.502   3.438
 8003SOL    HW124908   5.030   5.563   3.358
 8003SOL    HW224909   5.111   5.438   3.425
 8004SOL     OW24910   1.674   5.025   3.636
 8004SOL    HW124911   1.596   5.060   3.584
 8004SOL    HW224912   1.714   4.946   3.588
 8005SOL     OW24913   2.671   1.145   2.711
 8005SOL    HW124914   2.588   1.162   2.765
 8005SOL    HW224915   2.652   1.074   2.644
 8006SOL     OW24916   4.957   5.688   3.180
 8006SOL    HW124917   4.948   5.783   3.212
 8006SOL    HW224918   4.905   5.676   3.096
 8007SOL     OW24919   0.642   1.305   3.468
 8007SOL    HW124920   0.559   1.282   3.519
 8007SOL    HW224921   0.661   1.403   3.478
 8008SOL     OW24922   6.610   4.708   1.217
 8008SOL    HW124923   6.619   4.708   1.118
 8008SOL    HW224924   6.618   4.615   1.251
 8009SOL     OW24925   6.554   6.236   3.125
 8009SOL    HW124926   6.533   6.157   3.182
 8009SOL    HW224927   6.650   6.234   3.099
 8010SOL     OW24928   2.126   1.876   6.520
 8010SOL    HW124929   2.183   1.795   6.537
 8010SOL    HW224930   2.154   1.919   6.435
 8011SOL     OW24931   1.751   3.195   0.240
 8011SOL    HW124932   1.815   3.212   0.165
 8011SOL    HW224933   1.685   3.269   0.245
 8012SOL     OW24934   1.818   5.775   3.616
 8012SOL    HW124935   1.758   5.850   3.590
 8012SOL    HW224936   1.893   5.769   3.550
 8013SOL     OW24937   6.396   5.744   4.208
 8013SOL    HW124938   6.473   5.802   4.183
 8013SOL    HW224939   6.340   5.726   4.128
 8014SOL     OW24940   2.382   0.438   6.155
 8014SOL    HW124941   2.315   0.400   6.091
 8014SOL    HW224942   2.465   0.464   6.105
 8015SOL     OW24943   2.062   1.121   0.785
 8015SOL    HW124944   2.063   1.024   0.762
 8015SOL    HW224945   2.153   1.160   0.772
 8016SOL     OW24946   4.829   5.374   1.986
 8016SOL    HW124947   4.754   5.436   2.007
 8016SOL    HW224948   4.840   5.367   1.887
 8017SOL     OW24949   6.181   3.252   4.670
 8017SOL    HW124950   6.169   3.166   4.719
 8017SOL    HW224951   6.256   3.304   4.710
 8018SOL     OW24952   4.838   3.258   3.622
 8018SOL    HW124953   4.910   3.256   3.553
 8018SOL    HW224954   4.834   3.169   3.668
 8019SOL     OW24955   3.729   5.413   1.219
 8019SOL    HW124956   3.796   5.464   1.165
 8019SOL    HW224957   3.664   5.476   1.260
 8020SOL     OW24958   5.568   6.556   6.861
 8020SOL    HW124959   5.535   6.641   6.903
 8020SOL    HW224960   5.601   6.576   6.768
 8021SOL     OW24961   6.628   1.151   2.420
 8021SOL    HW124962   6.529   1.162   2.426
 8021SOL    HW224963   6.663   1.121   2.509
 8022SOL     OW24964   6.040   4.671   3.663
 8022SOL    HW124965   6.048   4.641   3.758
 8022SOL    HW224966   6.012   4.595   3.605
 8023SOL     OW24967   0.065   5.234   3.378
 8023SOL    HW124968   0.055   5.285   3.463
 8023SOL    HW224969   0.114   5.291   3.312
 8024SOL     OW24970   4.591   5.939   3.757
 8024SOL    HW124971   4.564   5.849   3.721
 8024SOL    HW224972   4.557   5.949   3.850
 8025SOL     OW24973   2.516   6.185   0.096
 8025SOL    HW124974   2.456   6.255   0.134
 8025SOL    HW224975   2.580   6.228   0.032
 8026SOL     OW24976   3.132   1.931   6.788
 8026SOL    HW124977   3.068   1.873   6.739
 8026SOL    HW224978   3.097   1.949   6.880
 8027SOL     OW24979   4.394   3.753   5.662
 8027SOL    HW124980   4.358   3.664   5.689
 8027SOL    HW224981   4.343   3.826   5.707
 8028SOL     OW24982   6.332   4.462   1.392
 8028SOL    HW124983   6.422   4.461   1.348
 8028SOL    HW224984   6.289   4.551   1.378
 8029SOL     OW24985   3.492   4.318   5.948
 8029SOL    HW124986   3.573   4.311   5.890
 8029SOL    HW224987   3.410   4.324   5.892
 8030SOL     OW24988   0.532   3.657   2.364
 8030SOL    HW124989   0.589   3.738   2.370
 8030SOL    HW224990   0.464   3.668   2.292
 8031SOL     OW24991   3.851   6.330   0.444
 8031SOL    HW124992   3.832   6.254   0.506
 8031SOL    HW224993   3.950   6.337   0.430
 8032SOL     OW24994   4.541   3.438   5.378
 8032SOL    HW124995   4.587   3.448   5.466
 8032SOL    HW224996   4.601   3.470   5.305
 8033SOL     OW24997   5.903   1.525   2.591
 8033SOL    HW124998   5.842   1.498   2.517
 8033SOL    HW224999   5.933   1.619   2.577
 8034SOL     OW25000   6.702   2.668   5.775
 8034SOL    HW125001   6.629   2.601   5.760
 8034SOL    HW225002   6.749   2.649   5.861
 8035SOL     OW25003   5.956   5.964   6.356
 8035SOL    HW125004   5.930   6.005   6.269
 8035SOL    HW225005   5.995   5.874   6.340
 8036SOL     OW25006   1.435   3.525   1.646
 8036SOL    HW125007   1.480   3.614   1.638
 8036SOL    HW225008   1.501   3.457   1.676
 8037SOL     OW25009   1.911   2.911   1.734
 8037SOL    HW125010   1.972   2.985   1.761
 8037SOL    HW225011   1.935   2.828   1.784
 8038SOL     OW25012   5.505   0.603   3.824
 8038SOL    HW125013   5.558   0.558   3.752
 8038SOL    HW225014   5.443   0.669   3.783
 8039SOL     OW25015   2.211   5.633   3.573
 8039SOL    HW125016   2.287   5.677   3.525
 8039SOL    HW225017   2.246   5.564   3.636
 8040SOL     OW25018   6.017   6.451   6.372
 8040SOL    HW125019   6.105   6.413   6.345
 8040SOL    HW225020   5.943   6.393   6.338
 8041SOL     OW25021   2.997   2.809   0.910
 8041SOL    HW125022   3.080   2.754   0.908
 8041SOL    HW225023   2.974   2.832   1.005
 8042SOL     OW25024   1.872   4.635   0.016
 8042SOL    HW125025   1.802   4.570   0.045
 8042SOL    HW225026   1.957   4.586   7.024
 8043SOL     OW25027   3.099   0.530   1.214
 8043SOL    HW125028   3.145   0.464   1.275
 8043SOL    HW225029   3.040   0.590   1.268
 8044SOL     OW25030   3.011   2.500   1.309
 8044SOL    HW125031   3.074   2.435   1.353
 8044SOL    HW225032   2.918   2.463   1.311
 8045SOL     OW25033   5.632   2.679   4.115
 8045SOL    HW125034   5.672   2.648   4.201
 8045SOL    HW225035   5.550   2.625   4.095
 8046SOL     OW25036   6.041   5.370   5.146
 8046SOL    HW125037   5.984   5.356   5.065
 8046SOL    HW225038   6.105   5.293   5.155
 8047SOL     OW25039   2.910   6.776   4.295
 8047SOL    HW125040   2.949   6.868   4.296
 8047SOL    HW225041   2.980   6.710   4.270
 8048SOL     OW25042   5.232   0.432   5.529
 8048SOL    HW125043   5.296   0.384   5.468
 8048SOL    HW225044   5.143   0.441   5.484
 8049SOL     OW25045   2.374   6.208   6.238
 8049SOL    HW125046   2.445   6.263   6.282
 8049SOL    HW225047   2.335   6.144   6.303
 8050SOL     OW25048   0.652   3.641   1.917
 8050SOL    HW125049   0.620   3.612   1.827
 8050SOL    HW225050   0.652   3.563   1.980
 8051SOL     OW25051   2.265   2.407   4.100
 8051SOL    HW125052   2.337   2.461   4.143
 8051SOL    HW225053   2.196   2.468   4.060
 8052SOL     OW25054   4.171   0.972   3.015
 8052SOL    HW125055   4.099   0.904   3.002
 8052SOL    HW225056   4.143   1.037   3.087
 8053SOL     OW25057   4.719   3.713   1.392
 8053SOL    HW125058   4.704   3.716   1.293
 8053SOL    HW225059   4.769   3.630   1.416
 8054SOL     OW25060   4.865   6.659   4.617
 8054SOL    HW125061   4.830   6.569   4.591
 8054SOL    HW225062   4.825   6.729   4.558
 8055SOL     OW25063   1.212   0.225   4.905
 8055SOL    HW125064   1.246   0.132   4.891
 8055SOL    HW225065   1.113   0.222   4.916
 8056SOL     OW25066   4.762   1.031   2.830
 8056SOL    HW125067   4.725   1.090   2.758
 8056SOL    HW225068   4.727   1.061   2.919
 8057SOL     OW25069   3.305   0.143   3.175
 8057SOL    HW125070   3.309   0.057   3.226
 8057SOL    HW225071   3.335   0.218   3.234
 8058SOL     OW25072   1.896   0.839   3.181
 8058SOL    HW125073   1.811   0.854   3.231
 8058SOL    HW225074   1.893   0.750   3.136
 8059SOL     OW25075   2.000   1.399   3.742
 8059SOL    HW125076   1.952   1.327   3.792
 8059SOL    HW225077   2.069   1.440   3.801
 8060SOL     OW25078   1.300   2.769   5.296
 8060SOL    HW125079   1.219   2.725   5.335
 8060SOL    HW225080   1.293   2.868   5.307
 8061SOL     OW25081   5.191   6.599   2.780
 8061SOL    HW125082   5.194   6.683   2.833
 8061SOL    HW225083   5.207   6.619   2.684
 8062SOL     OW25084   1.726   1.608   1.371
 8062SOL    HW125085   1.650   1.543   1.376
 8062SOL    HW225086   1.771   1.600   1.282
 8063SOL     OW25087   2.996   2.040   5.828
 8063SOL    HW125088   3.043   2.082   5.906
 8063SOL    HW225089   3.050   2.055   5.745
 8064SOL     OW25090   5.563   1.998   5.949
 8064SOL    HW125091   5.509   2.030   6.027
 8064SOL    HW225092   5.545   2.057   5.870
 8065SOL     OW25093   4.327   0.665   6.391
 8065SOL    HW125094   4.413   0.661   6.340
 8065SOL    HW225095   4.347   0.679   6.488
 8066SOL     OW25096   0.374   0.544   1.639
 8066SOL    HW125097   0.351   0.514   1.546
 8066SOL    HW225098   0.471   0.529   1.656
 8067SOL     OW25099   4.446   1.762   3.021
 8067SOL    HW125100   4.443   1.702   2.942
 8067SOL    HW225101   4.406   1.716   3.100
 8068SOL     OW25102   6.259   4.071   3.170
 8068SOL    HW125103   6.328   4.110   3.231
 8068SOL    HW225104   6.172   4.064   3.219
 8069SOL     OW25105   6.846   5.738   2.348
 8069SOL    HW125106   6.841   5.837   2.359
 8069SOL    HW225107   6.772   5.695   2.399
 8070SOL     OW25108   3.861   0.955   2.734
 8070SOL    HW125109   3.924   0.974   2.658
 8070SOL    HW225110   3.847   0.856   2.741
 8071SOL     OW25111   6.220   4.749   6.845
 8071SOL    HW125112   6.151   4.734   6.774
 8071SOL    HW225113   6.253   4.843   6.841
 8072SOL     OW25114   3.409   0.307   2.976
 8072SOL    HW125115   3.389   0.231   3.038
 8072SOL    HW225116   3.352   0.385   3.000
 8073SOL     OW25117   5.561   0.375   6.495
 8073SOL    HW125118   5.650   0.329   6.491
 8073SOL    HW225119   5.488   0.307   6.501
 8074SOL     OW25120   3.020   4.641   0.183
 8074SOL    HW125121   3.034   4.677   0.091
 8074SOL    HW225122   3.109   4.626   0.226
 8075SOL     OW25123   6.737   1.832   3.961
 8075SOL    HW125124   6.645   1.853   3.995
 8075SOL    HW225125   6.804   1.887   4.010
 8076SOL     OW25126   4.749   2.327   6.690
 8076SOL    HW125127   4.704   2.253   6.741
 8076SOL    HW225128   4.794   2.389   6.755
 8077SOL     OW25129   0.730   0.736   6.713
 8077SOL    HW125130   0.645   0.688   6.735
 8077SOL    HW225131   0.769   0.698   6.629
 8078SOL     OW25132   6.497   4.070   1.192
 8078SOL    HW125133   6.537   4.045   1.281
 8078SOL    HW225134   6.569   4.071   1.122
 8079SOL     OW25135   1.631   2.897   0.371
 8079SOL    HW125136   1.606   2.845   0.289
 8079SOL    HW225137   1.725   2.875   0.398
 8080SOL     OW25138   3.810   5.029   0.093
 8080SOL    HW125139   3.769   4.961   0.032
 8080SOL    HW225140   3.888   4.988   0.140
 8081SOL     OW25141   5.185   2.274   4.289
 8081SOL    HW125142   5.201   2.200   4.224
 8081SOL    HW225143   5.261   2.339   4.285
 8082SOL     OW25144   0.084   3.786   5.308
 8082SOL    HW125145   0.014   3.715   5.305
 8082SOL    HW225146   0.063   3.856   5.239
 8083SOL     OW25147   6.750   1.954   5.154
 8083SOL    HW125148   6.785   2.025   5.216
 8083SOL    HW225149   6.701   1.997   5.078
 8084SOL     OW25150   6.027   0.170   6.732
 8084SOL    HW125151   6.113   0.177   6.682
 8084SOL    HW225152   6.044   0.177   6.831
 8085SOL     OW25153   4.983   2.496   1.953
 8085SOL    HW125154   4.925   2.569   1.917
 8085SOL    HW225155   5.079   2.527   1.954
 8086SOL     OW25156   3.309   5.076   6.752
 8086SOL    HW125157   3.394   5.125   6.732
 8086SOL    HW225158   3.328   5.000   6.813
 8087SOL     OW25159   2.021   4.192   1.061
 8087SOL    HW125160   1.961   4.169   0.984
 8087SOL    HW225161   1.965   4.222   1.139
 8088SOL     OW25162   4.391   0.807   3.061
 8088SOL    HW125163   4.429   0.793   2.969
 8088SOL    HW225164   4.312   0.868   3.055
 8089SOL     OW25165   6.843   2.122   0.333
 8089SOL    HW125166   6.792   2.204   0.356
 8089SOL    HW225167   6.906   2.099   0.407
 8090SOL     OW25168   5.402   0.979   4.850
 8090SOL    HW125169   5.439   0.906   4.792
 8090SOL    HW225170   5.335   1.032   4.798
 8091SOL     OW25171   1.866   3.414   4.727
 8091SOL    HW125172   1.788   3.437   4.786
 8091SOL    HW225173   1.889   3.318   4.737
 8092SOL     OW25174   6.126   2.099   4.121
 8092SOL    HW125175   6.106   2.058   4.032
 8092SOL    HW225176   6.172   2.187   4.107
 8093SOL     OW25177   6.034   4.803   0.915
 8093SOL    HW125178   6.048   4.713   0.954
 8093SOL    HW225179   6.119   4.856   0.923
 8094SOL     OW25180   0.993   3.424   4.476
 8094SOL    HW125181   0.981   3.487   4.553
 8094SOL    HW225182   0.921   3.355   4.477
 8095SOL     OW25183   6.591   3.119   5.117
 8095SOL    HW125184   6.590   3.125   5.017
 8095SOL    HW225185   6.537   3.039   5.146
 8096SOL     OW25186   3.994   0.221   0.840
 8096SOL    HW125187   4.086   0.258   0.825
 8096SOL    HW225188   3.995   0.122   0.827
 8097SOL     OW25189   5.195   2.135   3.813
 8097SOL    HW125190   5.260   2.060   3.823
 8097SOL    HW225191   5.212   2.184   3.727
 8098SOL     OW25192   2.112   2.196   4.029
 8098SOL    HW125193   2.156   2.106   4.026
 8098SOL    HW225194   2.172   2.261   4.075
 8099SOL     OW25195   3.892   0.052   4.000
 8099SOL    HW125196   3.921   0.146   4.020
 8099SOL    HW225197   3.932   7.016   4.066
 8100SOL     OW25198   6.236   6.441   1.513
 8100SOL    HW125199   6.183   6.476   1.591
 8100SOL    HW225200   6.274   6.518   1.462
 8101SOL     OW25201   1.282   4.659   2.635
 8101SOL    HW125202   1.204   4.673   2.574
 8101SOL    HW225203   1.358   4.618   2.585
 8102SOL     OW25204   6.298   0.255   5.486
 8102SOL    HW125205   6.203   0.245   5.454
 8102SOL    HW225206   6.323   0.351   5.484
 8103SOL     OW25207   2.736   2.289   2.394
 8103SOL    HW125208   2.828   2.257   2.372
 8103SOL    HW225209   2.677   2.276   2.315
 8104SOL     OW25210   2.516   0.544   5.842
 8104SOL    HW125211   2.538   0.625   5.897
 8104SOL    HW225212   2.546   0.559   5.748
 8105SOL     OW25213   2.441   2.657   2.776
 8105SOL    HW125214   2.524   2.672   2.722
 8105SOL    HW225215   2.466   2.612   2.862
 8106SOL     OW25216   0.335   4.733   6.878
 8106SOL    HW125217   0.419   4.710   6.928
 8106SOL    HW225218   0.286   4.650   6.854
 8107SOL     OW25219   0.741   5.100   6.325
 8107SOL    HW125220   0.830   5.146   6.322
 8107SOL    HW225221   0.717   5.079   6.420
 8108SOL     OW25222   1.930   2.128   6.445
 8108SOL    HW125223   1.996   2.104   6.373
 8108SOL    HW225224   1.952   2.078   6.528
 8109SOL     OW25225   0.143   5.526   5.087
 8109SOL    HW125226   0.111   5.462   5.157
 8109SOL    HW225227   0.098   5.615   5.100
 8110SOL     OW25228   1.097   4.924   0.239
 8110SOL    HW125229   1.140   5.001   0.286
 8110SOL    HW225230   1.021   4.890   0.295
 8111SOL     OW25231   3.087   6.563   4.355
 8111SOL    HW125232   3.071   6.483   4.412
 8111SOL    HW225233   3.137   6.632   4.406
 8112SOL     OW25234   3.831   1.734   4.226
 8112SOL    HW125235   3.738   1.747   4.191
 8112SOL    HW225236   3.868   1.822   4.257
 8113SOL     OW25237   3.070   2.219   6.488
 8113SOL    HW125238   3.094   2.125   6.466
 8113SOL    HW225239   3.124   2.249   6.567
 8114SOL     OW25240   2.573   3.735   1.402
 8114SOL    HW125241   2.568   3.663   1.333
 8114SOL    HW225242   2.496   3.725   1.466
 8115SOL     OW25243   4.093   2.733   1.398
 8115SOL    HW125244   4.046   2.778   1.322
 8115SOL    HW225245   4.115   2.639   1.373
 8116SOL     OW25246   5.891   2.143   5.695
 8116SOL    HW125247   5.849   2.080   5.630
 8116SOL    HW225248   5.956   2.094   5.752
 8117SOL     OW25249   3.178   2.839   5.240
 8117SOL    HW125250   3.141   2.759   5.286
 8117SOL    HW225251   3.173   2.918   5.301
 8118SOL     OW25252   0.989   2.179   4.272
 8118SOL    HW125253   0.950   2.220   4.190
 8118SOL    HW225254   1.062   2.239   4.307
 8119SOL     OW25255   1.356   0.046   2.204
 8119SOL    HW125256   1.325   7.003   2.138
 8119SOL    HW225257   1.278   0.077   2.259
 8120SOL     OW25258   4.726   4.163   2.188
 8120SOL    HW125259   4.726   4.065   2.206
 8120SOL    HW225260   4.677   4.182   2.103
 8121SOL     OW25261   6.625   6.339   3.678
 8121SOL    HW125262   6.724   6.356   3.688
 8121SOL    HW225263   6.600   6.346   3.581
 8122SOL     OW25264   0.246   4.536   1.246
 8122SOL    HW125265   0.185   4.458   1.263
 8122SOL    HW225266   0.222   4.611   1.307
 8123SOL     OW25267   1.327   5.202   6.048
 8123SOL    HW125268   1.253   5.152   6.094
 8123SOL    HW225269   1.389   5.137   6.004
 8124SOL     OW25270   1.301   5.989   2.285
 8124SOL    HW125271   1.207   6.022   2.271
 8124SOL    HW225272   1.358   6.018   2.209
 8125SOL     OW25273   4.662   5.065   3.653
 8125SOL    HW125274   4.734   5.067   3.584
 8125SOL    HW225275   4.635   5.158   3.675
 8126SOL     OW25276   0.115   4.064   1.925
 8126SOL    HW125277   0.031   4.066   1.870
 8126SOL    HW225278   0.137   4.157   1.955
 8127SOL     OW25279   4.394   5.323   0.231
 8127SOL    HW125280   4.401   5.280   0.141
 8127SOL    HW225281   4.481   5.365   0.256
 8128SOL     OW25282   3.858   2.352   5.638
 8128SOL    HW125283   3.874   2.258   5.668
 8128SOL    HW225284   3.875   2.414   5.715
 8129SOL     OW25285   5.182   5.231   6.596
 8129SOL    HW125286   5.177   5.273   6.687
 8129SOL    HW225287   5.111   5.271   6.537
 8130SOL     OW25288   0.774   0.060   6.122
 8130SOL    HW125289   0.737   0.006   6.047
 8130SOL    HW225290   0.747   0.019   6.209
 8131SOL     OW25291   2.367   1.668   1.267
 8131SOL    HW125292   2.347   1.646   1.171
 8131SOL    HW225293   2.371   1.768   1.278
 8132SOL     OW25294   5.473   4.662   3.051
 8132SOL    HW125295   5.481   4.608   2.967
 8132SOL    HW225296   5.459   4.601   3.128
 8133SOL     OW25297   0.128   5.367   2.479
 8133SOL    HW125298   0.157   5.273   2.497
 8133SOL    HW225299   0.189   5.431   2.525
 8134SOL     OW25300   3.665   3.073   1.365
 8134SOL    HW125301   3.738   3.056   1.432
 8134SOL    HW225302   3.662   3.170   1.343
 8135SOL     OW25303   4.276   5.711   2.476
 8135SOL    HW125304   4.254   5.615   2.458
 8135SOL    HW225305   4.341   5.716   2.552
 8136SOL     OW25306   2.424   5.488   1.105
 8136SOL    HW125307   2.414   5.498   1.204
 8136SOL    HW225308   2.509   5.439   1.085
 8137SOL     OW25309   3.529   4.190   5.540
 8137SOL    HW125310   3.524   4.091   5.534
 8137SOL    HW225311   3.518   4.230   5.449
 8138SOL     OW25312   4.388   0.964   3.945
 8138SOL    HW125313   4.409   0.868   3.926
 8138SOL    HW225314   4.306   0.991   3.894
 8139SOL     OW25315   2.271   2.944   6.017
 8139SOL    HW125316   2.295   2.938   5.920
 8139SOL    HW225317   2.343   2.991   6.067
 8140SOL     OW25318   5.147   1.663   1.545
 8140SOL    HW125319   5.202   1.592   1.589
 8140SOL    HW225320   5.130   1.639   1.450
 8141SOL     OW25321   5.867   2.237   4.994
 8141SOL    HW125322   5.822   2.236   4.905
 8141SOL    HW225323   5.824   2.169   5.053
 8142SOL     OW25324   3.885   5.618   0.210
 8142SOL    HW125325   3.875   5.685   0.135
 8142SOL    HW225326   3.861   5.661   0.296
 8143SOL     OW25327   5.438   4.993   0.583
 8143SOL    HW125328   5.536   4.983   0.598
 8143SOL    HW225329   5.408   5.083   0.615
 8144SOL     OW25330   1.697   5.509   6.519
 8144SOL    HW125331   1.777   5.449   6.510
 8144SOL    HW225332   1.692   5.568   6.439
 8145SOL     OW25333   4.815   5.362   5.587
 8145SOL    HW125334   4.750   5.429   5.552
 8145SOL    HW225335   4.883   5.409   5.644
 8146SOL     OW25336   6.811   6.162   5.650
 8146SOL    HW125337   6.802   6.147   5.748
 8146SOL    HW225338   6.850   6.080   5.607
 8147SOL     OW25339   2.402   6.401   4.447
 8147SOL    HW125340   2.303   6.415   4.457
 8147SOL    HW225341   2.445   6.404   4.537
 8148SOL     OW25342   4.736   4.792   0.252
 8148SOL    HW125343   4.663   4.832   0.196
 8148SOL    HW225344   4.730   4.692   0.249
 8149SOL     OW25345   1.337   6.306   4.495
 8149SOL    HW125346   1.368   6.228   4.550
 8149SOL    HW225347   1.416   6.349   4.451
 8150SOL     OW25348   0.639   4.093   0.814
 8150SOL    HW125349   0.635   4.064   0.718
 8150SOL    HW225350   0.547   4.087   0.853
 8151SOL     OW25351   6.203   4.280   2.635
 8151SOL    HW125352   6.221   4.188   2.601
 8151SOL    HW225353   6.288   4.322   2.667
 8152SOL     OW25354   5.148   1.951   4.419
 8152SOL    HW125355   5.166   2.047   4.395
 8152SOL    HW225356   5.054   1.928   4.397
 8153SOL     OW25357   6.839   1.479   1.084
 8153SOL    HW125358   6.845   1.413   1.010
 8153SOL    HW225359   6.888   1.563   1.059
 8154SOL     OW25360   6.863   0.127   4.804
 8154SOL    HW125361   6.860   0.199   4.873
 8154SOL    HW225362   6.817   0.158   4.721
 8155SOL     OW25363   1.450   4.451   5.018
 8155SOL    HW125364   1.366   4.497   4.988
 8155SOL    HW225365   1.502   4.513   5.077
 8156SOL     OW25366   0.943   3.799   0.140
 8156SOL    HW125367   0.968   3.767   0.049
 8156SOL    HW225368   0.985   3.888   0.158
 8157SOL     OW25369   6.169   4.817   5.441
 8157SOL    HW125370   6.200   4.737   5.493
 8157SOL    HW225371   6.166   4.794   5.344
 8158SOL     OW25372   0.133   5.140   5.883
 8158SOL    HW125373   0.198   5.151   5.807
 8158SOL    HW225374   0.052   5.091   5.851
 8159SOL     OW25375   2.478   6.098   4.828
 8159SOL    HW125376   2.457   6.020   4.887
 8159SOL    HW225377   2.394   6.148   4.809
 8160SOL     OW25378   4.954   3.265   3.091
 8160SOL    HW125379   4.870   3.225   3.126
 8160SOL    HW225380   5.001   3.200   3.031
 8161SOL     OW25381   0.146   1.741   1.134
 8161SOL    HW125382   0.100   1.742   1.045
 8161SOL    HW225383   0.146   1.833   1.173
 8162SOL     OW25384   6.760   6.185   6.400
 8162SOL    HW125385   6.833   6.118   6.406
 8162SOL    HW225386   6.697   6.160   6.326
 8163SOL     OW25387   3.437   5.691   5.891
 8163SOL    HW125388   3.348   5.648   5.877
 8163SOL    HW225389   3.440   5.736   5.980
 8164SOL     OW25390   5.378   2.017   0.357
 8164SOL    HW125391   5.412   2.006   0.264
 8164SOL    HW225392   5.279   2.030   0.355
 8165SOL     OW25393   1.599   2.552   5.706
 8165SOL    HW125394   1.536   2.536   5.630
 8165SOL    HW225395   1.693   2.538   5.674
 8166SOL     OW25396   3.387   2.104   3.484
 8166SOL    HW125397   3.484   2.100   3.459
 8166SOL    HW225398   3.331   2.103   3.401
 8167SOL     OW25399   1.600   1.945   2.279
 8167SOL    HW125400   1.649   2.032   2.288
 8167SOL    HW225401   1.651   1.872   2.324
 8168SOL     OW25402   1.125   5.980   2.829
 8168SOL    HW125403   1.156   6.005   2.737
 8168SOL    HW225404   1.030   6.009   2.841
 8169SOL     OW25405   5.296   4.931   6.929
 8169SOL    HW125406   5.282   4.990   7.009
 8169SOL    HW225407   5.359   4.975   6.866
 8170SOL     OW25408   0.327   4.658   3.210
 8170SOL    HW125409   0.418   4.680   3.173
 8170SOL    HW225410   0.259   4.669   3.137
 8171SOL     OW25411   1.016   1.396   1.926
 8171SOL    HW125412   1.112   1.374   1.938
 8171SOL    HW225413   0.976   1.423   2.014
 8172SOL     OW25414   1.599   4.500   0.471
 8172SOL    HW125415   1.528   4.492   0.402
 8172SOL    HW225416   1.683   4.536   0.429
 8173SOL     OW25417   5.191   0.493   1.203
 8173SOL    HW125418   5.101   0.454   1.222
 8173SOL    HW225419   5.233   0.522   1.289
 8174SOL     OW25420   2.885   6.309   3.850
 8174SOL    HW125421   2.918   6.254   3.773
 8174SOL    HW225422   2.953   6.379   3.872
 8175SOL     OW25423   1.321   2.480   6.141
 8175SOL    HW125424   1.375   2.478   6.226
 8175SOL    HW225425   1.379   2.453   6.064
 8176SOL     OW25426   2.458   4.470   0.306
 8176SOL    HW125427   2.462   4.510   0.215
 8176SOL    HW225428   2.391   4.520   0.362
 8177SOL     OW25429   3.543   1.358   1.976
 8177SOL    HW125430   3.471   1.290   1.980
 8177SOL    HW225431   3.621   1.328   2.031
 8178SOL     OW25432   2.414   6.635   0.940
 8178SOL    HW125433   2.469   6.556   0.917
 8178SOL    HW225434   2.317   6.611   0.937
 8179SOL     OW25435   6.554   6.452   4.392
 8179SOL    HW125436   6.538   6.518   4.319
 8179SOL    HW225437   6.525   6.361   4.363
 8180SOL     OW25438   3.489   4.971   0.502
 8180SOL    HW125439   3.563   5.020   0.546
 8180SOL    HW225440   3.407   5.028   0.501
 8181SOL     OW25441   5.983   0.854   6.427
 8181SOL    HW125442   5.963   0.867   6.525
 8181SOL    HW225443   6.000   0.943   6.385
 8182SOL     OW25444   3.192   3.444   2.859
 8182SOL    HW125445   3.252   3.516   2.893
 8182SOL    HW225446   3.198   3.364   2.918
 8183SOL     OW25447   0.361   0.361   5.138
 8183SOL    HW125448   0.445   0.413   5.127
 8183SOL    HW225449   0.346   0.343   5.235
 8184SOL     OW25450   6.639   5.444   4.987
 8184SOL    HW125451   6.730   5.452   4.946
 8184SOL    HW225452   6.582   5.385   4.931
 8185SOL     OW25453   6.506   6.369   4.094
 8185SOL    HW125454   6.601   6.400   4.097
 8185SOL    HW225455   6.458   6.416   4.020
 8186SOL     OW25456   0.455   6.344   6.518
 8186SOL    HW125457   0.388   6.408   6.556
 8186SOL    HW225458   0.440   6.334   6.420
 8187SOL     OW25459   0.840   6.357   4.499
 8187SOL    HW125460   0.814   6.429   4.564
 8187SOL    HW225461   0.916   6.304   4.536
 8188SOL     OW25462   1.657   2.694   2.716
 8188SOL    HW125463   1.719   2.742   2.778
 8188SOL    HW225464   1.703   2.675   2.630
 8189SOL     OW25465   6.775   5.251   3.791
 8189SOL    HW125466   6.681   5.220   3.806
 8189SOL    HW225467   6.823   5.185   3.734
 8190SOL     OW25468   5.668   3.754   2.393
 8190SOL    HW125469   5.716   3.744   2.306
 8190SOL    HW225470   5.726   3.721   2.467
 8191SOL     OW25471   4.423   4.868   0.523
 8191SOL    HW125472   4.350   4.909   0.468
 8191SOL    HW225473   4.486   4.940   0.553
 8192SOL     OW25474   6.693   5.605   2.556
 8192SOL    HW125475   6.602   5.577   2.525
 8192SOL    HW225476   6.686   5.646   2.647
 8193SOL     OW25477   0.741   5.239   4.623
 8193SOL    HW125478   0.790   5.301   4.561
 8193SOL    HW225479   0.644   5.266   4.626
 8194SOL     OW25480   5.681   6.799   1.810
 8194SOL    HW125481   5.583   6.795   1.790
 8194SOL    HW225482   5.695   6.835   1.902
 8195SOL     OW25483   6.046   6.876   3.174
 8195SOL    HW125484   6.005   6.817   3.244
 8195SOL    HW225485   6.118   6.932   3.216
 8196SOL     OW25486   5.586   0.019   2.605
 8196SOL    HW125487   5.679   7.012   2.617
 8196SOL    HW225488   5.525   6.968   2.587
 8197SOL     OW25489   3.746   0.806   3.620
 8197SOL    HW125490   3.728   0.873   3.548
 8197SOL    HW225491   3.827   0.834   3.672
 8198SOL     OW25492   2.012   5.443   7.010
 8198SOL    HW125493   1.948   5.438   6.933
 8198SOL    HW225494   2.101   5.473   6.978
 8199SOL     OW25495   6.031   2.700   0.062
 8199SOL    HW125496   5.977   2.780   0.037
 8199SOL    HW225497   6.094   2.677   7.015
 8200SOL     OW25498   5.718   4.637   0.148
 8200SOL    HW125499   5.728   4.665   0.052
 8200SOL    HW225500   5.621   4.632   0.171
 8201SOL     OW25501   5.032   1.675   5.866
 8201SOL    HW125502   5.007   1.686   5.770
 8201SOL    HW225503   4.951   1.691   5.923
 8202SOL     OW25504   0.110   6.001   2.339
 8202SOL    HW125505   0.010   6.004   2.350
 8202SOL    HW225506   0.142   6.089   2.304
 8203SOL     OW25507   0.757   2.977   0.296
 8203SOL    HW125508   0.848   2.970   0.335
 8203SOL    HW225509   0.692   3.007   0.366
 8204SOL     OW25510   1.463   3.784   0.565
 8204SOL    HW125511   1.554   3.748   0.589
 8204SOL    HW225512   1.400   3.707   0.549
 8205SOL     OW25513   6.667   4.371   6.278
 8205SOL    HW125514   6.623   4.456   6.307
 8205SOL    HW225515   6.760   4.368   6.315
 8206SOL     OW25516   3.470   1.495   0.947
 8206SOL    HW125517   3.398   1.443   0.993
 8206SOL    HW225518   3.558   1.473   0.989
 8207SOL     OW25519   3.741   3.308   3.577
 8207SOL    HW125520   3.744   3.407   3.563
 8207SOL    HW225521   3.829   3.276   3.611
 8208SOL     OW25522   4.037   0.098   5.430
 8208SOL    HW125523   3.946   0.061   5.408
 8208SOL    HW225524   4.055   0.086   5.527
 8209SOL     OW25525   4.892   3.585   3.947
 8209SOL    HW125526   4.910   3.620   4.039
 8209SOL    HW225527   4.886   3.485   3.950
 8210SOL     OW25528   1.450   1.545   6.230
 8210SOL    HW125529   1.389   1.587   6.163
 8210SOL    HW225530   1.520   1.611   6.258
 8211SOL     OW25531   3.933   4.450   1.216
 8211SOL    HW125532   4.027   4.437   1.186
 8211SOL    HW225533   3.896   4.362   1.246
 8212SOL     OW25534   2.078   3.611   2.446
 8212SOL    HW125535   1.988   3.574   2.422
 8212SOL    HW225536   2.126   3.638   2.363
 8213SOL     OW25537   6.784   4.312   0.698
 8213SOL    HW125538   6.848   4.283   0.627
 8213SOL    HW225539   6.690   4.290   0.670
 8214SOL     OW25540   5.118   2.533   3.757
 8214SOL    HW125541   5.152   2.455   3.811
 8214SOL    HW225542   5.024   2.552   3.783
 8215SOL     OW25543   3.230   4.300   1.555
 8215SOL    HW125544   3.297   4.374   1.558
 8215SOL    HW225545   3.185   4.292   1.644
 8216SOL     OW25546   5.536   2.877   5.076
 8216SOL    HW125547   5.443   2.864   5.040
 8216SOL    HW225548   5.549   2.817   5.155
 8217SOL     OW25549   2.290   5.874   6.864
 8217SOL    HW125550   2.273   5.950   6.802
 8217SOL    HW225551   2.388   5.856   6.870
 8218SOL     OW25552   4.566   1.599   6.875
 8218SOL    HW125553   4.615   1.566   6.795
 8218SOL    HW225554   4.468   1.598   6.856
 8219SOL     OW25555   5.794   3.173   0.148
 8219SOL    HW125556   5.711   3.218   0.181
 8219SOL    HW225557   5.837   3.230   0.078
 8220SOL     OW25558   3.912   3.341   1.474
 8220SOL    HW125559   3.999   3.293   1.484
 8220SOL    HW225560   3.895   3.397   1.555
 8221SOL     OW25561   5.425   3.686   3.969
 8221SOL    HW125562   5.425   3.671   3.870
 8221SOL    HW225563   5.347   3.743   3.994
 8222SOL     OW25564   5.756   1.590   2.870
 8222SOL    HW125565   5.817   1.650   2.921
 8222SOL    HW225566   5.799   1.562   2.784
 8223SOL     OW25567   1.158   3.418   6.954
 8223SOL    HW125568   1.239   3.428   7.011
 8223SOL    HW225569   1.103   3.502   6.959
 8224SOL     OW25570   1.281   3.586   2.669
 8224SOL    HW125571   1.344   3.626   2.736
 8224SOL    HW225572   1.288   3.635   2.582
 8225SOL     OW25573   4.870   0.426   1.258
 8225SOL    HW125574   4.880   0.383   1.168
 8225SOL    HW225575   4.791   0.386   1.305
 8226SOL     OW25576   4.308   0.406   6.867
 8226SOL    HW125577   4.236   0.386   6.934
 8226SOL    HW225578   4.273   0.390   6.775
 8227SOL     OW25579   5.965   4.523   3.250
 8227SOL    HW125580   5.878   4.554   3.289
 8227SOL    HW225581   6.019   4.477   3.321
 8228SOL     OW25582   0.080   1.084   3.571
 8228SOL    HW125583   0.028   1.061   3.653
 8228SOL    HW225584   0.019   1.083   3.492
 8229SOL     OW25585   5.950   5.019   6.459
 8229SOL    HW125586   6.015   5.059   6.523
 8229SOL    HW225587   6.000   4.976   6.384
 8230SOL     OW25588   4.574   0.037   3.245
 8230SOL    HW125589   4.579   6.985   3.307
 8230SOL    HW225590   4.479   0.052   3.217
 8231SOL     OW25591   3.590   5.645   1.310
 8231SOL    HW125592   3.492   5.621   1.314
 8231SOL    HW225593   3.614   5.697   1.392
 8232SOL     OW25594   2.880   1.350   0.465
 8232SOL    HW125595   2.860   1.404   0.547
 8232SOL    HW225596   2.806   1.360   0.399
 8233SOL     OW25597   1.037   5.938   6.436
 8233SOL    HW125598   1.079   6.014   6.386
 8233SOL    HW225599   1.107   5.873   6.464
 8234SOL     OW25600   1.541   3.141   0.004
 8234SOL    HW125601   1.584   3.184   0.084
 8234SOL    HW225602   1.519   3.211   6.963
 8235SOL     OW25603   4.853   2.526   6.846
 8235SOL    HW125604   4.865   2.617   6.804
 8235SOL    HW225605   4.850   2.535   6.945
 8236SOL     OW25606   6.355   1.900   1.917
 8236SOL    HW125607   6.368   1.806   1.947
 8236SOL    HW225608   6.437   1.953   1.937
 8237SOL     OW25609   3.639   6.194   5.263
 8237SOL    HW125610   3.557   6.226   5.216
 8237SOL    HW225611   3.691   6.273   5.297
 8238SOL     OW25612   0.507   1.461   5.119
 8238SOL    HW125613   0.595   1.503   5.098
 8238SOL    HW225614   0.508   1.365   5.091
 8239SOL     OW25615   4.993   1.626   6.228
 8239SOL    HW125616   5.083   1.632   6.271
 8239SOL    HW225617   4.949   1.716   6.228
 8240SOL     OW25618   3.220   2.924   2.586
 8240SOL    HW125619   3.317   2.950   2.580
 8240SOL    HW225620   3.163   3.005   2.580
 8241SOL     OW25621   3.799   6.166   1.305
 8241SOL    HW125622   3.884   6.133   1.345
 8241SOL    HW225623   3.722   6.113   1.341
 8242SOL     OW25624   2.027   4.457   4.741
 8242SOL    HW125625   2.083   4.377   4.762
 8242SOL    HW225626   1.931   4.435   4.759
 8243SOL     OW25627   0.077   4.234   4.437
 8243SOL    HW125628   7.021   4.198   4.391
 8243SOL    HW225629   0.149   4.164   4.436
 8244SOL     OW25630   2.963   5.757   5.436
 8244SOL    HW125631   2.998   5.744   5.529
 8244SOL    HW225632   3.034   5.733   5.370
 8245SOL     OW25633   4.470   4.114   1.093
 8245SOL    HW125634   4.531   4.127   1.015
 8245SOL    HW225635   4.497   4.176   1.167
 8246SOL     OW25636   5.918   3.190   5.292
 8246SOL    HW125637   6.015   3.198   5.316
 8246SOL    HW225638   5.864   3.236   5.362
 8247SOL     OW25639   0.909   5.786   7.006
 8247SOL    HW125640   0.982   5.838   6.961
 8247SOL    HW225641   0.822   5.805   6.961
 8248SOL     OW25642   6.454   3.873   3.314
 8248SOL    HW125643   6.423   3.818   3.236
 8248SOL    HW225644   6.515   3.946   3.281
 8249SOL     OW25645   0.794   5.812   3.303
 8249SOL    HW125646   0.886   5.840   3.329
 8249SOL    HW225647   0.783   5.820   3.204
 8250SOL     OW25648   3.225   2.864   2.219
 8250SOL    HW125649   3.226   2.780   2.165
 8250SOL    HW225650   3.215   2.842   2.316
 8251SOL     OW25651   5.559   0.738   4.040
 8251SOL    HW125652   5.528   0.664   3.982
 8251SOL    HW225653   5.620   0.798   3.988
 8252SOL     OW25654   1.255   3.767   4.576
 8252SOL    HW125655   1.226   3.684   4.624
 8252SOL    HW225656   1.322   3.816   4.632
 8253SOL     OW25657   3.110   2.965   6.038
 8253SOL    HW125658   3.098   3.015   6.125
 8253SOL    HW225659   3.072   3.020   5.963
 8254SOL     OW25660   4.761   4.664   2.817
 8254SOL    HW125661   4.849   4.677   2.772
 8254SOL    HW225662   4.725   4.753   2.846
 8255SOL     OW25663   4.252   5.220   3.536
 8255SOL    HW125664   4.240   5.152   3.608
 8255SOL    HW225665   4.274   5.309   3.577
 8256SOL     OW25666   5.536   1.957   3.197
 8256SOL    HW125667   5.616   1.955   3.137
 8256SOL    HW225668   5.540   1.879   3.261
 8257SOL     OW25669   6.454   4.381   3.950
 8257SOL    HW125670   6.516   4.415   4.020
 8257SOL    HW225671   6.504   4.366   3.865
 8258SOL     OW25672   5.504   2.228   0.875
 8258SOL    HW125673   5.603   2.242   0.871
 8258SOL    HW225674   5.483   2.159   0.944
 8259SOL     OW25675   4.571   0.667   1.174
 8259SOL    HW125676   4.611   0.595   1.231
 8259SOL    HW225677   4.493   0.630   1.124
 8260SOL     OW25678   3.696   5.309   6.428
 8260SOL    HW125679   3.674   5.311   6.330
 8260SOL    HW225680   3.715   5.214   6.455
 8261SOL     OW25681   4.769   1.818   1.569
 8261SOL    HW125682   4.815   1.741   1.525
 8261SOL    HW225683   4.702   1.857   1.507
 8262SOL     OW25684   6.298   2.481   1.753
 8262SOL    HW125685   6.355   2.399   1.752
 8262SOL    HW225686   6.280   2.508   1.848
 8263SOL     OW25687   6.012   2.324   0.018
 8263SOL    HW125688   5.999   2.295   0.113
 8263SOL    HW225689   5.923   2.325   6.998
 8264SOL     OW25690   1.565   4.091   1.876
 8264SOL    HW125691   1.577   4.099   1.975
 8264SOL    HW225692   1.531   4.177   1.839
 8265SOL     OW25693   2.228   0.351   2.412
 8265SOL    HW125694   2.283   0.433   2.395
 8265SOL    HW225695   2.288   0.272   2.423
 8266SOL     OW25696   2.850   1.204   2.895
 8266SOL    HW125697   2.777   1.203   2.826
 8266SOL    HW225698   2.843   1.123   2.953
 8267SOL     OW25699   6.774   3.087   1.515
 8267SOL    HW125700   6.746   3.164   1.457
 8267SOL    HW225701   6.869   3.062   1.494
 8268SOL     OW25702   1.973   4.314   6.763
 8268SOL    HW125703   1.963   4.402   6.809
 8268SOL    HW225704   2.067   4.281   6.774
 8269SOL     OW25705   5.465   2.445   6.999
 8269SOL    HW125706   5.527   2.520   6.976
 8269SOL    HW225707   5.436   2.454   0.068
 8270SOL     OW25708   1.934   6.124   4.143
 8270SOL    HW125709   1.980   6.212   4.158
 8270SOL    HW225710   1.989   6.051   4.182
 8271SOL     OW25711   0.385   2.315   3.040
 8271SOL    HW125712   0.413   2.283   3.130
 8271SOL    HW225713   0.450   2.281   2.971
 8272SOL     OW25714   3.660   1.424   4.196
 8272SOL    HW125715   3.677   1.447   4.292
 8272SOL    HW225716   3.700   1.495   4.137
 8273SOL     OW25717   2.003   6.602   1.172
 8273SOL    HW125718   2.062   6.675   1.138
 8273SOL    HW225719   1.972   6.624   1.264
 8274SOL     OW25720   5.370   3.656   3.710
 8274SOL    HW125721   5.396   3.752   3.706
 8274SOL    HW225722   5.331   3.628   3.623
 8275SOL     OW25723   6.275   2.248   0.000
 8275SOL    HW125724   6.315   2.212   6.942
 8275SOL    HW225725   6.180   2.275   7.009
 8276SOL     OW25726   1.347   1.508   3.410
 8276SOL    HW125727   1.406   1.466   3.341
 8276SOL    HW225728   1.389   1.592   3.443
 8277SOL     OW25729   6.847   1.077   0.738
 8277SOL    HW125730   6.939   1.066   0.775
 8277SOL    HW225731   6.806   0.987   0.723
 8278SOL     OW25732   0.730   2.411   0.547
 8278SOL    HW125733   0.829   2.401   0.536
 8278SOL    HW225734   0.710   2.483   0.613
 8279SOL     OW25735   0.217   6.436   3.995
 8279SOL    HW125736   0.198   6.511   3.931
 8279SOL    HW225737   0.305   6.395   3.973
 8280SOL     OW25738   3.542   2.713   6.198
 8280SOL    HW125739   3.605   2.741   6.271
 8280SOL    HW225740   3.448   2.719   6.230
 8281SOL     OW25741   3.868   5.045   1.965
 8281SOL    HW125742   3.844   5.141   1.981
 8281SOL    HW225743   3.798   5.002   1.910
 8282SOL     OW25744   6.987   2.924   6.211
 8282SOL    HW125745   6.927   2.869   6.269
 8282SOL    HW225746   0.056   2.904   6.233
 8283SOL     OW25747   2.166   2.511   6.018
 8283SOL    HW125748   2.091   2.472   5.963
 8283SOL    HW225749   2.134   2.528   6.111
 8284SOL     OW25750   6.544   4.810   1.972
 8284SOL    HW125751   6.590   4.890   2.011
 8284SOL    HW225752   6.480   4.773   2.039
 8285SOL     OW25753   3.512   2.888   3.801
 8285SOL    HW125754   3.548   2.827   3.872
 8285SOL    HW225755   3.559   2.976   3.806
 8286SOL     OW25756   0.327   2.624   0.149
 8286SOL    HW125757   0.301   2.555   0.082
 8286SOL    HW225758   0.410   2.671   0.119
 8287SOL     OW25759   1.419   6.927   4.630
 8287SOL    HW125760   1.387   6.939   4.724
 8287SOL    HW225761   1.515   6.900   4.631
 8288SOL     OW25762   2.635   1.362   3.089
 8288SOL    HW125763   2.730   1.377   3.062
 8288SOL    HW225764   2.608   1.432   3.156
 8289SOL     OW25765   1.053   6.553   0.279
 8289SOL    HW125766   1.063   6.563   0.180
 8289SOL    HW225767   0.996   6.627   0.314
 8290SOL     OW25768   6.234   1.773   1.532
 8290SOL    HW125769   6.150   1.818   1.563
 8290SOL    HW225770   6.299   1.767   1.607
 8291SOL     OW25771   4.068   0.805   1.712
 8291SOL    HW125772   4.077   0.741   1.636
 8291SOL    HW225773   3.976   0.844   1.712
 8292SOL     OW25774   2.676   0.596   6.159
 8292SOL    HW125775   2.691   0.513   6.105
 8292SOL    HW225776   2.626   0.573   6.243
 8293SOL     OW25777   5.979   5.485   5.674
 8293SOL    HW125778   5.939   5.512   5.762
 8293SOL    HW225779   5.979   5.385   5.666
 8294SOL     OW25780   6.205   2.515   0.199
 8294SOL    HW125781   6.237   2.451   0.129
 8294SOL    HW225782   6.136   2.575   0.161
 8295SOL     OW25783   5.340   2.346   6.270
 8295SOL    HW125784   5.280   2.405   6.214
 8295SOL    HW225785   5.435   2.372   6.254
 8296SOL     OW25786   0.807   5.252   5.321
 8296SOL    HW125787   0.844   5.175   5.268
 8296SOL    HW225788   0.758   5.218   5.401
 8297SOL     OW25789   1.242   3.681   3.899
 8297SOL    HW125790   1.175   3.639   3.960
 8297SOL    HW225791   1.197   3.715   3.817
 8298SOL     OW25792   4.379   2.353   2.770
 8298SOL    HW125793   4.413   2.438   2.730
 8298SOL    HW225794   4.455   2.289   2.782
 8299SOL     OW25795   6.001   1.382   1.362
 8299SOL    HW125796   6.020   1.373   1.265
 8299SOL    HW225797   5.903   1.398   1.376
 8300SOL     OW25798   1.092   5.719   2.643
 8300SOL    HW125799   1.192   5.710   2.645
 8300SOL    HW225800   1.068   5.815   2.639
 8301SOL     OW25801   3.647   1.058   5.660
 8301SOL    HW125802   3.612   1.151   5.674
 8301SOL    HW225803   3.637   1.006   5.744
 8302SOL     OW25804   6.713   5.205   6.461
 8302SOL    HW125805   6.680   5.151   6.539
 8302SOL    HW225806   6.776   5.275   6.494
 8303SOL     OW25807   6.953   0.326   0.468
 8303SOL    HW125808   0.016   0.282   0.466
 8303SOL    HW225809   6.927   0.355   0.376
 8304SOL     OW25810   0.251   3.279   0.239
 8304SOL    HW125811   0.320   3.265   0.310
 8304SOL    HW225812   0.212   3.191   0.211
 8305SOL     OW25813   3.077   5.487   2.370
 8305SOL    HW125814   3.176   5.487   2.388
 8305SOL    HW225815   3.047   5.580   2.350
 8306SOL     OW25816   2.127   1.836   3.558
 8306SOL    HW125817   2.079   1.805   3.640
 8306SOL    HW225818   2.186   1.913   3.581
 8307SOL     OW25819   3.511   6.557   1.275
 8307SOL    HW125820   3.600   6.534   1.234
 8307SOL    HW225821   3.526   6.604   1.362
 8308SOL     OW25822   2.693   0.768   2.285
 8308SOL    HW125823   2.680   0.806   2.193
 8308SOL    HW225824   2.670   0.670   2.284
 8309SOL     OW25825   5.819   6.419   2.613
 8309SOL    HW125826   5.824   6.475   2.695
 8309SOL    HW225827   5.908   6.376   2.596
 8310SOL     OW25828   6.263   4.944   6.631
 8310SOL    HW125829   6.311   4.993   6.559
 8310SOL    HW225830   6.246   4.850   6.603
 8311SOL     OW25831   6.546   1.107   5.876
 8311SOL    HW125832   6.617   1.062   5.821
 8311SOL    HW225833   6.456   1.082   5.842
 8312SOL     OW25834   4.777   5.883   1.229
 8312SOL    HW125835   4.716   5.818   1.273
 8312SOL    HW225836   4.799   5.852   1.137
 8313SOL     OW25837   4.270   2.000   2.960
 8313SOL    HW125838   4.199   1.989   3.029
 8313SOL    HW225839   4.328   1.918   2.958
 8314SOL     OW25840   6.811   0.149   4.270
 8314SOL    HW125841   6.780   0.094   4.193
 8314SOL    HW225842   6.793   0.099   4.355
 8315SOL     OW25843   5.501   4.378   0.247
 8315SOL    HW125844   5.466   4.294   0.205
 8315SOL    HW225845   5.536   4.358   0.339
 8316SOL     OW25846   2.773   5.484   6.373
 8316SOL    HW125847   2.800   5.580   6.366
 8316SOL    HW225848   2.853   5.429   6.399
 8317SOL     OW25849   2.094   5.111   1.636
 8317SOL    HW125850   2.177   5.141   1.589
 8317SOL    HW225851   2.115   5.094   1.733
 8318SOL     OW25852   3.298   1.141   5.903
 8318SOL    HW125853   3.223   1.204   5.880
 8318SOL    HW225854   3.270   1.047   5.883
 8319SOL     OW25855   2.635   0.537   4.925
 8319SOL    HW125856   2.634   0.626   4.880
 8319SOL    HW225857   2.546   0.493   4.914
 8320SOL     OW25858   3.585   4.970   0.938
 8320SOL    HW125859   3.600   5.066   0.962
 8320SOL    HW225860   3.507   4.934   0.989
 8321SOL     OW25861   6.510   1.350   1.814
 8321SOL    HW125862   6.430   1.292   1.795
 8321SOL    HW225863   6.508   1.379   1.910
 8322SOL     OW25864   5.531   6.432   0.645
 8322SOL    HW125865   5.532   6.444   0.744
 8322SOL    HW225866   5.514   6.520   0.601
 8323SOL     OW25867   1.324   0.783   1.602
 8323SOL    HW125868   1.252   0.850   1.624
 8323SOL    HW225869   1.301   0.736   1.517
 8324SOL     OW25870   6.752   0.650   2.880
 8324SOL    HW125871   6.763   0.566   2.933
 8324SOL    HW225872   6.832   0.665   2.822
 8325SOL     OW25873   3.196   3.686   5.035
 8325SOL    HW125874   3.285   3.728   5.018
 8325SOL    HW225875   3.161   3.647   4.949
 8326SOL     OW25876   4.443   2.967   5.646
 8326SOL    HW125877   4.442   2.868   5.658
 8326SOL    HW225878   4.455   3.012   5.734
 8327SOL     OW25879   4.598   2.383   5.904
 8327SOL    HW125880   4.690   2.422   5.901
 8327SOL    HW225881   4.561   2.390   5.997
 8328SOL     OW25882   2.063   2.426   3.808
 8328SOL    HW125883   2.090   2.510   3.854
 8328SOL    HW225884   2.089   2.347   3.864
 8329SOL     OW25885   1.454   4.115   5.291
 8329SOL    HW125886   1.507   4.149   5.214
 8329SOL    HW225887   1.367   4.164   5.296
 8330SOL     OW25888   2.670   6.862   6.647
 8330SOL    HW125889   2.715   6.899   6.566
 8330SOL    HW225890   2.688   6.922   6.725
 8331SOL     OW25891   2.151   0.071   0.828
 8331SOL    HW125892   2.165   0.089   0.730
 8331SOL    HW225893   2.149   0.158   0.877
 8332SOL     OW25894   5.202   6.063   3.133
 8332SOL    HW125895   5.268   6.138   3.122
 8332SOL    HW225896   5.234   6.001   3.204
 8333SOL     OW25897   2.239   4.821   5.336
 8333SOL    HW125898   2.259   4.727   5.364
 8333SOL    HW225899   2.304   4.849   5.265
 8334SOL     OW25900   6.623   0.089   3.097
 8334SOL    HW125901   6.617   0.127   3.005
 8334SOL    HW225902   6.628   7.016   3.093
 8335SOL     OW25903   6.383   5.995   5.215
 8335SOL    HW125904   6.283   5.997   5.218
 8335SOL    HW225905   6.413   5.955   5.128
 8336SOL     OW25906   1.663   1.473   2.549
 8336SOL    HW125907   1.587   1.538   2.541
 8336SOL    HW225908   1.749   1.523   2.557
 8337SOL     OW25909   6.357   6.619   2.518
 8337SOL    HW125910   6.308   6.673   2.586
 8337SOL    HW225911   6.294   6.556   2.473
 8338SOL     OW25912   2.486   5.742   0.426
 8338SOL    HW125913   2.502   5.819   0.364
 8338SOL    HW225914   2.552   5.745   0.501
 8339SOL     OW25915   5.240   0.990   3.223
 8339SOL    HW125916   5.226   1.088   3.237
 8339SOL    HW225917   5.163   0.952   3.171
 8340SOL     OW25918   5.138   3.957   2.004
 8340SOL    HW125919   5.060   4.009   1.969
 8340SOL    HW225920   5.214   3.964   1.940
 8341SOL     OW25921   1.484   0.414   0.364
 8341SOL    HW125922   1.457   0.484   0.430
 8341SOL    HW225923   1.578   0.430   0.334
 8342SOL     OW25924   5.269   0.068   1.344
 8342SOL    HW125925   5.170   0.064   1.356
 8342SOL    HW225926   5.291   0.134   1.273
 8343SOL     OW25927   6.755   4.357   4.565
 8343SOL    HW125928   6.701   4.381   4.484
 8343SOL    HW225929   6.826   4.426   4.579
 8344SOL     OW25930   3.632   6.826   4.544
 8344SOL    HW125931   3.598   6.733   4.530
 8344SOL    HW225932   3.571   6.891   4.499
 8345SOL     OW25933   5.944   1.698   3.037
 8345SOL    HW125934   6.030   1.706   2.986
 8345SOL    HW225935   5.901   1.788   3.044
 8346SOL     OW25936   3.751   5.267   1.664
 8346SOL    HW125937   3.714   5.176   1.647
 8346SOL    HW225938   3.680   5.336   1.648
 8347SOL     OW25939   3.067   5.253   4.191
 8347SOL    HW125940   3.117   5.167   4.188
 8347SOL    HW225941   3.131   5.330   4.190
 8348SOL     OW25942   2.221   0.105   0.546
 8348SOL    HW125943   2.151   0.034   0.557
 8348SOL    HW225944   2.230   0.129   0.450
 8349SOL     OW25945   6.110   4.875   2.807
 8349SOL    HW125946   6.126   4.954   2.748
 8349SOL    HW225947   6.036   4.896   2.872
 8350SOL     OW25948   6.499   0.901   5.013
 8350SOL    HW125949   6.492   0.843   5.094
 8350SOL    HW225950   6.415   0.892   4.959
 8351SOL     OW25951   2.564   6.542   2.254
 8351SOL    HW125952   2.488   6.511   2.312
 8351SOL    HW225953   2.646   6.549   2.310
 8352SOL     OW25954   5.510   6.290   2.149
 8352SOL    HW125955   5.571   6.359   2.110
 8352SOL    HW225956   5.554   6.246   2.227
 8353SOL     OW25957   2.170   3.803   1.873
 8353SOL    HW125958   2.207   3.767   1.959
 8353SOL    HW225959   2.132   3.728   1.819
 8354SOL     OW25960   3.115   0.039   0.550
 8354SOL    HW125961   3.061   6.995   0.504
 8354SOL    HW225962   3.117   0.020   0.648
 8355SOL     OW25963   2.751   2.076   0.885
 8355SOL    HW125964   2.844   2.077   0.922
 8355SOL    HW225965   2.687   2.052   0.958
 8356SOL     OW25966   2.724   4.648   0.459
 8356SOL    HW125967   2.776   4.723   0.417
 8356SOL    HW225968   2.685   4.590   0.387
 8357SOL     OW25969   3.522   6.608   2.407
 8357SOL    HW125970   3.539   6.673   2.482
 8357SOL    HW225971   3.497   6.659   2.324
 8358SOL     OW25972   3.086   1.804   5.421
 8358SOL    HW125973   2.988   1.808   5.442
 8358SOL    HW225974   3.137   1.790   5.506
 8359SOL     OW25975   3.783   4.878   3.979
 8359SOL    HW125976   3.773   4.780   3.998
 8359SOL    HW225977   3.780   4.929   4.065
 8360SOL     OW25978   4.373   0.848   3.485
 8360SOL    HW125979   4.295   0.786   3.489
 8360SOL    HW225980   4.436   0.818   3.414
 8361SOL     OW25981   1.390   0.612   2.998
 8361SOL    HW125982   1.332   0.532   3.014
 8361SOL    HW225983   1.333   0.693   2.985
 8362SOL     OW25984   3.290   2.916   0.965
 8362SOL    HW125985   3.246   2.949   1.048
 8362SOL    HW225986   3.294   2.990   0.898
 8363SOL     OW25987   0.498   3.077   1.956
 8363SOL    HW125988   0.513   3.007   1.886
 8363SOL    HW225989   0.492   3.167   1.913
 8364SOL     OW25990   6.875   5.082   5.060
 8364SOL    HW125991   6.845   5.043   4.973
 8364SOL    HW225992   6.921   5.170   5.044
 8365SOL     OW25993   1.998   3.726   5.912
 8365SOL    HW125994   1.973   3.637   5.952
 8365SOL    HW225995   1.984   3.722   5.813
 8366SOL     OW25996   2.301   6.890   1.758
 8366SOL    HW125997   2.378   6.899   1.695
 8366SOL    HW225998   2.310   6.956   1.833
 8367SOL     OW25999   4.934   5.613   3.693
 8367SOL    HW126000   5.021   5.630   3.738
 8367SOL    HW226001   4.951   5.584   3.599
 8368SOL     OW26002   2.879   5.383   6.081
 8368SOL    HW126003   2.811   5.391   6.154
 8368SOL    HW226004   2.940   5.462   6.083
 8369SOL     OW26005   1.606   1.421   1.690
 8369SOL    HW126006   1.701   1.452   1.690
 8369SOL    HW226007   1.570   1.421   1.597
 8370SOL     OW26008   2.573   1.224   0.409
 8370SOL    HW126009   2.583   1.265   0.500
 8370SOL    HW226010   2.480   1.187   0.400
 8371SOL     OW26011   1.560   2.227   0.131
 8371SOL    HW126012   1.464   2.198   0.138
 8371SOL    HW226013   1.605   2.175   0.058
 8372SOL     OW26014   5.734   0.877   0.003
 8372SOL    HW126015   5.642   0.888   6.992
 8372SOL    HW226016   5.796   0.941   6.985
 8373SOL     OW26017   1.786   6.750   3.737
 8373SOL    HW126018   1.861   6.809   3.706
 8373SOL    HW226019   1.699   6.795   3.718
 8374SOL     OW26020   6.875   1.796   5.614
 8374SOL    HW126021   6.785   1.825   5.583
 8374SOL    HW226022   6.887   1.698   5.595
 8375SOL     OW26023   3.996   0.393   6.381
 8375SOL    HW126024   4.015   0.400   6.479
 8375SOL    HW226025   4.041   0.311   6.345
 8376SOL     OW26026   4.492   6.950   3.705
 8376SOL    HW126027   4.558   7.017   3.740
 8376SOL    HW226028   4.499   6.866   3.760
 8377SOL     OW26029   4.237   4.849   0.148
 8377SOL    HW126030   4.194   4.797   0.075
 8377SOL    HW226031   4.277   4.786   0.215
 8378SOL     OW26032   5.309   3.605   3.435
 8378SOL    HW126033   5.244   3.639   3.366
 8378SOL    HW226034   5.334   3.511   3.414
 8379SOL     OW26035   5.115   3.093   2.890
 8379SOL    HW126036   5.129   3.096   2.791
 8379SOL    HW226037   5.194   3.050   2.934
 8380SOL     OW26038   5.701   1.131   4.041
 8380SOL    HW126039   5.741   1.040   4.026
 8380SOL    HW226040   5.705   1.183   3.955
 8381SOL     OW26041   2.083   4.906   4.731
 8381SOL    HW126042   2.014   4.969   4.695
 8381SOL    HW226043   2.089   4.918   4.830
 8382SOL     OW26044   0.608   4.462   1.513
 8382SOL    HW126045   0.681   4.403   1.478
 8382SOL    HW226046   0.640   4.510   1.595
 8383SOL     OW26047   3.331   1.362   5.489
 8383SOL    HW126048   3.329   1.459   5.515
 8383SOL    HW226049   3.237   1.330   5.473
 8384SOL     OW26050   0.663   0.169   1.551
 8384SOL    HW126051   0.692   0.240   1.486
 8384SOL    HW226052   0.590   0.114   1.509
 8385SOL     OW26053   4.335   1.993   1.254
 8385SOL    HW126054   4.343   2.079   1.203
 8385SOL    HW226055   4.239   1.976   1.276
 8386SOL     OW26056   0.074   2.351   1.859
 8386SOL    HW126057   7.022   2.384   1.805
 8386SOL    HW226058   0.132   2.294   1.801
 8387SOL     OW26059   0.888   1.983   2.608
 8387SOL    HW126060   0.833   2.040   2.546
 8387SOL    HW226061   0.955   1.931   2.555
 8388SOL     OW26062   1.397   6.809   2.626
 8388SOL    HW126063   1.410   6.862   2.710
 8388SOL    HW226064   1.479   6.756   2.607
 8389SOL     OW26065   6.773   2.807   4.016
 8389SOL    HW126066   6.788   2.890   3.963
 8389SOL    HW226067   6.689   2.762   3.985
 8390SOL     OW26068   6.252   2.394   6.672
 8390SOL    HW126069   6.332   2.454   6.665
 8390SOL    HW226070   6.283   2.301   6.696
 8391SOL     OW26071   6.151   0.709   0.622
 8391SOL    HW126072   6.196   0.701   0.711
 8391SOL    HW226073   6.060   0.666   0.627
 8392SOL     OW26074   3.498   2.910   4.577
 8392SOL    HW126075   3.433   2.982   4.554
 8392SOL    HW226076   3.570   2.948   4.635
 8393SOL     OW26077   5.646   0.582   0.664
 8393SOL    HW126078   5.643   0.483   0.672
 8393SOL    HW226079   5.564   0.614   0.616
 8394SOL     OW26080   4.939   3.503   3.229
 8394SOL    HW126081   4.879   3.475   3.304
 8394SOL    HW226082   4.935   3.435   3.156
 8395SOL     OW26083   1.926   1.419   6.008
 8395SOL    HW126084   2.010   1.387   6.052
 8395SOL    HW226085   1.937   1.514   5.979
 8396SOL     OW26086   4.745   5.175   4.175
 8396SOL    HW126087   4.657   5.135   4.150
 8396SOL    HW226088   4.757   5.171   4.274
 8397SOL     OW26089   5.336   6.262   2.671
 8397SOL    HW126090   5.429   6.269   2.708
 8397SOL    HW226091   5.275   6.320   2.724
 8398SOL     OW26092   5.766   1.636   6.311
 8398SOL    HW126093   5.705   1.603   6.239
 8398SOL    HW226094   5.711   1.670   6.388
 8399SOL     OW26095   0.736   4.117   2.960
 8399SOL    HW126096   0.773   4.033   3.000
 8399SOL    HW226097   0.682   4.166   3.029
 8400SOL     OW26098   1.113   0.686   4.198
 8400SOL    HW126099   1.014   0.693   4.214
 8400SOL    HW226100   1.129   0.623   4.122
 8401SOL     OW26101   1.567   0.292   5.875
 8401SOL    HW126102   1.640   0.326   5.815
 8401SOL    HW226103   1.587   0.317   5.970
 8402SOL     OW26104   2.659   0.784   5.947
 8402SOL    HW126105   2.748   0.749   5.918
 8402SOL    HW226106   2.631   0.739   6.031
 8403SOL     OW26107   5.743   4.464   6.168
 8403SOL    HW126108   5.682   4.388   6.190
 8403SOL    HW226109   5.791   4.493   6.251
 8404SOL     OW26110   1.173   1.384   6.920
 8404SOL    HW126111   1.216   1.336   6.998
 8404SOL    HW226112   1.130   1.316   6.860
 8405SOL     OW26113   3.512   6.563   5.920
 8405SOL    HW126114   3.439   6.551   5.852
 8405SOL    HW226115   3.600   6.551   5.876
 8406SOL     OW26116   6.413   1.325   5.952
 8406SOL    HW126117   6.355   1.312   6.032
 8406SOL    HW226118   6.481   1.253   5.948
 8407SOL     OW26119   5.061   0.720   5.150
 8407SOL    HW126120   4.998   0.788   5.186
 8407SOL    HW226121   5.021   0.678   5.068
 8408SOL     OW26122   3.613   2.206   1.583
 8408SOL    HW126123   3.638   2.288   1.634
 8408SOL    HW226124   3.662   2.205   1.496
 8409SOL     OW26125   4.822   2.699   1.850
 8409SOL    HW126126   4.836   2.738   1.941
 8409SOL    HW226127   4.750   2.749   1.803
 8410SOL     OW26128   6.961   1.935   1.434
 8410SOL    HW126129   0.020   1.913   1.387
 8410SOL    HW226130   6.968   1.906   1.530
 8411SOL     OW26131   0.571   5.319   1.380
 8411SOL    HW126132   0.625   5.394   1.342
 8411SOL    HW226133   0.553   5.337   1.477
 8412SOL     OW26134   2.690   2.322   6.811
 8412SOL    HW126135   2.721   2.411   6.844
 8412SOL    HW226136   2.755   2.252   6.838
 8413SOL     OW26137   3.970   5.670   5.050
 8413SOL    HW126138   3.928   5.625   5.128
 8413SOL    HW226139   3.996   5.601   4.982
 8414SOL     OW26140   1.471   0.352   0.901
 8414SOL    HW126141   1.495   0.362   0.998
 8414SOL    HW226142   1.501   0.262   0.868
 8415SOL     OW26143   3.717   1.559   6.178
 8415SOL    HW126144   3.799   1.533   6.127
 8415SOL    HW226145   3.689   1.483   6.237
 8416SOL     OW26146   0.209   2.454   5.386
 8416SOL    HW126147   0.177   2.400   5.308
 8416SOL    HW226148   0.232   2.546   5.355
 8417SOL     OW26149   1.774   3.261   6.164
 8417SOL    HW126150   1.863   3.254   6.119
 8417SOL    HW226151   1.787   3.258   6.263
 8418SOL     OW26152   6.852   6.295   2.435
 8418SOL    HW126153   6.884   6.322   2.525
 8418SOL    HW226154   6.758   6.327   2.421
 8419SOL     OW26155   3.853   1.443   3.946
 8419SOL    HW126156   3.848   1.526   3.891
 8419SOL    HW226157   3.926   1.453   4.015
 8420SOL     OW26158   3.892   1.335   2.504
 8420SOL    HW126159   3.989   1.355   2.489
 8420SOL    HW226160   3.851   1.406   2.561
 8421SOL     OW26161   4.748   6.889   6.603
 8421SOL    HW126162   4.702   6.978   6.611
 8421SOL    HW226163   4.754   6.864   6.506
 8422SOL     OW26164   5.419   1.398   4.425
 8422SOL    HW126165   5.464   1.429   4.509
 8422SOL    HW226166   5.467   1.435   4.346
 8423SOL     OW26167   6.466   5.924   0.085
 8423SOL    HW126168   6.548   5.928   0.027
 8423SOL    HW226169   6.387   5.959   0.034
 8424SOL     OW26170   2.518   0.203   5.164
 8424SOL    HW126171   2.433   0.249   5.189
 8424SOL    HW226172   2.535   0.127   5.227
 8425SOL     OW26173   3.202   2.929   1.895
 8425SOL    HW126174   3.124   2.971   1.942
 8425SOL    HW226175   3.174   2.842   1.855
 8426SOL     OW26176   3.426   3.400   1.819
 8426SOL    HW126177   3.431   3.390   1.719
 8426SOL    HW226178   3.495   3.342   1.862
 8427SOL     OW26179   3.690   4.124   2.658
 8427SOL    HW126180   3.665   4.208   2.705
 8427SOL    HW226181   3.713   4.053   2.725
 8428SOL     OW26182   4.853   1.528   1.687
 8428SOL    HW126183   4.920   1.588   1.643
 8428SOL    HW226184   4.892   1.492   1.772
 8429SOL     OW26185   3.161   5.696   5.144
 8429SOL    HW126186   3.127   5.602   5.142
 8429SOL    HW226187   3.260   5.696   5.149
 8430SOL     OW26188   5.082   6.523   5.859
 8430SOL    HW126189   5.038   6.434   5.877
 8430SOL    HW226190   5.074   6.544   5.761
 8431SOL     OW26191   2.716   3.217   6.139
 8431SOL    HW126192   2.800   3.269   6.150
 8431SOL    HW226193   2.722   3.162   6.056
 8432SOL     OW26194   6.658   5.369   5.610
 8432SOL    HW126195   6.746   5.329   5.583
 8432SOL    HW226196   6.666   5.469   5.609
 8433SOL     OW26197   4.759   1.789   0.323
 8433SOL    HW126198   4.730   1.786   0.228
 8433SOL    HW226199   4.818   1.711   0.344
 8434SOL     OW26200   2.787   6.173   4.151
 8434SOL    HW126201   2.880   6.174   4.188
 8434SOL    HW226202   2.721   6.176   4.225
 8435SOL     OW26203   6.791   1.443   3.543
 8435SOL    HW126204   6.802   1.469   3.639
 8435SOL    HW226205   6.821   1.349   3.530
 8436SOL     OW26206   2.623   5.045   2.624
 8436SOL    HW126207   2.550   5.046   2.693
 8436SOL    HW226208   2.661   4.953   2.618
 8437SOL     OW26209   1.786   5.661   0.239
 8437SOL    HW126210   1.735   5.659   0.325
 8437SOL    HW226211   1.843   5.579   0.233
 8438SOL     OW26212   0.879   4.400   2.285
 8438SOL    HW126213   0.889   4.420   2.382
 8438SOL    HW226214   0.969   4.381   2.245
 8439SOL     OW26215   5.886   4.591   2.706
 8439SOL    HW126216   5.952   4.651   2.751
 8439SOL    HW226217   5.796   4.635   2.703
 8440SOL     OW26218   1.984   1.883   2.754
 8440SOL    HW126219   2.003   1.894   2.657
 8440SOL    HW226220   1.931   1.961   2.787
 8441SOL     OW26221   0.209   2.894   6.276
 8441SOL    HW126222   0.282   2.833   6.245
 8441SOL    HW226223   0.246   2.961   6.340
 8442SOL     OW26224   3.271   2.595   6.271
 8442SOL    HW126225   3.309   2.503   6.261
 8442SOL    HW226226   3.186   2.602   6.219
 8443SOL     OW26227   2.064   4.012   3.227
 8443SOL    HW126228   1.965   4.005   3.240
 8443SOL    HW226229   2.097   4.100   3.263
 8444SOL     OW26230   5.470   5.920   5.134
 8444SOL    HW126231   5.475   5.820   5.140
 8444SOL    HW226232   5.374   5.948   5.128
 8445SOL     OW26233   5.205   6.376   6.392
 8445SOL    HW126234   5.272   6.371   6.318
 8445SOL    HW226235   5.173   6.470   6.400
 8446SOL     OW26236   6.683   5.869   4.622
 8446SOL    HW126237   6.648   5.957   4.593
 8446SOL    HW226238   6.733   5.825   4.547
 8447SOL     OW26239   3.765   2.155   3.856
 8447SOL    HW126240   3.719   2.073   3.890
 8447SOL    HW226241   3.701   2.232   3.856
 8448SOL     OW26242   3.351   0.119   2.422
 8448SOL    HW126243   3.350   0.113   2.522
 8448SOL    HW226244   3.445   0.134   2.391
 8449SOL     OW26245   0.320   2.157   3.858
 8449SOL    HW126246   0.295   2.168   3.954
 8449SOL    HW226247   0.380   2.078   3.848
 8450SOL     OW26248   6.521   1.590   0.658
 8450SOL    HW126249   6.577   1.521   0.704
 8450SOL    HW226250   6.475   1.646   0.727
 8451SOL     OW26251   4.598   2.789   0.307
 8451SOL    HW126252   4.541   2.869   0.287
 8451SOL    HW226253   4.543   2.706   0.295
 8452SOL     OW26254   5.197   0.769   5.831
 8452SOL    HW126255   5.176   0.765   5.929
 8452SOL    HW226256   5.220   0.677   5.798
 8453SOL     OW26257   7.022   0.890   0.164
 8453SOL    HW126258   7.007   0.967   0.102
 8453SOL    HW226259   0.089   0.895   0.201
 8454SOL     OW26260   6.297   6.236   0.148
 8454SOL    HW126261   6.303   6.201   0.055
 8454SOL    HW226262   6.229   6.183   0.199
 8455SOL     OW26263   6.593   0.887   2.830
 8455SOL    HW126264   6.649   0.816   2.874
 8455SOL    HW226265   6.590   0.871   2.731
 8456SOL     OW26266   6.389   0.489   2.060
 8456SOL    HW126267   6.399   0.536   1.973
 8456SOL    HW226268   6.477   0.487   2.107
 8457SOL     OW26269   6.481   6.561   4.748
 8457SOL    HW126270   6.506   6.468   4.723
 8457SOL    HW226271   6.479   6.569   4.848
 8458SOL     OW26272   1.507   6.453   0.885
 8458SOL    HW126273   1.458   6.528   0.928
 8458SOL    HW226274   1.454   6.369   0.894
 8459SOL     OW26275   1.079   6.079   3.906
 8459SOL    HW126276   1.013   6.030   3.850
 8459SOL    HW226277   1.033   6.121   3.984
 8460SOL     OW26278   4.120   3.428   3.719
 8460SOL    HW126279   4.115   3.391   3.812
 8460SOL    HW226280   4.104   3.527   3.722
 8461SOL     OW26281   6.418   3.771   4.123
 8461SOL    HW126282   6.434   3.864   4.089
 8461SOL    HW226283   6.320   3.757   4.135
 8462SOL     OW26284   2.661   2.296   2.121
 8462SOL    HW126285   2.757   2.313   2.104
 8462SOL    HW226286   2.605   2.363   2.072
 8463SOL     OW26287   6.362   0.606   1.798
 8463SOL    HW126288   6.303   0.565   1.728
 8463SOL    HW226289   6.457   0.601   1.769
 8464SOL     OW26290   6.726   1.267   4.821
 8464SOL    HW126291   6.743   1.185   4.876
 8464SOL    HW226292   6.758   1.252   4.728
 8465SOL     OW26293   1.941   0.677   0.246
 8465SOL    HW126294   1.994   0.762   0.256
 8465SOL    HW226295   1.909   0.669   0.151
 8466SOL     OW26296   1.218   0.141   3.784
 8466SOL    HW126297   1.133   0.091   3.773
 8466SOL    HW226298   1.214   0.194   3.869
 8467SOL     OW26299   3.308   5.098   1.229
 8467SOL    HW126300   3.221   5.135   1.198
 8467SOL    HW226301   3.320   5.117   1.327
 8468SOL     OW26302   4.762   2.586   0.089
 8468SOL    HW126303   4.684   2.646   0.072
 8468SOL    HW226304   4.733   2.491   0.083
 8469SOL     OW26305   5.114   1.891   5.200
 8469SOL    HW126306   5.083   1.891   5.105
 8469SOL    HW226307   5.042   1.853   5.258
 8470SOL     OW26308   1.803   2.924   0.015
 8470SOL    HW126309   1.801   3.023   0.027
 8470SOL    HW226310   1.716   2.885   0.045
 8471SOL     OW26311   3.601   1.689   5.803
 8471SOL    HW126312   3.640   1.763   5.856
 8471SOL    HW226313   3.501   1.693   5.808
 8472SOL     OW26314   1.344   5.817   2.577
 8472SOL    HW126315   1.287   5.816   2.495
 8472SOL    HW226316   1.399   5.900   2.578
 8473SOL     OW26317   6.583   5.600   6.934
 8473SOL    HW126318   6.557   5.546   6.854
 8473SOL    HW226319   6.531   5.569   7.013
 8474SOL     OW26320   4.419   5.997   6.918
 8474SOL    HW126321   4.407   6.081   6.866
 8474SOL    HW226322   4.478   5.934   6.866
 8475SOL     OW26323   5.136   1.585   2.859
 8475SOL    HW126324   5.164   1.491   2.837
 8475SOL    HW226325   5.040   1.598   2.834
 8476SOL     OW26326   5.257   0.957   2.703
 8476SOL    HW126327   5.313   1.019   2.759
 8476SOL    HW226328   5.248   0.869   2.750
 8477SOL     OW26329   2.375   1.340   3.641
 8477SOL    HW126330   2.322   1.291   3.571
 8477SOL    HW226331   2.347   1.309   3.732
 8478SOL     OW26332   1.170   1.879   6.267
 8478SOL    HW126333   1.265   1.854   6.280
 8478SOL    HW226334   1.164   1.974   6.236
 8479SOL     OW26335   5.556   6.584   1.991
 8479SOL    HW126336   5.465   6.571   2.030
 8479SOL    HW226337   5.552   6.652   1.918
 8480SOL     OW26338   2.465   1.067   2.459
 8480SOL    HW126339   2.446   1.149   2.513
 8480SOL    HW226340   2.522   1.005   2.512
 8481SOL     OW26341   4.040   0.107   5.722
 8481SOL    HW126342   4.062   0.186   5.779
 8481SOL    HW226343   3.946   0.114   5.688
 8482SOL     OW26344   6.015   0.770   1.247
 8482SOL    HW126345   5.979   0.758   1.340
 8482SOL    HW226346   5.995   0.863   1.216
 8483SOL     OW26347   4.734   6.167   1.484
 8483SOL    HW126348   4.768   6.259   1.465
 8483SOL    HW226349   4.719   6.157   1.583
 8484SOL     OW26350   6.732   4.636   6.157
 8484SOL    HW126351   6.672   4.667   6.083
 8484SOL    HW226352   6.685   4.645   6.244
 8485SOL     OW26353   2.086   3.243   6.512
 8485SOL    HW126354   2.078   3.152   6.472
 8485SOL    HW226355   2.179   3.278   6.497
 8486SOL     OW26356   4.400   0.317   1.503
 8486SOL    HW126357   4.324   0.263   1.466
 8486SOL    HW226358   4.436   0.273   1.584
 8487SOL     OW26359   4.366   0.583   1.028
 8487SOL    HW126360   4.313   0.499   1.024
 8487SOL    HW226361   4.423   0.591   0.947
 8488SOL     OW26362   6.913   4.417   6.435
 8488SOL    HW126363   6.889   4.350   6.506
 8488SOL    HW226364   7.010   4.411   6.415
 8489SOL     OW26365   3.587   0.047   3.179
 8489SOL    HW126366   3.616   6.978   3.184
 8489SOL    HW226367   3.487   0.051   3.176
 8490SOL     OW26368   3.723   5.145   2.283
 8490SOL    HW126369   3.669   5.193   2.214
 8490SOL    HW226370   3.707   5.047   2.276
 8491SOL     OW26371   6.957   0.784   0.827
 8491SOL    HW126372   6.879   0.746   0.778
 8491SOL    HW226373   0.015   0.741   0.794
 8492SOL     OW26374   6.131   4.084   4.173
 8492SOL    HW126375   6.036   4.096   4.201
 8492SOL    HW226376   6.134   4.037   4.084
 8493SOL     OW26377   4.596   3.122   0.649
 8493SOL    HW126378   4.658   3.048   0.627
 8493SOL    HW226379   4.567   3.115   0.744
 8494SOL     OW26380   3.341   6.067   6.429
 8494SOL    HW126381   3.431   6.032   6.458
 8494SOL    HW226382   3.269   6.016   6.476
 8495SOL     OW26383   0.330   3.578   6.354
 8495SOL    HW126384   0.367   3.487   6.335
 8495SOL    HW226385   0.404   3.641   6.374
 8496SOL     OW26386   1.347   1.763   4.632
 8496SOL    HW126387   1.376   1.699   4.561
 8496SOL    HW226388   1.313   1.847   4.591
 8497SOL     OW26389   5.264   3.174   4.752
 8497SOL    HW126390   5.259   3.178   4.653
 8497SOL    HW226391   5.244   3.265   4.790
 8498SOL     OW26392   6.370   1.185   2.144
 8498SOL    HW126393   6.328   1.126   2.075
 8498SOL    HW226394   6.349   1.149   2.235
 8499SOL     OW26395   6.969   4.196   0.881
 8499SOL    HW126396   6.918   4.235   0.805
 8499SOL    HW226397   6.992   4.268   0.946
 8500SOL     OW26398   1.485   0.836   5.095
 8500SOL    HW126399   1.560   0.869   5.037
 8500SOL    HW226400   1.401   0.830   5.042
 8501SOL     OW26401   3.187   3.354   6.265
 8501SOL    HW126402   3.159   3.383   6.174
 8501SOL    HW226403   3.224   3.433   6.315
 8502SOL     OW26404   0.284   6.446   1.277
 8502SOL    HW126405   0.292   6.389   1.195
 8502SOL    HW226406   0.224   6.402   1.343
 8503SOL     OW26407   4.159   5.742   3.401
 8503SOL    HW126408   4.203   5.709   3.318
 8503SOL    HW226409   4.224   5.798   3.453
 8504SOL     OW26410   1.621   4.984   2.923
 8504SOL    HW126411   1.655   5.078   2.913
 8504SOL    HW226412   1.644   4.932   2.841
 8505SOL     OW26413   4.307   1.874   2.516
 8505SOL    HW126414   4.356   1.834   2.438
 8505SOL    HW226415   4.232   1.932   2.483
 8506SOL     OW26416   0.604   5.213   0.349
 8506SOL    HW126417   0.527   5.168   0.393
 8506SOL    HW226418   0.670   5.144   0.319
 8507SOL     OW26419   2.355   0.215   4.142
 8507SOL    HW126420   2.288   0.186   4.074
 8507SOL    HW226421   2.445   0.179   4.118
 8508SOL     OW26422   0.807   3.694   6.262
 8508SOL    HW126423   0.717   3.668   6.227
 8508SOL    HW226424   0.852   3.754   6.196
 8509SOL     OW26425   6.913   2.954   4.488
 8509SOL    HW126426   6.853   2.919   4.417
 8509SOL    HW226427   6.999   2.986   4.446
 8510SOL     OW26428   5.444   6.570   3.127
 8510SOL    HW126429   5.415   6.476   3.111
 8510SOL    HW226430   5.363   6.626   3.148
 8511SOL     OW26431   6.655   5.052   0.910
 8511SOL    HW126432   6.647   5.064   1.009
 8511SOL    HW226433   6.636   4.956   0.888
 8512SOL     OW26434   3.972   2.848   0.841
 8512SOL    HW126435   3.960   2.776   0.774
 8512SOL    HW226436   3.887   2.860   0.893
 8513SOL     OW26437   0.695   3.597   1.059
 8513SOL    HW126438   0.638   3.668   1.102
 8513SOL    HW226439   0.759   3.561   1.127
 8514SOL     OW26440   2.205   2.938   5.231
 8514SOL    HW126441   2.263   2.910   5.308
 8514SOL    HW226442   2.262   2.953   5.150
 8515SOL     OW26443   3.175   1.461   0.270
 8515SOL    HW126444   3.137   1.411   0.348
 8515SOL    HW226445   3.161   1.559   0.283
 8516SOL     OW26446   0.022   3.546   5.594
 8516SOL    HW126447   6.949   3.544   5.600
 8516SOL    HW226448   0.060   3.592   5.674
 8517SOL     OW26449   1.214   2.507   5.815
 8517SOL    HW126450   1.162   2.484   5.732
 8517SOL    HW226451   1.155   2.496   5.895
 8518SOL     OW26452   5.722   4.975   0.521
 8518SOL    HW126453   5.731   5.044   0.450
 8518SOL    HW226454   5.768   5.007   0.604
 8519SOL     OW26455   1.687   3.960   1.349
 8519SOL    HW126456   1.642   3.875   1.375
 8519SOL    HW226457   1.784   3.942   1.329
 8520SOL     OW26458   2.980   3.758   6.360
 8520SOL    HW126459   3.020   3.813   6.433
 8520SOL    HW226460   3.053   3.725   6.300
 8521SOL     OW26461   2.091   6.898   4.783
 8521SOL    HW126462   2.121   6.992   4.802
 8521SOL    HW226463   1.995   6.888   4.808
 8522SOL     OW26464   0.324   0.589   0.220
 8522SOL    HW126465   0.230   0.567   0.196
 8522SOL    HW226466   0.369   0.632   0.142
 8523SOL     OW26467   4.026   2.088   1.947
 8523SOL    HW126468   4.066   2.131   2.028
 8523SOL    HW226469   4.075   2.004   1.925
 8524SOL     OW26470   2.265   6.280   5.089
 8524SOL    HW126471   2.225   6.236   5.169
 8524SOL    HW226472   2.364   6.268   5.089
 8525SOL     OW26473   6.564   2.549   3.457
 8525SOL    HW126474   6.528   2.470   3.407
 8525SOL    HW226475   6.513   2.561   3.542
 8526SOL     OW26476   0.633   4.889   6.205
 8526SOL    HW126477   0.534   4.871   6.205
 8526SOL    HW226478   0.650   4.979   6.245
 8527SOL     OW26479   1.331   0.803   6.400
 8527SOL    HW126480   1.281   0.846   6.475
 8527SOL    HW226481   1.428   0.799   6.423
 8528SOL     OW26482   5.763   6.938   0.361
 8528SOL    HW126483   5.770   7.020   0.304
 8528SOL    HW226484   5.854   6.899   0.376
 8529SOL     OW26485   0.934   6.330   6.950
 8529SOL    HW126486   0.853   6.388   6.939
 8529SOL    HW226487   1.013   6.376   6.910
 8530SOL     OW26488   3.578   4.062   3.036
 8530SOL    HW126489   3.634   4.073   3.119
 8530SOL    HW226490   3.540   3.970   3.034
 8531SOL     OW26491   6.545   6.011   3.254
 8531SOL    HW126492   6.597   5.984   3.336
 8531SOL    HW226493   6.559   5.943   3.182
 8532SOL     OW26494   3.569   5.519   0.353
 8532SOL    HW126495   3.638   5.535   0.423
 8532SOL    HW226496   3.600   5.447   0.291
 8533SOL     OW26497   2.598   5.761   5.362
 8533SOL    HW126498   2.670   5.697   5.332
 8533SOL    HW226499   2.521   5.709   5.398
 8534SOL     OW26500   2.126   3.245   2.027
 8534SOL    HW126501   2.156   3.224   2.120
 8534SOL    HW226502   2.157   3.336   2.001
 8535SOL     OW26503   6.192   6.715   1.905
 8535SOL    HW126504   6.225   6.775   1.832
 8535SOL    HW226505   6.261   6.644   1.924
 8536SOL     OW26506   2.526   0.855   4.137
 8536SOL    HW126507   2.546   0.952   4.149
 8536SOL    HW226508   2.494   0.816   4.224
 8537SOL     OW26509   5.759   1.242   3.138
 8537SOL    HW126510   5.858   1.249   3.148
 8537SOL    HW226511   5.723   1.177   3.206
 8538SOL     OW26512   0.742   2.741   6.582
 8538SOL    HW126513   0.740   2.825   6.637
 8538SOL    HW226514   0.673   2.748   6.510
 8539SOL     OW26515   5.567   3.670   1.838
 8539SOL    HW126516   5.520   3.750   1.876
 8539SOL    HW226517   5.637   3.640   1.903
 8540SOL     OW26518   4.066   0.151   1.338
 8540SOL    HW126519   4.047   0.208   1.259
 8540SOL    HW226520   4.019   0.188   1.418
 8541SOL     OW26521   1.142   3.126   3.160
 8541SOL    HW126522   1.176   3.107   3.068
 8541SOL    HW226523   1.218   3.152   3.220
 8542SOL     OW26524   2.931   4.942   6.462
 8542SOL    HW126525   2.834   4.966   6.461
 8542SOL    HW226526   2.986   5.025   6.456
 8543SOL     OW26527   3.875   1.677   6.661
 8543SOL    HW126528   3.809   1.743   6.698
 8543SOL    HW226529   3.943   1.656   6.731
 8544SOL     OW26530   6.071   2.768   4.342
 8544SOL    HW126531   6.059   2.679   4.297
 8544SOL    HW226532   5.983   2.803   4.372
 8545SOL     OW26533   4.575   0.443   5.374
 8545SOL    HW126534   4.498   0.481   5.323
 8545SOL    HW226535   4.553   0.442   5.471
 8546SOL     OW26536   4.678   2.164   5.724
 8546SOL    HW126537   4.655   2.244   5.778
 8546SOL    HW226538   4.625   2.085   5.756
 8547SOL     OW26539   1.663   4.725   2.338
 8547SOL    HW126540   1.735   4.688   2.397
 8547SOL    HW226541   1.699   4.805   2.288
 8548SOL     OW26542   5.871   2.669   5.415
 8548SOL    HW126543   5.914   2.640   5.330
 8548SOL    HW226544   5.812   2.748   5.397
 8549SOL     OW26545   4.980   2.357   4.474
 8549SOL    HW126546   4.974   2.455   4.453
 8549SOL    HW226547   5.053   2.316   4.418
 8550SOL     OW26548   1.928   5.066   5.542
 8550SOL    HW126549   2.011   5.121   5.554
 8550SOL    HW226550   1.848   5.120   5.564
 8551SOL     OW26551   2.591   5.470   0.647
 8551SOL    HW126552   2.583   5.463   0.548
 8551SOL    HW226553   2.688   5.467   0.673
 8552SOL     OW26554   3.069   6.901   3.461
 8552SOL    HW126555   3.063   6.865   3.554
 8552SOL    HW226556   2.990   6.959   3.442
 8553SOL     OW26557   6.152   5.642   6.886
 8553SOL    HW126558   6.109   5.690   6.963
 8553SOL    HW226559   6.109   5.672   6.801
 8554SOL     OW26560   5.660   3.824   6.878
 8554SOL    HW126561   5.713   3.803   6.796
 8554SOL    HW226562   5.671   3.750   6.944
 8555SOL     OW26563   2.065   6.381   4.208
 8555SOL    HW126564   1.998   6.449   4.179
 8555SOL    HW226565   2.157   6.419   4.197
 8556SOL     OW26566   5.456   0.460   5.892
 8556SOL    HW126567   5.358   0.476   5.879
 8556SOL    HW226568   5.484   0.380   5.840
 8557SOL     OW26569   6.595   1.744   1.378
 8557SOL    HW126570   6.571   1.781   1.468
 8557SOL    HW226571   6.675   1.686   1.386
 8558SOL     OW26572   1.948   4.618   2.156
 8558SOL    HW126573   1.869   4.616   2.094
 8558SOL    HW226574   1.929   4.678   2.233
 8559SOL     OW26575   1.584   1.166   5.016
 8559SOL    HW126576   1.671   1.180   5.062
 8559SOL    HW226577   1.510   1.168   5.084
 8560SOL     OW26578   6.330   2.986   0.059
 8560SOL    HW126579   6.248   2.969   0.113
 8560SOL    HW226580   6.404   2.927   0.091
 8561SOL     OW26581   5.340   6.378   5.714
 8561SOL    HW126582   5.318   6.476   5.719
 8561SOL    HW226583   5.305   6.340   5.629
 8562SOL     OW26584   4.084   0.861   4.601
 8562SOL    HW126585   4.000   0.915   4.601
 8562SOL    HW226586   4.126   0.864   4.510
 8563SOL     OW26587   2.348   2.733   6.198
 8563SOL    HW126588   2.285   2.756   6.272
 8563SOL    HW226589   2.340   2.802   6.125
 8564SOL     OW26590   0.582   5.171   4.279
 8564SOL    HW126591   0.550   5.214   4.364
 8564SOL    HW226592   0.518   5.098   4.254
 8565SOL     OW26593   3.551   0.889   1.428
 8565SOL    HW126594   3.506   0.892   1.516
 8565SOL    HW226595   3.648   0.867   1.440
 8566SOL     OW26596   1.799   4.539   4.189
 8566SOL    HW126597   1.848   4.459   4.153
 8566SOL    HW226598   1.845   4.622   4.158
 8567SOL     OW26599   5.174   6.641   6.351
 8567SOL    HW126600   5.180   6.600   6.260
 8567SOL    HW226601   5.128   6.729   6.345
 8568SOL     OW26602   4.970   6.694   0.667
 8568SOL    HW126603   4.921   6.614   0.631
 8568SOL    HW226604   4.917   6.777   0.648
 8569SOL     OW26605   2.405   0.812   5.203
 8569SOL    HW126606   2.428   0.741   5.270
 8569SOL    HW226607   2.487   0.837   5.152
 8570SOL     OW26608   6.876   3.808   5.920
 8570SOL    HW126609   6.834   3.792   6.009
 8570SOL    HW226610   6.825   3.879   5.871
 8571SOL     OW26611   0.812   4.805   6.768
 8571SOL    HW126612   0.821   4.845   6.860
 8571SOL    HW226613   0.902   4.777   6.735
 8572SOL     OW26614   2.377   4.503   6.440
 8572SOL    HW126615   2.296   4.542   6.485
 8572SOL    HW226616   2.426   4.444   6.504
 8573SOL     OW26617   3.035   5.793   4.230
 8573SOL    HW126618   3.030   5.696   4.254
 8573SOL    HW226619   3.097   5.806   4.153
 8574SOL     OW26620   1.425   4.237   4.265
 8574SOL    HW126621   1.368   4.192   4.335
 8574SOL    HW226622   1.519   4.204   4.272
 8575SOL     OW26623   2.739   3.082   5.866
 8575SOL    HW126624   2.814   3.024   5.900
 8575SOL    HW226625   2.776   3.150   5.803
 8576SOL     OW26626   1.750   0.521   0.382
 8576SOL    HW126627   1.832   0.565   0.347
 8576SOL    HW226628   1.744   0.536   0.481
 8577SOL     OW26629   6.240   5.644   4.906
 8577SOL    HW126630   6.220   5.549   4.882
 8577SOL    HW226631   6.320   5.675   4.855
 8578SOL     OW26632   4.764   0.458   4.317
 8578SOL    HW126633   4.732   0.551   4.303
 8578SOL    HW226634   4.860   0.458   4.343
 8579SOL     OW26635   0.115   4.605   2.721
 8579SOL    HW126636   0.184   4.670   2.755
 8579SOL    HW226637   0.028   4.652   2.709
 8580SOL     OW26638   1.619   5.946   5.819
 8580SOL    HW126639   1.596   6.008   5.894
 8580SOL    HW226640   1.562   5.966   5.740
 8581SOL     OW26641   3.404   3.284   0.172
 8581SOL    HW126642   3.401   3.189   0.204
 8581SOL    HW226643   3.414   3.345   0.250
 8582SOL     OW26644   2.400   5.999   0.244
 8582SOL    HW126645   2.350   5.935   0.186
 8582SOL    HW226646   2.445   6.067   0.188
 8583SOL     OW26647   5.884   6.755   4.012
 8583SOL    HW126648   5.944   6.708   4.077
 8583SOL    HW226649   5.934   6.829   3.968
 8584SOL     OW26650   0.677   5.725   6.183
 8584SOL    HW126651   0.599   5.771   6.141
 8584SOL    HW226652   0.669   5.626   6.167
 8585SOL     OW26653   1.033   0.654   0.481
 8585SOL    HW126654   1.067   0.599   0.558
 8585SOL    HW226655   1.083   0.629   0.398
 8586SOL     OW26656   3.721   5.358   3.315
 8586SOL    HW126657   3.733   5.269   3.271
 8586SOL    HW226658   3.664   5.348   3.397
 8587SOL     OW26659   0.087   1.041   0.810
 8587SOL    HW126660   0.143   1.122   0.824
 8587SOL    HW226661   0.142   0.959   0.825
 8588SOL     OW26662   4.079   3.251   6.799
 8588SOL    HW126663   4.096   3.349   6.814
 8588SOL    HW226664   4.146   3.198   6.851
 8589SOL     OW26665   3.604   1.379   3.805
 8589SOL    HW126666   3.565   1.436   3.733
 8589SOL    HW226667   3.680   1.429   3.848
 8590SOL     OW26668   5.427   3.600   6.157
 8590SOL    HW126669   5.351   3.563   6.210
 8590SOL    HW226670   5.499   3.630   6.218
 8591SOL     OW26671   0.422   2.994   0.748
 8591SOL    HW126672   0.439   2.907   0.702
 8591SOL    HW226673   0.333   2.991   0.793
 8592SOL     OW26674   6.816   5.788   0.369
 8592SOL    HW126675   6.911   5.788   0.400
 8592SOL    HW226676   6.779   5.696   0.375
 8593SOL     OW26677   0.903   5.045   4.047
 8593SOL    HW126678   0.961   4.966   4.028
 8593SOL    HW226679   0.808   5.025   4.023
 8594SOL     OW26680   3.888   3.612   2.525
 8594SOL    HW126681   3.866   3.533   2.468
 8594SOL    HW226682   3.917   3.689   2.468
 8595SOL     OW26683   1.047   2.558   2.580
 8595SOL    HW126684   1.091   2.600   2.501
 8595SOL    HW226685   1.113   2.549   2.655
 8596SOL     OW26686   0.050   3.978   2.830
 8596SOL    HW126687   0.013   3.945   2.916
 8596SOL    HW226688   0.051   3.905   2.762
 8597SOL     OW26689   2.247   1.902   0.904
 8597SOL    HW126690   2.197   1.948   0.978
 8597SOL    HW226691   2.239   1.803   0.914
 8598SOL     OW26692   6.314   2.756   2.022
 8598SOL    HW126693   6.224   2.796   2.041
 8598SOL    HW226694   6.326   2.748   1.923
 8599SOL     OW26695   0.425   2.541   0.753
 8599SOL    HW126696   0.470   2.612   0.699
 8599SOL    HW226697   0.405   2.462   0.694
 8600SOL     OW26698   0.261   2.837   5.945
 8600SOL    HW126699   0.282   2.929   5.977
 8600SOL    HW226700   0.306   2.820   5.858
 8601SOL     OW26701   0.724   0.312   4.360
 8601SOL    HW126702   0.660   0.358   4.421
 8601SOL    HW226703   0.818   0.337   4.384
 8602SOL     OW26704   0.960   6.537   2.195
 8602SOL    HW126705   0.874   6.514   2.151
 8602SOL    HW226706   0.986   6.464   2.258
 8603SOL     OW26707   5.080   4.058   2.249
 8603SOL    HW126708   5.111   4.153   2.239
 8603SOL    HW226709   5.109   4.005   2.169
 8604SOL     OW26710   6.401   2.598   3.660
 8604SOL    HW126711   6.303   2.618   3.666
 8604SOL    HW226712   6.417   2.503   3.687
 8605SOL     OW26713   2.066   5.569   1.572
 8605SOL    HW126714   2.066   5.525   1.661
 8605SOL    HW226715   1.973   5.596   1.547
 8606SOL     OW26716   4.288   5.414   5.041
 8606SOL    HW126717   4.364   5.373   4.991
 8606SOL    HW226718   4.241   5.480   4.983
 8607SOL     OW26719   3.090   6.614   0.430
 8607SOL    HW126720   3.092   6.514   0.441
 8607SOL    HW226721   3.076   6.637   0.334
 8608SOL     OW26722   5.834   6.593   3.532
 8608SOL    HW126723   5.913   6.609   3.474
 8608SOL    HW226724   5.802   6.499   3.520
 8609SOL     OW26725   5.507   6.592   5.401
 8609SOL    HW126726   5.475   6.589   5.306
 8609SOL    HW226727   5.437   6.636   5.458
 8610SOL     OW26728   0.235   0.014   4.709
 8610SOL    HW126729   0.161   6.973   4.698
 8610SOL    HW226730   0.260   0.020   4.805
 8611SOL     OW26731   1.890   1.618   2.637
 8611SOL    HW126732   1.977   1.591   2.596
 8611SOL    HW226733   1.900   1.707   2.681
 8612SOL     OW26734   5.204   3.245   4.488
 8612SOL    HW126735   5.116   3.291   4.502
 8612SOL    HW226736   5.270   3.310   4.450
 8613SOL     OW26737   1.644   0.804   0.932
 8613SOL    HW126738   1.661   0.763   0.842
 8613SOL    HW226739   1.548   0.831   0.939
 8614SOL     OW26740   1.455   2.881   3.659
 8614SOL    HW126741   1.426   2.900   3.753
 8614SOL    HW226742   1.521   2.806   3.660
 8615SOL     OW26743   4.523   1.934   6.109
 8615SOL    HW126744   4.456   1.861   6.099
 8615SOL    HW226745   4.572   1.923   6.195
 8616SOL     OW26746   0.510   3.190   0.916
 8616SOL    HW126747   0.478   3.125   0.846
 8616SOL    HW226748   0.609   3.186   0.922
 8617SOL     OW26749   6.549   3.678   0.639
 8617SOL    HW126750   6.536   3.587   0.678
 8617SOL    HW226751   6.622   3.726   0.688
 8618SOL     OW26752   2.973   1.216   3.255
 8618SOL    HW126753   2.995   1.221   3.157
 8618SOL    HW226754   3.016   1.135   3.295
 8619SOL     OW26755   3.939   6.231   0.786
 8619SOL    HW126756   4.001   6.157   0.759
 8619SOL    HW226757   3.911   6.218   0.881
 8620SOL     OW26758   5.693   5.855   4.160
 8620SOL    HW126759   5.723   5.942   4.200
 8620SOL    HW226760   5.748   5.780   4.198
 8621SOL     OW26761   5.057   1.300   3.738
 8621SOL    HW126762   5.134   1.306   3.801
 8621SOL    HW226763   5.030   1.205   3.726
 8622SOL     OW26764   5.038   4.921   5.641
 8622SOL    HW126765   5.053   4.987   5.714
 8622SOL    HW226766   5.073   4.832   5.670
 8623SOL     OW26767   5.883   1.456   3.955
 8623SOL    HW126768   5.919   1.462   3.862
 8623SOL    HW226769   5.948   1.405   4.013
 8624SOL     OW26770   6.872   2.834   3.586
 8624SOL    HW126771   6.935   2.905   3.553
 8624SOL    HW226772   6.780   2.873   3.593
 8625SOL     OW26773   3.153   1.476   6.815
 8625SOL    HW126774   3.175   1.404   6.749
 8625SOL    HW226775   3.227   1.483   6.882
 8626SOL     OW26776   3.273   3.787   1.586
 8626SOL    HW126777   3.345   3.845   1.548
 8626SOL    HW226778   3.259   3.810   1.682
 8627SOL     OW26779   3.065   0.104   6.352
 8627SOL    HW126780   2.969   0.128   6.359
 8627SOL    HW226781   3.094   0.056   6.435
 8628SOL     OW26782   6.063   0.601   1.916
 8628SOL    HW126783   6.115   0.522   1.884
 8628SOL    HW226784   6.080   0.679   1.857
 8629SOL     OW26785   1.208   6.109   3.261
 8629SOL    HW126786   1.263   6.192   3.259
 8629SOL    HW226787   1.111   6.134   3.266
 8630SOL     OW26788   5.191   4.984   4.221
 8630SOL    HW126789   5.093   4.972   4.235
 8630SOL    HW226790   5.213   5.082   4.220
 8631SOL     OW26791   3.941   7.008   3.307
 8631SOL    HW126792   3.997   0.037   3.368
 8631SOL    HW226793   3.845   7.020   3.329
 8632SOL     OW26794   2.439   0.939   2.963
 8632SOL    HW126795   2.444   0.845   2.995
 8632SOL    HW226796   2.451   1.001   3.040
 8633SOL     OW26797   6.127   6.495   2.785
 8633SOL    HW126798   6.147   6.578   2.732
 8633SOL    HW226799   6.194   6.485   2.858
 8634SOL     OW26800   5.087   6.744   1.366
 8634SOL    HW126801   5.121   6.804   1.294
 8634SOL    HW226802   5.018   6.792   1.420
 8635SOL     OW26803   6.086   3.909   5.697
 8635SOL    HW126804   6.159   3.867   5.642
 8635SOL    HW226805   6.057   3.995   5.655
 8636SOL     OW26806   5.820   4.913   1.435
 8636SOL    HW126807   5.892   4.927   1.503
 8636SOL    HW226808   5.782   5.001   1.409
 8637SOL     OW26809   0.240   0.689   1.849
 8637SOL    HW126810   0.174   0.749   1.804
 8637SOL    HW226811   0.280   0.627   1.782
 8638SOL     OW26812   6.331   4.715   1.140
 8638SOL    HW126813   6.421   4.724   1.182
 8638SOL    HW226814   6.274   4.793   1.166
 8639SOL     OW26815   5.791   2.719   3.919
 8639SOL    HW126816   5.737   2.695   3.999
 8639SOL    HW226817   5.772   2.652   3.846
 8640SOL     OW26818   5.083   5.648   1.251
 8640SOL    HW126819   5.181   5.655   1.269
 8640SOL    HW226820   5.067   5.576   1.183
 8641SOL     OW26821   5.020   5.406   3.944
 8641SOL    HW126822   5.103   5.427   3.893
 8641SOL    HW226823   4.996   5.484   4.002
 8642SOL     OW26824   4.663   1.375   0.925
 8642SOL    HW126825   4.753   1.338   0.900
 8642SOL    HW226826   4.640   1.346   1.019
 8643SOL     OW26827   4.966   7.000   0.190
 8643SOL    HW126828   4.911   0.049   0.154
 8643SOL    HW226829   4.981   7.013   0.287
 8644SOL     OW26830   6.153   3.128   5.430
 8644SOL    HW126831   6.215   3.077   5.490
 8644SOL    HW226832   6.198   3.212   5.399
 8645SOL     OW26833   6.452   3.723   2.087
 8645SOL    HW126834   6.478   3.820   2.085
 8645SOL    HW226835   6.491   3.680   2.169
 8646SOL     OW26836   4.403   6.200   0.376
 8646SOL    HW126837   4.432   6.127   0.314
 8646SOL    HW226838   4.370   6.160   0.461
 8647SOL     OW26839   4.933   4.642   1.933
 8647SOL    HW126840   4.926   4.731   1.888
 8647SOL    HW226841   4.884   4.574   1.879
 8648SOL     OW26842   6.468   0.621   4.755
 8648SOL    HW126843   6.533   0.582   4.820
 8648SOL    HW226844   6.441   0.552   4.688
 8649SOL     OW26845   6.953   3.223   5.543
 8649SOL    HW126846   0.009   3.249   5.492
 8649SOL    HW226847   6.980   3.187   5.632
 8650SOL     OW26848   0.488   5.348   1.956
 8650SOL    HW126849   0.440   5.436   1.962
 8650SOL    HW226850   0.422   5.274   1.963
 8651SOL     OW26851   4.692   3.491   0.955
 8651SOL    HW126852   4.748   3.469   1.034
 8651SOL    HW226853   4.596   3.466   0.973
 8652SOL     OW26854   1.042   2.835   4.702
 8652SOL    HW126855   0.959   2.809   4.652
 8652SOL    HW226856   1.109   2.872   4.638
 8653SOL     OW26857   5.187   3.643   6.551
 8653SOL    HW126858   5.127   3.643   6.631
 8653SOL    HW226859   5.218   3.550   6.532
 8654SOL     OW26860   1.990   4.576   1.633
 8654SOL    HW126861   1.911   4.608   1.581
 8654SOL    HW226862   1.976   4.481   1.660
 8655SOL     OW26863   5.185   6.360   2.912
 8655SOL    HW126864   5.109   6.336   2.972
 8655SOL    HW226865   5.183   6.458   2.893
 8656SOL     OW26866   6.600   2.039   1.897
 8656SOL    HW126867   6.590   2.116   1.960
 8656SOL    HW226868   6.697   2.020   1.882
 8657SOL     OW26869   2.474   5.021   0.646
 8657SOL    HW126870   2.491   4.934   0.600
 8657SOL    HW226871   2.517   5.020   0.737
 8658SOL     OW26872   0.907   6.634   5.518
 8658SOL    HW126873   0.860   6.654   5.432
 8658SOL    HW226874   0.939   6.539   5.518
 8659SOL     OW26875   3.442   6.873   3.876
 8659SOL    HW126876   3.422   6.803   3.944
 8659SOL    HW226877   3.369   6.941   3.874
 8660SOL     OW26878   5.032   4.227   0.310
 8660SOL    HW126879   5.116   4.184   0.342
 8660SOL    HW226880   4.954   4.167   0.329
 8661SOL     OW26881   6.366   2.500   2.334
 8661SOL    HW126882   6.364   2.465   2.240
 8661SOL    HW226883   6.374   2.424   2.398
 8662SOL     OW26884   0.235   0.993   0.310
 8662SOL    HW126885   0.224   1.079   0.360
 8662SOL    HW226886   0.280   1.012   0.222
 8663SOL     OW26887   3.067   5.492   0.192
 8663SOL    HW126888   3.002   5.500   0.117
 8663SOL    HW226889   3.051   5.407   0.242
 8664SOL     OW26890   4.947   4.149   1.561
 8664SOL    HW126891   4.956   4.066   1.615
 8664SOL    HW226892   4.858   4.149   1.515
 8665SOL     OW26893   5.544   5.340   3.807
 8665SOL    HW126894   5.547   5.388   3.720
 8665SOL    HW226895   5.513   5.246   3.792
 8666SOL     OW26896   6.873   4.828   4.647
 8666SOL    HW126897   6.790   4.819   4.592
 8666SOL    HW226898   6.848   4.842   4.743
 8667SOL     OW26899   5.288   3.073   3.247
 8667SOL    HW126900   5.264   3.153   3.191
 8667SOL    HW226901   5.204   3.031   3.283
 8668SOL     OW26902   3.124   0.677   4.884
 8668SOL    HW126903   3.103   0.757   4.828
 8668SOL    HW226904   3.182   0.614   4.833
 8669SOL     OW26905   3.396   6.423   6.533
 8669SOL    HW126906   3.323   6.354   6.530
 8669SOL    HW226907   3.408   6.454   6.627
 8670SOL     OW26908   4.087   5.059   2.785
 8670SOL    HW126909   4.164   5.119   2.807
 8670SOL    HW226910   4.096   4.974   2.838
 8671SOL     OW26911   6.108   5.197   0.952
 8671SOL    HW126912   6.096   5.296   0.961
 8671SOL    HW226913   6.185   5.167   1.007
 8672SOL     OW26914   4.009   5.491   4.859
 8672SOL    HW126915   3.976   5.397   4.865
 8672SOL    HW226916   4.020   5.516   4.763
 8673SOL     OW26917   5.090   2.086   0.039
 8673SOL    HW126918   5.175   2.134   0.061
 8673SOL    HW226919   5.014   2.152   0.038
 8674SOL     OW26920   7.008   0.017   2.506
 8674SOL    HW126921   0.056   7.006   2.450
 8674SOL    HW226922   6.921   0.004   2.459
 8675SOL     OW26923   2.770   2.091   1.936
 8675SOL    HW126924   2.831   2.164   1.968
 8675SOL    HW226925   2.691   2.085   1.997
 8676SOL     OW26926   5.340   1.558   3.798
 8676SOL    HW126927   5.301   1.578   3.888
 8676SOL    HW226928   5.398   1.634   3.769
 8677SOL     OW26929   2.400   3.806   5.397
 8677SOL    HW126930   2.402   3.867   5.476
 8677SOL    HW226931   2.430   3.855   5.315
 8678SOL     OW26932   1.191   1.398   6.083
 8678SOL    HW126933   1.180   1.376   6.180
 8678SOL    HW226934   1.190   1.497   6.072
 8679SOL     OW26935   6.285   2.528   4.644
 8679SOL    HW126936   6.230   2.444   4.649
 8679SOL    HW226937   6.299   2.564   4.736
 8680SOL     OW26938   0.642   3.025   6.027
 8680SOL    HW126939   0.647   3.100   5.961
 8680SOL    HW226940   0.671   2.940   5.982
 8681SOL     OW26941   4.092   4.063   1.518
 8681SOL    HW126942   4.167   4.088   1.579
 8681SOL    HW226943   4.020   4.017   1.570
 8682SOL     OW26944   1.503   5.661   2.703
 8682SOL    HW126945   1.448   5.718   2.643
 8682SOL    HW226946   1.600   5.673   2.680
 8683SOL     OW26947   4.586   3.912   6.262
 8683SOL    HW126948   4.562   3.860   6.179
 8683SOL    HW226949   4.534   3.997   6.265
 8684SOL     OW26950   6.424   2.315   3.703
 8684SOL    HW126951   6.429   2.216   3.690
 8684SOL    HW226952   6.517   2.353   3.707
 8685SOL     OW26953   0.488   2.575   5.457
 8685SOL    HW126954   0.578   2.536   5.439
 8685SOL    HW226955   0.418   2.504   5.450
 8686SOL     OW26956   5.905   1.175   4.749
 8686SOL    HW126957   5.850   1.185   4.832
 8686SOL    HW226958   5.928   1.079   4.735
 8687SOL     OW26959   3.576   1.290   2.588
 8687SOL    HW126960   3.546   1.382   2.613
 8687SOL    HW226961   3.657   1.296   2.530
 8688SOL     OW26962   6.880   6.452   1.731
 8688SOL    HW126963   6.927   6.374   1.772
 8688SOL    HW226964   6.930   6.484   1.651
 8689SOL     OW26965   4.813   4.696   1.648
 8689SOL    HW126966   4.785   4.609   1.607
 8689SOL    HW226967   4.882   4.740   1.591
 8690SOL     OW26968   1.496   0.440   1.968
 8690SOL    HW126969   1.476   0.493   1.885
 8690SOL    HW226970   1.418   0.445   2.030
 8691SOL     OW26971   5.642   1.052   6.604
 8691SOL    HW126972   5.670   1.129   6.662
 8691SOL    HW226973   5.721   0.993   6.586
 8692SOL     OW26974   1.489   1.209   3.678
 8692SOL    HW126975   1.420   1.184   3.610
 8692SOL    HW226976   1.569   1.249   3.631
 8693SOL     OW26977   5.217   2.645   6.592
 8693SOL    HW126978   5.169   2.560   6.569
 8693SOL    HW226979   5.194   2.715   6.525
 8694SOL     OW26980   3.352   0.542   6.193
 8694SOL    HW126981   3.359   0.641   6.208
 8694SOL    HW226982   3.274   0.522   6.134
 8695SOL     OW26983   4.080   3.783   4.897
 8695SOL    HW126984   4.047   3.770   4.803
 8695SOL    HW226985   4.180   3.783   4.897
 8696SOL     OW26986   2.226   5.530   6.866
 8696SOL    HW126987   2.326   5.530   6.872
 8696SOL    HW226988   2.195   5.615   6.824
 8697SOL     OW26989   5.169   5.365   6.821
 8697SOL    HW126990   5.194   5.316   6.904
 8697SOL    HW226991   5.195   5.461   6.830
 8698SOL     OW26992   6.220   5.960   5.620
 8698SOL    HW126993   6.169   5.879   5.592
 8698SOL    HW226994   6.216   5.971   5.719
 8699SOL     OW26995   2.352   1.377   4.260
 8699SOL    HW126996   2.287   1.444   4.297
 8699SOL    HW226997   2.445   1.408   4.277
 8700SOL     OW26998   2.625   0.483   5.592
 8700SOL    HW126999   2.690   0.503   5.519
 8700SOL    HW227000   2.663   0.415   5.654
 8701SOL     OW27001   1.046   0.353   3.302
 8701SOL    HW127002   1.026   0.422   3.232
 8701SOL    HW227003   1.076   0.399   3.386
 8702SOL     OW27004   4.168   0.177   6.272
 8702SOL    HW127005   4.212   0.108   6.215
 8702SOL    HW227006   4.234   0.248   6.296
 8703SOL     OW27007   1.477   4.145   1.437
 8703SOL    HW127008   1.557   4.086   1.446
 8703SOL    HW227009   1.409   4.099   1.379
 8704SOL     OW27010   1.169   4.426   2.260
 8704SOL    HW127011   1.178   4.442   2.162
 8704SOL    HW227012   1.247   4.373   2.293
 8705SOL     OW27013   4.384   6.640   4.417
 8705SOL    HW127014   4.372   6.561   4.478
 8705SOL    HW227015   4.471   6.632   4.369
 8706SOL     OW27016   5.152   7.009   6.616
 8706SOL    HW127017   5.109   6.984   6.702
 8706SOL    HW227018   5.229   0.045   6.634
 8707SOL     OW27019   3.979   1.514   5.463
 8707SOL    HW127020   4.026   1.560   5.388
 8707SOL    HW227021   3.915   1.578   5.506
 8708SOL     OW27022   3.663   1.658   1.164
 8708SOL    HW127023   3.595   1.614   1.224
 8708SOL    HW227024   3.652   1.757   1.169
 8709SOL     OW27025   5.251   3.415   6.851
 8709SOL    HW127026   5.349   3.435   6.841
 8709SOL    HW227027   5.234   3.319   6.830
 8710SOL     OW27028   6.432   3.743   4.373
 8710SOL    HW127029   6.356   3.783   4.425
 8710SOL    HW227030   6.415   3.754   4.275
 8711SOL     OW27031   2.161   1.682   4.168
 8711SOL    HW127032   2.131   1.635   4.252
 8711SOL    HW227033   2.259   1.699   4.174
 8712SOL     OW27034   2.939   0.114   6.722
 8712SOL    HW127035   2.872   0.046   6.752
 8712SOL    HW227036   3.023   0.105   6.776
 8713SOL     OW27037   6.158   5.134   3.205
 8713SOL    HW127038   6.227   5.112   3.274
 8713SOL    HW227039   6.106   5.051   3.182
 8714SOL     OW27040   2.069   1.062   3.801
 8714SOL    HW127041   1.971   1.053   3.787
 8714SOL    HW227042   2.117   1.049   3.715
 8715SOL     OW27043   5.415   0.458   2.867
 8715SOL    HW127044   5.494   0.456   2.806
 8715SOL    HW227045   5.400   0.551   2.899
 8716SOL     OW27046   1.616   0.704   2.610
 8716SOL    HW127047   1.533   0.757   2.592
 8716SOL    HW227048   1.655   0.673   2.523
 8717SOL     OW27049   4.601   4.176   0.592
 8717SOL    HW127050   4.653   4.110   0.538
 8717SOL    HW227051   4.624   4.164   0.689
 8718SOL     OW27052   6.853   2.713   6.326
 8718SOL    HW127053   6.901   2.631   6.296
 8718SOL    HW227054   6.787   2.741   6.256
 8719SOL     OW27055   6.700   0.979   5.663
 8719SOL    HW127056   6.678   0.952   5.569
 8719SOL    HW227057   6.757   0.908   5.705
 8720SOL     OW27058   5.121   3.150   5.334
 8720SOL    HW127059   5.185   3.092   5.283
 8720SOL    HW227060   5.028   3.132   5.301
 8721SOL     OW27061   6.911   0.372   4.973
 8721SOL    HW127062   6.863   0.427   4.904
 8721SOL    HW227063   7.002   0.412   4.990
 8722SOL     OW27064   3.830   2.490   0.374
 8722SOL    HW127065   3.771   2.563   0.341
 8722SOL    HW227066   3.912   2.485   0.316
 8723SOL     OW27067   0.357   5.840   0.774
 8723SOL    HW127068   0.363   5.845   0.674
 8723SOL    HW227069   0.411   5.762   0.807
 8724SOL     OW27070   4.771   5.756   6.567
 8724SOL    HW127071   4.838   5.758   6.493
 8724SOL    HW227072   4.735   5.848   6.581
 8725SOL     OW27073   2.566   6.676   0.040
 8725SOL    HW127074   2.577   6.773   0.062
 8725SOL    HW227075   2.475   6.661   0.001
 8726SOL     OW27076   0.390   6.456   0.361
 8726SOL    HW127077   0.409   6.479   0.456
 8726SOL    HW227078   0.293   6.472   0.342
 8727SOL     OW27079   5.376   6.253   1.855
 8727SOL    HW127080   5.332   6.341   1.837
 8727SOL    HW227081   5.473   6.259   1.832
 8728SOL     OW27082   2.312   5.715   5.499
 8728SOL    HW127083   2.257   5.633   5.479
 8728SOL    HW227084   2.335   5.717   5.596
 8729SOL     OW27085   4.626   5.895   4.576
 8729SOL    HW127086   4.633   5.805   4.619
 8729SOL    HW227087   4.536   5.905   4.534
 8730SOL     OW27088   6.282   6.779   1.286
 8730SOL    HW127089   6.355   6.845   1.304
 8730SOL    HW227090   6.321   6.694   1.250
 8731SOL     OW27091   0.770   1.913   3.238
 8731SOL    HW127092   0.696   1.847   3.226
 8731SOL    HW227093   0.839   1.874   3.299
 8732SOL     OW27094   6.628   6.544   2.471
 8732SOL    HW127095   6.537   6.582   2.483
 8732SOL    HW227096   6.692   6.616   2.443
 8733SOL     OW27097   6.585   0.347   0.233
 8733SOL    HW127098   6.588   0.291   0.317
 8733SOL    HW227099   6.489   0.366   0.210
 8734SOL     OW27100   6.003   0.124   1.185
 8734SOL    HW127101   5.993   0.218   1.217
 8734SOL    HW227102   5.919   0.095   1.139
 8735SOL     OW27103   0.337   3.100   5.961
 8735SOL    HW127104   0.312   3.141   5.874
 8735SOL    HW227105   0.436   3.098   5.971
 8736SOL     OW27106   0.505   5.217   5.814
 8736SOL    HW127107   0.511   5.117   5.816
 8736SOL    HW227108   0.596   5.255   5.796
 8737SOL     OW27109   3.987   5.606   6.852
 8737SOL    HW127110   3.951   5.681   6.908
 8737SOL    HW227111   4.024   5.644   6.767
 8738SOL     OW27112   1.138   3.833   5.290
 8738SOL    HW127113   1.109   3.896   5.218
 8738SOL    HW227114   1.104   3.864   5.378
 8739SOL     OW27115   1.456   3.181   5.207
 8739SOL    HW127116   1.400   3.240   5.149
 8739SOL    HW227117   1.534   3.232   5.241
 8740SOL     OW27118   1.057   6.046   0.475
 8740SOL    HW127119   1.055   6.146   0.465
 8740SOL    HW227120   1.064   6.004   0.385
 8741SOL     OW27121   1.385   2.950   2.048
 8741SOL    HW127122   1.287   2.949   2.070
 8741SOL    HW227123   1.404   3.022   1.981
 8742SOL     OW27124   4.634   5.024   1.564
 8742SOL    HW127125   4.597   5.116   1.555
 8742SOL    HW227126   4.580   4.972   1.631
 8743SOL     OW27127   3.334   5.583   2.439
 8743SOL    HW127128   3.394   5.645   2.388
 8743SOL    HW227129   3.387   5.508   2.477
 8744SOL     OW27130   2.972   3.552   5.445
 8744SOL    HW127131   2.937   3.462   5.472
 8744SOL    HW227132   2.975   3.612   5.526
 8745SOL     OW27133   5.498   1.792   5.714
 8745SOL    HW127134   5.532   1.852   5.786
 8745SOL    HW227135   5.486   1.699   5.751
 8746SOL     OW27136   5.175   3.415   4.846
 8746SOL    HW127137   5.081   3.438   4.872
 8746SOL    HW227138   5.210   3.487   4.785
 8747SOL     OW27139   1.230   1.819   4.183
 8747SOL    HW127140   1.149   1.856   4.228
 8747SOL    HW227141   1.215   1.722   4.163
 8748SOL     OW27142   3.098   1.024   6.453
 8748SOL    HW127143   3.157   0.950   6.487
 8748SOL    HW227144   3.123   1.109   6.499
 8749SOL     OW27145   3.949   1.258   3.798
 8749SOL    HW127146   4.046   1.235   3.794
 8749SOL    HW227147   3.934   1.329   3.867
 8750SOL     OW27148   2.189   6.556   4.756
 8750SOL    HW127149   2.199   6.565   4.855
 8750SOL    HW227150   2.237   6.631   4.711
 8751SOL     OW27151   1.673   6.275   2.771
 8751SOL    HW127152   1.654   6.177   2.771
 8751SOL    HW227153   1.772   6.289   2.772
 8752SOL     OW27154   2.316   0.826   6.571
 8752SOL    HW127155   2.303   0.863   6.663
 8752SOL    HW227156   2.228   0.793   6.536
 8753SOL     OW27157   5.300   2.072   5.124
 8753SOL    HW127158   5.243   2.150   5.100
 8753SOL    HW227159   5.243   1.997   5.158
 8754SOL     OW27160   1.438   0.973   5.312
 8754SOL    HW127161   1.446   0.910   5.235
 8754SOL    HW227162   1.504   1.047   5.302
 8755SOL     OW27163   2.081   2.637   0.752
 8755SOL    HW127164   2.083   2.734   0.729
 8755SOL    HW227165   2.061   2.627   0.850
 8756SOL     OW27166   3.309   4.932   5.022
 8756SOL    HW127167   3.311   4.856   5.087
 8756SOL    HW227168   3.309   5.019   5.072
 8757SOL     OW27169   3.088   5.529   3.294
 8757SOL    HW127170   3.137   5.455   3.338
 8757SOL    HW227171   3.130   5.549   3.205
 8758SOL     OW27172   4.941   6.669   2.270
 8758SOL    HW127173   4.991   6.755   2.260
 8758SOL    HW227174   4.995   6.606   2.326
 8759SOL     OW27175   5.250   0.115   5.789
 8759SOL    HW127176   5.345   0.139   5.768
 8759SOL    HW227177   5.189   0.178   5.741
 8760SOL     OW27178   1.623   2.681   3.422
 8760SOL    HW127179   1.537   2.680   3.473
 8760SOL    HW227180   1.652   2.588   3.401
 8761SOL     OW27181   5.013   5.936   1.518
 8761SOL    HW127182   4.972   5.846   1.525
 8761SOL    HW227183   5.113   5.928   1.529
 8762SOL     OW27184   1.805   5.177   1.715
 8762SOL    HW127185   1.846   5.187   1.806
 8762SOL    HW227186   1.878   5.180   1.646
 8763SOL     OW27187   0.045   5.826   0.034
 8763SOL    HW127188   7.011   5.802   6.984
 8763SOL    HW227189   0.132   5.859   7.025
 8764SOL     OW27190   2.638   2.347   6.508
 8764SOL    HW127191   2.649   2.441   6.477
 8764SOL    HW227192   2.653   2.343   6.607
 8765SOL     OW27193   5.610   0.414   4.822
 8765SOL    HW127194   5.665   0.495   4.804
 8765SOL    HW227195   5.658   0.355   4.888
 8766SOL     OW27196   2.411   4.447   2.916
 8766SOL    HW127197   2.507   4.477   2.914
 8766SOL    HW227198   2.375   4.459   3.009
 8767SOL     OW27199   3.934   0.798   5.342
 8767SOL    HW127200   3.973   0.885   5.314
 8767SOL    HW227201   3.939   0.789   5.441
 8768SOL     OW27202   1.268   4.229   0.967
 8768SOL    HW127203   1.345   4.166   0.965
 8768SOL    HW227204   1.184   4.179   0.985
 8769SOL     OW27205   1.749   0.424   6.614
 8769SOL    HW127206   1.796   0.513   6.617
 8769SOL    HW227207   1.771   0.372   6.696
 8770SOL     OW27208   6.039   2.008   3.215
 8770SOL    HW127209   6.063   2.005   3.118
 8770SOL    HW227210   5.940   2.018   3.225
 8771SOL     OW27211   3.068   3.140   4.761
 8771SOL    HW127212   3.051   3.153   4.664
 8771SOL    HW227213   3.138   3.070   4.774
 8772SOL     OW27214   0.233   0.176   6.798
 8772SOL    HW127215   0.153   0.163   6.856
 8772SOL    HW227216   0.308   0.216   6.851
 8773SOL     OW27217   3.071   1.831   3.379
 8773SOL    HW127218   3.108   1.768   3.447
 8773SOL    HW227219   2.973   1.813   3.367
 8774SOL     OW27220   1.348   1.243   0.537
 8774SOL    HW127221   1.409   1.208   0.609
 8774SOL    HW227222   1.389   1.324   0.495
 8775SOL     OW27223   6.054   6.356   4.216
 8775SOL    HW127224   6.004   6.315   4.291
 8775SOL    HW227225   6.083   6.285   4.151
 8776SOL     OW27226   3.397   3.340   5.940
 8776SOL    HW127227   3.431   3.402   5.869
 8776SOL    HW227228   3.474   3.306   5.995
 8777SOL     OW27229   6.186   5.591   3.002
 8777SOL    HW127230   6.231   5.549   3.081
 8777SOL    HW227231   6.192   5.691   3.009
 8778SOL     OW27232   0.931   3.035   2.858
 8778SOL    HW127233   0.846   3.056   2.907
 8778SOL    HW227234   0.916   2.955   2.799
 8779SOL     OW27235   1.899   4.519   0.902
 8779SOL    HW127236   1.970   4.470   0.852
 8779SOL    HW227237   1.809   4.485   0.875
 8780SOL     OW27238   2.113   6.213   5.325
 8780SOL    HW127239   2.167   6.133   5.354
 8780SOL    HW227240   2.021   6.183   5.302
 8781SOL     OW27241   0.754   3.121   2.655
 8781SOL    HW127242   0.659   3.137   2.628
 8781SOL    HW227243   0.791   3.045   2.603
 8782SOL     OW27244   5.643   0.958   4.260
 8782SOL    HW127245   5.644   0.969   4.160
 8782SOL    HW227246   5.734   0.977   4.297
 8783SOL     OW27247   5.995   2.430   6.270
 8783SOL    HW127248   5.939   2.492   6.215
 8783SOL    HW227249   6.086   2.422   6.230
 8784SOL     OW27250   5.075   3.889   6.507
 8784SOL    HW127251   5.107   3.946   6.432
 8784SOL    HW227252   5.102   3.794   6.492
 8785SOL     OW27253   5.266   4.018   6.191
 8785SOL    HW127254   5.327   3.980   6.261
 8785SOL    HW227255   5.289   3.979   6.102
 8786SOL     OW27256   2.108   5.619   6.581
 8786SOL    HW127257   2.090   5.573   6.494
 8786SOL    HW227258   2.029   5.673   6.608
 8787SOL     OW27259   0.970   2.084   6.609
 8787SOL    HW127260   1.066   2.072   6.583
 8787SOL    HW227261   0.938   2.002   6.657
 8788SOL     OW27262   1.490   1.594   5.167
 8788SOL    HW127263   1.533   1.504   5.171
 8788SOL    HW227264   1.455   1.618   5.257
 8789SOL     OW27265   6.767   1.566   0.232
 8789SOL    HW127266   6.671   1.583   0.209
 8789SOL    HW227267   6.785   1.594   0.326
 8790SOL     OW27268   4.187   1.143   0.073
 8790SOL    HW127269   4.245   1.089   0.013
 8790SOL    HW227270   4.099   1.096   0.087
 8791SOL     OW27271   6.216   6.359   5.886
 8791SOL    HW127272   6.229   6.332   5.790
 8791SOL    HW227273   6.303   6.347   5.935
 8792SOL     OW27274   5.727   6.595   2.418
 8792SOL    HW127275   5.778   6.525   2.466
 8792SOL    HW227276   5.734   6.580   2.319
 8793SOL     OW27277   1.089   5.397   2.756
 8793SOL    HW127278   1.157   5.459   2.796
 8793SOL    HW227279   1.117   5.373   2.663
 8794SOL     OW27280   2.539   6.724   2.007
 8794SOL    HW127281   2.582   6.654   2.063
 8794SOL    HW227282   2.460   6.762   2.055
 8795SOL     OW27283   3.257   6.977   4.363
 8795SOL    HW127284   3.327   0.022   4.352
 8795SOL    HW227285   3.171   7.009   4.324
 8796SOL     OW27286   3.846   1.680   4.544
 8796SOL    HW127287   3.909   1.752   4.573
 8796SOL    HW227288   3.896   1.609   4.495
 8797SOL     OW27289   6.733   5.448   0.091
 8797SOL    HW127290   6.697   5.357   0.068
 8797SOL    HW227291   6.723   5.508   0.012
 8798SOL     OW27292   3.684   3.592   5.485
 8798SOL    HW127293   3.719   3.533   5.412
 8798SOL    HW227294   3.713   3.686   5.469
 8799SOL     OW27295   4.164   0.903   2.144
 8799SOL    HW127296   4.142   0.990   2.099
 8799SOL    HW227297   4.193   0.837   2.076
 8800SOL     OW27298   4.140   3.615   0.875
 8800SOL    HW127299   4.163   3.673   0.953
 8800SOL    HW227300   4.224   3.572   0.840
 8801SOL     OW27301   3.077   6.969   5.540
 8801SOL    HW127302   3.160   6.937   5.586
 8801SOL    HW227303   3.101   7.013   5.453
 8802SOL     OW27304   1.384   6.658   1.024
 8802SOL    HW127305   1.353   6.752   1.016
 8802SOL    HW227306   1.471   6.655   1.073
 8803SOL     OW27307   3.589   5.648   2.259
 8803SOL    HW127308   3.662   5.639   2.192
 8803SOL    HW227309   3.617   5.603   2.344
 8804SOL     OW27310   3.239   0.778   1.440
 8804SOL    HW127311   3.306   0.786   1.366
 8804SOL    HW227312   3.230   0.681   1.466
 8805SOL     OW27313   6.805   0.665   3.843
 8805SOL    HW127314   6.778   0.735   3.777
 8805SOL    HW227315   6.855   0.708   3.919
 8806SOL     OW27316   1.992   4.870   6.631
 8806SOL    HW127317   2.072   4.811   6.621
 8806SOL    HW227318   2.009   4.939   6.701
 8807SOL     OW27319   1.493   5.325   6.211
 8807SOL    HW127320   1.426   5.284   6.150
 8807SOL    HW227321   1.584   5.320   6.169
 8808SOL     OW27322   5.760   2.231   1.251
 8808SOL    HW127323   5.826   2.210   1.179
 8808SOL    HW227324   5.758   2.329   1.267
 8809SOL     OW27325   5.938   4.243   6.880
 8809SOL    HW127326   5.856   4.234   6.936
 8809SOL    HW227327   6.015   4.269   6.938
 8810SOL     OW27328   5.597   1.788   4.290
 8810SOL    HW127329   5.505   1.773   4.325
 8810SOL    HW227330   5.646   1.701   4.285
 8811SOL     OW27331   0.620   0.954   3.391
 8811SOL    HW127332   0.569   0.896   3.327
 8811SOL    HW227333   0.612   0.916   3.483
 8812SOL     OW27334   2.208   0.777   0.510
 8812SOL    HW127335   2.298   0.808   0.541
 8812SOL    HW227336   2.212   0.680   0.485
 8813SOL     OW27337   0.580   5.501   1.100
 8813SOL    HW127338   0.589   5.601   1.091
 8813SOL    HW227339   0.494   5.480   1.145
 8814SOL     OW27340   6.065   6.885   6.117
 8814SOL    HW127341   6.158   6.917   6.101
 8814SOL    HW227342   6.061   6.833   6.202
 8815SOL     OW27343   6.165   4.822   3.207
 8815SOL    HW127344   6.215   4.763   3.143
 8815SOL    HW227345   6.227   4.850   3.280
 8816SOL     OW27346   0.547   5.776   2.334
 8816SOL    HW127347   0.502   5.811   2.252
 8816SOL    HW227348   0.528   5.678   2.343
 8817SOL     OW27349   1.834   4.135   4.999
 8817SOL    HW127350   1.929   4.168   5.000
 8817SOL    HW227351   1.828   4.053   5.056
 8818SOL     OW27352   7.020   4.900   5.222
 8818SOL    HW127353   6.951   4.858   5.281
 8818SOL    HW227354   6.979   4.972   5.168
 8819SOL     OW27355   0.496   1.562   4.299
 8819SOL    HW127356   0.591   1.588   4.316
 8819SOL    HW227357   0.447   1.557   4.386
 8820SOL     OW27358   1.434   2.353   3.303
 8820SOL    HW127359   1.472   2.273   3.258
 8820SOL    HW227360   1.506   2.402   3.352
 8821SOL     OW27361   1.302   6.143   0.063
 8821SOL    HW127362   1.305   6.217   0.130
 8821SOL    HW227363   1.360   6.166   7.011
 8822SOL     OW27364   1.460   2.053   3.635
 8822SOL    HW127365   1.399   2.077   3.560
 8822SOL    HW227366   1.555   2.063   3.604
 8823SOL     OW27367   2.698   5.491   0.370
 8823SOL    HW127368   2.642   5.573   0.359
 8823SOL    HW227369   2.788   5.516   0.406
 8824SOL     OW27370   4.976   4.403   1.645
 8824SOL    HW127371   5.043   4.397   1.719
 8824SOL    HW227372   4.970   4.315   1.598
 8825SOL     OW27373   2.334   2.058   6.756
 8825SOL    HW127374   2.264   2.010   6.808
 8825SOL    HW227375   2.423   2.014   6.771
 8826SOL     OW27376   5.628   0.155   1.175
 8826SOL    HW127377   5.560   0.209   1.225
 8826SOL    HW227378   5.665   0.084   1.235
 8827SOL     OW27379   6.852   1.297   4.205
 8827SOL    HW127380   6.936   1.269   4.253
 8827SOL    HW227381   6.802   1.363   4.262
 8828SOL     OW27382   1.313   5.533   2.839
 8828SOL    HW127383   1.387   5.573   2.785
 8828SOL    HW227384   1.266   5.606   2.889
 8829SOL     OW27385   0.011   0.871   1.308
 8829SOL    HW127386   0.109   0.886   1.290
 8829SOL    HW227387   7.026   0.784   1.355
 8830SOL     OW27388   1.329   1.565   1.273
 8830SOL    HW127389   1.253   1.504   1.251
 8830SOL    HW227390   1.317   1.652   1.225
 8831SOL     OW27391   0.049   6.989   1.017
 8831SOL    HW127392   6.986   7.024   0.989
 8831SOL    HW227393   0.044   6.890   1.028
 8832SOL     OW27394   6.267   0.883   1.512
 8832SOL    HW127395   6.206   0.962   1.523
 8832SOL    HW227396   6.335   0.903   1.441
 8833SOL     OW27397   6.836   5.350   1.043
 8833SOL    HW127398   6.739   5.371   1.052
 8833SOL    HW227399   6.858   5.269   1.097
 8834SOL     OW27400   6.600   4.539   4.827
 8834SOL    HW127401   6.503   4.530   4.803
 8834SOL    HW227402   6.651   4.570   4.746
 8835SOL     OW27403   1.139   1.864   0.666
 8835SOL    HW127404   1.124   1.779   0.614
 8835SOL    HW227405   1.061   1.925   0.654
 8836SOL     OW27406   5.005   2.367   1.351
 8836SOL    HW127407   5.080   2.372   1.416
 8836SOL    HW227408   5.031   2.412   1.266
 8837SOL     OW27409   0.700   2.742   2.208
 8837SOL    HW127410   0.634   2.705   2.273
 8837SOL    HW227411   0.680   2.838   2.190
 8838SOL     OW27412   1.859   6.448   3.103
 8838SOL    HW127413   1.804   6.365   3.110
 8838SOL    HW227414   1.799   6.527   3.090
 8839SOL     OW27415   5.688   5.201   5.105
 8839SOL    HW127416   5.617   5.149   5.059
 8839SOL    HW227417   5.653   5.236   5.192
 8840SOL     OW27418   4.394   0.495   2.173
 8840SOL    HW127419   4.429   0.562   2.108
 8840SOL    HW227420   4.395   0.534   2.265
 8841SOL     OW27421   4.332   0.110   3.001
 8841SOL    HW127422   4.378   0.033   2.956
 8841SOL    HW227423   4.310   0.085   3.095
 8842SOL     OW27424   1.591   1.519   2.167
 8842SOL    HW127425   1.561   1.468   2.087
 8842SOL    HW227426   1.514   1.534   2.229
 8843SOL     OW27427   0.351   2.903   3.807
 8843SOL    HW127428   0.397   2.843   3.742
 8843SOL    HW227429   0.390   2.890   3.898
 8844SOL     OW27430   5.802   1.790   6.910
 8844SOL    HW127431   5.801   1.880   6.867
 8844SOL    HW227432   5.845   1.724   6.847
 8845SOL     OW27433   5.526   2.903   0.177
 8845SOL    HW127434   5.526   3.003   0.186
 8845SOL    HW227435   5.532   2.862   0.268
 8846SOL     OW27436   3.239   5.251   4.439
 8846SOL    HW127437   3.327   5.287   4.469
 8846SOL    HW227438   3.227   5.158   4.472
 8847SOL     OW27439   1.887   2.030   3.649
 8847SOL    HW127440   1.889   2.009   3.747
 8847SOL    HW227441   1.971   2.078   3.624
 8848SOL     OW27442   0.265   1.383   4.085
 8848SOL    HW127443   0.224   1.300   4.122
 8848SOL    HW227444   0.199   1.457   4.088
 8849SOL     OW27445   2.919   6.656   1.722
 8849SOL    HW127446   2.963   6.602   1.650
 8849SOL    HW227447   2.826   6.622   1.736
 8850SOL     OW27448   3.487   1.703   0.229
 8850SOL    HW127449   3.533   1.777   0.278
 8850SOL    HW227450   3.461   1.632   0.294
 8851SOL     OW27451   2.224   3.786   1.167
 8851SOL    HW127452   2.223   3.751   1.261
 8851SOL    HW227453   2.296   3.740   1.116
 8852SOL     OW27454   1.193   2.903   4.910
 8852SOL    HW127455   1.150   2.878   4.824
 8852SOL    HW227456   1.144   2.860   4.986
 8853SOL     OW27457   5.281   0.214   2.139
 8853SOL    HW127458   5.269   0.211   2.239
 8853SOL    HW227459   5.192   0.223   2.095
 8854SOL     OW27460   0.055   3.209   4.828
 8854SOL    HW127461   7.014   3.162   4.885
 8854SOL    HW227462   0.041   3.308   4.833
 8855SOL     OW27463   5.188   4.813   1.208
 8855SOL    HW127464   5.220   4.842   1.118
 8855SOL    HW227465   5.194   4.890   1.272
 8856SOL     OW27466   6.456   0.767   5.244
 8856SOL    HW127467   6.423   0.677   5.217
 8856SOL    HW227468   6.397   0.804   5.316
 8857SOL     OW27469   6.773   2.331   0.093
 8857SOL    HW127470   6.839   2.256   0.087
 8857SOL    HW227471   6.681   2.296   0.072
 8858SOL     OW27472   0.719   5.071   5.510
 8858SOL    HW127473   0.758   4.986   5.476
 8858SOL    HW227474   0.619   5.064   5.510
 8859SOL     OW27475   0.322   5.809   3.261
 8859SOL    HW127476   0.354   5.785   3.170
 8859SOL    HW227477   0.222   5.802   3.264
 8860SOL     OW27478   0.184   2.577   3.440
 8860SOL    HW127479   0.250   2.550   3.369
 8860SOL    HW227480   0.233   2.612   3.519
 8861SOL     OW27481   3.524   2.760   0.857
 8861SOL    HW127482   3.430   2.783   0.878
 8861SOL    HW227483   3.541   2.664   0.881
 8862SOL     OW27484   4.616   4.769   4.714
 8862SOL    HW127485   4.606   4.830   4.635
 8862SOL    HW227486   4.653   4.820   4.791
 8863SOL     OW27487   1.830   3.757   1.793
 8863SOL    HW127488   1.854   3.799   1.881
 8863SOL    HW227489   1.881   3.671   1.782
 8864SOL     OW27490   6.938   2.150   4.944
 8864SOL    HW127491   6.945   2.145   5.043
 8864SOL    HW227492   6.845   2.126   4.916
 8865SOL     OW27493   2.438   1.538   0.629
 8865SOL    HW127494   2.366   1.535   0.698
 8865SOL    HW227495   2.491   1.452   0.632
 8866SOL     OW27496   6.097   1.118   1.998
 8866SOL    HW127497   6.073   1.181   2.071
 8866SOL    HW227498   6.017   1.065   1.972
 8867SOL     OW27499   5.670   2.253   4.187
 8867SOL    HW127500   5.726   2.264   4.105
 8867SOL    HW227501   5.605   2.178   4.173
 8868SOL     OW27502   0.703   2.687   3.854
 8868SOL    HW127503   0.683   2.593   3.830
 8868SOL    HW227504   0.780   2.720   3.799
 8869SOL     OW27505   3.733   0.397   3.204
 8869SOL    HW127506   3.721   0.302   3.232
 8869SOL    HW227507   3.827   0.427   3.224
 8870SOL     OW27508   0.833   0.906   1.475
 8870SOL    HW127509   0.875   0.911   1.384
 8870SOL    HW227510   0.750   0.851   1.470
 8871SOL     OW27511   6.638   6.785   6.968
 8871SOL    HW127512   6.666   6.844   0.017
 8871SOL    HW227513   6.714   6.726   6.941
 8872SOL     OW27514   6.547   5.452   3.472
 8872SOL    HW127515   6.500   5.438   3.559
 8872SOL    HW227516   6.597   5.370   3.447
 8873SOL     OW27517   1.585   1.692   3.230
 8873SOL    HW127518   1.552   1.744   3.308
 8873SOL    HW227519   1.579   1.594   3.250
 8874SOL     OW27520   2.510   6.388   0.849
 8874SOL    HW127521   2.425   6.336   0.841
 8874SOL    HW227522   2.588   6.326   0.842
 8875SOL     OW27523   6.734   2.827   4.324
 8875SOL    HW127524   6.635   2.830   4.318
 8875SOL    HW227525   6.773   2.822   4.232
 8876SOL     OW27526   4.968   0.170   0.791
 8876SOL    HW127527   4.888   0.216   0.752
 8876SOL    HW227528   5.022   0.129   0.718
 8877SOL     OW27529   1.193   4.424   1.961
 8877SOL    HW127530   1.178   4.341   1.907
 8877SOL    HW227531   1.220   4.498   1.899
 8878SOL     OW27532   4.841   3.932   2.304
 8878SOL    HW127533   4.868   3.837   2.314
 8878SOL    HW227534   4.920   3.987   2.276
 8879SOL     OW27535   6.488   4.723   3.615
 8879SOL    HW127536   6.581   4.711   3.581
 8879SOL    HW227537   6.490   4.733   3.715
 8880SOL     OW27538   4.110   1.666   2.874
 8880SOL    HW127539   4.051   1.649   2.953
 8880SOL    HW227540   4.063   1.727   2.810
 8881SOL     OW27541   3.900   6.389   2.724
 8881SOL    HW127542   3.893   6.290   2.710
 8881SOL    HW227543   3.861   6.413   2.813
 8882SOL     OW27544   3.999   0.942   0.053
 8882SOL    HW127545   3.912   0.921   0.098
 8882SOL    HW227546   3.983   1.007   7.005
 8883SOL     OW27547   0.397   6.718   3.081
 8883SOL    HW127548   0.478   6.754   3.035
 8883SOL    HW227549   0.323   6.784   3.074
 8884SOL     OW27550   4.336   1.755   5.936
 8884SOL    HW127551   4.239   1.764   5.960
 8884SOL    HW227552   4.351   1.668   5.889
 8885SOL     OW27553   5.002   5.353   0.658
 8885SOL    HW127554   5.036   5.339   0.565
 8885SOL    HW227555   4.994   5.265   0.705
 8886SOL     OW27556   4.317   6.965   0.959
 8886SOL    HW127557   4.297   6.966   0.861
 8886SOL    HW227558   4.335   6.872   0.989
 8887SOL     OW27559   4.248   0.759   2.643
 8887SOL    HW127560   4.302   0.818   2.704
 8887SOL    HW227561   4.217   0.812   2.564
 8888SOL     OW27562   3.955   1.729   2.049
 8888SOL    HW127563   3.898   1.665   1.998
 8888SOL    HW227564   3.906   1.816   2.058
 8889SOL     OW27565   1.647   4.288   6.929
 8889SOL    HW127566   1.723   4.224   6.923
 8889SOL    HW227567   1.663   4.365   6.867
 8890SOL     OW27568   2.199   5.848   0.096
 8890SOL    HW127569   2.104   5.861   0.123
 8890SOL    HW227570   2.218   5.901   0.014
 8891SOL     OW27571   5.609   3.802   5.465
 8891SOL    HW127572   5.687   3.786   5.525
 8891SOL    HW227573   5.535   3.844   5.518
 8892SOL     OW27574   2.647   5.117   5.805
 8892SOL    HW127575   2.704   5.046   5.763
 8892SOL    HW227576   2.672   5.127   5.901
 8893SOL     OW27577   0.842   4.558   5.241
 8893SOL    HW127578   0.761   4.502   5.258
 8893SOL    HW227579   0.918   4.522   5.294
 8894SOL     OW27580   5.967   2.393   1.756
 8894SOL    HW127581   5.885   2.348   1.793
 8894SOL    HW227582   6.031   2.412   1.831
 8895SOL     OW27583   0.603   3.216   2.363
 8895SOL    HW127584   0.535   3.218   2.290
 8895SOL    HW227585   0.603   3.303   2.412
 8896SOL     OW27586   0.674   0.499   3.841
 8896SOL    HW127587   0.624   0.486   3.927
 8896SOL    HW227588   0.611   0.489   3.764
 8897SOL     OW27589   1.481   4.499   4.196
 8897SOL    HW127590   1.455   4.417   4.246
 8897SOL    HW227591   1.575   4.488   4.162
 8898SOL     OW27592   6.278   5.206   2.264
 8898SOL    HW127593   6.248   5.217   2.169
 8898SOL    HW227594   6.198   5.207   2.324
 8899SOL     OW27595   1.927   4.620   2.430
 8899SOL    HW127596   1.993   4.689   2.459
 8899SOL    HW227597   1.973   4.532   2.419
 8900SOL     OW27598   4.473   1.722   4.987
 8900SOL    HW127599   4.512   1.796   4.933
 8900SOL    HW227600   4.470   1.639   4.933
 8901SOL     OW27601   0.830   5.402   5.982
 8901SOL    HW127602   0.816   5.303   5.980
 8901SOL    HW227603   0.927   5.422   5.978
 8902SOL     OW27604   1.130   3.971   6.509
 8902SOL    HW127605   1.150   3.878   6.478
 8902SOL    HW227606   1.214   4.025   6.509
 8903SOL     OW27607   0.545   1.418   4.007
 8903SOL    HW127608   0.603   1.386   4.081
 8903SOL    HW227609   0.453   1.434   4.041
 8904SOL     OW27610   5.822   0.893   2.218
 8904SOL    HW127611   5.736   0.944   2.213
 8904SOL    HW227612   5.887   0.945   2.273
 8905SOL     OW27613   1.499   5.024   1.107
 8905SOL    HW127614   1.566   5.098   1.113
 8905SOL    HW227615   1.512   4.974   1.022
 8906SOL     OW27616   6.633   1.418   6.281
 8906SOL    HW127617   6.694   1.360   6.227
 8906SOL    HW227618   6.586   1.483   6.220
 8907SOL     OW27619   2.872   2.917   5.395
 8907SOL    HW127620   2.817   2.973   5.334
 8907SOL    HW227621   2.812   2.859   5.451
 8908SOL     OW27622   2.101   6.450   5.443
 8908SOL    HW127623   2.100   6.374   5.378
 8908SOL    HW227624   2.042   6.427   5.521
 8909SOL     OW27625   2.461   6.182   1.862
 8909SOL    HW127626   2.503   6.253   1.918
 8909SOL    HW227627   2.370   6.159   1.898
 8910SOL     OW27628   1.168   0.776   3.905
 8910SOL    HW127629   1.096   0.719   3.944
 8910SOL    HW227630   1.229   0.719   3.850
 8911SOL     OW27631   5.005   2.634   4.404
 8911SOL    HW127632   4.950   2.715   4.380
 8911SOL    HW227633   5.102   2.660   4.406
 8912SOL     OW27634   3.789   3.668   3.273
 8912SOL    HW127635   3.885   3.690   3.253
 8912SOL    HW227636   3.743   3.750   3.309
 8913SOL     OW27637   4.977   5.698   0.407
 8913SOL    HW127638   4.980   5.657   0.498
 8913SOL    HW227639   4.901   5.657   0.355
 8914SOL     OW27640   5.340   4.550   4.914
 8914SOL    HW127641   5.395   4.609   4.972
 8914SOL    HW227642   5.363   4.454   4.931
 8915SOL     OW27643   2.831   1.655   2.975
 8915SOL    HW127644   2.880   1.582   3.022
 8915SOL    HW227645   2.769   1.701   3.039
 8916SOL     OW27646   6.590   6.813   2.386
 8916SOL    HW127647   6.580   6.762   2.300
 8916SOL    HW227648   6.499   6.833   2.424
 8917SOL     OW27649   5.541   2.789   6.961
 8917SOL    HW127650   5.542   2.842   0.019
 8917SOL    HW227651   5.448   2.786   6.924
 8918SOL     OW27652   1.702   3.184   2.843
 8918SOL    HW127653   1.628   3.230   2.794
 8918SOL    HW227654   1.770   3.252   2.872
 8919SOL     OW27655   0.185   2.124   3.297
 8919SOL    HW127656   0.267   2.180   3.311
 8919SOL    HW227657   0.114   2.152   3.363
 8920SOL     OW27658   1.477   1.592   0.187
 8920SOL    HW127659   1.417   1.630   0.117
 8920SOL    HW227660   1.557   1.551   0.144
 8921SOL     OW27661   1.704   1.760   2.043
 8921SOL    HW127662   1.682   1.816   2.123
 8921SOL    HW227663   1.680   1.665   2.061
 8922SOL     OW27664   3.578   5.551   3.639
 8922SOL    HW127665   3.642   5.617   3.600
 8922SOL    HW227666   3.484   5.581   3.621
 8923SOL     OW27667   2.658   2.375   3.922
 8923SOL    HW127668   2.646   2.355   4.019
 8923SOL    HW227669   2.570   2.398   3.881
 8924SOL     OW27670   6.473   5.011   4.729
 8924SOL    HW127671   6.409   5.002   4.652
 8924SOL    HW227672   6.487   4.922   4.771
 8925SOL     OW27673   0.729   6.136   3.990
 8925SOL    HW127674   0.651   6.154   4.049
 8925SOL    HW227675   0.814   6.148   4.042
 8926SOL     OW27676   5.845   2.461   6.750
 8926SOL    HW127677   5.904   2.436   6.673
 8926SOL    HW227678   5.877   2.547   6.789
 8927SOL     OW27679   1.344   1.140   6.389
 8927SOL    HW127680   1.287   1.127   6.308
 8927SOL    HW227681   1.321   1.227   6.432
 8928SOL     OW27682   6.791   6.623   5.068
 8928SOL    HW127683   6.692   6.609   5.069
 8928SOL    HW227684   6.812   6.720   5.077
 8929SOL     OW27685   0.458   1.292   3.675
 8929SOL    HW127686   0.374   1.282   3.729
 8929SOL    HW227687   0.538   1.286   3.735
 8930SOL     OW27688   2.543   5.423   2.189
 8930SOL    HW127689   2.589   5.336   2.208
 8930SOL    HW227690   2.448   5.418   2.220
 8931SOL     OW27691   4.965   3.793   6.896
 8931SOL    HW127692   5.044   3.790   6.957
 8931SOL    HW227693   4.983   3.857   6.822
 8932SOL     OW27694   0.686   3.016   2.156
 8932SOL    HW127695   0.617   3.044   2.090
 8932SOL    HW227696   0.678   3.072   2.238
 8933SOL     OW27697   5.182   2.590   5.604
 8933SOL    HW127698   5.112   2.533   5.561
 8933SOL    HW227699   5.192   2.676   5.553
 8934SOL     OW27700   2.604   5.845   2.457
 8934SOL    HW127701   2.665   5.914   2.498
 8934SOL    HW227702   2.592   5.866   2.360
 8935SOL     OW27703   0.090   5.798   6.685
 8935SOL    HW127704   0.015   5.733   6.687
 8935SOL    HW227705   0.133   5.796   6.594
 8936SOL     OW27706   4.559   3.458   0.039
 8936SOL    HW127707   4.591   3.552   0.026
 8936SOL    HW227708   4.520   3.449   0.130
 8937SOL     OW27709   0.189   1.869   6.574
 8937SOL    HW127710   0.245   1.821   6.506
 8937SOL    HW227711   0.215   1.966   6.576
 8938SOL     OW27712   4.986   4.912   1.861
 8938SOL    HW127713   5.083   4.924   1.880
 8938SOL    HW227714   4.965   4.949   1.771
 8939SOL     OW27715   6.229   1.740   4.457
 8939SOL    HW127716   6.240   1.830   4.415
 8939SOL    HW227717   6.147   1.740   4.514
 8940SOL     OW27718   5.425   6.714   1.755
 8940SOL    HW127719   5.411   6.752   1.664
 8940SOL    HW227720   5.357   6.643   1.772
 8941SOL     OW27721   4.132   1.726   0.342
 8941SOL    HW127722   4.176   1.800   0.290
 8941SOL    HW227723   4.039   1.712   0.307
 8942SOL     OW27724   0.942   1.859   5.659
 8942SOL    HW127725   0.993   1.945   5.664
 8942SOL    HW227726   0.941   1.825   5.565
 8943SOL     OW27727   4.806   3.135   0.292
 8943SOL    HW127728   4.721   3.137   0.239
 8943SOL    HW227729   4.835   3.040   0.305
 8944SOL     OW27730   4.610   5.224   0.870
 8944SOL    HW127731   4.614   5.146   0.807
 8944SOL    HW227732   4.655   5.200   0.956
 8945SOL     OW27733   2.161   0.657   3.631
 8945SOL    HW127734   2.153   0.643   3.730
 8945SOL    HW227735   2.073   0.637   3.588
 8946SOL     OW27736   3.784   0.128   5.633
 8946SOL    HW127737   3.745   0.077   5.556
 8946SOL    HW227738   3.765   0.225   5.621
 8947SOL     OW27739   3.181   3.515   5.692
 8947SOL    HW127740   3.280   3.524   5.701
 8947SOL    HW227741   3.140   3.606   5.687
 8948SOL     OW27742   5.257   5.467   3.825
 8948SOL    HW127743   5.229   5.395   3.762
 8948SOL    HW227744   5.351   5.450   3.854
 8949SOL     OW27745   1.746   5.553   6.255
 8949SOL    HW127746   1.740   5.643   6.212
 8949SOL    HW227747   1.752   5.483   6.184
 8950SOL     OW27748   5.314   2.439   5.239
 8950SOL    HW127749   5.273   2.358   5.281
 8950SOL    HW227750   5.242   2.499   5.205
 8951SOL     OW27751   2.743   1.082   5.397
 8951SOL    HW127752   2.749   1.151   5.325
 8951SOL    HW227753   2.749   0.990   5.357
 8952SOL     OW27754   5.200   6.696   3.264
 8952SOL    HW127755   5.206   6.768   3.333
 8952SOL    HW227756   5.105   6.682   3.239
 8953SOL     OW27757   1.466   5.370   6.540
 8953SOL    HW127758   1.534   5.443   6.535
 8953SOL    HW227759   1.500   5.289   6.492
 8954SOL     OW27760   2.464   6.641   6.037
 8954SOL    HW127761   2.558   6.609   6.051
 8954SOL    HW227762   2.406   6.607   6.112
 8955SOL     OW27763   0.244   3.250   4.023
 8955SOL    HW127764   0.261   3.219   4.116
 8955SOL    HW227765   0.186   3.331   4.024
 8956SOL     OW27766   1.841   0.564   3.803
 8956SOL    HW127767   1.835   0.630   3.878
 8956SOL    HW227768   1.801   0.477   3.832
 8957SOL     OW27769   3.076   5.768   1.843
 8957SOL    HW127770   3.134   5.779   1.923
 8957SOL    HW227771   3.123   5.804   1.762
 8958SOL     OW27772   2.770   0.540   4.552
 8958SOL    HW127773   2.791   0.476   4.478
 8958SOL    HW227774   2.825   0.518   4.632
 8959SOL     OW27775   3.206   5.700   6.768
 8959SOL    HW127776   3.174   5.607   6.784
 8959SOL    HW227777   3.306   5.702   6.766
 8960SOL     OW27778   4.374   5.741   0.963
 8960SOL    HW127779   4.439   5.752   0.888
 8960SOL    HW227780   4.281   5.736   0.927
 8961SOL     OW27781   0.357   2.956   4.709
 8961SOL    HW127782   0.382   2.864   4.679
 8961SOL    HW227783   0.430   3.020   4.687
 8962SOL     OW27784   4.363   0.735   3.791
 8962SOL    HW127785   4.440   0.768   3.737
 8962SOL    HW227786   4.295   0.695   3.730
 8963SOL     OW27787   0.975   0.415   4.521
 8963SOL    HW127788   0.953   0.507   4.555
 8963SOL    HW227789   1.030   0.423   4.438
 8964SOL     OW27790   0.873   2.248   3.521
 8964SOL    HW127791   0.844   2.228   3.427
 8964SOL    HW227792   0.972   2.265   3.523
 8965SOL     OW27793   1.529   4.711   1.407
 8965SOL    HW127794   1.462   4.764   1.458
 8965SOL    HW227795   1.486   4.627   1.373
 8966SOL     OW27796   3.506   2.127   4.686
 8966SOL    HW127797   3.452   2.125   4.771
 8966SOL    HW227798   3.591   2.077   4.701
 8967SOL     OW27799   5.094   6.907   0.444
 8967SOL    HW127800   5.110   6.848   0.365
 8967SOL    HW227801   5.168   6.894   0.511
 8968SOL     OW27802   6.459   4.318   3.562
 8968SOL    HW127803   6.426   4.393   3.504
 8968SOL    HW227804   6.533   4.351   3.621
 8969SOL     OW27805   6.478   0.263   3.889
 8969SOL    HW127806   6.566   0.283   3.933
 8969SOL    HW227807   6.464   0.164   3.888
 8970SOL     OW27808   3.112   2.937   1.507
 8970SOL    HW127809   3.123   2.838   1.509
 8970SOL    HW227810   3.193   2.979   1.466
 8971SOL     OW27811   3.195   6.693   2.577
 8971SOL    HW127812   3.146   6.618   2.533
 8971SOL    HW227813   3.272   6.722   2.520
 8972SOL     OW27814   5.523   0.226   5.727
 8972SOL    HW127815   5.559   0.161   5.793
 8972SOL    HW227816   5.581   0.227   5.645
 8973SOL     OW27817   1.646   4.553   6.800
 8973SOL    HW127818   1.576   4.599   6.855
 8973SOL    HW227819   1.641   4.587   6.706
 8974SOL     OW27820   1.054   2.917   4.071
 8974SOL    HW127821   0.956   2.899   4.079
 8974SOL    HW227822   1.093   2.856   4.002
 8975SOL     OW27823   3.766   0.737   6.512
 8975SOL    HW127824   3.699   0.668   6.482
 8975SOL    HW227825   3.782   0.803   6.439
 8976SOL     OW27826   1.577   5.888   4.228
 8976SOL    HW127827   1.646   5.854   4.163
 8976SOL    HW227828   1.497   5.919   4.177
 8977SOL     OW27829   5.906   2.217   0.243
 8977SOL    HW127830   5.877   2.242   0.335
 8977SOL    HW227831   5.848   2.142   0.209
 8978SOL     OW27832   5.557   4.201   2.560
 8978SOL    HW127833   5.640   4.189   2.506
 8978SOL    HW227834   5.478   4.205   2.500
 8979SOL     OW27835   0.837   4.776   5.067
 8979SOL    HW127836   0.853   4.695   5.124
 8979SOL    HW227837   0.766   4.832   5.108
 8980SOL     OW27838   3.204   3.006   3.693
 8980SOL    HW127839   3.286   2.977   3.644
 8980SOL    HW227840   3.212   2.980   3.790
 8981SOL     OW27841   3.272   2.552   5.356
 8981SOL    HW127842   3.206   2.597   5.416
 8981SOL    HW227843   3.224   2.505   5.282
 8982SOL     OW27844   2.687   4.636   6.959
 8982SOL    HW127845   2.664   4.601   6.869
 8982SOL    HW227846   2.757   4.707   6.951
 8983SOL     OW27847   4.690   4.330   1.033
 8983SOL    HW127848   4.714   4.348   0.937
 8983SOL    HW227849   4.770   4.293   1.080
 8984SOL     OW27850   1.705   6.451   2.525
 8984SOL    HW127851   1.732   6.378   2.589
 8984SOL    HW227852   1.647   6.413   2.453
 8985SOL     OW27853   3.275   3.175   6.707
 8985SOL    HW127854   3.371   3.182   6.679
 8985SOL    HW227855   3.225   3.122   6.638
 8986SOL     OW27856   2.318   6.229   2.148
 8986SOL    HW127857   2.319   6.328   2.134
 8986SOL    HW227858   2.296   6.209   2.243
 8987SOL     OW27859   5.464   6.571   2.692
 8987SOL    HW127860   5.501   6.484   2.723
 8987SOL    HW227861   5.456   6.634   2.769
 8988SOL     OW27862   0.609   4.439   5.300
 8988SOL    HW127863   0.610   4.392   5.212
 8988SOL    HW227864   0.577   4.377   5.371
 8989SOL     OW27865   2.004   2.421   0.034
 8989SOL    HW127866   2.081   2.484   0.042
 8989SOL    HW227867   2.006   2.376   6.970
 8990SOL     OW27868   0.301   4.664   4.551
 8990SOL    HW127869   0.239   4.586   4.554
 8990SOL    HW227870   0.319   4.689   4.456
 8991SOL     OW27871   1.265   2.035   5.055
 8991SOL    HW127872   1.335   2.098   5.022
 8991SOL    HW227873   1.290   1.941   5.031
 8992SOL     OW27874   6.250   1.281   1.475
 8992SOL    HW127875   6.316   1.350   1.446
 8992SOL    HW227876   6.157   1.314   1.456
 8993SOL     OW27877   4.593   2.682   0.762
 8993SOL    HW127878   4.602   2.602   0.822
 8993SOL    HW227879   4.555   2.758   0.814
 8994SOL     OW27880   1.972   5.667   2.317
 8994SOL    HW127881   2.047   5.652   2.252
 8994SOL    HW227882   1.908   5.590   2.312
 8995SOL     OW27883   0.682   0.464   1.019
 8995SOL    HW127884   0.727   0.386   0.974
 8995SOL    HW227885   0.718   0.549   0.982
 8996SOL     OW27886   4.360   6.100   5.899
 8996SOL    HW127887   4.460   6.108   5.904
 8996SOL    HW227888   4.329   6.036   5.969
 8997SOL     OW27889   5.708   6.826   4.654
 8997SOL    HW127890   5.610   6.840   4.635
 8997SOL    HW227891   5.759   6.827   4.568
 8998SOL     OW27892   0.275   4.243   5.378
 8998SOL    HW127893   0.258   4.239   5.280
 8998SOL    HW227894   0.374   4.254   5.394
 8999SOL     OW27895   4.524   6.168   6.551
 8999SOL    HW127896   4.468   6.098   6.508
 8999SOL    HW227897   4.558   6.231   6.481
 9000SOL     OW27898   1.959   3.730   1.505
 9000SOL    HW127899   1.970   3.794   1.581
 9000SOL    HW227900   1.925   3.778   1.425
 9001SOL     OW27901   1.959   5.341   1.191
 9001SOL    HW127902   1.864   5.324   1.215
 9001SOL    HW227903   2.013   5.258   1.207
 9002SOL     OW27904   6.733   6.627   6.574
 9002SOL    HW127905   6.646   6.602   6.615
 9002SOL    HW227906   6.719   6.704   6.511
 9003SOL     OW27907   4.939   6.388   1.004
 9003SOL    HW127908   5.034   6.392   0.971
 9003SOL    HW227909   4.877   6.384   0.926
 9004SOL     OW27910   6.176   4.867   2.057
 9004SOL    HW127911   6.121   4.913   2.128
 9004SOL    HW227912   6.246   4.811   2.101
 9005SOL     OW27913   4.757   1.058   4.881
 9005SOL    HW127914   4.830   1.046   4.814
 9005SOL    HW227915   4.780   1.134   4.942
 9006SOL     OW27916   3.794   6.023   6.834
 9006SOL    HW127917   3.843   6.085   6.896
 9006SOL    HW227918   3.709   6.066   6.805
 9007SOL     OW27919   0.302   0.352   3.372
 9007SOL    HW127920   0.280   0.445   3.343
 9007SOL    HW227921   0.401   0.344   3.385
 9008SOL     OW27922   6.918   5.079   1.971
 9008SOL    HW127923   6.911   5.109   1.876
 9008SOL    HW227924   6.930   5.159   2.030
 9009SOL     OW27925   3.406   6.387   2.227
 9009SOL    HW127926   3.417   6.288   2.232
 9009SOL    HW227927   3.452   6.430   2.305
 9010SOL     OW27928   2.321   4.888   4.618
 9010SOL    HW127929   2.253   4.896   4.691
 9010SOL    HW227930   2.319   4.796   4.580
 9011SOL     OW27931   2.535   1.828   2.000
 9011SOL    HW127932   2.598   1.852   1.927
 9011SOL    HW227933   2.581   1.770   2.067
 9012SOL     OW27934   2.482   6.569   0.323
 9012SOL    HW127935   2.492   6.568   0.422
 9012SOL    HW227936   2.561   6.526   0.281
 9013SOL     OW27937   2.265   0.639   4.575
 9013SOL    HW127938   2.326   0.560   4.577
 9013SOL    HW227939   2.310   0.717   4.618
 9014SOL     OW27940   5.485   3.106   3.056
 9014SOL    HW127941   5.431   3.086   3.138
 9014SOL    HW227942   5.581   3.116   3.081
 9015SOL     OW27943   3.919   6.004   6.335
 9015SOL    HW127944   3.841   5.985   6.275
 9015SOL    HW227945   3.914   6.099   6.367
 9016SOL     OW27946   4.833   4.861   6.049
 9016SOL    HW127947   4.803   4.955   6.034
 9016SOL    HW227948   4.915   4.844   5.994
 9017SOL     OW27949   3.108   0.500   5.740
 9017SOL    HW127950   3.077   0.405   5.738
 9017SOL    HW227951   3.137   0.527   5.649
 9018SOL     OW27952   2.999   5.261   0.341
 9018SOL    HW127953   2.926   5.195   0.355
 9018SOL    HW227954   3.008   5.319   0.422
 9019SOL     OW27955   0.131   4.647   5.235
 9019SOL    HW127956   0.170   4.611   5.319
 9019SOL    HW227957   0.089   4.736   5.252
 9020SOL     OW27958   5.280   5.924   3.717
 9020SOL    HW127959   5.200   5.903   3.661
 9020SOL    HW227960   5.262   6.008   3.769
 9021SOL     OW27961   6.932   1.603   4.449
 9021SOL    HW127962   6.931   1.636   4.354
 9021SOL    HW227963   0.000   1.588   4.477
 9022SOL     OW27964   4.706   3.141   6.648
 9022SOL    HW127965   4.710   3.238   6.671
 9022SOL    HW227966   4.760   3.088   6.714
 9023SOL     OW27967   0.437   4.486   1.077
 9023SOL    HW127968   0.352   4.484   1.130
 9023SOL    HW227969   0.421   4.538   0.992
 9024SOL     OW27970   1.778   4.839   6.319
 9024SOL    HW127971   1.754   4.900   6.394
 9024SOL    HW227972   1.710   4.766   6.313
 9025SOL     OW27973   0.176   6.326   1.904
 9025SOL    HW127974   0.237   6.370   1.839
 9025SOL    HW227975   0.220   6.324   1.994
 9026SOL     OW27976   5.925   1.394   6.756
 9026SOL    HW127977   5.904   1.388   6.659
 9026SOL    HW227978   5.959   1.486   6.777
 9027SOL     OW27979   0.197   4.416   3.100
 9027SOL    HW127980   0.178   4.341   3.037
 9027SOL    HW227981   0.122   4.482   3.096
 9028SOL     OW27982   2.854   4.861   6.899
 9028SOL    HW127983   2.941   4.819   6.871
 9028SOL    HW227984   2.799   4.881   6.818
 9029SOL     OW27985   3.940   6.294   4.745
 9029SOL    HW127986   3.870   6.256   4.805
 9029SOL    HW227987   3.975   6.222   4.686
 9030SOL     OW27988   2.965   2.189   2.329
 9030SOL    HW127989   3.052   2.140   2.334
 9030SOL    HW227990   2.954   2.228   2.238
 9031SOL     OW27991   5.370   6.860   4.834
 9031SOL    HW127992   5.274   6.890   4.828
 9031SOL    HW227993   5.381   6.800   4.913
 9032SOL     OW27994   4.901   3.135   1.095
 9032SOL    HW127995   4.970   3.163   1.029
 9032SOL    HW227996   4.838   3.070   1.052
 9033SOL     OW27997   0.855   5.963   2.572
 9033SOL    HW127998   0.779   5.901   2.588
 9033SOL    HW227999   0.906   5.934   2.491
 9034SOL     OW28000   4.201   6.677   4.812
 9034SOL    HW128001   4.294   6.654   4.842
 9034SOL    HW228002   4.143   6.595   4.819
 9035SOL     OW28003   2.379   5.691   5.770
 9035SOL    HW128004   2.339   5.608   5.810
 9035SOL    HW228005   2.349   5.771   5.822
 9036SOL     OW28006   0.355   5.049   4.507
 9036SOL    HW128007   0.302   4.996   4.573
 9036SOL    HW228008   0.434   4.996   4.477
 9037SOL     OW28009   6.954   0.701   2.441
 9037SOL    HW128010   7.016   0.668   2.370
 9037SOL    HW228011   6.868   0.649   2.438
 9038SOL     OW28012   3.358   3.899   5.653
 9038SOL    HW128013   3.302   3.910   5.571
 9038SOL    HW228014   3.305   3.927   5.733
 9039SOL     OW28015   4.843   6.542   6.091
 9039SOL    HW128016   4.852   6.545   6.190
 9039SOL    HW228017   4.868   6.451   6.058
 9040SOL     OW28018   2.754   2.095   1.232
 9040SOL    HW128019   2.752   2.005   1.275
 9040SOL    HW228020   2.661   2.125   1.213
 9041SOL     OW28021   6.804   2.578   3.629
 9041SOL    HW128022   6.739   2.555   3.557
 9041SOL    HW228023   6.834   2.673   3.618
 9042SOL     OW28024   6.405   5.060   6.394
 9042SOL    HW128025   6.383   5.104   6.307
 9042SOL    HW228026   6.504   5.048   6.402
 9043SOL     OW28027   2.892   2.886   1.651
 9043SOL    HW128028   2.979   2.895   1.603
 9043SOL    HW228029   2.862   2.975   1.683
 9044SOL     OW28030   2.155   1.347   0.308
 9044SOL    HW128031   2.129   1.378   0.399
 9044SOL    HW228032   2.225   1.407   0.270
 9045SOL     OW28033   3.517   0.605   4.493
 9045SOL    HW128034   3.430   0.593   4.541
 9045SOL    HW228035   3.507   0.676   4.423
 9046SOL     OW28036   4.118   3.725   1.992
 9046SOL    HW128037   4.144   3.709   2.087
 9046SOL    HW228038   4.135   3.821   1.968
 9047SOL     OW28039   0.655   4.198   5.714
 9047SOL    HW128040   0.621   4.281   5.759
 9047SOL    HW228041   0.672   4.128   5.783
 9048SOL     OW28042   1.020   2.805   5.384
 9048SOL    HW128043   1.004   2.902   5.400
 9048SOL    HW228044   0.981   2.752   5.460
 9049SOL     OW28045   0.122   6.412   5.119
 9049SOL    HW128046   0.114   6.504   5.080
 9049SOL    HW228047   0.120   6.344   5.046
 9050SOL     OW28048   1.121   4.240   6.912
 9050SOL    HW128049   1.208   4.191   6.923
 9050SOL    HW228050   1.084   4.222   6.821
 9051SOL     OW28051   1.746   1.264   1.368
 9051SOL    HW128052   1.816   1.193   1.380
 9051SOL    HW228053   1.757   1.335   1.437
 9052SOL     OW28054   2.173   2.644   6.958
 9052SOL    HW128055   2.094   2.698   6.929
 9052SOL    HW228056   2.223   2.612   6.878
 9053SOL     OW28057   0.651   1.088   0.491
 9053SOL    HW128058   0.599   1.008   0.519
 9053SOL    HW228059   0.615   1.124   0.406
 9054SOL     OW28060   1.298   5.277   3.117
 9054SOL    HW128061   1.289   5.178   3.128
 9054SOL    HW228062   1.311   5.298   3.020
 9055SOL     OW28063   1.124   2.794   6.620
 9055SOL    HW128064   1.130   2.729   6.696
 9055SOL    HW228065   1.190   2.767   6.550
 9056SOL     OW28066   5.063   0.931   4.259
 9056SOL    HW128067   5.131   0.984   4.309
 9056SOL    HW228068   4.996   0.894   4.323
 9057SOL     OW28069   4.971   1.062   4.050
 9057SOL    HW128070   5.001   1.039   4.143
 9057SOL    HW228071   4.897   1.000   4.023
 9058SOL     OW28072   1.607   6.399   5.857
 9058SOL    HW128073   1.691   6.451   5.872
 9058SOL    HW228074   1.535   6.460   5.825
 9059SOL     OW28075   2.274   2.106   3.535
 9059SOL    HW128076   2.357   2.135   3.487
 9059SOL    HW228077   2.199   2.167   3.513
 9060SOL     OW28078   5.975   2.255   5.458
 9060SOL    HW128079   5.945   2.234   5.551
 9060SOL    HW228080   5.895   2.266   5.399
 9061SOL     OW28081   2.713   4.734   4.129
 9061SOL    HW128082   2.630   4.680   4.147
 9061SOL    HW228083   2.733   4.732   4.031
 9062SOL     OW28084   1.585   6.744   1.440
 9062SOL    HW128085   1.505   6.684   1.437
 9062SOL    HW228086   1.584   6.798   1.524
 9063SOL     OW28087   2.623   1.613   1.830
 9063SOL    HW128088   2.638   1.711   1.821
 9063SOL    HW228089   2.621   1.588   1.926
 9064SOL     OW28090   4.154   3.753   0.585
 9064SOL    HW128091   4.147   3.746   0.685
 9064SOL    HW228092   4.240   3.713   0.554
 9065SOL     OW28093   2.896   1.082   0.488
 9065SOL    HW128094   2.908   1.072   0.587
 9065SOL    HW228095   2.889   1.179   0.465
 9066SOL     OW28096   5.061   6.741   0.218
 9066SOL    HW128097   5.011   6.823   0.191
 9066SOL    HW228098   4.996   6.669   0.243
 9067SOL     OW28099   0.179   0.810   2.091
 9067SOL    HW128100   0.232   0.895   2.100
 9067SOL    HW228101   0.206   0.763   2.007
 9068SOL     OW28102   0.451   6.362   6.230
 9068SOL    HW128103   0.492   6.330   6.145
 9068SOL    HW228104   0.394   6.442   6.211
 9069SOL     OW28105   1.373   2.926   5.587
 9069SOL    HW128106   1.344   2.986   5.513
 9069SOL    HW228107   1.296   2.870   5.617
 9070SOL     OW28108   1.552   4.293   4.719
 9070SOL    HW128109   1.551   4.376   4.664
 9070SOL    HW228110   1.468   4.241   4.705
 9071SOL     OW28111   5.129   5.456   0.122
 9071SOL    HW128112   5.220   5.481   0.154
 9071SOL    HW228113   5.105   5.512   0.043
 9072SOL     OW28114   5.520   4.427   1.153
 9072SOL    HW128115   5.592   4.493   1.133
 9072SOL    HW228116   5.463   4.462   1.227
 9073SOL     OW28117   1.635   0.058   1.412
 9073SOL    HW128118   1.732   0.073   1.430
 9073SOL    HW228119   1.624   0.006   1.327
 9074SOL     OW28120   0.921   1.075   0.543
 9074SOL    HW128121   0.957   1.164   0.513
 9074SOL    HW228122   0.822   1.074   0.532
 9075SOL     OW28123   6.151   0.155   0.818
 9075SOL    HW128124   6.221   0.173   0.749
 9075SOL    HW228125   6.187   0.093   0.887
 9076SOL     OW28126   1.456   2.765   5.852
 9076SOL    HW128127   1.389   2.812   5.794
 9076SOL    HW228128   1.498   2.690   5.800
 9077SOL     OW28129   5.445   5.694   2.190
 9077SOL    HW128130   5.510   5.622   2.164
 9077SOL    HW228131   5.495   5.779   2.208
 9078SOL     OW28132   4.930   2.682   5.091
 9078SOL    HW128133   4.895   2.633   5.011
 9078SOL    HW228134   4.945   2.778   5.068
 9079SOL     OW28135   0.810   0.446   5.506
 9079SOL    HW128136   0.788   0.543   5.513
 9079SOL    HW228137   0.747   0.401   5.442
 9080SOL     OW28138   4.204   1.232   0.666
 9080SOL    HW128139   4.252   1.314   0.697
 9080SOL    HW228140   4.209   1.226   0.566
 9081SOL     OW28141   5.877   6.135   3.913
 9081SOL    HW128142   5.822   6.052   3.913
 9081SOL    HW228143   5.820   6.211   3.946
 9082SOL     OW28144   1.804   0.049   2.170
 9082SOL    HW128145   1.777   0.090   2.082
 9082SOL    HW228146   1.722   0.029   2.224
 9083SOL     OW28147   3.832   5.090   2.933
 9083SOL    HW128148   3.910   5.108   2.872
 9083SOL    HW228149   3.795   5.000   2.912
 9084SOL     OW28150   3.468   3.803   2.554
 9084SOL    HW128151   3.563   3.827   2.574
 9084SOL    HW228152   3.408   3.844   2.624
 9085SOL     OW28153   1.810   1.914   0.740
 9085SOL    HW128154   1.713   1.910   0.715
 9085SOL    HW228155   1.865   1.885   0.662
 9086SOL     OW28156   6.789   3.815   1.171
 9086SOL    HW128157   6.847   3.753   1.117
 9086SOL    HW228158   6.699   3.823   1.128
 9087SOL     OW28159   5.196   4.404   2.227
 9087SOL    HW128160   5.221   4.449   2.142
 9087SOL    HW228161   5.100   4.375   2.221
 9088SOL     OW28162   6.028   4.841   2.297
 9088SOL    HW128163   5.993   4.904   2.366
 9088SOL    HW228164   5.986   4.751   2.310
 9089SOL     OW28165   5.092   0.971   5.691
 9089SOL    HW128166   5.123   0.961   5.596
 9089SOL    HW228167   5.132   0.898   5.747
 9090SOL     OW28168   0.269   2.604   3.864
 9090SOL    HW128169   0.256   2.519   3.914
 9090SOL    HW228170   0.180   2.641   3.838
 9091SOL     OW28171   4.126   3.098   6.223
 9091SOL    HW128172   4.172   3.099   6.312
 9091SOL    HW228173   4.190   3.070   6.152
 9092SOL     OW28174   0.096   3.815   6.355
 9092SOL    HW128175   0.122   3.903   6.315
 9092SOL    HW228176   0.172   3.751   6.345
 9093SOL     OW28177   2.811   6.295   4.540
 9093SOL    HW128178   2.755   6.246   4.472
 9093SOL    HW228179   2.830   6.387   4.507
 9094SOL     OW28180   1.474   4.020   0.395
 9094SOL    HW128181   1.505   4.107   0.432
 9094SOL    HW228182   1.453   3.957   0.470
 9095SOL     OW28183   0.604   0.576   6.430
 9095SOL    HW128184   0.567   0.548   6.341
 9095SOL    HW228185   0.702   0.592   6.421
 9096SOL     OW28186   6.558   5.131   3.813
 9096SOL    HW128187   6.615   5.086   3.882
 9096SOL    HW228188   6.470   5.083   3.806
 9097SOL     OW28189   0.914   3.905   1.090
 9097SOL    HW128190   0.949   3.824   1.043
 9097SOL    HW228191   0.817   3.893   1.108
 9098SOL     OW28192   1.804   5.743   4.370
 9098SOL    HW128193   1.720   5.793   4.349
 9098SOL    HW228194   1.793   5.647   4.343
 9099SOL     OW28195   1.591   0.769   6.512
 9099SOL    HW128196   1.612   0.760   6.609
 9099SOL    HW228197   1.672   0.803   6.464
 9100SOL     OW28198   1.619   5.045   4.426
 9100SOL    HW128199   1.629   5.058   4.525
 9100SOL    HW228200   1.695   4.989   4.392
 9101SOL     OW28201   6.106   2.206   1.510
 9101SOL    HW128202   6.081   2.219   1.606
 9101SOL    HW228203   6.049   2.134   1.470
 9102SOL     OW28204   3.723   1.129   3.173
 9102SOL    HW128205   3.630   1.094   3.165
 9102SOL    HW228206   3.728   1.195   3.248
 9103SOL     OW28207   5.789   0.973   1.450
 9103SOL    HW128208   5.841   0.890   1.473
 9103SOL    HW228209   5.762   1.019   1.535
 9104SOL     OW28210   5.166   2.785   5.807
 9104SOL    HW128211   5.118   2.755   5.889
 9104SOL    HW228212   5.187   2.706   5.749
 9105SOL     OW28213   2.843   0.550   0.281
 9105SOL    HW128214   2.917   0.616   0.293
 9105SOL    HW228215   2.875   0.458   0.304
 9106SOL     OW28216   2.662   2.549   6.069
 9106SOL    HW128217   2.704   2.618   6.128
 9106SOL    HW228218   2.711   2.545   5.982
 9107SOL     OW28219   3.851   0.556   1.170
 9107SOL    HW128220   3.857   0.545   1.269
 9107SOL    HW228221   3.907   0.633   1.141
 9108SOL     OW28222   5.954   6.863   5.226
 9108SOL    HW128223   6.004   6.811   5.296
 9108SOL    HW228224   5.883   6.804   5.186
 9109SOL     OW28225   5.505   3.770   2.955
 9109SOL    HW128226   5.590   3.807   2.991
 9109SOL    HW228227   5.509   3.769   2.855
 9110SOL     OW28228   0.523   6.292   1.820
 9110SOL    HW128229   0.547   6.313   1.914
 9110SOL    HW228230   0.503   6.194   1.811
 9111SOL     OW28231   5.017   3.679   5.689
 9111SOL    HW128232   4.933   3.664   5.743
 9111SOL    HW228233   5.058   3.591   5.666
 9112SOL     OW28234   0.199   4.461   1.690
 9112SOL    HW128235   0.276   4.400   1.672
 9112SOL    HW228236   0.137   4.461   1.612
 9113SOL     OW28237   5.259   0.142   4.888
 9113SOL    HW128238   5.184   0.077   4.880
 9113SOL    HW228239   5.225   0.235   4.873
 9114SOL     OW28240   6.788   1.564   6.090
 9114SOL    HW128241   6.796   1.469   6.121
 9114SOL    HW228242   6.867   1.587   6.033
 9115SOL     OW28243   5.223   3.574   4.610
 9115SOL    HW128244   5.248   3.479   4.590
 9115SOL    HW228245   5.129   3.591   4.579
 9116SOL     OW28246   0.695   5.143   3.213
 9116SOL    HW128247   0.669   5.230   3.255
 9116SOL    HW228248   0.790   5.121   3.237
 9117SOL     OW28249   1.883   6.593   6.968
 9117SOL    HW128250   1.919   6.682   6.996
 9117SOL    HW228251   1.947   6.521   6.995
 9118SOL     OW28252   0.407   5.147   0.686
 9118SOL    HW128253   0.404   5.066   0.744
 9118SOL    HW228254   0.318   5.192   0.687
 9119SOL     OW28255   3.612   2.061   0.875
 9119SOL    HW128256   3.674   2.036   0.949
 9119SOL    HW228257   3.518   2.061   0.909
 9120SOL     OW28258   6.887   4.795   4.941
 9120SOL    HW128259   6.943   4.858   4.994
 9120SOL    HW228260   6.937   4.709   4.927
 9121SOL     OW28261   4.331   1.299   5.216
 9121SOL    HW128262   4.282   1.386   5.211
 9121SOL    HW228263   4.428   1.316   5.233
 9122SOL     OW28264   0.269   1.671   2.283
 9122SOL    HW128265   0.218   1.662   2.368
 9122SOL    HW228266   0.359   1.712   2.303
 9123SOL     OW28267   0.649   6.146   4.800
 9123SOL    HW128268   0.713   6.211   4.842
 9123SOL    HW228269   0.590   6.107   4.871
 9124SOL     OW28270   2.725   5.249   0.198
 9124SOL    HW128271   2.628   5.231   0.181
 9124SOL    HW228272   2.734   5.339   0.241
 9125SOL     OW28273   4.748   6.827   1.906
 9125SOL    HW128274   4.655   6.790   1.913
 9125SOL    HW228275   4.814   6.752   1.906
 9126SOL     OW28276   3.748   5.493   6.770
 9126SOL    HW128277   3.741   5.395   6.785
 9126SOL    HW228278   3.831   5.528   6.814
 9127SOL     OW28279   6.124   4.083   6.450
 9127SOL    HW128280   6.202   4.024   6.472
 9127SOL    HW228281   6.153   4.179   6.452
 9128SOL     OW28282   5.224   3.041   0.050
 9128SOL    HW128283   5.209   2.943   0.064
 9128SOL    HW228284   5.241   3.058   6.979
 9129SOL     OW28285   0.597   2.101   1.466
 9129SOL    HW128286   0.585   2.068   1.372
 9129SOL    HW228287   0.620   2.024   1.525
 9130SOL     OW28288   3.381   3.980   6.496
 9130SOL    HW128289   3.339   3.933   6.574
 9130SOL    HW228290   3.338   3.949   6.411
 9131SOL     OW28291   6.603   2.881   1.127
 9131SOL    HW128292   6.567   2.858   1.217
 9131SOL    HW228293   6.670   2.955   1.136
 9132SOL     OW28294   0.818   4.656   3.955
 9132SOL    HW128295   0.736   4.712   3.940
 9132SOL    HW228296   0.855   4.675   4.046
 9133SOL     OW28297   5.300   6.888   0.614
 9133SOL    HW128298   5.339   6.947   0.684
 9133SOL    HW228299   5.351   6.802   0.610
 9134SOL     OW28300   4.947   4.157   6.324
 9134SOL    HW128301   4.953   4.100   6.242
 9134SOL    HW228302   4.874   4.122   6.383
 9135SOL     OW28303   6.758   4.854   2.484
 9135SOL    HW128304   6.762   4.952   2.465
 9135SOL    HW228305   6.676   4.833   2.536
 9136SOL     OW28306   0.009   5.132   0.091
 9136SOL    HW128307   0.038   5.218   0.049
 9136SOL    HW228308   6.991   5.151   0.179
 9137SOL     OW28309   5.862   5.574   6.315
 9137SOL    HW128310   5.934   5.616   6.261
 9137SOL    HW228311   5.854   5.477   6.292
 9138SOL     OW28312   1.982   4.031   5.381
 9138SOL    HW128313   1.975   4.025   5.481
 9138SOL    HW228314   2.078   4.039   5.355
 9139SOL     OW28315   0.451   6.882   1.357
 9139SOL    HW128316   0.403   6.946   1.416
 9139SOL    HW228317   0.385   6.827   1.306
 9140SOL     OW28318   0.435   4.329   2.657
 9140SOL    HW128319   0.339   4.312   2.679
 9140SOL    HW228320   0.463   4.270   2.581
 9141SOL     OW28321   6.832   5.426   4.254
 9141SOL    HW128322   6.790   5.516   4.254
 9141SOL    HW228323   6.930   5.435   4.272
 9142SOL     OW28324   2.014   5.689   3.032
 9142SOL    HW128325   2.071   5.722   2.957
 9142SOL    HW228326   1.918   5.695   3.006
 9143SOL     OW28327   5.154   3.436   2.400
 9143SOL    HW128328   5.190   3.522   2.362
 9143SOL    HW228329   5.219   3.399   2.466
 9144SOL     OW28330   2.794   4.808   5.494
 9144SOL    HW128331   2.795   4.881   5.562
 9144SOL    HW228332   2.709   4.757   5.501
 9145SOL     OW28333   2.879   5.511   6.674
 9145SOL    HW128334   2.930   5.462   6.604
 9145SOL    HW228335   2.828   5.586   6.631
 9146SOL     OW28336   5.394   0.933   4.361
 9146SOL    HW128337   5.359   1.023   4.384
 9146SOL    HW228338   5.480   0.943   4.312
 9147SOL     OW28339   3.705   7.017   6.541
 9147SOL    HW128340   3.610   0.021   6.531
 9147SOL    HW228341   3.708   6.918   6.553
 9148SOL     OW28342   3.583   6.051   1.770
 9148SOL    HW128343   3.624   6.011   1.852
 9148SOL    HW228344   3.538   6.137   1.794
 9149SOL     OW28345   0.970   3.743   2.150
 9149SOL    HW128346   0.875   3.718   2.133
 9149SOL    HW228347   1.030   3.689   2.090
 9150SOL     OW28348   3.716   3.570   0.096
 9150SOL    HW128349   3.738   3.655   0.050
 9150SOL    HW228350   3.800   3.526   0.128
 9151SOL     OW28351   2.220   4.695   3.601
 9151SOL    HW128352   2.268   4.727   3.683
 9151SOL    HW228353   2.179   4.773   3.554
 9152SOL     OW28354   1.611   5.132   2.396
 9152SOL    HW128355   1.534   5.174   2.444
 9152SOL    HW228356   1.577   5.084   2.315
 9153SOL     OW28357   0.699   2.984   1.334
 9153SOL    HW128358   0.744   2.902   1.302
 9153SOL    HW228359   0.613   2.960   1.379
 9154SOL     OW28360   4.301   5.284   2.334
 9154SOL    HW128361   4.309   5.211   2.402
 9154SOL    HW228362   4.218   5.337   2.351
 9155SOL     OW28363   0.291   0.345   2.249
 9155SOL    HW128364   0.358   0.308   2.314
 9155SOL    HW228365   0.334   0.419   2.196
 9156SOL     OW28366   6.819   4.626   5.736
 9156SOL    HW128367   6.811   4.581   5.647
 9156SOL    HW228368   6.728   4.640   5.774
 9157SOL     OW28369   2.582   4.594   4.833
 9157SOL    HW128370   2.554   4.690   4.825
 9157SOL    HW228371   2.664   4.588   4.890
 9158SOL     OW28372   0.087   2.743   3.735
 9158SOL    HW128373   0.004   2.739   3.679
 9158SOL    HW228374   0.117   2.837   3.745
 9159SOL     OW28375   1.503   0.219   3.127
 9159SOL    HW128376   1.441   0.201   3.050
 9159SOL    HW228377   1.455   0.273   3.196
 9160SOL     OW28378   0.237   3.296   6.984
 9160SOL    HW128379   0.227   3.313   0.056
 9160SOL    HW228380   0.154   3.326   6.936
 9161SOL     OW28381   6.243   3.198   3.167
 9161SOL    HW128382   6.334   3.157   3.158
 9161SOL    HW228383   6.180   3.129   3.201
 9162SOL     OW28384   5.491   2.079   2.168
 9162SOL    HW128385   5.485   2.142   2.091
 9162SOL    HW228386   5.544   2.122   2.242
 9163SOL     OW28387   0.892   3.718   2.774
 9163SOL    HW128388   0.920   3.623   2.763
 9163SOL    HW228389   0.927   3.754   2.860
 9164SOL     OW28390   4.281   0.866   1.105
 9164SOL    HW128391   4.299   0.768   1.107
 9164SOL    HW228392   4.291   0.901   1.012
 9165SOL     OW28393   6.731   6.943   0.131
 9165SOL    HW128394   6.739   6.853   0.173
 9165SOL    HW228395   6.676   7.003   0.189
 9166SOL     OW28396   4.058   5.666   1.667
 9166SOL    HW128397   4.121   5.725   1.617
 9166SOL    HW228398   4.067   5.572   1.633
 9167SOL     OW28399   1.002   3.381   5.149
 9167SOL    HW128400   1.067   3.456   5.135
 9167SOL    HW228401   0.991   3.331   5.063
 9168SOL     OW28402   6.382   7.019   4.742
 9168SOL    HW128403   6.376   6.930   4.697
 9168SOL    HW228404   6.294   0.015   4.784
 9169SOL     OW28405   5.769   5.555   0.329
 9169SOL    HW128406   5.699   5.615   0.290
 9169SOL    HW228407   5.860   5.589   0.306
 9170SOL     OW28408   1.091   6.567   4.723
 9170SOL    HW128409   1.153   6.520   4.786
 9170SOL    HW228410   1.144   6.601   4.645
 9171SOL     OW28411   4.602   5.375   6.466
 9171SOL    HW128412   4.588   5.419   6.555
 9171SOL    HW228413   4.602   5.444   6.394
 9172SOL     OW28414   5.130   0.261   6.036
 9172SOL    HW128415   5.203   0.211   5.990
 9172SOL    HW228416   5.041   0.224   6.008
 9173SOL     OW28417   5.539   4.068   6.903
 9173SOL    HW128418   5.599   4.117   6.967
 9173SOL    HW228419   5.581   3.981   6.878
 9174SOL     OW28420   5.525   5.361   0.109
 9174SOL    HW128421   5.620   5.344   0.134
 9174SOL    HW228422   5.473   5.385   0.190
 9175SOL     OW28423   2.489   0.951   1.692
 9175SOL    HW128424   2.474   1.042   1.652
 9175SOL    HW228425   2.419   0.888   1.658
 9176SOL     OW28426   1.291   6.829   2.081
 9176SOL    HW128427   1.244   6.749   2.045
 9176SOL    HW228428   1.329   6.807   2.171
 9177SOL     OW28429   0.256   5.570   3.433
 9177SOL    HW128430   0.305   5.656   3.420
 9177SOL    HW228431   0.322   5.494   3.432
 9178SOL     OW28432   0.573   2.595   1.206
 9178SOL    HW128433   0.650   2.646   1.168
 9178SOL    HW228434   0.497   2.596   1.140
 9179SOL     OW28435   3.906   6.100   2.657
 9179SOL    HW128436   3.888   6.096   2.558
 9179SOL    HW228437   3.996   6.061   2.676
 9180SOL     OW28438   0.723   1.626   3.895
 9180SOL    HW128439   0.781   1.576   3.831
 9180SOL    HW228440   0.652   1.565   3.930
 9181SOL     OW28441   3.328   1.909   2.574
 9181SOL    HW128442   3.297   1.851   2.648
 9181SOL    HW228443   3.379   1.855   2.507
 9182SOL     OW28444   6.390   0.636   2.728
 9182SOL    HW128445   6.421   0.541   2.726
 9182SOL    HW228446   6.445   0.691   2.666
 9183SOL     OW28447   2.650   1.498   5.832
 9183SOL    HW128448   2.637   1.531   5.925
 9183SOL    HW228449   2.561   1.475   5.792
 9184SOL     OW28450   2.903   6.314   0.071
 9184SOL    HW128451   2.902   6.309   6.998
 9184SOL    HW228452   2.920   6.223   0.109
 9185SOL     OW28453   0.589   1.395   4.754
 9185SOL    HW128454   0.566   1.320   4.817
 9185SOL    HW228455   0.683   1.383   4.722
 9186SOL     OW28456   5.221   6.554   6.082
 9186SOL    HW128457   5.305   6.501   6.072
 9186SOL    HW228458   5.162   6.540   6.003
 9187SOL     OW28459   4.211   2.987   1.383
 9187SOL    HW128460   4.272   2.992   1.304
 9187SOL    HW228461   4.145   2.914   1.368
 9188SOL     OW28462   1.859   0.804   2.412
 9188SOL    HW128463   1.946   0.812   2.364
 9188SOL    HW228464   1.873   0.826   2.509
 9189SOL     OW28465   3.201   0.541   6.911
 9189SOL    HW128466   3.180   0.540   6.813
 9189SOL    HW228467   3.127   0.586   6.961
 9190SOL     OW28468   3.420   0.826   6.328
 9190SOL    HW128469   3.359   0.794   6.401
 9190SOL    HW228470   3.387   0.914   6.293
 9191SOL     OW28471   5.377   0.373   1.608
 9191SOL    HW128472   5.384   0.277   1.582
 9191SOL    HW228473   5.448   0.395   1.674
 9192SOL     OW28474   4.251   4.662   3.107
 9192SOL    HW128475   4.230   4.700   3.197
 9192SOL    HW228476   4.171   4.614   3.071
 9193SOL     OW28477   3.583   3.886   1.748
 9193SOL    HW128478   3.484   3.889   1.766
 9193SOL    HW228479   3.604   3.810   1.687
 9194SOL     OW28480   2.641   5.496   3.283
 9194SOL    HW128481   2.707   5.523   3.353
 9194SOL    HW228482   2.671   5.410   3.241
 9195SOL     OW28483   0.321   3.829   3.520
 9195SOL    HW128484   0.325   3.745   3.465
 9195SOL    HW228485   0.248   3.888   3.485
 9196SOL     OW28486   5.850   5.567   3.122
 9196SOL    HW128487   5.913   5.495   3.151
 9196SOL    HW228488   5.758   5.547   3.157
 9197SOL     OW28489   4.554   2.504   6.659
 9197SOL    HW128490   4.501   2.505   6.575
 9197SOL    HW228491   4.632   2.441   6.649
 9198SOL     OW28492   6.953   3.992   5.145
 9198SOL    HW128493   6.959   3.997   5.046
 9198SOL    HW228494   6.857   3.990   5.173
 9199SOL     OW28495   0.649   3.258   6.801
 9199SOL    HW128496   0.741   3.298   6.801
 9199SOL    HW228497   0.584   3.325   6.766
 9200SOL     OW28498   4.364   5.970   2.079
 9200SOL    HW128499   4.433   6.029   2.121
 9200SOL    HW228500   4.405   5.882   2.057
 9201SOL     OW28501   0.509   3.165   2.862
 9201SOL    HW128502   0.435   3.113   2.904
 9201SOL    HW228503   0.502   3.156   2.762
 9202SOL     OW28504   2.019   6.428   3.314
 9202SOL    HW128505   2.106   6.379   3.307
 9202SOL    HW228506   1.967   6.417   3.230
 9203SOL     OW28507   5.548   2.488   0.238
 9203SOL    HW128508   5.564   2.403   0.289
 9203SOL    HW228509   5.633   2.518   0.195
 9204SOL     OW28510   5.359   4.005   1.853
 9204SOL    HW128511   5.366   3.990   1.754
 9204SOL    HW228512   5.354   4.103   1.871
 9205SOL     OW28513   4.796   2.548   0.572
 9205SOL    HW128514   4.758   2.606   0.644
 9205SOL    HW228515   4.756   2.575   0.484
 9206SOL     OW28516   0.119   0.489   5.038
 9206SOL    HW128517   0.150   0.580   5.011
 9206SOL    HW228518   0.193   0.440   5.084
 9207SOL     OW28519   5.942   6.390   0.499
 9207SOL    HW128520   5.897   6.414   0.413
 9207SOL    HW228521   5.883   6.332   0.554
 9208SOL     OW28522   6.340   3.834   1.529
 9208SOL    HW128523   6.281   3.913   1.514
 9208SOL    HW228524   6.284   3.757   1.562
 9209SOL     OW28525   5.037   0.345   4.314
 9209SOL    HW128526   5.064   0.382   4.225
 9209SOL    HW228527   5.095   0.266   4.335
 9210SOL     OW28528   1.469   6.638   0.663
 9210SOL    HW128529   1.407   6.624   0.586
 9210SOL    HW228530   1.470   6.556   0.720
 9211SOL     OW28531   4.889   0.861   6.190
 9211SOL    HW128532   4.865   0.842   6.285
 9211SOL    HW228533   4.868   0.957   6.169
 9212SOL     OW28534   5.875   3.438   6.066
 9212SOL    HW128535   5.826   3.403   6.145
 9212SOL    HW228536   5.810   3.465   5.995
 9213SOL     OW28537   0.229   6.910   3.314
 9213SOL    HW128538   0.214   6.986   3.377
 9213SOL    HW228539   0.180   6.928   3.228
 9214SOL     OW28540   1.571   1.191   5.430
 9214SOL    HW128541   1.609   1.252   5.499
 9214SOL    HW228542   1.642   1.128   5.399
 9215SOL     OW28543   6.910   4.497   3.731
 9215SOL    HW128544   6.976   4.425   3.708
 9215SOL    HW228545   6.948   4.586   3.707
 9216SOL     OW28546   1.758   6.721   3.106
 9216SOL    HW128547   1.721   6.710   3.014
 9216SOL    HW228548   1.857   6.735   3.101
 9217SOL     OW28549   4.174   2.086   0.163
 9217SOL    HW128550   4.250   2.145   0.191
 9217SOL    HW228551   4.210   2.006   0.115
 9218SOL     OW28552   5.212   5.529   5.965
 9218SOL    HW128553   5.168   5.458   6.020
 9218SOL    HW228554   5.146   5.601   5.945
 9219SOL     OW28555   3.620   3.017   5.340
 9219SOL    HW128556   3.609   2.925   5.303
 9219SOL    HW228557   3.535   3.046   5.384
 9220SOL     OW28558   0.027   6.731   3.474
 9220SOL    HW128559   0.014   6.806   3.539
 9220SOL    HW228560   0.117   6.740   3.431
 9221SOL     OW28561   2.591   1.200   2.238
 9221SOL    HW128562   2.558   1.293   2.254
 9221SOL    HW228563   2.548   1.138   2.304
 9222SOL     OW28564   2.374   6.308   2.868
 9222SOL    HW128565   2.347   6.403   2.885
 9222SOL    HW228566   2.458   6.288   2.919
 9223SOL     OW28567   5.599   3.090   5.260
 9223SOL    HW128568   5.597   3.023   5.185
 9223SOL    HW228569   5.594   3.182   5.222
 9224SOL     OW28570   2.018   5.942   2.261
 9224SOL    HW128571   1.986   5.871   2.323
 9224SOL    HW228572   2.096   5.990   2.303
 9225SOL     OW28573   0.127   5.834   5.425
 9225SOL    HW128574   0.140   5.931   5.448
 9225SOL    HW228575   0.189   5.809   5.350
 9226SOL     OW28576   6.997   6.216   4.758
 9226SOL    HW128577   7.016   6.270   4.676
 9226SOL    HW228578   0.053   6.211   4.815
 9227SOL     OW28579   4.804   2.889   0.914
 9227SOL    HW128580   4.854   2.807   0.887
 9227SOL    HW228581   4.810   2.958   0.842
 9228SOL     OW28582   3.625   4.146   4.203
 9228SOL    HW128583   3.562   4.154   4.126
 9228SOL    HW228584   3.575   4.113   4.283
 9229SOL     OW28585   0.047   5.701   1.538
 9229SOL    HW128586   0.045   5.608   1.500
 9229SOL    HW228587   0.039   5.768   1.464
 9230SOL     OW28588   3.302   6.373   5.421
 9230SOL    HW128589   3.379   6.435   5.436
 9230SOL    HW228590   3.253   6.360   5.508
 9231SOL     OW28591   4.915   5.584   2.131
 9231SOL    HW128592   5.015   5.585   2.129
 9231SOL    HW228593   4.881   5.509   2.075
 9232SOL     OW28594   1.285   4.896   1.343
 9232SOL    HW128595   1.315   4.865   1.433
 9232SOL    HW228596   1.364   4.927   1.291
 9233SOL     OW28597   0.934   0.825   6.099
 9233SOL    HW128598   0.996   0.771   6.156
 9233SOL    HW228599   0.881   0.764   6.040
 9234SOL     OW28600   2.787   4.100   0.754
 9234SOL    HW128601   2.874   4.146   0.735
 9234SOL    HW228602   2.727   4.163   0.805
 9235SOL     OW28603   1.019   2.200   3.071
 9235SOL    HW128604   1.117   2.182   3.075
 9235SOL    HW228605   0.994   2.235   2.981
 9236SOL     OW28606   2.241   3.910   6.220
 9236SOL    HW128607   2.178   3.986   6.204
 9236SOL    HW228608   2.333   3.946   6.234
 9237SOL     OW28609   6.777   5.962   3.869
 9237SOL    HW128610   6.775   5.865   3.845
 9237SOL    HW228611   6.683   5.997   3.870
 9238SOL     OW28612   1.983   2.202   5.621
 9238SOL    HW128613   2.062   2.245   5.666
 9238SOL    HW228614   2.012   2.119   5.574
 9239SOL     OW28615   2.039   6.103   6.830
 9239SOL    HW128616   1.972   6.062   6.892
 9239SOL    HW228617   1.992   6.166   6.769
 9240SOL     OW28618   3.393   1.643   5.494
 9240SOL    HW128619   3.489   1.651   5.519
 9240SOL    HW228620   3.337   1.690   5.563
 9241SOL     OW28621   5.473   5.849   0.045
 9241SOL    HW128622   5.469   5.949   0.047
 9241SOL    HW228623   5.528   5.819   6.993
 9242SOL     OW28624   1.969   2.865   0.207
 9242SOL    HW128625   2.005   2.775   0.182
 9242SOL    HW228626   1.909   2.898   0.134
 9243SOL     OW28627   2.010   6.984   6.809
 9243SOL    HW128628   2.052   7.025   6.728
 9243SOL    HW228629   1.910   6.994   6.802
 9244SOL     OW28630   3.605   5.974   6.336
 9244SOL    HW128631   3.644   6.008   6.250
 9244SOL    HW228632   3.545   5.896   6.316
 9245SOL     OW28633   0.725   4.261   3.442
 9245SOL    HW128634   0.638   4.271   3.488
 9245SOL    HW228635   0.800   4.281   3.505
 9246SOL     OW28636   4.705   1.661   0.080
 9246SOL    HW128637   4.802   1.659   0.056
 9246SOL    HW228638   4.650   1.665   7.023
 9247SOL     OW28639   2.978   6.189   2.114
 9247SOL    HW128640   3.068   6.197   2.155
 9247SOL    HW228641   2.969   6.254   2.038
 9248SOL     OW28642   2.779   7.002   6.877
 9248SOL    HW128643   2.806   6.906   6.890
 9248SOL    HW228644   2.814   0.030   6.954
 9249SOL     OW28645   2.810   1.630   0.171
 9249SOL    HW128646   2.897   1.628   0.122
 9249SOL    HW228647   2.781   1.536   0.191
 9250SOL     OW28648   0.697   3.636   1.518
 9250SOL    HW128649   0.706   3.539   1.493
 9250SOL    HW228650   0.612   3.651   1.567
 9251SOL     OW28651   3.849   1.514   0.997
 9251SOL    HW128652   3.785   1.559   1.060
 9251SOL    HW228653   3.844   1.557   0.907
 9252SOL     OW28654   6.028   1.564   4.833
 9252SOL    HW128655   5.997   1.504   4.907
 9252SOL    HW228656   6.127   1.576   4.839
 9253SOL     OW28657   2.835   5.410   4.009
 9253SOL    HW128658   2.906   5.346   3.981
 9253SOL    HW228659   2.756   5.401   3.949
 9254SOL     OW28660   6.121   5.952   1.981
 9254SOL    HW128661   6.219   5.941   1.995
 9254SOL    HW228662   6.073   5.873   2.018
 9255SOL     OW28663   0.584   2.834   1.871
 9255SOL    HW128664   0.605   2.818   1.775
 9255SOL    HW228665   0.645   2.780   1.929
 9256SOL     OW28666   1.317   6.614   0.435
 9256SOL    HW128667   1.227   6.610   0.391
 9256SOL    HW228668   1.382   6.658   0.373
 9257SOL     OW28669   6.417   6.644   5.490
 9257SOL    HW128670   6.499   6.592   5.469
 9257SOL    HW228671   6.438   6.717   5.554
 9258SOL     OW28672   4.931   3.777   3.494
 9258SOL    HW128673   4.913   3.693   3.545
 9258SOL    HW228674   4.989   3.757   3.415
 9259SOL     OW28675   1.602   3.031   6.275
 9259SOL    HW128676   1.516   3.008   6.230
 9259SOL    HW228677   1.660   3.084   6.213
 9260SOL     OW28678   5.725   4.557   4.926
 9260SOL    HW128679   5.797   4.572   4.993
 9260SOL    HW228680   5.719   4.460   4.904
 9261SOL     OW28681   0.779   3.202   0.960
 9261SOL    HW128682   0.858   3.218   0.903
 9261SOL    HW228683   0.784   3.259   1.042
 9262SOL     OW28684   6.655   6.398   6.076
 9262SOL    HW128685   6.634   6.446   6.161
 9262SOL    HW228686   6.609   6.442   5.999
 9263SOL     OW28687   1.680   4.380   2.508
 9263SOL    HW128688   1.759   4.404   2.565
 9263SOL    HW228689   1.596   4.400   2.558
 9264SOL     OW28690   6.039   4.142   5.578
 9264SOL    HW128691   5.952   4.170   5.537
 9264SOL    HW228692   6.057   4.198   5.658
 9265SOL     OW28693   3.944   0.697   2.092
 9265SOL    HW128694   3.993   0.775   2.130
 9265SOL    HW228695   3.887   0.656   2.163
 9266SOL     OW28696   0.135   4.696   1.014
 9266SOL    HW128697   0.176   4.642   1.087
 9266SOL    HW228698   0.123   4.790   1.045
 9267SOL     OW28699   6.651   1.370   3.815
 9267SOL    HW128700   6.621   1.307   3.743
 9267SOL    HW228701   6.750   1.363   3.827
 9268SOL     OW28702   6.850   6.975   0.450
 9268SOL    HW128703   6.846   6.884   0.409
 9268SOL    HW228704   6.839   6.967   0.549
 9269SOL     OW28705   3.452   6.777   1.626
 9269SOL    HW128706   3.366   6.726   1.625
 9269SOL    HW228707   3.436   6.868   1.664
 9270SOL     OW28708   2.105   0.810   5.132
 9270SOL    HW128709   2.070   0.751   5.205
 9270SOL    HW228710   2.200   0.833   5.150
 9271SOL     OW28711   1.127   5.667   5.764
 9271SOL    HW128712   1.188   5.592   5.788
 9271SOL    HW228713   1.037   5.631   5.739
 9272SOL     OW28714   6.521   0.284   6.296
 9272SOL    HW128715   6.425   0.267   6.271
 9272SOL    HW228716   6.524   0.341   6.378
 9273SOL     OW28717   5.964   3.761   3.481
 9273SOL    HW128718   5.928   3.733   3.570
 9273SOL    HW228719   5.914   3.841   3.449
 9274SOL     OW28720   6.630   2.694   1.845
 9274SOL    HW128721   6.698   2.767   1.837
 9274SOL    HW228722   6.542   2.728   1.813
 9275SOL     OW28723   4.369   1.461   0.715
 9275SOL    HW128724   4.358   1.440   0.618
 9275SOL    HW228725   4.449   1.519   0.727
 9276SOL     OW28726   1.782   3.586   1.061
 9276SOL    HW128727   1.843   3.549   0.990
 9276SOL    HW228728   1.792   3.685   1.064
 9277SOL     OW28729   3.534   5.738   2.836
 9277SOL    HW128730   3.524   5.643   2.806
 9277SOL    HW228731   3.507   5.746   2.932
 9278SOL     OW28732   1.137   6.688   4.342
 9278SOL    HW128733   1.195   6.734   4.275
 9278SOL    HW228734   1.190   6.672   4.425
 9279SOL     OW28735   4.041   5.856   2.440
 9279SOL    HW128736   4.116   5.790   2.435
 9279SOL    HW228737   4.056   5.929   2.373
 9280SOL     OW28738   1.446   4.325   2.325
 9280SOL    HW128739   1.536   4.356   2.296
 9280SOL    HW228740   1.426   4.236   2.283
 9281SOL     OW28741   1.506   5.349   0.763
 9281SOL    HW128742   1.452   5.355   0.847
 9281SOL    HW228743   1.450   5.312   0.689
 9282SOL     OW28744   1.653   0.359   3.961
 9282SOL    HW128745   1.664   0.306   4.046
 9282SOL    HW228746   1.652   0.297   3.883
 9283SOL     OW28747   5.498   4.851   6.477
 9283SOL    HW128748   5.412   4.896   6.453
 9283SOL    HW228749   5.517   4.777   6.413
 9284SOL     OW28750   3.926   6.041   1.073
 9284SOL    HW128751   3.849   6.041   1.137
 9284SOL    HW228752   3.912   5.969   1.004
 9285SOL     OW28753   6.750   5.660   2.809
 9285SOL    HW128754   6.833   5.610   2.783
 9285SOL    HW228755   6.705   5.612   2.885
 9286SOL     OW28756   5.083   5.455   1.768
 9286SOL    HW128757   5.144   5.532   1.749
 9286SOL    HW228758   5.116   5.405   1.847
 9287SOL     OW28759   4.563   4.427   6.873
 9287SOL    HW128760   4.642   4.368   6.858
 9287SOL    HW228761   4.588   4.522   6.854
 9288SOL     OW28762   3.170   0.944   4.162
 9288SOL    HW128763   3.165   0.875   4.090
 9288SOL    HW228764   3.079   0.960   4.199
 9289SOL     OW28765   4.474   5.822   2.332
 9289SOL    HW128766   4.470   5.751   2.261
 9289SOL    HW228767   4.406   5.802   2.403
 9290SOL     OW28768   5.128   0.314   3.418
 9290SOL    HW128769   5.175   0.332   3.504
 9290SOL    HW228770   5.182   0.250   3.362
 9291SOL     OW28771   0.527   5.397   5.241
 9291SOL    HW128772   0.454   5.458   5.272
 9291SOL    HW228773   0.498   5.302   5.253
 9292SOL     OW28774   2.275   1.791   0.604
 9292SOL    HW128775   2.286   1.845   0.687
 9292SOL    HW228776   2.352   1.727   0.595
 9293SOL     OW28777   3.714   1.073   6.418
 9293SOL    HW128778   3.617   1.088   6.401
 9293SOL    HW228779   3.753   1.019   6.344
 9294SOL     OW28780   5.501   6.481   5.994
 9294SOL    HW128781   5.527   6.447   5.903
 9294SOL    HW228782   5.511   6.407   6.060
 9295SOL     OW28783   6.054   0.808   2.610
 9295SOL    HW128784   6.146   0.783   2.637
 9295SOL    HW228785   6.007   0.853   2.686
 9296SOL     OW28786   1.979   2.844   5.728
 9296SOL    HW128787   1.945   2.924   5.678
 9296SOL    HW228788   1.919   2.824   5.805
 9297SOL     OW28789   0.248   5.220   1.872
 9297SOL    HW128790   0.255   5.153   1.945
 9297SOL    HW228791   0.152   5.245   1.858
 9298SOL     OW28792   6.402   3.998   0.568
 9298SOL    HW128793   6.400   3.909   0.523
 9298SOL    HW228794   6.309   4.026   0.591
 9299SOL     OW28795   4.006   2.140   3.965
 9299SOL    HW128796   3.916   2.164   3.930
 9299SOL    HW228797   4.073   2.142   3.891
 9300SOL     OW28798   2.780   6.595   5.720
 9300SOL    HW128799   2.742   6.538   5.793
 9300SOL    HW228800   2.777   6.545   5.634
 9301SOL     OW28801   0.750   3.588   4.066
 9301SOL    HW128802   0.653   3.565   4.057
 9301SOL    HW228803   0.772   3.604   4.162
 9302SOL     OW28804   3.384   6.324   3.653
 9302SOL    HW128805   3.376   6.326   3.753
 9302SOL    HW228806   3.444   6.249   3.626
 9303SOL     OW28807   2.925   4.120   0.298
 9303SOL    HW128808   2.862   4.055   0.340
 9303SOL    HW228809   2.872   4.195   0.257
 9304SOL     OW28810   5.991   5.683   6.565
 9304SOL    HW128811   5.939   5.755   6.612
 9304SOL    HW228812   5.928   5.619   6.521
 9305SOL     OW28813   2.345   1.955   1.301
 9305SOL    HW128814   2.303   1.965   1.391
 9305SOL    HW228815   2.375   2.044   1.268
 9306SOL     OW28816   6.124   6.480   3.167
 9306SOL    HW128817   6.149   6.383   3.176
 9306SOL    HW228818   6.195   6.528   3.116
 9307SOL     OW28819   2.126   3.502   1.087
 9307SOL    HW128820   2.214   3.547   1.098
 9307SOL    HW228821   2.072   3.514   1.171
 9308SOL     OW28822   2.514   3.011   0.885
 9308SOL    HW128823   2.520   3.090   0.824
 9308SOL    HW228824   2.488   3.041   0.977
 9309SOL     OW28825   3.628   5.058   5.988
 9309SOL    HW128826   3.662   4.996   5.917
 9309SOL    HW228827   3.575   5.131   5.945
 9310SOL     OW28828   6.034   0.293   5.911
 9310SOL    HW128829   5.971   0.331   5.979
 9310SOL    HW228830   6.126   0.326   5.929
 9311SOL     OW28831   5.291   4.155   0.430
 9311SOL    HW128832   5.365   4.151   0.362
 9311SOL    HW228833   5.324   4.201   0.512
 9312SOL     OW28834   6.430   3.102   4.335
 9312SOL    HW128835   6.398   3.026   4.391
 9312SOL    HW228836   6.398   3.188   4.374
 9313SOL     OW28837   6.944   0.277   1.970
 9313SOL    HW128838   7.006   0.349   1.937
 9313SOL    HW228839   6.984   0.233   2.050
 9314SOL     OW28840   5.629   4.272   1.785
 9314SOL    HW128841   5.561   4.304   1.720
 9314SOL    HW228842   5.614   4.175   1.805
 9315SOL     OW28843   5.030   5.339   5.357
 9315SOL    HW128844   5.074   5.249   5.360
 9315SOL    HW228845   4.964   5.346   5.432
 9316SOL     OW28846   5.446   6.158   6.737
 9316SOL    HW128847   5.543   6.152   6.714
 9316SOL    HW228848   5.392   6.158   6.653
 9317SOL     OW28849   2.682   6.636   3.373
 9317SOL    HW128850   2.740   6.558   3.351
 9317SOL    HW228851   2.677   6.698   3.294
 9318SOL     OW28852   3.250   0.050   3.906
 9318SOL    HW128853   3.154   0.061   3.879
 9318SOL    HW228854   3.294   0.139   3.909
 9319SOL     OW28855   3.818   2.672   0.626
 9319SOL    HW128856   3.840   2.618   0.545
 9319SOL    HW228857   3.772   2.614   0.694
 9320SOL     OW28858   6.672   0.735   6.623
 9320SOL    HW128859   6.730   0.686   6.688
 9320SOL    HW228860   6.576   0.720   6.646
 9321SOL     OW28861   1.077   2.554   3.944
 9321SOL    HW128862   1.055   2.616   4.020
 9321SOL    HW228863   1.000   2.493   3.928
 9322SOL     OW28864   5.289   3.628   0.806
 9322SOL    HW128865   5.313   3.706   0.864
 9322SOL    HW228866   5.189   3.619   0.803
 9323SOL     OW28867   0.647   3.178   5.092
 9323SOL    HW128868   0.559   3.132   5.101
 9323SOL    HW228869   0.633   3.269   5.053
 9324SOL     OW28870   0.747   3.862   1.636
 9324SOL    HW128871   0.692   3.862   1.720
 9324SOL    HW228872   0.740   3.773   1.591
 9325SOL     OW28873   0.310   3.414   3.099
 9325SOL    HW128874   0.388   3.418   3.035
 9325SOL    HW228875   0.344   3.422   3.192
 9326SOL     OW28876   3.850   4.850   1.051
 9326SOL    HW128877   3.854   4.850   1.151
 9326SOL    HW228878   3.796   4.928   1.019
 9327SOL     OW28879   1.810   1.986   3.014
 9327SOL    HW128880   1.786   2.027   2.926
 9327SOL    HW228881   1.800   1.886   3.008
 9328SOL     OW28882   0.948   0.062   3.687
 9328SOL    HW128883   0.963   0.149   3.640
 9328SOL    HW228884   0.852   0.037   3.681
 9329SOL     OW28885   1.526   5.105   6.409
 9329SOL    HW128886   1.622   5.083   6.426
 9329SOL    HW228887   1.520   5.170   6.334
 9330SOL     OW28888   0.621   6.204   1.355
 9330SOL    HW128889   0.600   6.298   1.326
 9330SOL    HW228890   0.647   6.204   1.452
 9331SOL     OW28891   2.652   5.809   4.907
 9331SOL    HW128892   2.730   5.818   4.969
 9331SOL    HW228893   2.639   5.712   4.884
 9332SOL     OW28894   6.059   6.151   0.593
 9332SOL    HW128895   6.109   6.129   0.509
 9332SOL    HW228896   6.057   6.250   0.605
 9333SOL     OW28897   0.587   5.794   1.487
 9333SOL    HW128898   0.514   5.850   1.528
 9333SOL    HW228899   0.619   5.838   1.403
 9334SOL     OW28900   0.265   6.040   0.117
 9334SOL    HW128901   0.214   6.082   0.192
 9334SOL    HW228902   0.320   6.110   0.071
 9335SOL     OW28903   7.023   3.500   1.164
 9335SOL    HW128904   6.995   3.434   1.233
 9335SOL    HW228905   0.084   3.542   1.190
 9336SOL     OW28906   4.891   5.852   5.860
 9336SOL    HW128907   4.958   5.839   5.933
 9336SOL    HW228908   4.920   5.928   5.801
 9337SOL     OW28909   2.992   1.712   5.129
 9337SOL    HW128910   2.898   1.742   5.142
 9337SOL    HW228911   3.054   1.772   5.180
 9338SOL     OW28912   4.463   6.967   1.890
 9338SOL    HW128913   4.486   0.035   1.912
 9338SOL    HW228914   4.473   6.951   1.792
 9339SOL     OW28915   0.662   3.489   4.495
 9339SOL    HW128916   0.703   3.549   4.426
 9339SOL    HW228917   0.703   3.398   4.488
 9340SOL     OW28918   3.091   4.872   2.003
 9340SOL    HW128919   3.035   4.795   2.032
 9340SOL    HW228920   3.155   4.841   1.932
 9341SOL     OW28921   4.867   5.706   1.743
 9341SOL    HW128922   4.952   5.657   1.760
 9341SOL    HW228923   4.854   5.718   1.645
 9342SOL     OW28924   2.882   0.903   4.700
 9342SOL    HW128925   2.982   0.909   4.711
 9342SOL    HW228926   2.860   0.889   4.604
 9343SOL     OW28927   5.596   3.871   1.200
 9343SOL    HW128928   5.621   3.928   1.122
 9343SOL    HW228929   5.574   3.930   1.278
 9344SOL     OW28930   5.491   6.291   4.859
 9344SOL    HW128931   5.466   6.270   4.765
 9344SOL    HW228932   5.544   6.216   4.898
 9345SOL     OW28933   0.029   4.807   6.722
 9345SOL    HW128934   0.034   4.709   6.743
 9345SOL    HW228935   0.121   4.843   6.710
 9346SOL     OW28936   5.493   0.904   2.404
 9346SOL    HW128937   5.538   0.960   2.472
 9346SOL    HW228938   5.426   0.844   2.449
 9347SOL     OW28939   5.130   6.860   2.199
 9347SOL    HW128940   5.195   6.842   2.273
 9347SOL    HW228941   5.165   6.821   2.114
 9348SOL     OW28942   2.429   4.977   2.141
 9348SOL    HW128943   2.414   4.898   2.082
 9348SOL    HW228944   2.504   4.958   2.204
 9349SOL     OW28945   1.375   4.378   1.374
 9349SOL    HW128946   1.315   4.404   1.299
 9349SOL    HW228947   1.394   4.280   1.371
 9350SOL     OW28948   6.808   0.741   0.139
 9350SOL    HW128949   6.729   0.791   0.173
 9350SOL    HW228950   6.890   0.799   0.148
 9351SOL     OW28951   3.901   4.336   6.340
 9351SOL    HW128952   3.842   4.416   6.338
 9351SOL    HW228953   3.994   4.363   6.315
 9352SOL     OW28954   2.568   1.920   6.821
 9352SOL    HW128955   2.560   1.821   6.810
 9352SOL    HW228956   2.593   1.962   6.734
 9353SOL     OW28957   1.280   3.082   2.350
 9353SOL    HW128958   1.205   3.052   2.291
 9353SOL    HW228959   1.358   3.108   2.293
 9354SOL     OW28960   5.692   2.438   2.416
 9354SOL    HW128961   5.742   2.525   2.416
 9354SOL    HW228962   5.656   2.421   2.507
 9355SOL     OW28963   0.531   2.294   2.195
 9355SOL    HW128964   0.492   2.366   2.137
 9355SOL    HW228965   0.582   2.229   2.138
 9356SOL     OW28966   4.518   2.426   2.045
 9356SOL    HW128967   4.496   2.473   2.131
 9356SOL    HW228968   4.517   2.493   1.971
 9357SOL     OW28969   1.806   4.088   6.733
 9357SOL    HW128970   1.875   4.155   6.760
 9357SOL    HW228971   1.834   3.997   6.765
 9358SOL     OW28972   5.394   5.111   3.434
 9358SOL    HW128973   5.375   5.055   3.515
 9358SOL    HW228974   5.410   5.052   3.355
 9359SOL     OW28975   4.231   5.415   5.790
 9359SOL    HW128976   4.181   5.425   5.704
 9359SOL    HW228977   4.324   5.383   5.771
 9360SOL     OW28978   0.634   0.367   5.306
 9360SOL    HW128979   0.716   0.331   5.261
 9360SOL    HW228980   0.564   0.295   5.308
 9361SOL     OW28981   1.666   1.173   2.749
 9361SOL    HW128982   1.680   1.074   2.742
 9361SOL    HW228983   1.577   1.197   2.709
 9362SOL     OW28984   1.603   1.832   2.810
 9362SOL    HW128985   1.685   1.788   2.846
 9362SOL    HW228986   1.626   1.925   2.781
 9363SOL     OW28987   0.392   6.634   2.231
 9363SOL    HW128988   0.396   6.562   2.300
 9363SOL    HW228989   0.469   6.696   2.242
 9364SOL     OW28990   5.758   4.006   1.032
 9364SOL    HW128991   5.763   4.104   1.009
 9364SOL    HW228992   5.839   3.960   0.996
 9365SOL     OW28993   2.858   1.161   4.399
 9365SOL    HW128994   2.839   1.259   4.397
 9365SOL    HW228995   2.816   1.117   4.320
 9366SOL     OW28996   2.508   1.907   1.019
 9366SOL    HW128997   2.513   1.987   1.079
 9366SOL    HW228998   2.415   1.896   0.985
 9367SOL     OW28999   5.058   6.598   4.415
 9367SOL    HW129000   4.959   6.583   4.415
 9367SOL    HW229001   5.105   6.513   4.390
 9368SOL     OW29002   5.789   2.854   0.997
 9368SOL    HW129003   5.694   2.822   1.004
 9368SOL    HW229004   5.851   2.777   1.009
 9369SOL     OW29005   0.385   2.444   5.973
 9369SOL    HW129006   0.420   2.358   6.011
 9369SOL    HW229007   0.456   2.486   5.916
 9370SOL     OW29008   5.756   5.496   2.073
 9370SOL    HW129009   5.753   5.462   2.167
 9370SOL    HW229010   5.829   5.565   2.065
 9371SOL     OW29011   1.624   0.229   0.547
 9371SOL    HW129012   1.714   0.218   0.504
 9371SOL    HW229013   1.554   0.237   0.476
 9372SOL     OW29014   5.437   5.669   0.488
 9372SOL    HW129015   5.471   5.593   0.544
 9372SOL    HW229016   5.499   5.685   0.412
 9373SOL     OW29017   4.827   2.463   4.901
 9373SOL    HW129018   4.857   2.521   4.825
 9373SOL    HW229019   4.730   2.476   4.917
 9374SOL     OW29020   5.131   4.406   6.626
 9374SOL    HW129021   5.228   4.430   6.637
 9374SOL    HW229022   5.112   4.392   6.529
 9375SOL     OW29023   6.162   6.419   3.775
 9375SOL    HW129024   6.102   6.499   3.779
 9375SOL    HW229025   6.194   6.406   3.682
 9376SOL     OW29026   2.650   3.358   1.772
 9376SOL    HW129027   2.719   3.424   1.803
 9376SOL    HW229028   2.559   3.391   1.797
 9377SOL     OW29029   0.131   4.371   3.596
 9377SOL    HW129030   0.161   4.383   3.690
 9377SOL    HW229031   0.208   4.342   3.539
 9378SOL     OW29032   3.890   5.901   1.512
 9378SOL    HW129033   3.957   5.975   1.510
 9378SOL    HW229034   3.913   5.832   1.444
 9379SOL     OW29035   4.556   4.754   5.014
 9379SOL    HW129036   4.488   4.702   4.961
 9379SOL    HW229037   4.572   4.709   5.101
 9380SOL     OW29038   0.002   5.655   5.597
 9380SOL    HW129039   0.056   5.702   5.527
 9380SOL    HW229040   0.028   5.688   5.687
 9381SOL     OW29041   0.402   1.032   0.111
 9381SOL    HW129042   0.391   1.081   0.024
 9381SOL    HW229043   0.488   1.060   0.154
 9382SOL     OW29044   6.366   2.488   2.050
 9382SOL    HW129045   6.269   2.466   2.038
 9382SOL    HW229046   6.380   2.586   2.037
 9383SOL     OW29047   6.973   5.157   0.475
 9383SOL    HW129048   6.925   5.119   0.395
 9383SOL    HW229049   6.915   5.225   0.518
 9384SOL     OW29050   3.055   7.012   2.056
 9384SOL    HW129051   2.969   0.007   2.102
 9384SOL    HW229052   3.128   0.041   2.096
 9385SOL     OW29053   4.464   6.581   3.273
 9385SOL    HW129054   4.498   6.666   3.313
 9385SOL    HW229055   4.442   6.595   3.177
 9386SOL     OW29056   3.246   6.724   4.510
 9386SOL    HW129057   3.338   6.686   4.498
 9386SOL    HW229058   3.244   6.818   4.477
 9387SOL     OW29059   4.679   5.956   0.917
 9387SOL    HW129060   4.600   5.975   0.975
 9387SOL    HW229061   4.707   5.861   0.929
 9388SOL     OW29062   6.647   0.184   1.111
 9388SOL    HW129063   6.687   0.276   1.110
 9388SOL    HW229064   6.561   0.185   1.163
 9389SOL     OW29065   3.008   1.160   1.025
 9389SOL    HW129066   2.970   1.112   1.105
 9389SOL    HW229067   3.105   1.134   1.015
 9390SOL     OW29068   4.065   6.685   0.871
 9390SOL    HW129069   3.983   6.632   0.849
 9390SOL    HW229070   4.095   6.663   0.964
 9391SOL     OW29071   5.190   0.480   3.713
 9391SOL    HW129072   5.092   0.483   3.732
 9391SOL    HW229073   5.218   0.566   3.670
 9392SOL     OW29074   0.614   0.158   4.918
 9392SOL    HW129075   0.635   0.249   4.953
 9392SOL    HW229076   0.581   0.166   4.823
 9393SOL     OW29077   4.690   1.901   5.154
 9393SOL    HW129078   4.729   1.991   5.132
 9393SOL    HW229079   4.638   1.867   5.075
 9394SOL     OW29080   6.574   1.430   2.570
 9394SOL    HW129081   6.674   1.429   2.562
 9394SOL    HW229082   6.541   1.338   2.590
 9395SOL     OW29083   1.634   2.724   0.129
 9395SOL    HW129084   1.594   2.652   0.072
 9395SOL    HW229085   1.722   2.692   0.165
 9396SOL     OW29086   0.753   1.603   5.086
 9396SOL    HW129087   0.756   1.605   4.986
 9396SOL    HW229088   0.834   1.556   5.121
 9397SOL     OW29089   1.752   1.904   1.074
 9397SOL    HW129090   1.796   1.961   1.005
 9397SOL    HW229091   1.766   1.808   1.051
 9398SOL     OW29092   2.690   2.039   1.502
 9398SOL    HW129093   2.697   1.951   1.549
 9398SOL    HW229094   2.614   2.091   1.541
 9399SOL     OW29095   0.195   0.781   5.274
 9399SOL    HW129096   0.163   0.870   5.308
 9399SOL    HW229097   0.201   0.717   5.351
 9400SOL     OW29098   4.412   1.337   4.425
 9400SOL    HW129099   4.391   1.242   4.449
 9400SOL    HW229100   4.348   1.370   4.356
 9401SOL     OW29101   4.618   6.995   4.067
 9401SOL    HW129102   4.522   7.021   4.054
 9401SOL    HW229103   4.675   0.051   4.070
 9402SOL     OW29104   2.284   4.638   6.129
 9402SOL    HW129105   2.194   4.599   6.148
 9402SOL    HW229106   2.310   4.700   6.203
 9403SOL     OW29107   6.410   0.158   3.523
 9403SOL    HW129108   6.432   0.234   3.584
 9403SOL    HW229109   6.492   0.104   3.506
 9404SOL     OW29110   2.365   4.419   4.791
 9404SOL    HW129111   2.458   4.453   4.801
 9404SOL    HW229112   2.336   4.374   4.876
 9405SOL     OW29113   0.142   0.551   1.004
 9405SOL    HW129114   0.148   0.575   0.907
 9405SOL    HW229115   0.233   0.525   1.037
 9406SOL     OW29116   6.669   1.911   5.459
 9406SOL    HW129117   6.626   1.852   5.390
 9406SOL    HW229118   6.683   2.002   5.420
 9407SOL     OW29119   3.311   5.573   3.591
 9407SOL    HW129120   3.281   5.517   3.668
 9407SOL    HW229121   3.241   5.642   3.570
 9408SOL     OW29122   3.672   1.381   0.266
 9408SOL    HW129123   3.590   1.431   0.295
 9408SOL    HW229124   3.652   1.283   0.264
 9409SOL     OW29125   6.347   4.132   3.726
 9409SOL    HW129126   6.385   4.211   3.679
 9409SOL    HW229127   6.320   4.063   3.658
 9410SOL     OW29128   4.261   6.728   1.641
 9410SOL    HW129129   4.315   6.680   1.711
 9410SOL    HW229130   4.320   6.749   1.563
 9411SOL     OW29131   5.075   4.298   2.571
 9411SOL    HW129132   5.039   4.372   2.627
 9411SOL    HW229133   5.173   4.286   2.589
 9412SOL     OW29134   6.928   1.615   3.094
 9412SOL    HW129135   6.836   1.631   3.057
 9412SOL    HW229136   6.995   1.623   3.021
 9413SOL     OW29137   4.255   5.479   3.665
 9413SOL    HW129138   4.232   5.499   3.760
 9413SOL    HW229139   4.334   5.533   3.637
 9414SOL     OW29140   2.311   0.107   1.938
 9414SOL    HW129141   2.398   0.083   1.982
 9414SOL    HW229142   2.326   0.183   1.874
 9415SOL     OW29143   0.657   6.730   2.024
 9415SOL    HW129144   0.627   6.791   1.951
 9415SOL    HW229145   0.710   6.655   1.985
 9416SOL     OW29146   1.281   1.785   1.977
 9416SOL    HW129147   1.339   1.706   1.956
 9416SOL    HW229148   1.257   1.832   1.893
 9417SOL     OW29149   1.014   0.314   4.254
 9417SOL    HW129150   0.941   0.347   4.195
 9417SOL    HW229151   1.101   0.315   4.203
 9418SOL     OW29152   4.279   4.339   0.490
 9418SOL    HW129153   4.331   4.334   0.576
 9418SOL    HW229154   4.240   4.249   0.470
 9419SOL     OW29155   2.939   6.139   3.385
 9419SOL    HW129156   3.012   6.183   3.333
 9419SOL    HW229157   2.885   6.080   3.324
 9420SOL     OW29158   1.291   0.566   2.603
 9420SOL    HW129159   1.341   0.648   2.573
 9420SOL    HW229160   1.193   0.582   2.595
 9421SOL     OW29161   1.811   4.318   5.279
 9421SOL    HW129162   1.870   4.320   5.198
 9421SOL    HW229163   1.804   4.223   5.312
 9422SOL     OW29164   3.323   1.186   2.585
 9422SOL    HW129165   3.413   1.227   2.598
 9422SOL    HW229166   3.334   1.091   2.557
 9423SOL     OW29167   4.780   0.285   5.353
 9423SOL    HW129168   4.865   0.334   5.374
 9423SOL    HW229169   4.705   0.351   5.346
 9424SOL     OW29170   3.389   5.863   3.573
 9424SOL    HW129171   3.343   5.779   3.602
 9424SOL    HW229172   3.346   5.897   3.489
 9425SOL     OW29173   0.192   5.720   2.192
 9425SOL    HW129174   0.140   5.650   2.241
 9425SOL    HW229175   0.162   5.811   2.220
 9426SOL     OW29176   3.338   6.112   0.807
 9426SOL    HW129177   3.404   6.128   0.880
 9426SOL    HW229178   3.254   6.073   0.845
 9427SOL     OW29179   3.698   4.931   4.642
 9427SOL    HW129180   3.794   4.942   4.670
 9427SOL    HW229181   3.641   4.923   4.724
 9428SOL     OW29182   4.233   6.672   2.179
 9428SOL    HW129183   4.136   6.694   2.192
 9428SOL    HW229184   4.243   6.573   2.172
 9429SOL     OW29185   0.653   3.394   3.166
 9429SOL    HW129186   0.706   3.476   3.148
 9429SOL    HW229187   0.626   3.352   3.079
 9430SOL     OW29188   6.324   6.839   1.677
 9430SOL    HW129189   6.395   6.908   1.683
 9430SOL    HW229190   6.342   6.779   1.598
 9431SOL     OW29191   6.225   4.514   0.674
 9431SOL    HW129192   6.227   4.571   0.592
 9431SOL    HW229193   6.243   4.571   0.754
 9432SOL     OW29194   5.846   6.540   2.850
 9432SOL    HW129195   5.941   6.541   2.819
 9432SOL    HW229196   5.818   6.633   2.874
 9433SOL     OW29197   2.510   5.363   4.522
 9433SOL    HW129198   2.607   5.362   4.501
 9433SOL    HW229199   2.457   5.369   4.437
 9434SOL     OW29200   5.700   4.591   3.340
 9434SOL    HW129201   5.707   4.612   3.438
 9434SOL    HW229202   5.605   4.570   3.318
 9435SOL     OW29203   3.013   2.440   6.128
 9435SOL    HW129204   3.065   2.364   6.089
 9435SOL    HW229205   2.957   2.483   6.056
 9436SOL     OW29206   3.488   2.376   5.420
 9436SOL    HW129207   3.409   2.426   5.385
 9436SOL    HW229208   3.477   2.278   5.399
 9437SOL     OW29209   0.346   6.187   4.660
 9437SOL    HW129210   0.439   6.149   4.654
 9437SOL    HW229211   0.316   6.214   4.569
 9438SOL     OW29212   6.969   6.550   1.485
 9438SOL    HW129213   7.014   6.639   1.480
 9438SOL    HW229214   0.010   6.477   1.473
 9439SOL     OW29215   1.414   2.434   1.856
 9439SOL    HW129216   1.451   2.343   1.872
 9439SOL    HW229217   1.453   2.499   1.922
 9440SOL     OW29218   3.258   6.133   2.998
 9440SOL    HW129219   3.158   6.137   2.999
 9440SOL    HW229220   3.289   6.046   3.034
 9441SOL     OW29221   1.380   5.576   6.218
 9441SOL    HW129222   1.421   5.486   6.206
 9441SOL    HW229223   1.377   5.624   6.131
 9442SOL     OW29224   1.269   1.887   1.744
 9442SOL    HW129225   1.285   1.816   1.675
 9442SOL    HW229226   1.346   1.950   1.746
 9443SOL     OW29227   0.885   1.731   1.112
 9443SOL    HW129228   0.794   1.767   1.091
 9443SOL    HW229229   0.948   1.806   1.131
 9444SOL     OW29230   1.561   4.204   5.064
 9444SOL    HW129231   1.526   4.297   5.055
 9444SOL    HW229232   1.653   4.199   5.024
 9445SOL     OW29233   5.593   1.982   2.491
 9445SOL    HW129234   5.648   2.047   2.439
 9445SOL    HW229235   5.549   1.917   2.429
 9446SOL     OW29236   5.133   5.010   0.430
 9446SOL    HW129237   5.105   4.918   0.404
 9446SOL    HW229238   5.217   5.004   0.485
 9447SOL     OW29239   5.655   1.083   1.777
 9447SOL    HW129240   5.563   1.123   1.765
 9447SOL    HW229241   5.646   0.986   1.796
 9448SOL     OW29242   6.383   6.750   0.609
 9448SOL    HW129243   6.450   6.760   0.535
 9448SOL    HW229244   6.308   6.692   0.579
 9449SOL     OW29245   5.815   5.111   4.563
 9449SOL    HW129246   5.803   5.162   4.478
 9449SOL    HW229247   5.731   5.060   4.583
 9450SOL     OW29248   1.642   6.170   4.162
 9450SOL    HW129249   1.645   6.082   4.210
 9450SOL    HW229250   1.727   6.220   4.179
 9451SOL     OW29251   3.894   3.399   4.689
 9451SOL    HW129252   3.826   3.473   4.685
 9451SOL    HW229253   3.916   3.380   4.785
 9452SOL     OW29254   3.416   4.284   0.422
 9452SOL    HW129255   3.324   4.268   0.458
 9452SOL    HW229256   3.410   4.315   0.327
 9453SOL     OW29257   3.083   6.275   1.295
 9453SOL    HW129258   3.001   6.328   1.274
 9453SOL    HW229259   3.158   6.306   1.237
 9454SOL     OW29260   2.308   1.985   6.008
 9454SOL    HW129261   2.349   2.072   5.980
 9454SOL    HW229262   2.375   1.912   5.997
 9455SOL     OW29263   1.776   2.050   1.588
 9455SOL    HW129264   1.705   2.096   1.640
 9455SOL    HW229265   1.770   2.076   1.491
 9456SOL     OW29266   1.184   2.697   0.453
 9456SOL    HW129267   1.193   2.745   0.365
 9456SOL    HW229268   1.200   2.762   0.528
 9457SOL     OW29269   6.017   3.972   0.074
 9457SOL    HW129270   6.106   3.983   0.028
 9457SOL    HW229271   5.969   3.894   0.034
 9458SOL     OW29272   1.510   5.774   3.937
 9458SOL    HW129273   1.463   5.835   4.001
 9458SOL    HW229274   1.605   5.763   3.965
 9459SOL     OW29275   3.640   6.136   0.823
 9459SOL    HW129276   3.627   6.152   0.921
 9459SOL    HW229277   3.604   6.213   0.772
 9460SOL     OW29278   1.473   3.421   5.489
 9460SOL    HW129279   1.539   3.350   5.514
 9460SOL    HW229280   1.519   3.510   5.488
 9461SOL     OW29281   1.282   0.364   2.375
 9461SOL    HW129282   1.339   0.293   2.417
 9461SOL    HW229283   1.226   0.407   2.445
 9462SOL     OW29284   0.325   3.519   3.750
 9462SOL    HW129285   0.378   3.450   3.798
 9462SOL    HW229286   0.387   3.580   3.700
 9463SOL     OW29287   5.487   2.156   5.743
 9463SOL    HW129288   5.388   2.165   5.739
 9463SOL    HW229289   5.529   2.222   5.680
 9464SOL     OW29290   3.812   6.491   6.300
 9464SOL    HW129291   3.739   6.558   6.282
 9464SOL    HW229292   3.858   6.468   6.214
 9465SOL     OW29293   4.271   6.579   3.944
 9465SOL    HW129294   4.360   6.561   3.986
 9465SOL    HW229295   4.250   6.677   3.952
 9466SOL     OW29296   3.559   2.111   6.836
 9466SOL    HW129297   3.597   2.104   6.928
 9466SOL    HW229298   3.502   2.030   6.818
 9467SOL     OW29299   0.973   3.127   2.331
 9467SOL    HW129300   0.907   3.196   2.300
 9467SOL    HW229301   1.027   3.164   2.407
 9468SOL     OW29302   0.413   2.684   6.139
 9468SOL    HW129303   0.405   2.584   6.133
 9468SOL    HW229304   0.361   2.726   6.065
 9469SOL     OW29305   0.499   3.922   2.561
 9469SOL    HW129306   0.556   3.891   2.484
 9469SOL    HW229307   0.551   3.914   2.646
 9470SOL     OW29308   6.181   3.548   1.554
 9470SOL    HW129309   6.172   3.610   1.632
 9470SOL    HW229310   6.230   3.466   1.583
 9471SOL     OW29311   0.188   2.278   5.769
 9471SOL    HW129312   0.266   2.313   5.823
 9471SOL    HW229313   0.129   2.355   5.744
 9472SOL     OW29314   6.037   2.417   5.126
 9472SOL    HW129315   5.993   2.328   5.137
 9472SOL    HW229316   6.078   2.445   5.213
 9473SOL     OW29317   2.827   4.495   5.620
 9473SOL    HW129318   2.801   4.480   5.524
 9473SOL    HW229319   2.800   4.416   5.675
 9474SOL     OW29320   3.626   5.797   4.383
 9474SOL    HW129321   3.638   5.778   4.286
 9474SOL    HW229322   3.613   5.710   4.432
 9475SOL     OW29323   2.817   3.264   1.469
 9475SOL    HW129324   2.812   3.287   1.566
 9475SOL    HW229325   2.883   3.323   1.424
 9476SOL     OW29326   3.112   3.038   5.425
 9476SOL    HW129327   3.106   3.129   5.466
 9476SOL    HW229328   3.025   2.991   5.434
 9477SOL     OW29329   1.022   2.312   0.614
 9477SOL    HW129330   0.972   2.295   0.699
 9477SOL    HW229331   1.072   2.230   0.588
 9478SOL     OW29332   5.867   3.836   6.630
 9478SOL    HW129333   5.920   3.760   6.593
 9478SOL    HW229334   5.929   3.909   6.659
 9479SOL     OW29335   6.039   4.826   4.909
 9479SOL    HW129336   5.992   4.907   4.944
 9479SOL    HW229337   5.976   4.773   4.851
 9480SOL     OW29338   0.062   3.484   6.389
 9480SOL    HW129339   0.052   3.462   6.292
 9480SOL    HW229340   0.143   3.541   6.402
 9481SOL     OW29341   0.905   2.785   3.642
 9481SOL    HW129342   0.975   2.844   3.601
 9481SOL    HW229343   0.837   2.761   3.573
 9482SOL     OW29344   4.444   1.671   1.986
 9482SOL    HW129345   4.446   1.571   1.988
 9482SOL    HW229346   4.491   1.703   1.903
 9483SOL     OW29347   1.629   1.046   0.661
 9483SOL    HW129348   1.567   0.970   0.680
 9483SOL    HW229349   1.602   1.126   0.715
 9484SOL     OW29350   6.563   0.383   3.660
 9484SOL    HW129351   6.663   0.387   3.656
 9484SOL    HW229352   6.535   0.347   3.749
 9485SOL     OW29353   6.681   0.220   2.822
 9485SOL    HW129354   6.614   0.269   2.766
 9485SOL    HW229355   6.763   0.201   2.768
 9486SOL     OW29356   2.686   6.742   1.398
 9486SOL    HW129357   2.719   6.648   1.400
 9486SOL    HW229358   2.747   6.800   1.451
 9487SOL     OW29359   3.607   2.870   3.335
 9487SOL    HW129360   3.566   2.874   3.243
 9487SOL    HW229361   3.701   2.839   3.328
 9488SOL     OW29362   1.984   0.013   1.663
 9488SOL    HW129363   1.906   0.043   1.718
 9488SOL    HW229364   2.054   0.084   1.664
 9489SOL     OW29365   2.783   4.892   0.757
 9489SOL    HW129366   2.705   4.945   0.789
 9489SOL    HW229367   2.771   4.796   0.781
 9490SOL     OW29368   4.475   1.796   0.404
 9490SOL    HW129369   4.570   1.801   0.373
 9490SOL    HW229370   4.422   1.743   0.338
 9491SOL     OW29371   5.528   6.001   6.395
 9491SOL    HW129372   5.584   5.937   6.447
 9491SOL    HW229373   5.526   5.973   6.299
 9492SOL     OW29374   2.629   5.306   1.100
 9492SOL    HW129375   2.612   5.248   1.179
 9492SOL    HW229376   2.726   5.309   1.080
 9493SOL     OW29377   4.662   5.556   2.514
 9493SOL    HW129378   4.761   5.543   2.519
 9493SOL    HW229379   4.627   5.514   2.430
 9494SOL     OW29380   3.480   3.248   6.381
 9494SOL    HW129381   3.530   3.333   6.398
 9494SOL    HW229382   3.394   3.269   6.335
 9495SOL     OW29383   5.269   2.718   4.361
 9495SOL    HW129384   5.286   2.707   4.263
 9495SOL    HW229385   5.340   2.671   4.413
 9496SOL     OW29386   0.097   4.318   6.715
 9496SOL    HW129387   0.172   4.289   6.656
 9496SOL    HW229388   0.109   4.414   6.741
 9497SOL     OW29389   0.922   6.300   6.353
 9497SOL    HW129390   0.889   6.311   6.447
 9497SOL    HW229391   0.934   6.389   6.310
 9498SOL     OW29392   4.500   6.484   6.635
 9498SOL    HW129393   4.592   6.503   6.601
 9498SOL    HW229394   4.482   6.540   6.716
 9499SOL     OW29395   4.789   3.806   5.513
 9499SOL    HW129396   4.865   3.868   5.499
 9499SOL    HW229397   4.820   3.711   5.505
 9500SOL     OW29398   3.813   5.912   0.843
 9500SOL    HW129399   3.749   5.989   0.841
 9500SOL    HW229400   3.762   5.826   0.841
 9501SOL     OW29401   3.391   1.785   4.631
 9501SOL    HW129402   3.406   1.746   4.722
 9501SOL    HW229403   3.471   1.765   4.573
 9502SOL     OW29404   3.993   3.311   6.111
 9502SOL    HW129405   3.919   3.344   6.171
 9502SOL    HW229406   4.047   3.243   6.160
 9503SOL     OW29407   0.907   6.315   1.116
 9503SOL    HW129408   0.847   6.348   1.042
 9503SOL    HW229409   0.981   6.261   1.077
 9504SOL     OW29410   0.159   3.117   0.808
 9504SOL    HW129411   0.201   3.091   0.722
 9504SOL    HW229412   0.067   3.078   0.814
 9505SOL     OW29413   5.008   3.286   3.393
 9505SOL    HW129414   4.962   3.221   3.334
 9505SOL    HW229415   5.018   3.373   3.345
 9506SOL     OW29416   6.432   2.042   0.921
 9506SOL    HW129417   6.355   2.103   0.902
 9506SOL    HW229418   6.515   2.095   0.933
 9507SOL     OW29419   1.667   3.218   5.476
 9507SOL    HW129420   1.653   3.119   5.483
 9507SOL    HW229421   1.720   3.239   5.394
 9508SOL     OW29422   4.013   1.243   5.496
 9508SOL    HW129423   3.946   1.176   5.467
 9508SOL    HW229424   3.984   1.334   5.466
 9509SOL     OW29425   3.555   6.966   5.765
 9509SOL    HW129426   3.611   7.025   5.706
 9509SOL    HW229427   3.596   6.875   5.768
 9510SOL     OW29428   7.008   4.173   2.645
 9510SOL    HW129429   6.908   4.170   2.647
 9510SOL    HW229430   0.018   4.108   2.712
 9511SOL     OW29431   2.043   1.781   1.251
 9511SOL    HW129432   2.039   1.862   1.192
 9511SOL    HW229433   2.076   1.807   1.341
 9512SOL     OW29434   1.820   3.359   5.657
 9512SOL    HW129435   1.912   3.382   5.625
 9512SOL    HW229436   1.770   3.312   5.584
 9513SOL     OW29437   3.220   4.919   3.562
 9513SOL    HW129438   3.183   4.910   3.470
 9513SOL    HW229439   3.319   4.929   3.558
 9514SOL     OW29440   3.145   3.304   5.507
 9514SOL    HW129441   3.137   3.382   5.570
 9514SOL    HW229442   3.157   3.337   5.414
 9515SOL     OW29443   1.621   5.615   5.600
 9515SOL    HW129444   1.637   5.523   5.564
 9515SOL    HW229445   1.676   5.681   5.549
 9516SOL     OW29446   6.342   4.562   4.744
 9516SOL    HW129447   6.275   4.592   4.677
 9516SOL    HW229448   6.343   4.626   4.821
 9517SOL     OW29449   0.278   5.342   2.232
 9517SOL    HW129450   0.203   5.363   2.294
 9517SOL    HW229451   0.247   5.279   2.162
 9518SOL     OW29452   1.038   3.223   5.395
 9518SOL    HW129453   1.074   3.310   5.363
 9518SOL    HW229454   0.946   3.209   5.358
 9519SOL     OW29455   3.342   3.259   3.635
 9519SOL    HW129456   3.413   3.225   3.572
 9519SOL    HW229457   3.300   3.181   3.682
 9520SOL     OW29458   4.668   1.345   6.073
 9520SOL    HW129459   4.695   1.378   5.983
 9520SOL    HW229460   4.573   1.313   6.070
 9521SOL     OW29461   3.865   1.521   1.426
 9521SOL    HW129462   3.854   1.468   1.342
 9521SOL    HW229463   3.793   1.496   1.491
 9522SOL     OW29464   3.755   6.437   1.197
 9522SOL    HW129465   3.827   6.482   1.145
 9522SOL    HW229466   3.789   6.349   1.231
 9523SOL     OW29467   2.539   4.554   4.480
 9523SOL    HW129468   2.574   4.466   4.511
 9523SOL    HW229469   2.450   4.572   4.523
 9524SOL     OW29470   1.718   3.484   0.420
 9524SOL    HW129471   1.791   3.530   0.369
 9524SOL    HW229472   1.731   3.499   0.518
 9525SOL     OW29473   2.590   2.787   6.307
 9525SOL    HW129474   2.593   2.886   6.323
 9525SOL    HW229475   2.497   2.761   6.280
 9526SOL     OW29476   5.311   4.517   6.063
 9526SOL    HW129477   5.232   4.567   6.099
 9526SOL    HW229478   5.285   4.422   6.047
 9527SOL     OW29479   4.489   5.874   4.853
 9527SOL    HW129480   4.406   5.824   4.878
 9527SOL    HW229481   4.469   5.972   4.849
 9528SOL     OW29482   5.111   2.552   1.119
 9528SOL    HW129483   5.016   2.561   1.091
 9528SOL    HW229484   5.144   2.640   1.155
 9529SOL     OW29485   5.830   0.217   1.736
 9529SOL    HW129486   5.844   0.280   1.812
 9529SOL    HW229487   5.734   0.189   1.734
 9530SOL     OW29488   1.023   5.856   3.679
 9530SOL    HW129489   0.937   5.907   3.692
 9530SOL    HW229490   1.069   5.846   3.767
 9531SOL     OW29491   3.671   5.887   2.004
 9531SOL    HW129492   3.608   5.823   1.961
 9531SOL    HW229493   3.755   5.893   1.949
 9532SOL     OW29494   6.750   5.151   4.214
 9532SOL    HW129495   6.717   5.129   4.306
 9532SOL    HW229496   6.795   5.240   4.214
 9533SOL     OW29497   1.124   4.396   4.361
 9533SOL    HW129498   1.171   4.483   4.344
 9533SOL    HW229499   1.055   4.409   4.433
 9534SOL     OW29500   4.788   6.211   4.370
 9534SOL    HW129501   4.835   6.134   4.412
 9534SOL    HW229502   4.818   6.221   4.275
 9535SOL     OW29503   6.928   1.698   4.205
 9535SOL    HW129504   6.835   1.663   4.195
 9535SOL    HW229505   6.930   1.795   4.182
 9536SOL     OW29506   3.474   3.451   5.701
 9536SOL    HW129507   3.514   3.513   5.634
 9536SOL    HW229508   3.514   3.360   5.690
 9537SOL     OW29509   6.895   0.781   4.434
 9537SOL    HW129510   6.968   0.800   4.499
 9537SOL    HW229511   6.827   0.854   4.438
 9538SOL     OW29512   5.747   0.565   5.133
 9538SOL    HW129513   5.783   0.472   5.124
 9538SOL    HW229514   5.684   0.570   5.211
 9539SOL     OW29515   3.613   4.142   2.031
 9539SOL    HW129516   3.643   4.204   2.104
 9539SOL    HW229517   3.540   4.083   2.065
 9540SOL     OW29518   4.168   5.105   3.195
 9540SOL    HW129519   4.174   5.176   3.125
 9540SOL    HW229520   4.256   5.099   3.243
 9541SOL     OW29521   1.705   5.340   5.826
 9541SOL    HW129522   1.616   5.374   5.857
 9541SOL    HW229523   1.770   5.416   5.821
 9542SOL     OW29524   6.296   3.666   3.178
 9542SOL    HW129525   6.297   3.585   3.119
 9542SOL    HW229526   6.254   3.643   3.265
 9543SOL     OW29527   1.981   0.895   5.822
 9543SOL    HW129528   2.035   0.825   5.774
 9543SOL    HW229529   1.904   0.923   5.764
 9544SOL     OW29530   6.155   3.157   4.936
 9544SOL    HW129531   6.148   3.237   4.997
 9544SOL    HW229532   6.080   3.095   4.954
 9545SOL     OW29533   6.420   4.281   1.631
 9545SOL    HW129534   6.460   4.361   1.676
 9545SOL    HW229535   6.321   4.286   1.638
 9546SOL     OW29536   3.396   2.751   0.265
 9546SOL    HW129537   3.375   2.716   0.174
 9546SOL    HW229538   3.322   2.727   0.328
 9547SOL     OW29539   4.102   0.715   3.465
 9547SOL    HW129540   4.075   0.670   3.550
 9547SOL    HW229541   4.055   0.671   3.388
 9548SOL     OW29542   0.783   5.247   5.720
 9548SOL    HW129543   0.882   5.244   5.709
 9548SOL    HW229544   0.739   5.198   5.645
 9549SOL     OW29545   4.810   1.364   1.460
 9549SOL    HW129546   4.844   1.442   1.512
 9549SOL    HW229547   4.881   1.331   1.398
 9550SOL     OW29548   6.854   2.002   1.799
 9550SOL    HW129549   6.862   1.921   1.741
 9550SOL    HW229550   6.817   2.078   1.746
 9551SOL     OW29551   6.596   3.280   6.772
 9551SOL    HW129552   6.600   3.379   6.783
 9551SOL    HW229553   6.510   3.245   6.811
 9552SOL     OW29554   3.283   1.799   0.074
 9552SOL    HW129555   3.335   1.765   0.152
 9552SOL    HW229556   3.288   1.899   0.071
 9553SOL     OW29557   5.146   1.457   0.114
 9553SOL    HW129558   5.081   1.466   0.039
 9553SOL    HW229559   5.121   1.378   0.170
 9554SOL     OW29560   2.583   1.087   4.455
 9554SOL    HW129561   2.546   1.134   4.536
 9554SOL    HW229562   2.683   1.090   4.458
 9555SOL     OW29563   0.445   6.439   2.429
 9555SOL    HW129564   0.542   6.453   2.407
 9555SOL    HW229565   0.429   6.460   2.526
 9556SOL     OW29566   2.377   4.879   6.352
 9556SOL    HW129567   2.441   4.812   6.391
 9556SOL    HW229568   2.312   4.908   6.423
 9557SOL     OW29569   5.151   0.986   0.310
 9557SOL    HW129570   5.189   1.033   0.230
 9557SOL    HW229571   5.105   1.052   0.369
 9558SOL     OW29572   5.811   5.853   5.398
 9558SOL    HW129573   5.784   5.809   5.313
 9558SOL    HW229574   5.733   5.903   5.437
 9559SOL     OW29575   2.360   4.204   0.368
 9559SOL    HW129576   2.453   4.170   0.383
 9559SOL    HW229577   2.364   4.295   0.328
 9560SOL     OW29578   2.386   0.285   1.623
 9560SOL    HW129579   2.289   0.303   1.606
 9560SOL    HW229580   2.432   0.370   1.649
 9561SOL     OW29581   6.953   1.114   6.745
 9561SOL    HW129582   6.871   1.061   6.725
 9561SOL    HW229583   6.937   1.210   6.721
 9562SOL     OW29584   2.103   5.774   2.767
 9562SOL    HW129585   2.116   5.742   2.672
 9562SOL    HW229586   2.147   5.863   2.778
 9563SOL     OW29587   0.459   5.509   0.083
 9563SOL    HW129588   0.479   5.561   0.166
 9563SOL    HW229589   0.538   5.510   0.023
 9564SOL     OW29590   0.698   1.577   0.217
 9564SOL    HW129591   0.687   1.661   0.165
 9564SOL    HW229592   0.762   1.516   0.170
 9565SOL     OW29593   2.266   1.984   4.671
 9565SOL    HW129594   2.329   2.050   4.629
 9565SOL    HW229595   2.226   1.926   4.600
 9566SOL     OW29596   3.108   0.531   6.622
 9566SOL    HW129597   3.009   0.515   6.619
 9566SOL    HW229598   3.155   0.443   6.630
 9567SOL     OW29599   6.775   4.563   0.818
 9567SOL    HW129600   6.758   4.481   0.763
 9567SOL    HW229601   6.861   4.605   0.789
 9568SOL     OW29602   4.581   2.336   5.487
 9568SOL    HW129603   4.515   2.324   5.562
 9568SOL    HW229604   4.673   2.347   5.524
 9569SOL     OW29605   5.732   0.580   2.136
 9569SOL    HW129606   5.786   0.664   2.143
 9569SOL    HW229607   5.792   0.501   2.147
 9570SOL     OW29608   0.730   3.879   2.405
 9570SOL    HW129609   0.820   3.879   2.449
 9570SOL    HW229610   0.740   3.852   2.309
 9571SOL     OW29611   1.604   0.825   6.866
 9571SOL    HW129612   1.565   0.910   6.829
 9571SOL    HW229613   1.539   0.750   6.850
 9572SOL     OW29614   2.849   4.867   4.880
 9572SOL    HW129615   2.833   4.773   4.909
 9572SOL    HW229616   2.885   4.868   4.787
 9573SOL     OW29617   5.607   6.739   4.367
 9573SOL    HW129618   5.527   6.743   4.426
 9573SOL    HW229619   5.589   6.790   4.283
 9574SOL     OW29620   4.637   2.854   1.121
 9574SOL    HW129621   4.689   2.884   1.041
 9574SOL    HW229622   4.649   2.756   1.133
 9575SOL     OW29623   5.001   0.997   1.643
 9575SOL    HW129624   4.992   1.054   1.724
 9575SOL    HW229625   4.919   1.007   1.586
 9576SOL     OW29626   1.277   1.190   5.753
 9576SOL    HW129627   1.308   1.267   5.697
 9576SOL    HW229628   1.356   1.148   5.798
 9577SOL     OW29629   0.507   5.460   3.039
 9577SOL    HW129630   0.605   5.457   3.057
 9577SOL    HW229631   0.487   5.415   2.952
 9578SOL     OW29632   2.113   3.216   2.872
 9578SOL    HW129633   2.052   3.288   2.903
 9578SOL    HW229634   2.134   3.229   2.775
 9579SOL     OW29635   5.224   5.263   2.439
 9579SOL    HW129636   5.131   5.273   2.403
 9579SOL    HW229637   5.224   5.197   2.515
 9580SOL     OW29638   4.799   4.136   3.983
 9580SOL    HW129639   4.822   4.049   3.939
 9580SOL    HW229640   4.727   4.121   4.051
 9581SOL     OW29641   5.133   1.945   6.233
 9581SOL    HW129642   5.184   2.012   6.287
 9581SOL    HW229643   5.175   1.855   6.243
 9582SOL     OW29644   4.599   6.474   5.021
 9582SOL    HW129645   4.634   6.564   4.996
 9582SOL    HW229646   4.674   6.415   5.051
 9583SOL     OW29647   2.424   5.049   1.215
 9583SOL    HW129648   2.335   5.084   1.244
 9583SOL    HW229649   2.433   4.953   1.243
 9584SOL     OW29650   2.108   5.374   4.387
 9584SOL    HW129651   2.077   5.327   4.470
 9584SOL    HW229652   2.188   5.328   4.350
 9585SOL     OW29653   4.457   6.673   0.943
 9585SOL    HW129654   4.472   6.576   0.920
 9585SOL    HW229655   4.471   6.686   1.042
 9586SOL     OW29656   3.347   5.072   3.278
 9586SOL    HW129657   3.431   5.117   3.250
 9586SOL    HW229658   3.306   5.121   3.355
 9587SOL     OW29659   3.797   6.368   0.040
 9587SOL    HW129660   3.832   6.288   0.089
 9587SOL    HW229661   3.702   6.384   0.067
 9588SOL     OW29662   6.486   5.877   0.886
 9588SOL    HW129663   6.455   5.864   0.791
 9588SOL    HW229664   6.584   5.896   0.887
 9589SOL     OW29665   0.941   1.098   5.445
 9589SOL    HW129666   0.996   1.168   5.399
 9589SOL    HW229667   0.969   1.091   5.541
 9590SOL     OW29668   5.237   0.308   0.538
 9590SOL    HW129669   5.210   0.358   0.620
 9590SOL    HW229670   5.165   0.242   0.514
 9591SOL     OW29671   4.820   0.854   6.471
 9591SOL    HW129672   4.886   0.785   6.500
 9591SOL    HW229673   4.866   0.943   6.463
 9592SOL     OW29674   1.466   5.643   5.115
 9592SOL    HW129675   1.544   5.593   5.154
 9592SOL    HW229676   1.500   5.726   5.071
 9593SOL     OW29677   2.755   2.349   4.509
 9593SOL    HW129678   2.710   2.268   4.472
 9593SOL    HW229679   2.831   2.321   4.568
 9594SOL     OW29680   0.116   6.396   3.614
 9594SOL    HW129681   0.196   6.449   3.584
 9594SOL    HW229682   0.093   6.329   3.543
 9595SOL     OW29683   0.690   4.139   3.757
 9595SOL    HW129684   0.759   4.186   3.702
 9595SOL    HW229685   0.600   4.180   3.741
 9596SOL     OW29686   1.387   6.283   1.376
 9596SOL    HW129687   1.434   6.239   1.299
 9596SOL    HW229688   1.320   6.348   1.340
 9597SOL     OW29689   0.676   3.450   2.155
 9597SOL    HW129690   0.604   3.497   2.206
 9597SOL    HW229691   0.747   3.420   2.218
 9598SOL     OW29692   2.605   4.871   3.468
 9598SOL    HW129693   2.687   4.851   3.522
 9598SOL    HW229694   2.610   4.820   3.382
 9599SOL     OW29695   4.676   0.063   5.519
 9599SOL    HW129696   4.706   0.142   5.465
 9599SOL    HW229697   4.754   0.004   5.538
 9600SOL     OW29698   4.046   1.188   0.902
 9600SOL    HW129699   3.947   1.185   0.892
 9600SOL    HW229700   4.088   1.216   0.815
 9601SOL     OW29701   1.006   4.118   0.916
 9601SOL    HW129702   0.943   4.185   0.876
 9601SOL    HW229703   0.954   4.049   0.967
 9602SOL     OW29704   4.261   4.484   5.517
 9602SOL    HW129705   4.256   4.401   5.573
 9602SOL    HW229706   4.218   4.467   5.429
 9603SOL     OW29707   5.652   6.621   5.731
 9603SOL    HW129708   5.741   6.654   5.701
 9603SOL    HW229709   5.616   6.682   5.802
 9604SOL     OW29710   4.596   6.601   1.606
 9604SOL    HW129711   4.510   6.571   1.646
 9604SOL    HW229712   4.577   6.652   1.522
 9605SOL     OW29713   4.993   4.863   1.505
 9605SOL    HW129714   4.969   4.941   1.562
 9605SOL    HW229715   4.931   4.858   1.427
 9606SOL     OW29716   1.507   1.373   6.991
 9606SOL    HW129717   1.450   1.455   6.998
 9606SOL    HW229718   1.483   1.323   6.908
 9607SOL     OW29719   1.506   2.153   6.621
 9607SOL    HW129720   1.574   2.226   6.618
 9607SOL    HW229721   1.416   2.192   6.639
 9608SOL     OW29722   6.575   2.394   4.503
 9608SOL    HW129723   6.567   2.486   4.541
 9608SOL    HW229724   6.488   2.346   4.514
 9609SOL     OW29725   4.989   3.625   0.761
 9609SOL    HW129726   4.952   3.632   0.669
 9609SOL    HW229727   4.970   3.534   0.798
 9610SOL     OW29728   1.201   5.071   2.743
 9610SOL    HW129729   1.251   4.998   2.698
 9610SOL    HW229730   1.262   5.149   2.759
 9611SOL     OW29731   2.324   0.495   0.431
 9611SOL    HW129732   2.229   0.487   0.404
 9611SOL    HW229733   2.384   0.470   0.355
 9612SOL     OW29734   6.913   1.372   3.800
 9612SOL    HW129735   6.982   1.321   3.852
 9612SOL    HW229736   6.930   1.470   3.808
 9613SOL     OW29737   5.904   4.432   4.386
 9613SOL    HW129738   5.839   4.463   4.455
 9613SOL    HW229739   5.872   4.458   4.295
 9614SOL     OW29740   4.027   1.535   3.418
 9614SOL    HW129741   4.003   1.514   3.323
 9614SOL    HW229742   4.123   1.510   3.433
 9615SOL     OW29743   1.728   3.480   1.451
 9615SOL    HW129744   1.763   3.428   1.373
 9615SOL    HW229745   1.676   3.419   1.511
 9616SOL     OW29746   3.880   4.109   6.106
 9616SOL    HW129747   3.950   4.039   6.122
 9616SOL    HW229748   3.882   4.138   6.010
 9617SOL     OW29749   1.074   3.234   2.639
 9617SOL    HW129750   1.077   3.316   2.696
 9617SOL    HW229751   1.019   3.164   2.684
 9618SOL     OW29752   2.342   2.586   0.725
 9618SOL    HW129753   2.244   2.606   0.731
 9618SOL    HW229754   2.392   2.670   0.703
 9619SOL     OW29755   2.367   0.045   6.648
 9619SOL    HW129756   2.393   0.047   6.745
 9619SOL    HW229757   2.440   0.002   6.595
 9620SOL     OW29758   5.444   0.921   5.137
 9620SOL    HW129759   5.420   0.827   5.165
 9620SOL    HW229760   5.438   0.929   5.038
 9621SOL     OW29761   1.888   3.732   3.506
 9621SOL    HW129762   1.857   3.814   3.457
 9621SOL    HW229763   1.819   3.705   3.573
 9622SOL     OW29764   4.386   0.075   0.008
 9622SOL    HW129765   4.348   0.145   0.069
 9622SOL    HW229766   4.314   0.011   7.009
 9623SOL     OW29767   0.651   3.180   6.528
 9623SOL    HW129768   0.678   3.143   6.617
 9623SOL    HW229769   0.658   3.279   6.530
 9624SOL     OW29770   6.345   3.086   3.784
 9624SOL    HW129771   6.290   3.156   3.828
 9624SOL    HW229772   6.355   3.008   3.845
 9625SOL     OW29773   5.454   6.004   1.778
 9625SOL    HW129774   5.480   5.993   1.682
 9625SOL    HW229775   5.415   6.094   1.792
 9626SOL     OW29776   4.006   0.498   0.377
 9626SOL    HW129777   4.023   0.526   0.471
 9626SOL    HW229778   3.948   0.566   0.332
 9627SOL     OW29779   0.479   0.178   0.774
 9627SOL    HW129780   0.551   0.114   0.749
 9627SOL    HW229781   0.498   0.268   0.735
 9628SOL     OW29782   3.495   7.023   1.991
 9628SOL    HW129783   3.575   0.054   2.006
 9628SOL    HW229784   3.416   0.036   2.038
 9629SOL     OW29785   2.329   0.339   0.654
 9629SOL    HW129786   2.330   0.411   0.584
 9629SOL    HW229787   2.282   0.258   0.618
 9630SOL     OW29788   0.668   2.430   6.466
 9630SOL    HW129789   0.648   2.496   6.393
 9630SOL    HW229790   0.650   2.338   6.433
 9631SOL     OW29791   6.573   5.240   0.739
 9631SOL    HW129792   6.597   5.170   0.805
 9631SOL    HW229793   6.477   5.265   0.750
 9632SOL     OW29794   1.772   5.758   2.667
 9632SOL    HW129795   1.773   5.723   2.573
 9632SOL    HW229796   1.860   5.799   2.689
 9633SOL     OW29797   0.391   5.055   0.417
 9633SOL    HW129798   0.381   5.074   0.515
 9633SOL    HW229799   0.324   4.986   0.390
 9634SOL     OW29800   0.147   5.735   6.084
 9634SOL    HW129801   0.115   5.826   6.110
 9634SOL    HW229802   0.172   5.683   6.166
 9635SOL     OW29803   6.184   5.959   6.158
 9635SOL    HW129804   6.216   5.944   6.252
 9635SOL    HW229805   6.112   6.028   6.158
 9636SOL     OW29806   3.789   1.247   0.810
 9636SOL    HW129807   3.785   1.317   0.739
 9636SOL    HW229808   3.696   1.231   0.846
 9637SOL     OW29809   2.512   1.532   0.025
 9637SOL    HW129810   2.573   1.521   0.103
 9637SOL    HW229811   2.516   1.450   6.994
 9638SOL     OW29812   6.701   2.828   6.696
 9638SOL    HW129813   6.658   2.846   6.608
 9638SOL    HW229814   6.705   2.913   6.749
 9639SOL     OW29815   3.600   0.147   2.332
 9639SOL    HW129816   3.601   0.236   2.376
 9639SOL    HW229817   3.690   0.105   2.340
 9640SOL     OW29818   2.292   1.768   2.870
 9640SOL    HW129819   2.352   1.838   2.831
 9640SOL    HW229820   2.343   1.682   2.878
 9641SOL     OW29821   4.996   5.674   6.729
 9641SOL    HW129822   4.967   5.718   6.813
 9641SOL    HW229823   4.927   5.689   6.658
 9642SOL     OW29824   3.304   6.820   3.081
 9642SOL    HW129825   3.265   6.859   2.997
 9642SOL    HW229826   3.360   6.740   3.058
 9643SOL     OW29827   3.864   4.837   2.151
 9643SOL    HW129828   3.892   4.902   2.081
 9643SOL    HW229829   3.769   4.809   2.136
 9644SOL     OW29830   2.497   0.893   0.469
 9644SOL    HW129831   2.510   0.989   0.493
 9644SOL    HW229832   2.561   0.836   0.521
 9645SOL     OW29833   2.887   4.953   5.723
 9645SOL    HW129834   2.966   4.999   5.684
 9645SOL    HW229835   2.899   4.943   5.822
 9646SOL     OW29836   3.378   4.886   3.982
 9646SOL    HW129837   3.426   4.941   3.913
 9646SOL    HW229838   3.437   4.809   4.009
 9647SOL     OW29839   6.331   3.060   5.632
 9647SOL    HW129840   6.396   2.986   5.651
 9647SOL    HW229841   6.373   3.147   5.656
 9648SOL     OW29842   4.228   4.059   1.002
 9648SOL    HW129843   4.179   4.027   1.083
 9648SOL    HW229844   4.308   4.111   1.030
 9649SOL     OW29845   2.134   4.390   0.825
 9649SOL    HW129846   2.223   4.383   0.780
 9649SOL    HW229847   2.088   4.301   0.822
 9650SOL     OW29848   1.778   0.569   1.341
 9650SOL    HW129849   1.843   0.503   1.378
 9650SOL    HW229850   1.808   0.600   1.251
 9651SOL     OW29851   0.695   2.083   0.094
 9651SOL    HW129852   0.600   2.116   0.085
 9651SOL    HW229853   0.750   2.120   0.020
 9652SOL     OW29854   1.929   4.557   1.250
 9652SOL    HW129855   1.844   4.581   1.203
 9652SOL    HW229856   1.933   4.457   1.262
 9653SOL     OW29857   6.245   6.539   4.352
 9653SOL    HW129858   6.214   6.570   4.442
 9653SOL    HW229859   6.184   6.468   4.318
 9654SOL     OW29860   2.313   2.747   2.412
 9654SOL    HW129861   2.356   2.709   2.330
 9654SOL    HW229862   2.316   2.681   2.486
 9655SOL     OW29863   6.283   2.478   0.489
 9655SOL    HW129864   6.240   2.486   0.399
 9655SOL    HW229865   6.359   2.542   0.496
 9656SOL     OW29866   2.578   2.059   2.273
 9656SOL    HW129867   2.498   2.091   2.324
 9656SOL    HW229868   2.615   2.134   2.218
 9657SOL     OW29869   0.510   0.417   4.503
 9657SOL    HW129870   0.444   0.409   4.428
 9657SOL    HW229871   0.499   0.506   4.548
 9658SOL     OW29872   6.114   1.049   3.073
 9658SOL    HW129873   6.051   0.972   3.071
 9658SOL    HW229874   6.200   1.023   3.029
 9659SOL     OW29875   1.868   5.700   6.659
 9659SOL    HW129876   1.907   5.689   6.750
 9659SOL    HW229877   1.796   5.633   6.645
 9660SOL     OW29878   1.211   4.062   0.357
 9660SOL    HW129879   1.172   4.149   0.385
 9660SOL    HW229880   1.311   4.065   0.366
 9661SOL     OW29881   4.020   0.771   1.144
 9661SOL    HW129882   4.099   0.794   1.087
 9661SOL    HW229883   3.959   0.850   1.149
 9662SOL     OW29884   4.798   2.314   4.125
 9662SOL    HW129885   4.761   2.223   4.108
 9662SOL    HW229886   4.801   2.331   4.224
 9663SOL     OW29887   3.159   5.747   2.546
 9663SOL    HW129888   3.211   5.817   2.595
 9663SOL    HW229889   3.222   5.683   2.503
 9664SOL     OW29890   2.725   5.902   1.090
 9664SOL    HW129891   2.764   5.905   1.182
 9664SOL    HW229892   2.645   5.842   1.091
 9665SOL     OW29893   5.571   4.837   3.470
 9665SOL    HW129894   5.655   4.890   3.480
 9665SOL    HW229895   5.544   4.836   3.374
 9666SOL     OW29896   5.286   5.130   4.487
 9666SOL    HW129897   5.262   5.090   4.399
 9666SOL    HW229898   5.227   5.092   4.558
 9667SOL     OW29899   3.033   3.100   2.765
 9667SOL    HW129900   2.993   3.163   2.832
 9667SOL    HW229901   3.066   3.018   2.812
 9668SOL     OW29902   0.115   1.617   4.659
 9668SOL    HW129903   0.115   1.690   4.728
 9668SOL    HW229904   0.080   1.533   4.700
 9669SOL     OW29905   1.153   6.857   6.848
 9669SOL    HW129906   1.074   6.797   6.835
 9669SOL    HW229907   1.218   6.845   6.773
 9670SOL     OW29908   6.417   3.827   6.735
 9670SOL    HW129909   6.392   3.858   6.644
 9670SOL    HW229910   6.509   3.787   6.732
 9671SOL     OW29911   6.721   1.622   6.868
 9671SOL    HW129912   6.786   1.655   6.800
 9671SOL    HW229913   6.714   1.688   6.943
 9672SOL     OW29914   0.136   6.803   5.753
 9672SOL    HW129915   0.188   6.718   5.746
 9672SOL    HW229916   0.094   6.809   5.843
 9673SOL     OW29917   2.129   2.349   6.386
 9673SOL    HW129918   2.222   2.313   6.391
 9673SOL    HW229919   2.065   2.273   6.371
 9674SOL     OW29920   2.769   6.259   2.332
 9674SOL    HW129921   2.862   6.282   2.304
 9674SOL    HW229922   2.717   6.230   2.251
 9675SOL     OW29923   6.891   2.276   2.253
 9675SOL    HW129924   6.900   2.211   2.178
 9675SOL    HW229925   6.833   2.352   2.223
 9676SOL     OW29926   6.434   2.936   4.122
 9676SOL    HW129927   6.439   3.007   4.193
 9676SOL    HW229928   6.524   2.895   4.110
 9677SOL     OW29929   1.884   3.842   6.151
 9677SOL    HW129930   1.920   3.825   6.060
 9677SOL    HW229931   1.893   3.760   6.207
 9678SOL     OW29932   3.245   3.346   3.293
 9678SOL    HW129933   3.325   3.313   3.341
 9678SOL    HW229934   3.163   3.303   3.331
 9679SOL     OW29935   0.198   3.508   1.742
 9679SOL    HW129936   0.152   3.429   1.782
 9679SOL    HW229937   0.239   3.482   1.654
 9680SOL     OW29938   4.540   5.361   2.724
 9680SOL    HW129939   4.512   5.449   2.686
 9680SOL    HW229940   4.637   5.346   2.707
 9681SOL     OW29941   1.108   0.503   3.984
 9681SOL    HW129942   1.022   0.459   3.956
 9681SOL    HW229943   1.185   0.451   3.947
 9682SOL     OW29944   0.609   4.340   2.327
 9682SOL    HW129945   0.575   4.263   2.273
 9682SOL    HW229946   0.684   4.385   2.278
 9683SOL     OW29947   4.278   6.902   4.635
 9683SOL    HW129948   4.357   6.914   4.696
 9683SOL    HW229949   4.235   6.813   4.653
 9684SOL     OW29950   1.616   4.274   3.011
 9684SOL    HW129951   1.611   4.278   3.111
 9684SOL    HW229952   1.681   4.343   2.979
 9685SOL     OW29953   1.833   0.951   6.695
 9685SOL    HW129954   1.799   1.031   6.645
 9685SOL    HW229955   1.756   0.904   6.738
 9686SOL     OW29956   6.151   2.614   2.898
 9686SOL    HW129957   6.231   2.655   2.854
 9686SOL    HW229958   6.068   2.640   2.848
 9687SOL     OW29959   3.013   1.055   5.184
 9687SOL    HW129960   3.098   1.095   5.218
 9687SOL    HW229961   2.949   1.128   5.162
 9688SOL     OW29962   5.901   2.243   4.374
 9688SOL    HW129963   5.929   2.147   4.379
 9688SOL    HW229964   5.829   2.253   4.305
 9689SOL     OW29965   2.968   5.304   5.597
 9689SOL    HW129966   2.919   5.349   5.671
 9689SOL    HW229967   2.916   5.312   5.512
 9690SOL     OW29968   6.222   3.553   6.931
 9690SOL    HW129969   6.226   3.652   6.916
 9690SOL    HW229970   6.223   3.535   0.003
 9691SOL     OW29971   1.195   4.415   1.178
 9691SOL    HW129972   1.095   4.418   1.175
 9691SOL    HW229973   1.230   4.370   1.095
 9692SOL     OW29974   3.072   5.401   0.572
 9692SOL    HW129975   3.099   5.377   0.665
 9692SOL    HW229976   3.150   5.439   0.523
 9693SOL     OW29977   5.886   5.890   1.405
 9693SOL    HW129978   5.881   5.848   1.314
 9693SOL    HW229979   5.977   5.928   1.419
 9694SOL     OW29980   0.868   0.882   0.103
 9694SOL    HW129981   0.878   0.850   0.009
 9694SOL    HW229982   0.946   0.941   0.127
 9695SOL     OW29983   5.896   4.462   0.218
 9695SOL    HW129984   5.814   4.519   0.210
 9695SOL    HW229985   5.892   4.410   0.303
 9696SOL     OW29986   4.216   4.067   6.973
 9696SOL    HW129987   4.276   4.127   6.920
 9696SOL    HW229988   4.168   4.120   0.016
 9697SOL     OW29989   0.259   5.827   6.885
 9697SOL    HW129990   0.203   5.811   6.804
 9697SOL    HW229991   0.343   5.875   6.858
 9698SOL     OW29992   4.661   1.425   5.802
 9698SOL    HW129993   4.650   1.508   5.748
 9698SOL    HW229994   4.583   1.365   5.787
 9699SOL     OW29995   1.556   2.021   6.360
 9699SOL    HW129996   1.490   2.096   6.353
 9699SOL    HW229997   1.616   2.036   6.439
 9700SOL     OW29998   3.837   3.198   3.149
 9700SOL    HW129999   3.744   3.210   3.184
 9700SOL    HW230000   3.898   3.173   3.224
 9701SOL     OW30001   4.150   4.927   4.135
 9701SOL    HW130002   4.098   4.885   4.209
 9701SOL    HW230003   4.214   4.994   4.173
 9702SOL     OW30004   5.213   0.391   6.688
 9702SOL    HW130005   5.248   0.297   6.696
 9702SOL    HW230006   5.289   0.454   6.674
 9703SOL     OW30007   2.349   5.881   4.433
 9703SOL    HW130008   2.415   5.934   4.486
 9703SOL    HW230009   2.281   5.943   4.393
 9704SOL     OW30010   3.126   1.199   4.458
 9704SOL    HW130011   3.156   1.135   4.529
 9704SOL    HW230012   3.032   1.179   4.432
 9705SOL     OW30013   3.044   4.186   1.043
 9705SOL    HW130014   3.098   4.103   1.034
 9705SOL    HW230015   3.021   4.221   0.952
 9706SOL     OW30016   6.991   2.143   3.903
 9706SOL    HW130017   0.024   2.065   3.881
 9706SOL    HW230018   6.927   2.159   3.827
 9707SOL     OW30019   2.732   5.635   1.264
 9707SOL    HW130020   2.810   5.615   1.323
 9707SOL    HW230021   2.651   5.588   1.299
 9708SOL     OW30022   1.359   1.549   1.781
 9708SOL    HW130023   1.444   1.518   1.740
 9708SOL    HW230024   1.331   1.635   1.738
 9709SOL     OW30025   1.304   6.176   3.833
 9709SOL    HW130026   1.298   6.254   3.770
 9709SOL    HW230027   1.213   6.152   3.866
 9710SOL     OW30028   1.866   6.474   3.767
 9710SOL    HW130029   1.872   6.446   3.863
 9710SOL    HW230030   1.854   6.573   3.762
 9711SOL     OW30031   2.071   2.989   6.392
 9711SOL    HW130032   2.077   2.900   6.436
 9711SOL    HW230033   2.088   2.978   6.294
 9712SOL     OW30034   5.169   3.859   4.715
 9712SOL    HW130035   5.070   3.846   4.710
 9712SOL    HW230036   5.211   3.822   4.632
 9713SOL     OW30037   0.734   5.806   3.983
 9713SOL    HW130038   0.746   5.707   3.987
 9713SOL    HW230039   0.811   5.847   3.935
 9714SOL     OW30040   2.044   2.042   2.246
 9714SOL    HW130041   2.141   2.019   2.255
 9714SOL    HW230042   2.028   2.091   2.160
 9715SOL     OW30043   5.856   5.509   5.912
 9715SOL    HW130044   5.831   5.413   5.930
 9715SOL    HW230045   5.915   5.542   5.985
 9716SOL     OW30046   3.488   0.568   5.945
 9716SOL    HW130047   3.479   0.507   5.866
 9716SOL    HW230048   3.405   0.563   6.000
 9717SOL     OW30049   6.034   5.354   3.291
 9717SOL    HW130050   6.048   5.262   3.255
 9717SOL    HW230051   6.119   5.406   3.284
 9718SOL     OW30052   5.805   2.673   2.461
 9718SOL    HW130053   5.780   2.766   2.437
 9718SOL    HW230054   5.839   2.670   2.555
 9719SOL     OW30055   0.129   1.354   6.930
 9719SOL    HW130056   0.120   1.372   6.832
 9719SOL    HW230057   0.166   1.434   6.976
 9720SOL     OW30058   0.412   1.240   0.570
 9720SOL    HW130059   0.509   1.215   0.570
 9720SOL    HW230060   0.400   1.326   0.520
 9721SOL     OW30061   0.641   2.245   3.667
 9721SOL    HW130062   0.588   2.168   3.632
 9721SOL    HW230063   0.738   2.228   3.651
 9722SOL     OW30064   0.135   0.131   4.347
 9722SOL    HW130065   0.227   0.106   4.378
 9722SOL    HW230066   0.070   0.062   4.379
 9723SOL     OW30067   5.990   0.872   4.770
 9723SOL    HW130068   5.915   0.806   4.764
 9723SOL    HW230069   6.005   0.896   4.866
 9724SOL     OW30070   4.119   2.485   1.347
 9724SOL    HW130071   4.110   2.443   1.438
 9724SOL    HW230072   4.044   2.453   1.289
 9725SOL     OW30073   4.090   3.299   5.878
 9725SOL    HW130074   4.081   3.316   5.976
 9725SOL    HW230075   4.006   3.257   5.843
 9726SOL     OW30076   5.031   6.010   5.273
 9726SOL    HW130077   5.000   6.103   5.291
 9726SOL    HW230078   5.107   6.012   5.209
 9727SOL     OW30079   0.300   0.834   6.484
 9727SOL    HW130080   0.334   0.741   6.498
 9727SOL    HW230081   0.214   0.846   6.534
 9728SOL     OW30082   2.633   5.836   5.998
 9728SOL    HW130083   2.715   5.807   5.949
 9728SOL    HW230084   2.609   5.929   5.970
 9729SOL     OW30085   3.369   5.874   2.187
 9729SOL    HW130086   3.411   5.816   2.256
 9729SOL    HW230087   3.430   5.882   2.108
 9730SOL     OW30088   5.128   3.609   2.758
 9730SOL    HW130089   5.036   3.621   2.794
 9730SOL    HW230090   5.144   3.676   2.685
 9731SOL     OW30091   5.384   4.419   0.821
 9731SOL    HW130092   5.454   4.489   0.811
 9731SOL    HW230093   5.398   4.348   0.752
 9732SOL     OW30094   5.467   6.129   4.375
 9732SOL    HW130095   5.438   6.049   4.324
 9732SOL    HW230096   5.455   6.211   4.318
 9733SOL     OW30097   4.671   4.634   4.133
 9733SOL    HW130098   4.672   4.576   4.215
 9733SOL    HW230099   4.577   4.651   4.105
 9734SOL     OW30100   6.311   2.663   5.784
 9734SOL    HW130101   6.342   2.574   5.752
 9734SOL    HW230102   6.218   2.679   5.751
 9735SOL     OW30103   3.434   4.751   1.315
 9735SOL    HW130104   3.402   4.808   1.240
 9735SOL    HW230105   3.498   4.682   1.281
 9736SOL     OW30106   3.791   1.974   2.090
 9736SOL    HW130107   3.707   2.021   2.061
 9736SOL    HW230108   3.868   2.011   2.038
 9737SOL     OW30109   5.127   1.454   4.745
 9737SOL    HW130110   5.167   1.424   4.831
 9737SOL    HW230111   5.038   1.411   4.732
 9738SOL     OW30112   2.698   0.509   2.240
 9738SOL    HW130113   2.656   0.473   2.324
 9738SOL    HW230114   2.644   0.481   2.161
 9739SOL     OW30115   5.213   4.535   2.534
 9739SOL    HW130116   5.254   4.591   2.462
 9739SOL    HW230117   5.166   4.457   2.493
 9740SOL     OW30118   6.578   3.306   3.613
 9740SOL    HW130119   6.592   3.361   3.695
 9740SOL    HW230120   6.492   3.334   3.569
 9741SOL     OW30121   3.998   1.579   3.118
 9741SOL    HW130122   3.901   1.591   3.139
 9741SOL    HW230123   4.016   1.484   3.095
 9742SOL     OW30124   3.724   1.584   2.600
 9742SOL    HW130125   3.752   1.622   2.512
 9742SOL    HW230126   3.707   1.657   2.666
 9743SOL     OW30127   1.497   1.095   5.888
 9743SOL    HW130128   1.434   1.037   5.938
 9743SOL    HW230129   1.537   1.163   5.951
 9744SOL     OW30130   2.244   0.421   1.355
 9744SOL    HW130131   2.297   0.505   1.367
 9744SOL    HW230132   2.302   0.350   1.316
 9745SOL     OW30133   0.582   1.107   4.126
 9745SOL    HW130134   0.657   1.168   4.100
 9745SOL    HW230135   0.516   1.157   4.182
 9746SOL     OW30136   5.988   6.828   4.804
 9746SOL    HW130137   6.015   6.919   4.833
 9746SOL    HW230138   5.888   6.824   4.795
 9747SOL     OW30139   6.924   0.148   5.588
 9747SOL    HW130140   6.973   0.226   5.627
 9747SOL    HW230141   6.969   0.121   5.502
 9748SOL     OW30142   1.640   4.596   4.456
 9748SOL    HW130143   1.714   4.532   4.435
 9748SOL    HW230144   1.631   4.661   4.381
 9749SOL     OW30145   0.881   5.293   4.906
 9749SOL    HW130146   0.812   5.233   4.865
 9749SOL    HW230147   0.847   5.330   4.992
 9750SOL     OW30148   2.376   5.523   2.465
 9750SOL    HW130149   2.475   5.535   2.475
 9750SOL    HW230150   2.335   5.608   2.433
 9751SOL     OW30151   1.357   1.896   0.897
 9751SOL    HW130152   1.433   1.961   0.888
 9751SOL    HW230153   1.283   1.923   0.835
 9752SOL     OW30154   3.238   6.802   5.993
 9752SOL    HW130155   3.302   6.761   6.058
 9752SOL    HW230156   3.153   6.826   6.041
 9753SOL     OW30157   0.239   0.505   6.778
 9753SOL    HW130158   0.183   0.462   6.849
 9753SOL    HW230159   0.305   0.439   6.742
 9754SOL     OW30160   0.019   3.037   6.669
 9754SOL    HW130161   0.045   2.994   6.755
 9754SOL    HW230162   0.016   2.969   6.597
 9755SOL     OW30163   4.139   6.096   4.633
 9755SOL    HW130164   4.145   6.184   4.585
 9755SOL    HW230165   4.195   6.100   4.715
 9756SOL     OW30166   4.478   3.009   6.636
 9756SOL    HW130167   4.557   3.069   6.641
 9756SOL    HW230168   4.505   2.920   6.600
 9757SOL     OW30169   5.666   0.582   4.257
 9757SOL    HW130170   5.597   0.512   4.275
 9757SOL    HW230171   5.620   0.668   4.232
 9758SOL     OW30172   3.676   0.180   0.392
 9758SOL    HW130173   3.725   0.133   0.465
 9758SOL    HW230174   3.711   0.149   0.303
 9759SOL     OW30175   3.082   6.243   1.771
 9759SOL    HW130176   2.996   6.293   1.780
 9759SOL    HW230177   3.072   6.153   1.815
 9760SOL     OW30178   4.876   3.750   6.263
 9760SOL    HW130179   4.939   3.771   6.188
 9760SOL    HW230180   4.842   3.657   6.253
 9761SOL     OW30181   5.194   5.634   3.058
 9761SOL    HW130182   5.270   5.638   3.123
 9761SOL    HW230183   5.109   5.659   3.105
 9762SOL     OW30184   3.580   1.065   2.226
 9762SOL    HW130185   3.599   1.154   2.268
 9762SOL    HW230186   3.623   1.061   2.136
 9763SOL     OW30187   2.222   2.107   1.821
 9763SOL    HW130188   2.307   2.113   1.874
 9763SOL    HW230189   2.153   2.057   1.874
 9764SOL     OW30190   1.313   3.092   4.254
 9764SOL    HW130191   1.256   3.174   4.250
 9764SOL    HW230192   1.389   3.107   4.318
 9765SOL     OW30193   0.090   1.716   5.251
 9765SOL    HW130194   0.069   1.796   5.307
 9765SOL    HW230195   0.189   1.701   5.250
 9766SOL     OW30196   3.260   0.608   1.816
 9766SOL    HW130197   3.192   0.560   1.761
 9766SOL    HW230198   3.321   0.541   1.859
 9767SOL     OW30199   4.447   0.577   5.006
 9767SOL    HW130200   4.430   0.675   5.009
 9767SOL    HW230201   4.363   0.528   5.029
 9768SOL     OW30202   4.698   1.892   3.060
 9768SOL    HW130203   4.601   1.894   3.037
 9768SOL    HW230204   4.717   1.811   3.116
 9769SOL     OW30205   6.932   2.625   0.352
 9769SOL    HW130206   6.996   2.592   0.283
 9769SOL    HW230207   6.982   2.673   0.424
 9770SOL     OW30208   0.355   3.307   4.812
 9770SOL    HW130209   0.431   3.269   4.760
 9770SOL    HW230210   0.312   3.236   4.867
 9771SOL     OW30211   1.897   6.609   4.241
 9771SOL    HW130212   1.861   6.694   4.203
 9771SOL    HW230213   1.824   6.562   4.291
 9772SOL     OW30214   5.763   6.477   1.280
 9772SOL    HW130215   5.826   6.444   1.209
 9772SOL    HW230216   5.808   6.548   1.334
 9773SOL     OW30217   5.525   5.388   3.493
 9773SOL    HW130218   5.620   5.396   3.524
 9773SOL    HW230219   5.508   5.294   3.463
 9774SOL     OW30220   6.400   6.139   4.033
 9774SOL    HW130221   6.315   6.150   3.982
 9774SOL    HW230222   6.426   6.226   4.076
 9775SOL     OW30223   2.816   1.419   4.478
 9775SOL    HW130224   2.913   1.444   4.471
 9775SOL    HW230225   2.786   1.426   4.573
 9776SOL     OW30226   0.422   4.445   4.700
 9776SOL    HW130227   0.370   4.405   4.626
 9776SOL    HW230228   0.392   4.539   4.716
 9777SOL     OW30229   5.057   5.547   6.242
 9777SOL    HW130230   5.133   5.592   6.290
 9777SOL    HW230231   5.031   5.464   6.291
 9778SOL     OW30232   3.246   0.642   4.555
 9778SOL    HW130233   3.269   0.739   4.548
 9778SOL    HW230234   3.185   0.616   4.480
 9779SOL     OW30235   3.132   2.198   6.774
 9779SOL    HW130236   3.220   2.243   6.761
 9779SOL    HW230237   3.145   2.099   6.770
 9780SOL     OW30238   1.418   2.898   1.325
 9780SOL    HW130239   1.363   2.967   1.277
 9780SOL    HW230240   1.401   2.905   1.424
 9781SOL     OW30241   0.064   0.403   4.360
 9781SOL    HW130242   0.061   0.304   4.344
 9781SOL    HW230243   0.014   0.425   4.443
 9782SOL     OW30244   5.748   0.136   0.159
 9782SOL    HW130245   5.834   0.187   0.163
 9782SOL    HW230246   5.671   0.200   0.157
 9783SOL     OW30247   5.988   0.178   4.177
 9783SOL    HW130248   6.026   0.257   4.226
 9783SOL    HW230249   6.063   0.117   4.150
 9784SOL     OW30250   4.957   0.979   4.689
 9784SOL    HW130251   4.947   0.960   4.591
 9784SOL    HW230252   5.006   0.904   4.733
 9785SOL     OW30253   0.984   2.490   1.006
 9785SOL    HW130254   0.988   2.565   0.940
 9785SOL    HW230255   1.068   2.436   1.002
 9786SOL     OW30256   1.213   6.972   3.212
 9786SOL    HW130257   1.204   7.018   3.301
 9786SOL    HW230258   1.291   6.910   3.214
 9787SOL     OW30259   6.028   3.612   1.108
 9787SOL    HW130260   6.051   3.706   1.084
 9787SOL    HW230261   6.094   3.577   1.173
 9788SOL     OW30262   6.947   0.071   6.254
 9788SOL    HW130263   6.855   0.091   6.221
 9788SOL    HW230264   6.979   7.012   6.213
 9789SOL     OW30265   2.379   4.329   4.093
 9789SOL    HW130266   2.376   4.295   4.000
 9789SOL    HW230267   2.328   4.267   4.153
 9790SOL     OW30268   0.375   1.521   3.472
 9790SOL    HW130269   0.398   1.487   3.563
 9790SOL    HW230270   0.447   1.495   3.407
 9791SOL     OW30271   1.275   2.123   0.637
 9791SOL    HW130272   1.217   2.042   0.649
 9791SOL    HW230273   1.371   2.095   0.636
 9792SOL     OW30274   4.541   5.331   2.994
 9792SOL    HW130275   4.532   5.232   2.998
 9792SOL    HW230276   4.553   5.360   2.899
 9793SOL     OW30277   4.948   5.928   1.886
 9793SOL    HW130278   4.896   5.864   1.830
 9793SOL    HW230279   5.046   5.914   1.870
 9794SOL     OW30280   3.349   4.394   0.190
 9794SOL    HW130281   3.329   4.481   0.234
 9794SOL    HW230282   3.290   4.382   0.110
 9795SOL     OW30283   2.142   5.110   2.770
 9795SOL    HW130284   2.174   5.180   2.706
 9795SOL    HW230285   2.049   5.131   2.799
 9796SOL     OW30286   4.097   5.031   6.225
 9796SOL    HW130287   4.114   5.095   6.150
 9796SOL    HW230288   4.085   5.082   6.311
 9797SOL     OW30289   6.558   3.600   5.032
 9797SOL    HW130290   6.557   3.663   4.954
 9797SOL    HW230291   6.555   3.652   5.117
 9798SOL     OW30292   3.471   1.702   1.555
 9798SOL    HW130293   3.433   1.649   1.630
 9798SOL    HW230294   3.562   1.735   1.581
 9799SOL     OW30295   4.125   3.657   3.097
 9799SOL    HW130296   4.111   3.696   3.006
 9799SOL    HW230297   4.153   3.561   3.088
 9800SOL     OW30298   4.126   6.256   0.370
 9800SOL    HW130299   4.209   6.302   0.339
 9800SOL    HW230300   4.121   6.166   0.326
 9801SOL     OW30301   5.635   5.306   1.932
 9801SOL    HW130302   5.662   5.383   1.989
 9801SOL    HW230303   5.712   5.279   1.874
 9802SOL     OW30304   0.691   6.388   2.302
 9802SOL    HW130305   0.628   6.383   2.225
 9802SOL    HW230306   0.708   6.296   2.338
 9803SOL     OW30307   5.641   0.048   5.938
 9803SOL    HW130308   5.736   0.024   5.917
 9803SOL    HW230309   5.629   0.047   6.037
 9804SOL     OW30310   4.876   5.900   3.830
 9804SOL    HW130311   4.882   5.828   3.762
 9804SOL    HW230312   4.780   5.921   3.848
 9805SOL     OW30313   3.023   4.712   0.734
 9805SOL    HW130314   2.966   4.647   0.784
 9805SOL    HW230315   2.969   4.794   0.712
 9806SOL     OW30316   0.912   1.286   3.047
 9806SOL    HW130317   0.833   1.227   3.061
 9806SOL    HW230318   0.983   1.263   3.113
 9807SOL     OW30319   2.279   3.890   0.737
 9807SOL    HW130320   2.310   3.951   0.810
 9807SOL    HW230321   2.350   3.820   0.720
 9808SOL     OW30322   2.142   2.362   3.160
 9808SOL    HW130323   2.109   2.427   3.091
 9808SOL    HW230324   2.111   2.270   3.138
 9809SOL     OW30325   0.330   0.302   4.036
 9809SOL    HW130326   0.246   0.270   3.992
 9809SOL    HW230327   0.379   0.224   4.075
 9810SOL     OW30328   4.862   1.612   2.817
 9810SOL    HW130329   4.869   1.617   2.916
 9810SOL    HW230330   4.839   1.702   2.780
 9811SOL     OW30331   1.328   0.150   2.952
 9811SOL    HW130332   1.283   0.180   2.868
 9811SOL    HW230333   1.260   0.114   3.015
 9812SOL     OW30334   5.844   2.885   0.114
 9812SOL    HW130335   5.837   2.985   0.106
 9812SOL    HW230336   5.759   2.848   0.151
 9813SOL     OW30337   6.222   4.381   0.358
 9813SOL    HW130338   6.210   4.282   0.346
 9813SOL    HW230339   6.234   4.424   0.268
 9814SOL     OW30340   6.784   1.259   5.639
 9814SOL    HW130341   6.727   1.179   5.621
 9814SOL    HW230342   6.845   1.240   5.717
 9815SOL     OW30343   6.962   5.283   2.165
 9815SOL    HW130344   6.958   5.223   2.245
 9815SOL    HW230345   7.009   5.368   2.190
 9816SOL     OW30346   6.887   2.465   5.188
 9816SOL    HW130347   6.924   2.557   5.179
 9816SOL    HW230348   6.791   2.464   5.159
 9817SOL     OW30349   2.038   1.957   0.289
 9817SOL    HW130350   2.027   1.861   0.261
 9817SOL    HW230351   2.048   2.015   0.208
 9818SOL     OW30352   0.266   0.232   2.621
 9818SOL    HW130353   0.205   0.303   2.587
 9818SOL    HW230354   0.273   0.159   2.554
 9819SOL     OW30355   5.976   0.978   5.034
 9819SOL    HW130356   5.882   1.008   5.017
 9819SOL    HW230357   6.007   1.015   5.121
 9820SOL     OW30358   3.223   0.788   6.532
 9820SOL    HW130359   3.293   0.813   6.600
 9820SOL    HW230360   3.191   0.695   6.549
 9821SOL     OW30361   4.658   4.234   6.167
 9821SOL    HW130362   4.687   4.329   6.175
 9821SOL    HW230363   4.738   4.176   6.154
 9822SOL     OW30364   3.031   0.095   3.721
 9822SOL    HW130365   2.949   0.077   3.776
 9822SOL    HW230366   3.004   0.104   3.625
 9823SOL     OW30367   4.149   6.453   2.766
 9823SOL    HW130368   4.077   6.411   2.711
 9823SOL    HW230369   4.158   6.550   2.740
 9824SOL     OW30370   1.681   5.813   5.419
 9824SOL    HW130371   1.738   5.880   5.467
 9824SOL    HW230372   1.616   5.862   5.360
 9825SOL     OW30373   0.392   6.575   4.865
 9825SOL    HW130374   0.405   6.605   4.771
 9825SOL    HW230375   0.335   6.641   4.914
 9826SOL     OW30376   1.596   6.558   5.065
 9826SOL    HW130377   1.585   6.589   5.160
 9826SOL    HW230378   1.650   6.474   5.064
 9827SOL     OW30379   1.766   4.672   1.510
 9827SOL    HW130380   1.765   4.582   1.465
 9827SOL    HW230381   1.694   4.729   1.471
 9828SOL     OW30382   4.871   1.880   4.400
 9828SOL    HW130383   4.809   1.807   4.429
 9828SOL    HW230384   4.881   1.878   4.300
 9829SOL     OW30385   5.751   4.208   5.776
 9829SOL    HW130386   5.796   4.234   5.861
 9829SOL    HW230387   5.708   4.118   5.787
 9830SOL     OW30388   6.047   0.370   3.385
 9830SOL    HW130389   6.139   0.392   3.354
 9830SOL    HW230390   6.036   0.396   3.480
 9831SOL     OW30391   0.931   4.610   1.455
 9831SOL    HW130392   0.947   4.617   1.356
 9831SOL    HW230393   1.003   4.553   1.496
 9832SOL     OW30394   5.970   5.613   5.251
 9832SOL    HW130395   5.995   5.525   5.212
 9832SOL    HW230396   6.026   5.631   5.332
 9833SOL     OW30397   3.982   3.126   4.337
 9833SOL    HW130398   3.944   3.123   4.429
 9833SOL    HW230399   4.014   3.219   4.317
 9834SOL     OW30400   2.889   6.145   5.823
 9834SOL    HW130401   2.927   6.234   5.847
 9834SOL    HW230402   2.954   6.073   5.845
 9835SOL     OW30403   3.903   3.203   3.775
 9835SOL    HW130404   3.966   3.191   3.852
 9835SOL    HW230405   3.809   3.201   3.808
 9836SOL     OW30406   6.892   3.209   6.532
 9836SOL    HW130407   6.932   3.155   6.607
 9836SOL    HW230408   6.871   3.301   6.565
 9837SOL     OW30409   6.214   0.662   5.004
 9837SOL    HW130410   6.158   0.697   5.080
 9837SOL    HW230411   6.283   0.730   4.980
 9838SOL     OW30412   0.446   5.849   1.137
 9838SOL    HW130413   0.428   5.912   1.212
 9838SOL    HW230414   0.493   5.898   1.063
 9839SOL     OW30415   4.135   6.841   3.254
 9839SOL    HW130416   4.117   6.744   3.237
 9839SOL    HW230417   4.050   6.887   3.278
 9840SOL     OW30418   6.303   2.193   5.341
 9840SOL    HW130419   6.358   2.202   5.424
 9840SOL    HW230420   6.220   2.140   5.360
 9841SOL     OW30421   6.769   5.430   2.009
 9841SOL    HW130422   6.773   5.389   1.917
 9841SOL    HW230423   6.819   5.372   2.073
 9842SOL     OW30424   4.163   0.422   0.594
 9842SOL    HW130425   4.121   0.332   0.602
 9842SOL    HW230426   4.148   0.474   0.678
 9843SOL     OW30427   0.221   0.080   0.726
 9843SOL    HW130428   0.300   0.142   0.727
 9843SOL    HW230429   0.168   0.091   0.810
 9844SOL     OW30430   5.695   0.714   4.548
 9844SOL    HW130431   5.664   0.665   4.467
 9844SOL    HW230432   5.754   0.790   4.521
 9845SOL     OW30433   0.811   3.373   2.766
 9845SOL    HW130434   0.808   3.288   2.713
 9845SOL    HW230435   0.903   3.384   2.804
 9846SOL     OW30436   5.790   2.137   3.155
 9846SOL    HW130437   5.747   2.131   3.245
 9846SOL    HW230438   5.753   2.214   3.104
 9847SOL     OW30439   4.232   3.346   0.101
 9847SOL    HW130440   4.277   3.357   0.190
 9847SOL    HW230441   4.213   3.436   0.062
 9848SOL     OW30442   2.800   3.511   6.426
 9848SOL    HW130443   2.739   3.456   6.482
 9848SOL    HW230444   2.807   3.603   6.464
 9849SOL     OW30445   1.759   2.174   2.362
 9849SOL    HW130446   1.782   2.201   2.455
 9849SOL    HW230447   1.834   2.200   2.300
 9850SOL     OW30448   2.069   0.341   3.769
 9850SOL    HW130449   2.029   0.288   3.844
 9850SOL    HW230450   2.059   0.439   3.790
 9851SOL     OW30451   3.737   6.508   3.513
 9851SOL    HW130452   3.748   6.417   3.552
 9851SOL    HW230453   3.644   6.520   3.479
 9852SOL     OW30454   2.546   0.678   6.670
 9852SOL    HW130455   2.484   0.747   6.634
 9852SOL    HW230456   2.602   0.719   6.742
 9853SOL     OW30457   0.197   3.920   4.106
 9853SOL    HW130458   0.210   3.963   4.016
 9853SOL    HW230459   0.099   3.907   4.122
 9854SOL     OW30460   6.255   4.209   6.857
 9854SOL    HW130461   6.238   4.308   6.853
 9854SOL    HW230462   6.170   4.161   6.877
 9855SOL     OW30463   0.310   6.207   1.060
 9855SOL    HW130464   0.280   6.122   1.015
 9855SOL    HW230465   0.409   6.203   1.075
 9856SOL     OW30466   4.473   4.567   3.387
 9856SOL    HW130467   4.455   4.488   3.328
 9856SOL    HW230468   4.481   4.650   3.331
 9857SOL     OW30469   3.765   6.771   5.653
 9857SOL    HW130470   3.851   6.778   5.603
 9857SOL    HW230471   3.782   6.789   5.750
 9858SOL     OW30472   6.756   5.172   2.742
 9858SOL    HW130473   6.850   5.193   2.769
 9858SOL    HW230474   6.749   5.175   2.642
 9859SOL     OW30475   0.150   6.832   2.983
 9859SOL    HW130476   0.190   6.864   2.897
 9859SOL    HW230477   0.147   6.732   2.983
 9860SOL     OW30478   1.146   3.804   3.472
 9860SOL    HW130479   1.174   3.725   3.527
 9860SOL    HW230480   1.046   3.808   3.469
 9861SOL     OW30481   3.896   2.100   4.234
 9861SOL    HW130482   3.950   2.091   4.150
 9861SOL    HW230483   3.870   2.195   4.247
 9862SOL     OW30484   1.395   3.032   6.684
 9862SOL    HW130485   1.436   3.107   6.737
 9862SOL    HW230486   1.357   3.067   6.599
 9863SOL     OW30487   3.493   5.732   1.897
 9863SOL    HW130488   3.487   5.658   1.964
 9863SOL    HW230489   3.428   5.716   1.823
 9864SOL     OW30490   3.174   6.463   5.004
 9864SOL    HW130491   3.217   6.539   4.956
 9864SOL    HW230492   3.144   6.494   5.095
 9865SOL     OW30493   2.305   4.832   5.927
 9865SOL    HW130494   2.311   4.748   5.980
 9865SOL    HW230495   2.381   4.837   5.862
 9866SOL     OW30496   0.861   5.814   5.224
 9866SOL    HW130497   0.794   5.750   5.260
 9866SOL    HW230498   0.921   5.767   5.159
 9867SOL     OW30499   5.208   1.361   2.750
 9867SOL    HW130500   5.122   1.315   2.729
 9867SOL    HW230501   5.267   1.362   2.669
 9868SOL     OW30502   2.322   5.445   2.933
 9868SOL    HW130503   2.366   5.473   3.019
 9868SOL    HW230504   2.228   5.417   2.951
 9869SOL     OW30505   6.182   1.919   2.657
 9869SOL    HW130506   6.199   1.910   2.559
 9869SOL    HW230507   6.173   2.015   2.681
 9870SOL     OW30508   2.204   2.911   3.176
 9870SOL    HW130509   2.229   3.008   3.179
 9870SOL    HW230510   2.150   2.894   3.093
 9871SOL     OW30511   5.788   5.188   2.756
 9871SOL    HW130512   5.883   5.183   2.787
 9871SOL    HW230513   5.742   5.101   2.774
 9872SOL     OW30514   0.115   6.702   4.543
 9872SOL    HW130515   0.037   6.683   4.483
 9872SOL    HW230516   0.167   6.619   4.558
 9873SOL     OW30517   0.617   0.719   4.575
 9873SOL    HW130518   0.692   0.698   4.512
 9873SOL    HW230519   0.611   0.649   4.646
 9874SOL     OW30520   6.948   2.547   4.394
 9874SOL    HW130521   6.911   2.583   4.480
 9874SOL    HW230522   6.979   2.623   4.337
 9875SOL     OW30523   5.338   5.712   0.881
 9875SOL    HW130524   5.327   5.715   0.981
 9875SOL    HW230525   5.340   5.805   0.845
 9876SOL     OW30526   0.716   7.001   3.069
 9876SOL    HW130527   0.757   6.916   3.103
 9876SOL    HW230528   0.775   0.013   2.998
 9877SOL     OW30529   1.701   5.586   5.277
 9877SOL    HW130530   1.745   5.601   5.188
 9877SOL    HW230531   1.707   5.668   5.332
 9878SOL     OW30532   4.724   4.111   0.269
 9878SOL    HW130533   4.708   4.208   0.286
 9878SOL    HW230534   4.716   4.092   0.171
 9879SOL     OW30535   5.961   5.002   4.266
 9879SOL    HW130536   5.876   5.051   4.289
 9879SOL    HW230537   5.986   4.942   4.343
 9880SOL     OW30538   2.609   1.609   0.998
 9880SOL    HW130539   2.553   1.691   1.008
 9880SOL    HW230540   2.672   1.622   0.922
 9881SOL     OW30541   6.400   0.355   2.758
 9881SOL    HW130542   6.420   0.309   2.671
 9881SOL    HW230543   6.319   0.313   2.800
 9882SOL     OW30544   3.212   3.968   4.847
 9882SOL    HW130545   3.268   3.914   4.908
 9882SOL    HW230546   3.130   3.917   4.823
 9883SOL     OW30547   0.736   5.192   2.704
 9883SOL    HW130548   0.806   5.133   2.663
 9883SOL    HW230549   0.694   5.249   2.633
 9884SOL     OW30550   3.489   2.742   5.314
 9884SOL    HW130551   3.423   2.794   5.259
 9884SOL    HW230552   3.443   2.663   5.355
 9885SOL     OW30553   4.789   2.141   5.187
 9885SOL    HW130554   4.807   2.169   5.093
 9885SOL    HW230555   4.842   2.197   5.250
 9886SOL     OW30556   2.376   6.226   1.403
 9886SOL    HW130557   2.305   6.177   1.352
 9886SOL    HW230558   2.334   6.302   1.452
 9887SOL     OW30559   3.421   1.447   6.980
 9887SOL    HW130560   3.464   1.537   6.969
 9887SOL    HW230561   3.434   1.416   0.047
 9888SOL     OW30562   6.441   7.000   3.903
 9888SOL    HW130563   6.529   6.985   3.857
 9888SOL    HW230564   6.414   6.917   3.952
 9889SOL     OW30565   6.435   5.802   2.310
 9889SOL    HW130566   6.471   5.714   2.280
 9889SOL    HW230567   6.498   5.875   2.285
 9890SOL     OW30568   1.769   3.292   3.275
 9890SOL    HW130569   1.732   3.260   3.362
 9890SOL    HW230570   1.811   3.216   3.227
 9891SOL     OW30571   3.339   0.507   1.410
 9891SOL    HW130572   3.401   0.552   1.346
 9891SOL    HW230573   3.392   0.458   1.479
 9892SOL     OW30574   2.195   6.063   3.107
 9892SOL    HW130575   2.212   6.032   3.013
 9892SOL    HW230576   2.205   6.163   3.111
 9893SOL     OW30577   5.693   4.791   4.469
 9893SOL    HW130578   5.784   4.783   4.510
 9893SOL    HW230579   5.700   4.788   4.369
 9894SOL     OW30580   4.902   3.426   6.168
 9894SOL    HW130581   4.813   3.468   6.187
 9894SOL    HW230582   4.888   3.346   6.109
 9895SOL     OW30583   5.514   2.895   6.049
 9895SOL    HW130584   5.566   2.977   6.072
 9895SOL    HW230585   5.475   2.905   5.957
 9896SOL     OW30586   3.205   3.999   6.290
 9896SOL    HW130587   3.200   4.016   6.191
 9896SOL    HW230588   3.113   3.978   6.324
 9897SOL     OW30589   1.237   0.850   3.004
 9897SOL    HW130590   1.289   0.898   2.934
 9897SOL    HW230591   1.210   0.915   3.076
 9898SOL     OW30592   0.388   5.512   6.786
 9898SOL    HW130593   0.469   5.525   6.844
 9898SOL    HW230594   0.306   5.509   6.844
 9899SOL     OW30595   3.672   5.101   0.655
 9899SOL    HW130596   3.763   5.114   0.616
 9899SOL    HW230597   3.680   5.070   0.749
 9900SOL     OW30598   2.450   5.388   3.646
 9900SOL    HW130599   2.359   5.400   3.686
 9900SOL    HW230600   2.442   5.377   3.547
 9901SOL     OW30601   2.998   1.779   6.225
 9901SOL    HW130602   2.952   1.715   6.163
 9901SOL    HW230603   2.945   1.864   6.230
 9902SOL     OW30604   4.032   4.517   6.674
 9902SOL    HW130605   4.078   4.578   6.610
 9902SOL    HW230606   4.065   4.423   6.660
 9903SOL     OW30607   3.142   1.403   0.558
 9903SOL    HW130608   3.053   1.383   0.517
 9903SOL    HW230609   3.129   1.425   0.655
 9904SOL     OW30610   6.297   6.237   1.677
 9904SOL    HW130611   6.378   6.248   1.734
 9904SOL    HW230612   6.301   6.304   1.602
 9905SOL     OW30613   2.248   6.834   6.518
 9905SOL    HW130614   2.260   6.911   6.582
 9905SOL    HW230615   2.289   6.752   6.557
 9906SOL     OW30616   2.989   3.583   6.728
 9906SOL    HW130617   3.048   3.506   6.702
 9906SOL    HW230618   2.981   3.586   6.828
 9907SOL     OW30619   0.854   6.798   3.415
 9907SOL    HW130620   0.799   6.877   3.440
 9907SOL    HW230621   0.902   6.817   3.329
 9908SOL     OW30622   0.083   3.421   6.121
 9908SOL    HW130623   0.145   3.349   6.151
 9908SOL    HW230624   0.003   3.380   6.077
 9909SOL     OW30625   2.306   5.801   2.336
 9909SOL    HW130626   2.255   5.770   2.256
 9909SOL    HW230627   2.396   5.836   2.307
 9910SOL     OW30628   0.997   5.205   0.445
 9910SOL    HW130629   1.097   5.208   0.435
 9910SOL    HW230630   0.958   5.294   0.424
 9911SOL     OW30631   2.774   4.777   1.786
 9911SOL    HW130632   2.753   4.829   1.869
 9911SOL    HW230633   2.825   4.695   1.810
 9912SOL     OW30634   6.361   6.629   0.155
 9912SOL    HW130635   6.435   6.650   0.219
 9912SOL    HW230636   6.288   6.579   0.202
 9913SOL     OW30637   6.061   2.374   1.300
 9913SOL    HW130638   6.075   2.304   1.370
 9913SOL    HW230639   6.093   2.340   1.212
 9914SOL     OW30640   2.012   5.001   3.734
 9914SOL    HW130641   2.091   5.059   3.713
 9914SOL    HW230642   1.980   4.956   3.651
 9915SOL     OW30643   6.179   4.592   4.496
 9915SOL    HW130644   6.207   4.622   4.405
 9915SOL    HW230645   6.130   4.504   4.489
 9916SOL     OW30646   1.189   3.055   1.108
 9916SOL    HW130647   1.167   3.017   1.018
 9916SOL    HW230648   1.247   3.136   1.096
 9917SOL     OW30649   2.042   4.468   4.463
 9917SOL    HW130650   1.953   4.427   4.441
 9917SOL    HW230651   2.056   4.467   4.562
 9918SOL     OW30652   2.975   2.175   3.854
 9918SOL    HW130653   2.978   2.208   3.760
 9918SOL    HW230654   3.051   2.113   3.871
 9919SOL     OW30655   0.637   5.658   1.766
 9919SOL    HW130656   0.703   5.584   1.753
 9919SOL    HW230657   0.594   5.679   1.678
 9920SOL     OW30658   3.572   0.346   2.521
 9920SOL    HW130659   3.499   0.340   2.590
 9920SOL    HW230660   3.660   0.330   2.566
 9921SOL     OW30661   4.666   0.235   2.323
 9921SOL    HW130662   4.581   0.193   2.291
 9921SOL    HW230663   4.692   0.309   2.261
 9922SOL     OW30664   6.175   2.143   2.335
 9922SOL    HW130665   6.259   2.175   2.380
 9922SOL    HW230666   6.096   2.180   2.383
 9923SOL     OW30667   5.377   6.650   5.674
 9923SOL    HW130668   5.472   6.634   5.697
 9923SOL    HW230669   5.346   6.735   5.717
 9924SOL     OW30670   6.030   6.639   3.731
 9924SOL    HW130671   5.955   6.647   3.665
 9924SOL    HW230672   5.997   6.664   3.822
 9925SOL     OW30673   3.893   2.387   5.383
 9925SOL    HW130674   3.830   2.459   5.354
 9925SOL    HW230675   3.880   2.370   5.481
 9926SOL     OW30676   1.741   1.183   6.546
 9926SOL    HW130677   1.835   1.202   6.518
 9926SOL    HW230678   1.678   1.233   6.486
 9927SOL     OW30679   2.227   4.215   4.301
 9927SOL    HW130680   2.228   4.115   4.294
 9927SOL    HW230681   2.260   4.242   4.392
 9928SOL     OW30682   6.651   3.392   3.189
 9928SOL    HW130683   6.743   3.430   3.200
 9928SOL    HW230684   6.633   3.328   3.263
 9929SOL     OW30685   1.394   5.057   5.162
 9929SOL    HW130686   1.388   5.010   5.074
 9929SOL    HW230687   1.469   5.018   5.215
 9930SOL     OW30688   6.837   6.574   6.998
 9930SOL    HW130689   6.883   6.593   6.911
 9930SOL    HW230690   6.845   6.477   7.019
 9931SOL     OW30691   1.008   3.722   6.912
 9931SOL    HW130692   1.077   3.689   6.848
 9931SOL    HW230693   0.984   3.817   6.889
 9932SOL     OW30694   1.993   1.599   1.060
 9932SOL    HW130695   1.894   1.589   1.050
 9932SOL    HW230696   2.013   1.648   1.144
 9933SOL     OW30697   2.203   1.587   3.123
 9933SOL    HW130698   2.202   1.599   3.024
 9933SOL    HW230699   2.175   1.672   3.167
 9934SOL     OW30700   4.564   0.991   5.655
 9934SOL    HW130701   4.531   0.899   5.631
 9934SOL    HW230702   4.654   0.984   5.697
 9935SOL     OW30703   3.399   2.384   0.068
 9935SOL    HW130704   3.477   2.375   0.006
 9935SOL    HW230705   3.432   2.414   0.158
 9936SOL     OW30706   4.706   6.139   0.719
 9936SOL    HW130707   4.686   6.076   0.793
 9936SOL    HW230708   4.759   6.092   0.648
 9937SOL     OW30709   1.416   7.006   5.516
 9937SOL    HW130710   1.370   0.016   5.597
 9937SOL    HW230711   1.409   0.046   5.441
 9938SOL     OW30712   1.718   1.645   3.650
 9938SOL    HW130713   1.751   1.603   3.734
 9938SOL    HW230714   1.786   1.710   3.616
 9939SOL     OW30715   3.122   3.534   0.596
 9939SOL    HW130716   3.040   3.494   0.635
 9939SOL    HW230717   3.202   3.478   0.621
 9940SOL     OW30718   6.390   1.305   3.093
 9940SOL    HW130719   6.300   1.275   3.123
 9940SOL    HW230720   6.419   1.249   3.015
 9941SOL     OW30721   6.119   3.301   0.617
 9941SOL    HW130722   6.030   3.262   0.593
 9941SOL    HW230723   6.115   3.338   0.710
 9942SOL     OW30724   5.392   4.611   2.768
 9942SOL    HW130725   5.330   4.576   2.698
 9942SOL    HW230726   5.348   4.688   2.815
 9943SOL     OW30727   1.706   4.746   4.695
 9943SOL    HW130728   1.781   4.757   4.630
 9943SOL    HW230729   1.643   4.676   4.661
 9944SOL     OW30730   2.480   5.439   6.291
 9944SOL    HW130731   2.556   5.467   6.351
 9944SOL    HW230732   2.397   5.428   6.346
 9945SOL     OW30733   6.349   3.326   5.390
 9945SOL    HW130734   6.422   3.298   5.453
 9945SOL    HW230735   6.387   3.338   5.298
 9946SOL     OW30736   5.321   2.092   1.529
 9946SOL    HW130737   5.395   2.025   1.534
 9946SOL    HW230738   5.236   2.049   1.560
 9947SOL     OW30739   7.016   0.474   3.272
 9947SOL    HW130740   0.021   0.439   3.361
 9947SOL    HW230741   0.069   0.487   3.212
 9948SOL     OW30742   4.650   1.496   5.534
 9948SOL    HW130743   4.665   1.557   5.456
 9948SOL    HW230744   4.728   1.436   5.545
 9949SOL     OW30745   6.745   2.969   2.975
 9949SOL    HW130746   6.832   2.994   3.016
 9949SOL    HW230747   6.704   3.049   2.932
 9950SOL     OW30748   5.194   4.699   6.261
 9950SOL    HW130749   5.098   4.682   6.281
 9950SOL    HW230750   5.239   4.737   6.342
 9951SOL     OW30751   6.995   2.582   2.246
 9951SOL    HW130752   0.038   2.581   2.174
 9951SOL    HW230753   0.013   2.575   2.336
 9952SOL     OW30754   1.648   4.420   1.477
 9952SOL    HW130755   1.560   4.392   1.437
 9952SOL    HW230756   1.639   4.428   1.576
 9953SOL     OW30757   6.219   3.471   5.581
 9953SOL    HW130758   6.298   3.532   5.578
 9953SOL    HW230759   6.234   3.394   5.519
 9954SOL     OW30760   4.484   2.557   1.736
 9954SOL    HW130761   4.537   2.508   1.667
 9954SOL    HW230762   4.519   2.650   1.745
 9955SOL     OW30763   5.828   4.885   2.496
 9955SOL    HW130764   5.815   4.863   2.593
 9955SOL    HW230765   5.812   4.803   2.442
 9956SOL     OW30766   1.687   4.913   3.192
 9956SOL    HW130767   1.746   4.994   3.202
 9956SOL    HW230768   1.651   4.910   3.099
 9957SOL     OW30769   5.572   7.013   0.567
 9957SOL    HW130770   5.476   6.991   0.554
 9957SOL    HW230771   5.626   6.974   0.492
 9958SOL     OW30772   6.257   6.382   5.621
 9958SOL    HW130773   6.258   6.467   5.569
 9958SOL    HW230774   6.287   6.307   5.562
 9959SOL     OW30775   5.758   5.316   0.205
 9959SOL    HW130776   5.765   5.397   0.262
 9959SOL    HW230777   5.834   5.315   0.139
 9960SOL     OW30778   6.074   0.844   6.050
 9960SOL    HW130779   6.063   0.938   6.019
 9960SOL    HW230780   5.985   0.805   6.072
 9961SOL     OW30781   2.879   6.798   0.227
 9961SOL    HW130782   2.845   6.880   0.181
 9961SOL    HW230783   2.893   6.818   0.324
 9962SOL     OW30784   4.468   1.370   1.904
 9962SOL    HW130785   4.516   1.441   1.853
 9962SOL    HW230786   4.427   1.305   1.840
 9963SOL     OW30787   0.624   0.465   6.843
 9963SOL    HW130788   0.559   0.468   6.767
 9963SOL    HW230789   0.707   0.419   6.813
 9964SOL     OW30790   4.628   5.464   5.388
 9964SOL    HW130791   4.622   5.463   5.288
 9964SOL    HW230792   4.599   5.553   5.422
 9965SOL     OW30793   2.225   5.471   5.340
 9965SOL    HW130794   2.180   5.483   5.251
 9965SOL    HW230795   2.322   5.449   5.326
 9966SOL     OW30796   1.928   4.316   2.035
 9966SOL    HW130797   1.866   4.239   2.019
 9966SOL    HW230798   1.884   4.383   2.095
 9967SOL     OW30799   6.442   0.866   2.286
 9967SOL    HW130800   6.487   0.901   2.204
 9967SOL    HW230801   6.370   0.802   2.259
 9968SOL     OW30802   4.634   6.345   6.361
 9968SOL    HW130803   4.713   6.407   6.357
 9968SOL    HW230804   4.555   6.390   6.319
 9969SOL     OW30805   0.634   6.636   3.437
 9969SOL    HW130806   0.715   6.695   3.434
 9969SOL    HW230807   0.552   6.693   3.433
 9970SOL     OW30808   0.623   3.262   1.289
 9970SOL    HW130809   0.539   3.291   1.242
 9970SOL    HW230810   0.624   3.163   1.297
 9971SOL     OW30811   0.327   5.508   6.215
 9971SOL    HW130812   0.414   5.530   6.170
 9971SOL    HW230813   0.294   5.420   6.180
 9972SOL     OW30814   3.169   4.727   5.580
 9972SOL    HW130815   3.110   4.708   5.501
 9972SOL    HW230816   3.212   4.816   5.568
 9973SOL     OW30817   3.723   2.177   2.774
 9973SOL    HW130818   3.688   2.271   2.775
 9973SOL    HW230819   3.676   2.125   2.704
 9974SOL     OW30820   0.420   4.228   3.669
 9974SOL    HW130821   0.365   4.290   3.724
 9974SOL    HW230822   0.391   4.232   3.573
 9975SOL     OW30823   1.696   4.831   0.053
 9975SOL    HW130824   1.617   4.812   7.022
 9975SOL    HW230825   1.769   4.766   0.033
 9976SOL     OW30826   4.429   5.501   4.649
 9976SOL    HW130827   4.446   5.448   4.566
 9976SOL    HW230828   4.423   5.440   4.728
 9977SOL     OW30829   3.670   6.790   6.272
 9977SOL    HW130830   3.671   6.890   6.264
 9977SOL    HW230831   3.581   6.755   6.245
 9978SOL     OW30832   6.990   3.382   6.810
 9978SOL    HW130833   6.997   3.458   6.874
 9978SOL    HW230834   6.942   3.306   6.854
 9979SOL     OW30835   3.175   4.064   3.978
 9979SOL    HW130836   3.128   4.097   4.060
 9979SOL    HW230837   3.211   3.972   3.995
 9980SOL     OW30838   0.719   6.725   0.009
 9980SOL    HW130839   0.713   6.798   6.967
 9980SOL    HW230840   0.633   6.675   0.012
 9981SOL     OW30841   5.815   1.692   1.699
 9981SOL    HW130842   5.876   1.613   1.692
 9981SOL    HW230843   5.783   1.718   1.608
 9982SOL     OW30844   2.821   0.855   5.228
 9982SOL    HW130845   2.846   0.808   5.312
 9982SOL    HW230846   2.891   0.924   5.206
 9983SOL     OW30847   0.326   2.411   1.962
 9983SOL    HW130848   0.238   2.379   1.929
 9983SOL    HW230849   0.399   2.379   1.901
 9984SOL     OW30850   1.639   4.497   1.028
 9984SOL    HW130851   1.665   4.583   1.072
 9984SOL    HW230852   1.587   4.515   0.945
 9985SOL     OW30853   5.633   5.007   6.036
 9985SOL    HW130854   5.576   5.021   6.117
 9985SOL    HW230855   5.576   4.976   5.960
 9986SOL     OW30856   5.816   4.180   0.620
 9986SOL    HW130857   5.898   4.223   0.658
 9986SOL    HW230858   5.756   4.251   0.583
 9987SOL     OW30859   5.269   1.895   0.735
 9987SOL    HW130860   5.178   1.867   0.705
 9987SOL    HW230861   5.312   1.951   0.665
 9988SOL     OW30862   5.300   6.927   4.205
 9988SOL    HW130863   5.361   6.915   4.127
 9988SOL    HW230864   5.252   6.841   4.223
 9989SOL     OW30865   6.875   5.153   1.255
 9989SOL    HW130866   6.782   5.155   1.294
 9989SOL    HW230867   6.909   5.059   1.255
 9990SOL     OW30868   0.404   6.394   2.733
 9990SOL    HW130869   0.368   6.321   2.675
 9990SOL    HW230870   0.502   6.381   2.746
 9991SOL     OW30871   2.254   2.899   2.208
 9991SOL    HW130872   2.201   2.978   2.241
 9991SOL    HW230873   2.294   2.852   2.286
 9992SOL     OW30874   1.854   4.006   0.244
 9992SOL    HW130875   1.870   4.042   0.152
 9992SOL    HW230876   1.768   3.955   0.246
 9993SOL     OW30877   3.499   0.131   4.351
 9993SOL    HW130878   3.508   0.229   4.337
 9993SOL    HW230879   3.525   0.082   4.268
 9994SOL     OW30880   5.763   4.812   5.178
 9994SOL    HW130881   5.831   4.828   5.250
 9994SOL    HW230882   5.781   4.874   5.101
 9995SOL     OW30883   4.044   1.787   6.010
 9995SOL    HW130884   3.978   1.844   6.059
 9995SOL    HW230885   4.000   1.700   5.984
 9996SOL     OW30886   2.862   4.378   1.462
 9996SOL    HW130887   2.778   4.426   1.439
 9996SOL    HW230888   2.930   4.391   1.389
 9997SOL     OW30889   5.618   0.092   3.205
 9997SOL    HW130890   5.688   0.148   3.250
 9997SOL    HW230891   5.662   0.016   3.158
 9998SOL     OW30892   5.782   3.526   2.540
 9998SOL    HW130893   5.715   3.459   2.508
 9998SOL    HW230894   5.762   3.551   2.635
 9999SOL     OW30895   0.752   0.017   4.509
 9999SOL    HW130896   0.669   0.059   4.543
 9999SOL    HW230897   0.832   0.062   4.550
10000SOL     OW30898   4.486   3.416   1.666
10000SOL    HW130899   4.434   3.335   1.691
10000SOL    HW230900   4.440   3.498   1.702
10001SOL     OW30901   3.648   5.784   1.591
10001SOL    HW130902   3.739   5.817   1.568
10001SOL    HW230903   3.607   5.843   1.661
10002SOL     OW30904   2.602   6.761   2.763
10002SOL    HW130905   2.517   6.758   2.816
10002SOL    HW230906   2.604   6.843   2.706
10003SOL     OW30907   1.042   1.422   2.831
10003SOL    HW130908   1.004   1.382   2.914
10003SOL    HW230909   1.134   1.385   2.815
10004SOL     OW30910   0.308   2.573   3.199
10004SOL    HW130911   0.373   2.517   3.147
10004SOL    HW230912   0.351   2.660   3.223
10005SOL     OW30913   2.006   6.253   2.425
10005SOL    HW130914   2.106   6.244   2.433
10005SOL    HW230915   1.985   6.321   2.355
10006SOL     OW30916   5.312   2.000   6.623
10006SOL    HW130917   5.322   2.057   6.704
10006SOL    HW230918   5.293   2.058   6.544
10007SOL     OW30919   1.689   5.320   3.016
10007SOL    HW130920   1.626   5.382   3.062
10007SOL    HW230921   1.752   5.372   2.959
10008SOL     OW30922   3.062   0.448   6.060
10008SOL    HW130923   2.963   0.437   6.071
10008SOL    HW230924   3.104   0.358   6.048
10009SOL     OW30925   0.957   5.059   1.611
10009SOL    HW130926   0.882   5.054   1.546
10009SOL    HW230927   0.930   5.114   1.690
10010SOL     OW30928   2.287   4.670   0.734
10010SOL    HW130929   2.249   4.598   0.675
10010SOL    HW230930   2.369   4.709   0.692
10011SOL     OW30931   3.194   3.423   7.017
10011SOL    HW130932   3.246   3.370   0.057
10011SOL    HW230933   3.257   3.478   6.962
10012SOL     OW30934   5.631   2.120   3.396
10012SOL    HW130935   5.585   2.060   3.330
10012SOL    HW230936   5.639   2.073   3.484
10013SOL     OW30937   0.269   6.108   5.912
10013SOL    HW130938   0.350   6.088   5.967
10013SOL    HW230939   0.292   6.101   5.815
10014SOL     OW30940   1.435   1.265   2.664
10014SOL    HW130941   1.434   1.347   2.607
10014SOL    HW230942   1.342   1.246   2.696
10015SOL     OW30943   4.189   0.751   0.452
10015SOL    HW130944   4.172   0.784   0.360
10015SOL    HW230945   4.239   0.664   0.448
10016SOL     OW30946   2.699   1.549   5.342
10016SOL    HW130947   2.608   1.513   5.361
10016SOL    HW230948   2.751   1.554   5.428
10017SOL     OW30949   3.072   2.189   3.122
10017SOL    HW130950   3.026   2.107   3.089
10017SOL    HW230951   3.006   2.249   3.167
10018SOL     OW30952   0.112   4.393   5.567
10018SOL    HW130953   0.189   4.358   5.514
10018SOL    HW230954   0.037   4.327   5.565
10019SOL     OW30955   0.327   1.993   2.975
10019SOL    HW130956   0.288   1.901   2.986
10019SOL    HW230957   0.284   2.038   2.897
10020SOL     OW30958   6.596   0.818   3.415
10020SOL    HW130959   6.560   0.762   3.341
10020SOL    HW230960   6.606   0.762   3.498
10021SOL     OW30961   2.331   4.481   1.841
10021SOL    HW130962   2.264   4.419   1.800
10021SOL    HW230963   2.307   4.497   1.937
10022SOL     OW30964   0.949   6.583   6.292
10022SOL    HW130965   1.016   6.658   6.283
10022SOL    HW230966   0.890   6.582   6.211
10023SOL     OW30967   1.356   1.140   4.477
10023SOL    HW130968   1.361   1.195   4.561
10023SOL    HW230969   1.264   1.102   4.467
10024SOL     OW30970   1.865   3.362   2.940
10024SOL    HW130971   1.944   3.423   2.946
10024SOL    HW230972   1.860   3.305   3.022
10025SOL     OW30973   0.153   1.969   1.243
10025SOL    HW130974   0.210   2.011   1.313
10025SOL    HW230975   0.081   2.032   1.216
10026SOL     OW30976   6.318   1.640   4.859
10026SOL    HW130977   6.377   1.588   4.796
10026SOL    HW230978   6.342   1.737   4.854
10027SOL     OW30979   3.514   1.292   5.677
10027SOL    HW130980   3.452   1.263   5.750
10027SOL    HW230981   3.463   1.302   5.592
10028SOL     OW30982   4.148   6.225   1.699
10028SOL    HW130983   4.109   6.315   1.718
10028SOL    HW230984   4.184   6.186   1.784
10029SOL     OW30985   0.226   4.853   3.783
10029SOL    HW130986   0.226   4.944   3.742
10029SOL    HW230987   0.271   4.858   3.872
10030SOL     OW30988   2.808   6.788   3.856
10030SOL    HW130989   2.826   6.697   3.893
10030SOL    HW230990   2.849   6.856   3.917
10031SOL     OW30991   1.985   6.661   3.449
10031SOL    HW130992   1.911   6.721   3.420
10031SOL    HW230993   1.998   6.589   3.381
10032SOL     OW30994   2.230   5.556   4.900
10032SOL    HW130995   2.285   5.522   4.824
10032SOL    HW230996   2.253   5.652   4.917
10033SOL     OW30997   2.124   1.541   4.402
10033SOL    HW130998   2.186   1.550   4.480
10033SOL    HW230999   2.030   1.549   4.433
10034SOL     OW31000   2.651   0.759   1.785
10034SOL    HW131001   2.637   0.737   1.881
10034SOL    HW231002   2.572   0.809   1.750
10035SOL     OW31003   0.181   2.788   2.232
10035SOL    HW131004   0.237   2.861   2.193
10035SOL    HW231005   0.091   2.824   2.257
10036SOL     OW31006   0.597   1.179   0.236
10036SOL    HW131007   0.676   1.162   0.176
10036SOL    HW231008   0.575   1.276   0.236
10037SOL     OW31009   6.410   1.174   6.183
10037SOL    HW131010   6.341   1.102   6.182
10037SOL    HW231011   6.501   1.133   6.190
10038SOL     OW31012   4.524   0.221   6.863
10038SOL    HW131013   4.477   0.166   6.932
10038SOL    HW231014   4.472   0.305   6.847
10039SOL     OW31015   0.014   4.663   0.770
10039SOL    HW131016   0.056   4.582   0.728
10039SOL    HW231017   0.048   4.674   0.863
10040SOL     OW31018   3.099   0.534   0.583
10040SOL    HW131019   3.122   0.607   0.648
10040SOL    HW231020   3.101   0.571   0.490
10041SOL     OW31021   5.702   4.740   5.817
10041SOL    HW131022   5.606   4.767   5.820
10041SOL    HW231023   5.742   4.768   5.729
10042SOL     OW31024   6.089   0.125   4.848
10042SOL    HW131025   6.003   0.083   4.879
10042SOL    HW231026   6.070   0.190   4.775
10043SOL     OW31027   0.590   0.340   3.480
10043SOL    HW131028   0.613   0.299   3.392
10043SOL    HW231029   0.597   0.271   3.552
10044SOL     OW31030   2.875   2.137   6.822
10044SOL    HW131031   2.891   2.042   6.849
10044SOL    HW231032   2.954   2.170   6.770
10045SOL     OW31033   3.916   6.862   4.534
10045SOL    HW131034   3.819   6.867   4.512
10045SOL    HW231035   3.932   6.906   4.623
10046SOL     OW31036   6.519   1.564   0.375
10046SOL    HW131037   6.473   1.593   0.460
10046SOL    HW231038   6.537   1.465   0.379
10047SOL     OW31039   1.325   2.046   3.392
10047SOL    HW131040   1.238   2.016   3.353
10047SOL    HW231041   1.384   2.082   3.320
10048SOL     OW31042   3.106   2.453   1.681
10048SOL    HW131043   3.049   2.436   1.762
10048SOL    HW231044   3.197   2.416   1.697
10049SOL     OW31045   1.139   4.971   4.903
10049SOL    HW131046   1.157   4.907   4.978
10049SOL    HW231047   1.068   4.934   4.844
10050SOL     OW31048   5.967   1.418   5.066
10050SOL    HW131049   5.899   1.352   5.034
10050SOL    HW231050   6.039   1.370   5.117
10051SOL     OW31051   5.823   1.583   0.846
10051SOL    HW131052   5.835   1.484   0.860
10051SOL    HW231053   5.859   1.607   0.755
10052SOL     OW31054   2.291   5.555   0.754
10052SOL    HW131055   2.267   5.511   0.841
10052SOL    HW231056   2.354   5.497   0.703
10053SOL     OW31057   3.250   6.646   3.321
10053SOL    HW131058   3.241   6.694   3.409
10053SOL    HW231059   3.245   6.713   3.246
10054SOL     OW31060   5.265   4.610   3.699
10054SOL    HW131061   5.274   4.524   3.749
10054SOL    HW231062   5.183   4.658   3.730
10055SOL     OW31063   5.092   2.396   0.103
10055SOL    HW131064   5.159   2.423   0.172
10055SOL    HW231065   5.001   2.392   0.144
10056SOL     OW31066   4.837   4.205   2.889
10056SOL    HW131067   4.896   4.148   2.946
10056SOL    HW231068   4.794   4.149   2.819
10057SOL     OW31069   2.016   2.531   2.978
10057SOL    HW131070   1.924   2.536   3.018
10057SOL    HW231071   2.015   2.568   2.885
10058SOL     OW31072   0.950   4.949   3.724
10058SOL    HW131073   0.983   4.910   3.810
10058SOL    HW231074   0.890   5.027   3.744
10059SOL     OW31075   4.384   6.088   1.579
10059SOL    HW131076   4.466   6.114   1.630
10059SOL    HW231077   4.308   6.148   1.605
10060SOL     OW31078   2.346   2.468   2.602
10060SOL    HW131079   2.350   2.539   2.673
10060SOL    HW231080   2.426   2.409   2.610
10061SOL     OW31081   0.217   1.777   5.666
10061SOL    HW131082   0.246   1.790   5.761
10061SOL    HW231083   0.157   1.852   5.638
10062SOL     OW31084   5.799   5.804   2.852
10062SOL    HW131085   5.860   5.802   2.773
10062SOL    HW231086   5.852   5.814   2.936
10063SOL     OW31087   0.865   2.795   2.685
10063SOL    HW131088   0.908   2.713   2.721
10063SOL    HW231089   0.851   2.785   2.586
10064SOL     OW31090   5.003   4.959   5.128
10064SOL    HW131091   4.990   5.042   5.073
10064SOL    HW231092   5.040   4.984   5.217
10065SOL     OW31093   0.496   0.131   2.725
10065SOL    HW131094   0.413   0.179   2.694
10065SOL    HW231095   0.521   0.061   2.658
10066SOL     OW31096   6.456   0.153   4.232
10066SOL    HW131097   6.537   0.115   4.188
10066SOL    HW231098   6.441   0.246   4.199
10067SOL     OW31099   4.905   6.500   2.801
10067SOL    HW131100   4.983   6.555   2.770
10067SOL    HW231101   4.840   6.558   2.850
10068SOL     OW31102   5.306   3.393   5.364
10068SOL    HW131103   5.371   3.409   5.290
10068SOL    HW231104   5.254   3.310   5.346
10069SOL     OW31105   4.793   1.228   4.482
10069SOL    HW131106   4.835   1.255   4.395
10069SOL    HW231107   4.733   1.149   4.468
10070SOL     OW31108   0.916   6.661   4.194
10070SOL    HW131109   0.974   6.646   4.274
10070SOL    HW231110   0.970   6.701   4.121
10071SOL     OW31111   4.789   4.607   4.925
10071SOL    HW131112   4.875   4.658   4.926
10071SOL    HW231113   4.715   4.667   4.953
10072SOL     OW31114   0.201   6.198   4.411
10072SOL    HW131115   0.222   6.283   4.362
10072SOL    HW231116   0.102   6.188   4.421
10073SOL     OW31117   6.916   0.064   6.724
10073SOL    HW131118   6.928   0.155   6.684
10073SOL    HW231119   6.856   0.071   6.804
10074SOL     OW31120   2.141   6.091   4.627
10074SOL    HW131121   2.197   6.142   4.693
10074SOL    HW231122   2.170   5.995   4.625
10075SOL     OW31123   1.040   2.647   4.182
10075SOL    HW131124   1.127   2.658   4.231
10075SOL    HW231125   0.974   2.602   4.241
10076SOL     OW31126   5.359   0.116   3.346
10076SOL    HW131127   5.321   0.025   3.363
10076SOL    HW231128   5.434   0.109   3.280
10077SOL     OW31129   2.534   1.058   5.570
10077SOL    HW131130   2.598   1.100   5.507
10077SOL    HW231131   2.440   1.084   5.545
10078SOL     OW31132   5.479   6.112   5.328
10078SOL    HW131133   5.525   6.083   5.411
10078SOL    HW231134   5.490   6.041   5.257
10079SOL     OW31135   0.765   3.248   5.883
10079SOL    HW131136   0.755   3.316   5.810
10079SOL    HW231137   0.765   3.294   5.971
10080SOL     OW31138   1.463   2.572   5.239
10080SOL    HW131139   1.385   2.628   5.269
10080SOL    HW231140   1.447   2.540   5.145
10081SOL     OW31141   0.461   1.052   0.828
10081SOL    HW131142   0.494   0.962   0.858
10081SOL    HW231143   0.416   1.043   0.739
10082SOL     OW31144   6.825   1.014   0.322
10082SOL    HW131145   6.825   1.112   0.338
10082SOL    HW231146   6.910   0.987   0.277
10083SOL     OW31147   5.762   1.306   4.494
10083SOL    HW131148   5.825   1.344   4.426
10083SOL    HW231149   5.791   1.213   4.518
10084SOL     OW31150   2.763   0.750   6.806
10084SOL    HW131151   2.770   0.689   6.885
10084SOL    HW231152   2.854   0.780   6.779
10085SOL     OW31153   0.859   5.552   2.518
10085SOL    HW131154   0.875   5.595   2.429
10085SOL    HW231155   0.920   5.593   2.586
10086SOL     OW31156   6.985   2.109   2.451
10086SOL    HW131157   6.971   2.180   2.382
10086SOL    HW231158   6.980   2.149   2.542
10087SOL     OW31159   1.643   0.004   3.194
10087SOL    HW131160   1.616   0.100   3.195
10087SOL    HW231161   1.743   7.024   3.189
10088SOL     OW31162   5.706   0.159   4.725
10088SOL    HW131163   5.662   0.226   4.665
10088SOL    HW231164   5.793   0.130   4.684
10089SOL     OW31165   2.026   2.642   2.270
10089SOL    HW131166   2.010   2.739   2.288
10089SOL    HW231167   1.942   2.590   2.287
10090SOL     OW31168   0.369   5.880   2.083
10090SOL    HW131169   0.306   5.818   2.129
10090SOL    HW231170   0.318   5.952   2.035
10091SOL     OW31171   0.751   1.348   4.181
10091SOL    HW131172   0.762   1.444   4.207
10091SOL    HW231173   0.742   1.292   4.263
10092SOL     OW31174   2.551   2.529   5.527
10092SOL    HW131175   2.456   2.503   5.545
10092SOL    HW231176   2.554   2.586   5.445
10093SOL     OW31177   6.705   6.932   5.564
10093SOL    HW131178   6.753   6.964   5.482
10093SOL    HW231179   6.634   6.998   5.589
10094SOL     OW31180   1.273   0.551   1.804
10094SOL    HW131181   1.274   0.639   1.756
10094SOL    HW231182   1.292   0.477   1.739
10095SOL     OW31183   0.799   2.464   5.090
10095SOL    HW131184   0.744   2.539   5.052
10095SOL    HW231185   0.895   2.490   5.092
10096SOL     OW31186   6.539   5.967   2.704
10096SOL    HW131187   6.464   5.948   2.641
10096SOL    HW231188   6.538   6.064   2.730
10097SOL     OW31189   1.572   2.217   5.944
10097SOL    HW131190   1.514   2.296   5.923
10097SOL    HW231191   1.649   2.215   5.881
10098SOL     OW31192   3.507   5.075   6.413
10098SOL    HW131193   3.604   5.051   6.417
10098SOL    HW231194   3.485   5.134   6.491
10099SOL     OW31195   1.181   3.382   4.274
10099SOL    HW131196   1.108   3.373   4.341
10099SOL    HW231197   1.148   3.433   4.195
10100SOL     OW31198   4.751   0.168   6.081
10100SOL    HW131199   4.691   0.088   6.070
10100SOL    HW231200   4.695   0.251   6.079
10101SOL     OW31201   0.306   3.773   2.699
10101SOL    HW131202   0.314   3.818   2.788
10101SOL    HW231203   0.367   3.816   2.634
10102SOL     OW31204   4.383   0.725   4.237
10102SOL    HW131205   4.305   0.788   4.243
10102SOL    HW231206   4.381   0.662   4.315
10103SOL     OW31207   0.009   2.741   0.567
10103SOL    HW131208   6.989   2.723   0.653
10103SOL    HW231209   0.108   2.729   0.579
10104SOL     OW31210   2.200   5.466   5.837
10104SOL    HW131211   2.202   5.439   5.740
10104SOL    HW231212   2.216   5.386   5.894
10105SOL     OW31213   3.692   0.373   6.953
10105SOL    HW131214   3.657   0.363   0.019
10105SOL    HW231215   3.724   0.284   6.919
10106SOL     OW31216   4.734   5.442   0.558
10106SOL    HW131217   4.728   5.525   0.613
10106SOL    HW231218   4.797   5.377   0.601
10107SOL     OW31219   5.755   1.961   6.156
10107SOL    HW131220   5.725   1.966   6.061
10107SOL    HW231221   5.792   2.050   6.184
10108SOL     OW31222   5.129   5.807   6.515
10108SOL    HW131223   5.171   5.721   6.488
10108SOL    HW231224   5.084   5.796   6.604
10109SOL     OW31225   5.071   6.008   3.971
10109SOL    HW131226   5.147   6.048   3.920
10109SOL    HW231227   5.007   5.966   3.906
10110SOL     OW31228   3.676   2.434   6.051
10110SOL    HW131229   3.659   2.506   6.117
10110SOL    HW231230   3.696   2.348   6.098
10111SOL     OW31231   7.001   2.580   1.570
10111SOL    HW131232   6.916   2.632   1.580
10111SOL    HW231233   0.053   2.642   1.582
10112SOL     OW31234   5.054   4.203   5.843
10112SOL    HW131235   5.072   4.107   5.865
10112SOL    HW231236   4.955   4.221   5.848
10113SOL     OW31237   3.346   7.010   1.079
10113SOL    HW131238   3.251   6.981   1.093
10113SOL    HW231239   3.406   6.955   1.137
10114SOL     OW31240   4.513   1.847   1.769
10114SOL    HW131241   4.589   1.910   1.753
10114SOL    HW231242   4.426   1.895   1.758
10115SOL     OW31243   1.265   1.404   4.650
10115SOL    HW131244   1.273   1.493   4.608
10115SOL    HW231245   1.348   1.383   4.702
10116SOL     OW31246   0.479   0.768   0.859
10116SOL    HW131247   0.505   0.736   0.768
10116SOL    HW231248   0.416   0.702   0.901
10117SOL     OW31249   4.061   6.754   6.146
10117SOL    HW131250   4.036   6.699   6.226
10117SOL    HW231251   4.014   6.842   6.151
10118SOL     OW31252   5.256   5.099   2.938
10118SOL    HW131253   5.247   5.111   3.037
10118SOL    HW231254   5.302   5.178   2.899
10119SOL     OW31255   2.056   0.444   5.956
10119SOL    HW131256   2.141   0.444   5.904
10119SOL    HW231257   2.071   0.403   6.046
10120SOL     OW31258   5.902   3.171   3.815
10120SOL    HW131259   5.833   3.158   3.743
10120SOL    HW231260   5.909   3.087   3.869
10121SOL     OW31261   5.791   4.469   4.085
10121SOL    HW131262   5.740   4.547   4.122
10121SOL    HW231263   5.741   4.430   4.009
10122SOL     OW31264   5.420   2.410   1.251
10122SOL    HW131265   5.474   2.483   1.293
10122SOL    HW231266   5.323   2.426   1.269
10123SOL     OW31267   0.679   6.268   0.650
10123SOL    HW131268   0.590   6.222   0.641
10123SOL    HW231269   0.668   6.365   0.631
10124SOL     OW31270   3.593   4.098   0.509
10124SOL    HW131271   3.559   4.091   0.603
10124SOL    HW231272   3.543   4.170   0.461
10125SOL     OW31273   2.583   1.048   0.177
10125SOL    HW131274   2.566   0.976   0.244
10125SOL    HW231275   2.624   1.127   0.222
10126SOL     OW31276   6.059   4.863   6.233
10126SOL    HW131277   6.000   4.830   6.160
10126SOL    HW231278   6.148   4.817   6.227
10127SOL     OW31279   3.974   4.846   5.167
10127SOL    HW131280   4.073   4.834   5.171
10127SOL    HW231281   3.937   4.850   5.260
10128SOL     OW31282   1.242   1.521   0.850
10128SOL    HW131283   1.311   1.540   0.920
10128SOL    HW231284   1.161   1.577   0.867
10129SOL     OW31285   5.172   2.726   3.086
10129SOL    HW131286   5.238   2.765   3.023
10129SOL    HW231287   5.197   2.631   3.107
10130SOL     OW31288   5.961   5.600   1.510
10130SOL    HW131289   5.937   5.505   1.488
10130SOL    HW231290   5.964   5.654   1.426
10131SOL     OW31291   0.348   0.350   0.343
10131SOL    HW131292   0.416   0.291   0.299
10131SOL    HW231293   0.350   0.440   0.300
10132SOL     OW31294   2.657   6.497   2.746
10132SOL    HW131295   2.649   6.597   2.748
10132SOL    HW231296   2.656   6.465   2.652
10133SOL     OW31297   5.964   4.373   2.588
10133SOL    HW131298   5.933   4.447   2.648
10133SOL    HW231299   6.040   4.325   2.631
10134SOL     OW31300   0.830   1.602   1.517
10134SOL    HW131301   0.892   1.594   1.440
10134SOL    HW231302   0.851   1.533   1.586
10135SOL     OW31303   3.272   6.459   1.973
10135SOL    HW131304   3.301   6.431   2.064
10135SOL    HW231305   3.241   6.554   1.977
10136SOL     OW31306   6.168   6.719   2.665
10136SOL    HW131307   6.134   6.762   2.582
10136SOL    HW231308   6.138   6.772   2.745
10137SOL     OW31309   5.700   4.376   3.837
10137SOL    HW131310   5.705   4.454   3.774
10137SOL    HW231311   5.641   4.306   3.799
10138SOL     OW31312   5.619   3.083   6.352
10138SOL    HW131313   5.717   3.103   6.359
10138SOL    HW231314   5.604   2.984   6.363
10139SOL     OW31315   3.814   3.052   2.923
10139SOL    HW131316   3.830   3.107   3.005
10139SOL    HW231317   3.792   2.958   2.950
10140SOL     OW31318   0.948   4.699   4.182
10140SOL    HW131319   1.008   4.756   4.127
10140SOL    HW231320   1.001   4.657   4.256
10141SOL     OW31321   1.626   0.229   3.723
10141SOL    HW131322   1.583   0.164   3.660
10141SOL    HW231323   1.686   0.290   3.673
10142SOL     OW31324   5.487   5.653   4.095
10142SOL    HW131325   5.540   5.726   4.138
10142SOL    HW231326   5.549   5.580   4.065
10143SOL     OW31327   4.125   6.419   1.278
10143SOL    HW131328   4.125   6.364   1.194
10143SOL    HW231329   4.091   6.364   1.354
10144SOL     OW31330   3.148   5.156   2.610
10144SOL    HW131331   3.061   5.146   2.562
10144SOL    HW231332   3.166   5.253   2.627
10145SOL     OW31333   2.261   0.462   5.796
10145SOL    HW131334   2.248   0.488   5.700
10145SOL    HW231335   2.356   0.480   5.823
10146SOL     OW31336   4.456   4.665   3.653
10146SOL    HW131337   4.531   4.729   3.670
10146SOL    HW231338   4.461   4.633   3.559
10147SOL     OW31339   5.406   5.509   4.767
10147SOL    HW131340   5.309   5.486   4.764
10147SOL    HW231341   5.429   5.568   4.690
10148SOL     OW31342   5.913   5.881   1.128
10148SOL    HW131343   5.970   5.824   1.069
10148SOL    HW231344   5.817   5.858   1.115
10149SOL     OW31345   3.894   2.692   1.571
10149SOL    HW131346   3.969   2.649   1.521
10149SOL    HW231347   3.844   2.623   1.622
10150SOL     OW31348   5.177   4.497   0.993
10150SOL    HW131349   5.225   4.514   1.079
10150SOL    HW231350   5.242   4.461   0.925
10151SOL     OW31351   0.355   4.836   6.199
10151SOL    HW131352   0.313   4.749   6.226
10151SOL    HW231353   0.308   4.873   6.119
10152SOL     OW31354   0.370   5.700   4.278
10152SOL    HW131355   0.386   5.777   4.216
10152SOL    HW231356   0.364   5.734   4.372
10153SOL     OW31357   5.475   5.731   3.800
10153SOL    HW131358   5.440   5.730   3.894
10153SOL    HW231359   5.398   5.732   3.736
10154SOL     OW31360   6.432   5.797   5.517
10154SOL    HW131361   6.373   5.876   5.530
10154SOL    HW231362   6.388   5.716   5.555
10155SOL     OW31363   4.088   1.543   5.716
10155SOL    HW131364   4.133   1.628   5.689
10155SOL    HW231365   4.039   1.504   5.638
10156SOL     OW31366   5.643   6.866   2.110
10156SOL    HW131367   5.621   6.963   2.106
10156SOL    HW231368   5.742   6.854   2.108
10157SOL     OW31369   4.922   0.251   3.144
10157SOL    HW131370   5.016   0.286   3.136
10157SOL    HW231371   4.860   0.309   3.091
10158SOL     OW31372   4.834   3.347   5.893
10158SOL    HW131373   4.816   3.272   5.828
10158SOL    HW231374   4.762   3.416   5.883
10159SOL     OW31375   1.150   0.641   6.649
10159SOL    HW131376   1.179   0.555   6.692
10159SOL    HW231377   1.187   0.646   6.556
10160SOL     OW31378   0.295   6.837   3.691
10160SOL    HW131379   0.231   6.778   3.740
10160SOL    HW231380   0.366   6.868   3.755
10161SOL     OW31381   2.974   5.439   5.122
10161SOL    HW131382   2.947   5.438   5.026
10161SOL    HW231383   2.935   5.359   5.168
10162SOL     OW31384   2.720   2.379   5.688
10162SOL    HW131385   2.661   2.419   5.617
10162SOL    HW231386   2.809   2.356   5.648
10163SOL     OW31387   0.680   3.663   4.991
10163SOL    HW131388   0.756   3.724   4.967
10163SOL    HW231389   0.671   3.659   5.091
10164SOL     OW31390   1.609   2.741   6.354
10164SOL    HW131391   1.608   2.686   6.270
10164SOL    HW231392   1.606   2.838   6.330
10165SOL     OW31393   0.230   1.917   3.606
10165SOL    HW131394   0.214   2.016   3.606
10165SOL    HW231395   0.326   1.899   3.587
10166SOL     OW31396   0.538   1.079   1.988
10166SOL    HW131397   0.606   1.132   2.038
10166SOL    HW231398   0.550   1.095   1.890
10167SOL     OW31399   4.903   0.516   0.246
10167SOL    HW131400   4.958   0.598   0.263
10167SOL    HW231401   4.824   0.541   0.189
10168SOL     OW31402   6.523   4.598   5.668
10168SOL    HW131403   6.579   4.540   5.608
10168SOL    HW231404   6.531   4.566   5.762
10169SOL     OW31405   6.783   4.329   4.867
10169SOL    HW131406   6.751   4.423   4.860
10169SOL    HW231407   6.713   4.267   4.832
10170SOL     OW31408   1.770   4.441   4.859
10170SOL    HW131409   1.708   4.365   4.840
10170SOL    HW231410   1.719   4.514   4.906
10171SOL     OW31411   6.407   2.753   6.061
10171SOL    HW131412   6.362   2.842   6.068
10171SOL    HW231413   6.354   2.694   6.000
10172SOL     OW31414   5.142   0.359   4.783
10172SOL    HW131415   5.153   0.310   4.697
10172SOL    HW231416   5.217   0.425   4.794
10173SOL     OW31417   2.045   2.582   2.672
10173SOL    HW131418   1.976   2.632   2.619
10173SOL    HW231419   2.060   2.493   2.630
10174SOL     OW31420   6.557   5.125   1.150
10174SOL    HW131421   6.562   5.211   1.100
10174SOL    HW231422   6.534   5.143   1.246
10175SOL     OW31423   5.728   2.302   5.306
10175SOL    HW131424   5.674   2.226   5.269
10175SOL    HW231425   5.722   2.380   5.244
10176SOL     OW31426   3.091   3.103   0.421
10176SOL    HW131427   3.072   3.046   0.501
10176SOL    HW231428   3.106   3.045   0.341
10177SOL     OW31429   0.794   7.020   5.705
10177SOL    HW131430   0.780   0.090   5.683
10177SOL    HW231431   0.874   6.986   5.656
10178SOL     OW31432   5.271   2.998   5.166
10178SOL    HW131433   5.367   3.025   5.172
10178SOL    HW231434   5.253   2.962   5.074
10179SOL     OW31435   6.935   3.306   0.405
10179SOL    HW131436   6.920   3.330   0.501
10179SOL    HW231437   6.854   3.262   0.368
10180SOL     OW31438   1.856   6.556   6.673
10180SOL    HW131439   1.886   6.552   6.769
10180SOL    HW231440   1.820   6.647   6.653
10181SOL     OW31441   5.617   3.268   2.384
10181SOL    HW131442   5.615   3.239   2.479
10181SOL    HW231443   5.597   3.190   2.325
10182SOL     OW31444   3.827   1.219   1.145
10182SOL    HW131445   3.759   1.271   1.198
10182SOL    HW231446   3.880   1.283   1.089
10183SOL     OW31447   1.794   1.583   6.297
10183SOL    HW131448   1.745   1.565   6.211
10183SOL    HW231449   1.802   1.682   6.310
10184SOL     OW31450   4.697   0.049   0.017
10184SOL    HW131451   4.767   0.110   0.053
10184SOL    HW231452   4.625   0.102   6.999
10185SOL     OW31453   4.394   0.932   0.394
10185SOL    HW131454   4.323   0.869   0.425
10185SOL    HW231455   4.449   0.889   0.323
10186SOL     OW31456   4.886   2.212   2.718
10186SOL    HW131457   4.929   2.296   2.753
10186SOL    HW231458   4.951   2.137   2.724
10187SOL     OW31459   0.168   2.365   2.214
10187SOL    HW131460   0.071   2.348   2.232
10187SOL    HW231461   0.191   2.334   2.121
10188SOL     OW31462   4.154   6.135   0.634
10188SOL    HW131463   4.117   6.184   0.555
10188SOL    HW231464   4.226   6.073   0.603
10189SOL     OW31465   0.678   6.754   4.100
10189SOL    HW131466   0.742   6.709   4.163
10189SOL    HW231467   0.706   6.850   4.088
10190SOL     OW31468   5.964   3.018   0.350
10190SOL    HW131469   6.041   2.972   0.305
10190SOL    HW231470   5.903   3.056   0.280
10191SOL     OW31471   6.447   4.388   0.160
10191SOL    HW131472   6.418   4.304   0.114
10191SOL    HW231473   6.455   4.461   0.092
10192SOL     OW31474   3.789   1.877   0.243
10192SOL    HW131475   3.858   1.946   0.269
10192SOL    HW231476   3.798   1.855   0.146
10193SOL     OW31477   4.966   4.545   0.837
10193SOL    HW131478   4.927   4.627   0.879
10193SOL    HW231479   5.033   4.504   0.900
10194SOL     OW31480   4.817   2.186   4.922
10194SOL    HW131481   4.806   2.285   4.934
10194SOL    HW231482   4.831   2.166   4.825
10195SOL     OW31483   5.413   5.428   2.522
10195SOL    HW131484   5.491   5.365   2.518
10195SOL    HW231485   5.332   5.383   2.485
10196SOL     OW31486   0.714   1.269   4.461
10196SOL    HW131487   0.731   1.354   4.512
10196SOL    HW231488   0.750   1.191   4.513
10197SOL     OW31489   4.750   0.591   6.646
10197SOL    HW131490   4.743   0.656   6.721
10197SOL    HW231491   4.827   0.615   6.587
10198SOL     OW31492   4.793   0.049   1.944
10198SOL    HW131493   4.772   6.977   1.943
10198SOL    HW231494   4.708   0.101   1.943
10199SOL     OW31495   0.532   2.064   5.662
10199SOL    HW131496   0.555   1.969   5.642
10199SOL    HW231497   0.467   2.098   5.594
10200SOL     OW31498   5.363   2.534   2.709
10200SOL    HW131499   5.362   2.457   2.772
10200SOL    HW231500   5.292   2.521   2.639
10201SOL     OW31501   1.754   3.313   0.869
10201SOL    HW131502   1.703   3.317   0.955
10201SOL    HW231503   1.851   3.329   0.887
10202SOL     OW31504   4.697   0.049   2.993
10202SOL    HW131505   4.719   0.142   2.965
10202SOL    HW231506   4.677   0.047   3.091
10203SOL     OW31507   0.796   3.448   5.302
10203SOL    HW131508   0.746   3.376   5.349
10203SOL    HW231509   0.872   3.409   5.251
10204SOL     OW31510   4.670   4.764   6.232
10204SOL    HW131511   4.572   4.784   6.222
10204SOL    HW231512   4.719   4.795   6.150
10205SOL     OW31513   6.814   1.709   6.625
10205SOL    HW131514   6.842   1.801   6.598
10205SOL    HW231515   6.814   1.649   6.546
10206SOL     OW31516   2.600   2.132   4.419
10206SOL    HW131517   2.519   2.188   4.398
10206SOL    HW231518   2.575   2.036   4.421
10207SOL     OW31519   2.104   2.747   6.467
10207SOL    HW131520   2.072   2.696   6.387
10207SOL    HW231521   2.053   2.719   6.548
10208SOL     OW31522   6.746   0.518   5.611
10208SOL    HW131523   6.727   0.444   5.675
10208SOL    HW231524   6.728   0.486   5.518
10209SOL     OW31525   0.016   6.533   5.580
10209SOL    HW131526   0.071   6.538   5.496
10209SOL    HW231527   7.014   6.624   5.608
10210SOL     OW31528   3.547   0.738   2.096
10210SOL    HW131529   3.476   0.808   2.088
10210SOL    HW231530   3.624   0.761   2.037
10211SOL     OW31531   5.504   5.485   6.642
10211SOL    HW131532   5.463   5.436   6.565
10211SOL    HW231533   5.436   5.494   6.715
10212SOL     OW31534   0.168   0.188   0.477
10212SOL    HW131535   0.249   0.231   0.437
10212SOL    HW231536   0.190   0.154   0.568
10213SOL     OW31537   6.620   3.498   1.681
10213SOL    HW131538   6.577   3.450   1.757
10213SOL    HW231539   6.577   3.471   1.595
10214SOL     OW31540   1.280   2.365   1.184
10214SOL    HW131541   1.287   2.433   1.257
10214SOL    HW231542   1.370   2.325   1.167
10215SOL     OW31543   3.895   3.905   2.188
10215SOL    HW131544   3.847   3.978   2.237
10215SOL    HW231545   3.885   3.918   2.090
10216SOL     OW31546   0.506   6.389   2.082
10216SOL    HW131547   0.450   6.313   2.115
10216SOL    HW231548   0.458   6.475   2.098
10217SOL     OW31549   3.431   1.788   4.975
10217SOL    HW131550   3.508   1.851   4.963
10217SOL    HW231551   3.380   1.813   5.057
10218SOL     OW31552   0.669   2.790   2.858
10218SOL    HW131553   0.594   2.798   2.793
10218SOL    HW231554   0.755   2.811   2.812
10219SOL     OW31555   0.036   6.064   2.871
10219SOL    HW131556   0.059   6.102   2.960
10219SOL    HW231557   0.020   5.965   2.880
10220SOL     OW31558   3.907   3.004   6.816
10220SOL    HW131559   3.848   2.992   6.896
10220SOL    HW231560   3.941   3.098   6.814
10221SOL     OW31561   1.370   6.100   3.024
10221SOL    HW131562   1.299   6.084   3.093
10221SOL    HW231563   1.332   6.154   2.949
10222SOL     OW31564   3.023   3.258   3.431
10222SOL    HW131565   2.978   3.347   3.427
10222SOL    HW231566   3.015   3.222   3.524
10223SOL     OW31567   3.334   6.691   0.433
10223SOL    HW131568   3.363   6.658   0.343
10223SOL    HW231569   3.249   6.644   0.459
10224SOL     OW31570   0.075   3.467   4.030
10224SOL    HW131571   0.021   3.535   3.980
10224SOL    HW231572   0.121   3.512   4.107
10225SOL     OW31573   1.968   3.953   5.637
10225SOL    HW131574   2.016   3.971   5.723
10225SOL    HW231575   1.884   3.903   5.656
10226SOL     OW31576   3.811   4.822   6.295
10226SOL    HW131577   3.739   4.753   6.304
10226SOL    HW231578   3.890   4.783   6.249
10227SOL     OW31579   5.236   4.037   1.156
10227SOL    HW131580   5.245   4.100   1.079
10227SOL    HW231581   5.308   4.054   1.223
10228SOL     OW31582   5.352   0.133   6.800
10228SOL    HW131583   5.400   0.195   6.862
10228SOL    HW231584   5.317   0.055   6.852
10229SOL     OW31585   0.499   2.248   5.152
10229SOL    HW131586   0.569   2.319   5.140
10229SOL    HW231587   0.409   2.291   5.156
10230SOL     OW31588   5.621   5.896   1.556
10230SOL    HW131589   5.637   5.987   1.596
10230SOL    HW231590   5.697   5.873   1.495
10231SOL     OW31591   0.313   3.956   2.115
10231SOL    HW131592   0.240   3.974   2.049
10231SOL    HW231593   0.295   3.869   2.161
10232SOL     OW31594   4.484   4.878   2.182
10232SOL    HW131595   4.503   4.909   2.276
10232SOL    HW231596   4.570   4.855   2.137
10233SOL     OW31597   3.701   3.458   5.936
10233SOL    HW131598   3.720   3.509   5.852
10233SOL    HW231599   3.778   3.397   5.956
10234SOL     OW31600   0.981   0.797   2.068
10234SOL    HW131601   0.933   0.846   1.995
10234SOL    HW231602   0.938   0.818   2.156
10235SOL     OW31603   0.907   0.115   2.881
10235SOL    HW131604   0.944   0.049   2.816
10235SOL    HW231605   0.978   0.145   2.943
10236SOL     OW31606   1.041   0.648   2.961
10236SOL    HW131607   1.094   0.715   3.013
10236SOL    HW231608   1.093   0.564   2.952
10237SOL     OW31609   6.907   4.158   5.655
10237SOL    HW131610   6.866   4.105   5.581
10237SOL    HW231611   6.945   4.096   5.723
10238SOL     OW31612   2.845   0.140   0.637
10238SOL    HW131613   2.807   0.105   0.723
10238SOL    HW231614   2.939   0.108   0.626
10239SOL     OW31615   1.076   2.574   5.113
10239SOL    HW131616   1.119   2.560   5.024
10239SOL    HW231617   1.048   2.669   5.123
10240SOL     OW31618   1.334   6.659   1.420
10240SOL    HW131619   1.262   6.726   1.441
10240SOL    HW231620   1.297   6.590   1.358
10241SOL     OW31621   4.438   3.719   1.651
10241SOL    HW131622   4.448   3.746   1.555
10241SOL    HW231623   4.420   3.800   1.706
10242SOL     OW31624   0.876   3.574   1.303
10242SOL    HW131625   0.971   3.601   1.289
10242SOL    HW231626   0.840   3.622   1.383
10243SOL     OW31627   3.782   5.309   1.946
10243SOL    HW131628   3.689   5.325   1.979
10243SOL    HW231629   3.784   5.316   1.846
10244SOL     OW31630   1.955   5.900   1.560
10244SOL    HW131631   1.909   5.812   1.553
10244SOL    HW231632   2.052   5.886   1.578
10245SOL     OW31633   6.183   3.884   1.131
10245SOL    HW131634   6.200   3.981   1.146
10245SOL    HW231635   6.158   3.840   1.218
10246SOL     OW31636   3.734   3.499   3.039
10246SOL    HW131637   3.793   3.508   2.959
10246SOL    HW231638   3.774   3.551   3.115
10247SOL     OW31639   0.849   3.509   4.774
10247SOL    HW131640   0.754   3.513   4.743
10247SOL    HW231641   0.865   3.581   4.842
10248SOL     OW31642   1.172   1.283   3.972
10248SOL    HW131643   1.140   1.193   3.944
10248SOL    HW231644   1.111   1.353   3.934
10249SOL     OW31645   2.756   4.643   6.091
10249SOL    HW131646   2.747   4.665   5.994
10249SOL    HW231647   2.841   4.683   6.127
10250SOL     OW31648   3.049   2.893   0.232
10250SOL    HW131649   2.954   2.862   0.228
10250SOL    HW231650   3.085   2.901   0.139
10251SOL     OW31651   0.877   0.768   5.024
10251SOL    HW131652   0.932   0.695   4.983
10251SOL    HW231653   0.830   0.818   4.952
10252SOL     OW31654   5.602   3.752   5.991
10252SOL    HW131655   5.682   3.768   6.049
10252SOL    HW231656   5.540   3.689   6.037
10253SOL     OW31657   3.870   5.728   0.503
10253SOL    HW131658   3.833   5.820   0.511
10253SOL    HW231659   3.808   5.663   0.548
10254SOL     OW31660   6.428   1.854   6.341
10254SOL    HW131661   6.480   1.822   6.262
10254SOL    HW231662   6.456   1.804   6.423
10255SOL     OW31663   4.089   4.377   1.683
10255SOL    HW131664   4.059   4.433   1.606
10255SOL    HW231665   4.165   4.423   1.729
10256SOL     OW31666   2.009   0.689   4.529
10256SOL    HW131667   2.100   0.649   4.534
10256SOL    HW231668   2.015   0.779   4.485
10257SOL     OW31669   3.481   6.249   2.906
10257SOL    HW131670   3.398   6.216   2.951
10257SOL    HW231671   3.461   6.271   2.811
10258SOL     OW31672   3.421   1.701   2.410
10258SOL    HW131673   3.375   1.697   2.322
10258SOL    HW231674   3.519   1.681   2.398
10259SOL     OW31675   2.232   3.954   3.477
10259SOL    HW131676   2.222   3.863   3.518
10259SOL    HW231677   2.199   3.952   3.383
10260SOL     OW31678   0.178   0.718   3.864
10260SOL    HW131679   0.116   0.760   3.931
10260SOL    HW231680   0.255   0.676   3.912
10261SOL     OW31681   6.590   3.752   1.674
10261SOL    HW131682   6.599   3.653   1.683
10261SOL    HW231683   6.494   3.777   1.666
10262SOL     OW31684   4.546   0.843   6.536
10262SOL    HW131685   4.569   0.876   6.444
10262SOL    HW231686   4.618   0.869   6.600
10263SOL     OW31687   5.605   0.425   2.685
10263SOL    HW131688   5.674   0.495   2.669
10263SOL    HW231689   5.544   0.419   2.606
10264SOL     OW31690   6.919   1.206   5.882
10264SOL    HW131691   6.998   1.266   5.881
10264SOL    HW231692   6.949   1.111   5.889
10265SOL     OW31693   1.723   0.908   2.764
10265SOL    HW131694   1.816   0.882   2.740
10265SOL    HW231695   1.660   0.834   2.737
10266SOL     OW31696   2.701   3.771   1.710
10266SOL    HW131697   2.789   3.765   1.663
10266SOL    HW231698   2.653   3.854   1.681
10267SOL     OW31699   6.218   0.968   0.485
10267SOL    HW131700   6.303   1.003   0.523
10267SOL    HW231701   6.181   0.897   0.545
10268SOL     OW31702   3.810   5.769   2.596
10268SOL    HW131703   3.887   5.791   2.537
10268SOL    HW231704   3.773   5.679   2.572
10269SOL     OW31705   2.554   1.649   6.807
10269SOL    HW131706   2.547   1.619   6.902
10269SOL    HW231707   2.642   1.620   6.769
10270SOL     OW31708   2.670   0.646   3.548
10270SOL    HW131709   2.593   0.598   3.589
10270SOL    HW231710   2.686   0.610   3.456
10271SOL     OW31711   2.047   1.257   0.030
10271SOL    HW131712   2.076   1.240   0.124
10271SOL    HW231713   1.959   1.304   0.030
10272SOL     OW31714   6.010   6.521   5.241
10272SOL    HW131715   5.954   6.535   5.159
10272SOL    HW231716   5.950   6.521   5.322
10273SOL     OW31717   2.093   5.662   2.538
10273SOL    HW131718   2.110   5.568   2.568
10273SOL    HW231719   2.033   5.660   2.458
10274SOL     OW31720   0.961   4.274   5.289
10274SOL    HW131721   0.935   4.264   5.385
10274SOL    HW231722   0.897   4.224   5.232
10275SOL     OW31723   0.208   1.235   1.722
10275SOL    HW131724   0.189   1.178   1.803
10275SOL    HW231725   0.132   1.226   1.657
10276SOL     OW31726   3.359   4.751   5.260
10276SOL    HW131727   3.294   4.675   5.264
10276SOL    HW231728   3.450   4.717   5.283
10277SOL     OW31729   0.393   5.327   3.491
10277SOL    HW131730   0.439   5.239   3.503
10277SOL    HW231731   0.438   5.396   3.548
10278SOL     OW31732   5.791   0.150   3.990
10278SOL    HW131733   5.878   0.172   4.033
10278SOL    HW231734   5.721   0.139   4.060
10279SOL     OW31735   1.075   4.862   4.002
10279SOL    HW131736   1.159   4.913   4.021
10279SOL    HW231737   1.098   4.771   3.968
10280SOL     OW31738   6.185   5.841   0.617
10280SOL    HW131739   6.282   5.825   0.598
10280SOL    HW231740   6.175   5.893   0.702
10281SOL     OW31741   5.957   0.048   4.614
10281SOL    HW131742   6.029   0.092   4.560
10281SOL    HW231743   5.918   6.998   4.562
10282SOL     OW31744   5.285   2.479   3.409
10282SOL    HW131745   5.347   2.509   3.336
10282SOL    HW231746   5.338   2.444   3.486
10283SOL     OW31747   0.161   2.162   0.902
10283SOL    HW131748   0.167   2.196   0.808
10283SOL    HW231749   0.252   2.161   0.943
10284SOL     OW31750   1.163   5.254   4.994
10284SOL    HW131751   1.169   5.156   5.008
10284SOL    HW231752   1.070   5.278   4.966
10285SOL     OW31753   0.271   6.907   6.239
10285SOL    HW131754   0.217   6.869   6.164
10285SOL    HW231755   0.217   6.906   6.324
10286SOL     OW31756   3.126   0.926   1.641
10286SOL    HW131757   3.171   0.889   1.560
10286SOL    HW231758   3.187   0.918   1.719
10287SOL     OW31759   0.419   6.042   2.744
10287SOL    HW131760   0.503   6.027   2.795
10287SOL    HW231761   0.404   5.964   2.682
10288SOL     OW31762   3.750   6.042   4.331
10288SOL    HW131763   3.685   5.966   4.331
10288SOL    HW231764   3.837   6.013   4.370
10289SOL     OW31765   3.608   6.244   6.821
10289SOL    HW131766   3.577   6.223   6.729
10289SOL    HW231767   3.602   6.342   6.837
10290SOL     OW31768   3.577   3.287   2.497
10290SOL    HW131769   3.600   3.268   2.593
10290SOL    HW231770   3.529   3.375   2.491
10291SOL     OW31771   3.356   2.080   2.098
10291SOL    HW131772   3.270   2.117   2.061
10291SOL    HW231773   3.433   2.119   2.048
10292SOL     OW31774   0.371   0.709   5.867
10292SOL    HW131775   0.363   0.769   5.946
10292SOL    HW231776   0.425   0.754   5.796
10293SOL     OW31777   1.822   3.114   5.846
10293SOL    HW131778   1.906   3.139   5.894
10293SOL    HW231779   1.798   3.187   5.782
10294SOL     OW31780   1.059   7.020   1.720
10294SOL    HW131781   1.055   6.940   1.780
10294SOL    HW231782   1.154   0.025   1.712
10295SOL     OW31783   2.287   1.266   0.752
10295SOL    HW131784   2.338   1.252   0.667
10295SOL    HW231785   2.330   1.338   0.806
10296SOL     OW31786   6.911   3.303   5.042
10296SOL    HW131787   6.859   3.277   5.124
10296SOL    HW231788   6.858   3.368   4.988
10297SOL     OW31789   4.139   1.452   1.022
10297SOL    HW131790   4.060   1.500   1.060
10297SOL    HW231791   4.109   1.364   0.984
10298SOL     OW31792   1.543   0.863   1.946
10298SOL    HW131793   1.518   0.803   2.021
10298SOL    HW231794   1.566   0.808   1.865
10299SOL     OW31795   5.420   6.821   2.586
10299SOL    HW131796   5.434   6.821   2.487
10299SOL    HW231797   5.446   6.732   2.624
10300SOL     OW31798   1.063   3.714   0.929
10300SOL    HW131799   1.128   3.658   0.980
10300SOL    HW231800   1.107   3.799   0.901
10301SOL     OW31801   4.341   1.354   0.102
10301SOL    HW131802   4.420   1.310   0.145
10301SOL    HW231803   4.273   1.284   0.079
10302SOL     OW31804   2.870   6.012   5.324
10302SOL    HW131805   2.908   6.073   5.393
10302SOL    HW231806   2.891   5.917   5.348
10303SOL     OW31807   0.585   4.676   5.651
10303SOL    HW131808   0.564   4.612   5.725
10303SOL    HW231809   0.682   4.700   5.654
10304SOL     OW31810   4.669   5.032   0.692
10304SOL    HW131811   4.711   5.069   0.609
10304SOL    HW231812   4.706   4.941   0.711
10305SOL     OW31813   2.958   3.348   4.904
10305SOL    HW131814   2.997   3.274   4.850
10305SOL    HW231815   2.976   3.332   5.001
10306SOL     OW31816   3.507   1.188   1.710
10306SOL    HW131817   3.580   1.256   1.721
10306SOL    HW231818   3.450   1.188   1.792
10307SOL     OW31819   1.844   6.119   4.855
10307SOL    HW131820   1.933   6.101   4.896
10307SOL    HW231821   1.848   6.100   4.757
10308SOL     OW31822   2.599   4.615   2.183
10308SOL    HW131823   2.677   4.623   2.121
10308SOL    HW231824   2.631   4.600   2.276
10309SOL     OW31825   0.418   0.907   4.587
10309SOL    HW131826   0.435   0.947   4.497
10309SOL    HW231827   0.496   0.850   4.613
10310SOL     OW31828   2.709   4.278   6.377
10310SOL    HW131829   2.684   4.307   6.285
10310SOL    HW231830   2.808   4.264   6.382
10311SOL     OW31831   5.125   6.449   0.028
10311SOL    HW131832   5.130   6.463   0.127
10311SOL    HW231833   5.217   6.443   7.016
10312SOL     OW31834   2.485   6.858   1.547
10312SOL    HW131835   2.543   6.804   1.485
10312SOL    HW231836   2.448   6.937   1.498
10313SOL     OW31837   4.935   6.379   3.029
10313SOL    HW131838   4.847   6.339   3.053
10313SOL    HW231839   4.924   6.438   2.949
10314SOL     OW31840   0.627   6.537   0.613
10314SOL    HW131841   0.546   6.566   0.662
10314SOL    HW231842   0.639   6.592   0.530
10315SOL     OW31843   5.139   4.975   3.950
10315SOL    HW131844   5.184   4.951   4.036
10315SOL    HW231845   5.046   5.007   3.969
10316SOL     OW31846   1.266   1.975   0.345
10316SOL    HW131847   1.314   2.057   0.376
10316SOL    HW231848   1.332   1.901   0.333
10317SOL     OW31849   4.029   5.949   4.426
10317SOL    HW131850   4.077   6.000   4.355
10317SOL    HW231851   4.054   5.986   4.516
10318SOL     OW31852   6.110   0.178   0.007
10318SOL    HW131853   6.091   0.248   0.076
10318SOL    HW231854   6.172   0.109   0.045
10319SOL     OW31855   1.304   4.185   4.641
10319SOL    HW131856   1.241   4.176   4.718
10319SOL    HW231857   1.280   4.266   4.588
10320SOL     OW31858   6.684   6.849   3.074
10320SOL    HW131859   6.629   6.783   3.126
10320SOL    HW231860   6.772   6.862   3.120
10321SOL     OW31861   6.002   2.327   3.763
10321SOL    HW131862   5.966   2.393   3.697
10321SOL    HW231863   6.068   2.372   3.823
10322SOL     OW31864   4.503   4.529   4.715
10322SOL    HW131865   4.430   4.516   4.782
10322SOL    HW231866   4.557   4.609   4.740
10323SOL     OW31867   0.773   4.743   6.009
10323SOL    HW131868   0.759   4.751   5.911
10323SOL    HW231869   0.714   4.809   6.056
10324SOL     OW31870   3.259   3.360   2.566
10324SOL    HW131871   3.181   3.322   2.517
10324SOL    HW231872   3.234   3.380   2.661
10325SOL     OW31873   6.102   6.029   5.197
10325SOL    HW131874   6.074   6.064   5.107
10325SOL    HW231875   6.021   6.006   5.251
10326SOL     OW31876   5.138   3.968   6.758
10326SOL    HW131877   5.121   3.937   6.664
10326SOL    HW231878   5.208   4.039   6.758
10327SOL     OW31879   1.666   5.765   0.013
10327SOL    HW131880   1.590   5.752   0.077
10327SOL    HW231881   1.749   5.725   0.052
10328SOL     OW31882   6.402   2.052   3.280
10328SOL    HW131883   6.444   1.968   3.315
10328SOL    HW231884   6.307   2.058   3.311
10329SOL     OW31885   3.595   2.032   1.795
10329SOL    HW131886   3.620   2.093   1.870
10329SOL    HW231887   3.595   2.083   1.709
10330SOL     OW31888   4.922   6.604   1.826
10330SOL    HW131889   4.965   6.568   1.743
10330SOL    HW231890   4.851   6.540   1.857
10331SOL     OW31891   5.060   5.548   5.658
10331SOL    HW131892   5.065   5.618   5.587
10331SOL    HW231893   5.152   5.521   5.685
10332SOL     OW31894   2.240   1.185   6.579
10332SOL    HW131895   2.245   1.114   6.649
10332SOL    HW231896   2.311   1.170   6.511
10333SOL     OW31897   1.719   3.656   3.775
10333SOL    HW131898   1.672   3.568   3.763
10333SOL    HW231899   1.652   3.730   3.774
10334SOL     OW31900   3.393   1.449   4.171
10334SOL    HW131901   3.367   1.539   4.204
10334SOL    HW231902   3.479   1.422   4.214
10335SOL     OW31903   2.161   3.573   3.805
10335SOL    HW131904   2.079   3.516   3.809
10335SOL    HW231905   2.239   3.522   3.841
10336SOL     OW31906   5.848   6.439   3.097
10336SOL    HW131907   5.818   6.474   3.008
10336SOL    HW231908   5.944   6.462   3.111
10337SOL     OW31909   5.935   6.576   6.730
10337SOL    HW131910   5.852   6.547   6.683
10337SOL    HW231911   5.911   6.619   6.817
10338SOL     OW31912   0.198   6.012   1.897
10338SOL    HW131913   0.198   6.112   1.902
10338SOL    HW231914   0.145   5.983   1.817
10339SOL     OW31915   5.253   2.543   6.091
10339SOL    HW131916   5.310   2.495   6.025
10339SOL    HW231917   5.177   2.588   6.044
10340SOL     OW31918   3.282   3.568   6.417
10340SOL    HW131919   3.358   3.632   6.402
10340SOL    HW231920   3.267   3.558   6.516
10341SOL     OW31921   3.764   5.117   3.192
10341SOL    HW131922   3.790   5.100   3.096
10341SOL    HW231923   3.782   5.034   3.246
10342SOL     OW31924   0.923   1.861   3.994
10342SOL    HW131925   0.882   1.773   3.970
10342SOL    HW231926   0.887   1.892   4.081
10343SOL     OW31927   4.170   5.461   1.311
10343SOL    HW131928   4.205   5.368   1.321
10343SOL    HW231929   4.107   5.481   1.386
10344SOL     OW31930   5.063   6.703   6.902
10344SOL    HW131931   5.091   6.626   6.959
10344SOL    HW231932   4.977   6.740   6.938
10345SOL     OW31933   0.945   4.434   4.995
10345SOL    HW131934   1.032   4.439   4.947
10345SOL    HW231935   0.955   4.472   5.087
10346SOL     OW31936   0.865   5.098   0.645
10346SOL    HW131937   0.919   5.054   0.716
10346SOL    HW231938   0.925   5.146   0.582
10347SOL     OW31939   0.440   1.995   5.280
10347SOL    HW131940   0.506   1.921   5.268
10347SOL    HW231941   0.479   2.081   5.247
10348SOL     OW31942   0.216   5.224   1.112
10348SOL    HW131943   0.252   5.311   1.144
10348SOL    HW231944   0.255   5.202   1.023
10349SOL     OW31945   6.670   0.238   6.590
10349SOL    HW131946   6.753   0.248   6.535
10349SOL    HW231947   6.617   0.160   6.556
10350SOL     OW31948   4.237   0.226   6.592
10350SOL    HW131949   4.152   0.262   6.629
10350SOL    HW231950   4.270   0.152   6.651
10351SOL     OW31951   4.486   5.754   6.063
10351SOL    HW131952   4.391   5.747   6.031
10351SOL    HW231953   4.486   5.783   6.159
10352SOL     OW31954   4.449   5.071   6.088
10352SOL    HW131955   4.542   5.105   6.072
10352SOL    HW231956   4.454   4.983   6.136
10353SOL     OW31957   0.281   3.703   4.683
10353SOL    HW131958   0.359   3.721   4.744
10353SOL    HW231959   0.241   3.614   4.705
10354SOL     OW31960   5.290   1.090   1.178
10354SOL    HW131961   5.198   1.056   1.162
10354SOL    HW231962   5.343   1.086   1.094
10355SOL     OW31963   0.971   4.712   3.153
10355SOL    HW131964   0.922   4.637   3.198
10355SOL    HW231965   0.906   4.767   3.101
10356SOL     OW31966   0.576   3.409   4.963
10356SOL    HW131967   0.616   3.500   4.954
10356SOL    HW231968   0.498   3.400   4.901
10357SOL     OW31969   3.137   3.063   6.298
10357SOL    HW131970   3.199   3.010   6.356
10357SOL    HW231971   3.153   3.161   6.313
10358SOL     OW31972   0.650   0.472   2.090
10358SOL    HW131973   0.559   0.486   2.052
10358SOL    HW231974   0.676   0.551   2.146
10359SOL     OW31975   1.616   1.658   0.575
10359SOL    HW131976   1.584   1.575   0.528
10359SOL    HW231977   1.624   1.732   0.509
10360SOL     OW31978   0.578   4.269   4.329
10360SOL    HW131979   0.627   4.350   4.297
10360SOL    HW231980   0.573   4.202   4.255
10361SOL     OW31981   2.956   5.740   0.350
10361SOL    HW131982   3.049   5.722   0.318
10361SOL    HW231983   2.960   5.779   0.442
10362SOL     OW31984   0.787   4.806   5.484
10362SOL    HW131985   0.717   4.789   5.415
10362SOL    HW231986   0.876   4.773   5.451
10363SOL     OW31987   5.355   0.536   4.752
10363SOL    HW131988   5.352   0.631   4.723
10363SOL    HW231989   5.424   0.525   4.824
10364SOL     OW31990   1.183   3.929   0.792
10364SOL    HW131991   1.111   3.996   0.810
10364SOL    HW231992   1.168   3.886   0.703
10365SOL     OW31993   5.694   4.862   6.711
10365SOL    HW131994   5.626   4.904   6.652
10365SOL    HW231995   5.718   4.925   6.786
10366SOL     OW31996   4.567   6.856   3.436
10366SOL    HW131997   4.522   6.916   3.502
10366SOL    HW231998   4.662   6.841   3.463
10367SOL     OW31999   6.205   1.457   3.293
10367SOL    HW132000   6.299   1.461   3.328
10367SOL    HW232001   6.192   1.528   3.224
10368SOL     OW32002   2.331   6.990   1.032
10368SOL    HW132003   2.292   6.998   0.940
10368SOL    HW232004   2.278   6.925   1.086
10369SOL     OW32005   5.115   3.016   6.557
10369SOL    HW132006   5.148   2.935   6.509
10369SOL    HW232007   5.064   3.075   6.494
10370SOL     OW32008   2.388   0.420   4.874
10370SOL    HW132009   2.447   0.418   4.793
10370SOL    HW232010   2.302   0.372   4.853
10371SOL     OW32011   4.889   6.612   5.645
10371SOL    HW132012   4.812   6.549   5.656
10371SOL    HW232013   4.872   6.696   5.696
10372SOL     OW32014   0.080   1.154   4.225
10372SOL    HW132015   0.155   1.092   4.250
10372SOL    HW232016   0.030   1.116   4.148
10373SOL     OW32017   1.490   6.655   5.335
10373SOL    HW132018   1.561   6.705   5.385
10373SOL    HW232019   1.446   6.716   5.270
10374SOL     OW32020   3.664   1.217   3.435
10374SOL    HW132021   3.600   1.151   3.476
10374SOL    HW232022   3.750   1.215   3.486
10375SOL     OW32023   6.794   2.471   1.042
10375SOL    HW132024   6.821   2.410   0.968
10375SOL    HW232025   6.848   2.451   1.124
10376SOL     OW32026   5.815   0.338   3.797
10376SOL    HW132027   5.797   0.265   3.863
10376SOL    HW232028   5.749   0.331   3.722
10377SOL     OW32029   6.606   6.669   3.307
10377SOL    HW132030   6.686   6.714   3.348
10377SOL    HW232031   6.590   6.582   3.353
10378SOL     OW32032   6.778   6.742   5.759
10378SOL    HW132033   6.713   6.684   5.709
10378SOL    HW232034   6.781   6.833   5.718
10379SOL     OW32035   4.405   1.052   5.151
10379SOL    HW132036   4.350   1.135   5.164
10379SOL    HW232037   4.472   1.045   5.224
10380SOL     OW32038   3.364   0.890   4.538
10380SOL    HW132039   3.448   0.886   4.593
10380SOL    HW232040   3.385   0.923   4.447
10381SOL     OW32041   3.286   5.466   4.927
10381SOL    HW132042   3.216   5.401   4.898
10381SOL    HW232043   3.310   5.525   4.850
10382SOL     OW32044   0.178   4.773   1.400
10382SOL    HW132045   0.237   4.850   1.377
10382SOL    HW232046   0.206   4.735   1.488
10383SOL     OW32047   5.392   3.481   1.282
10383SOL    HW132048   5.327   3.453   1.352
10383SOL    HW232049   5.412   3.403   1.223
10384SOL     OW32050   4.880   1.462   6.968
10384SOL    HW132051   4.917   1.514   6.892
10384SOL    HW232052   4.785   1.437   6.949
10385SOL     OW32053   6.648   3.105   6.534
10385SOL    HW132054   6.630   3.151   6.621
10385SOL    HW232055   6.739   3.131   6.501
10386SOL     OW32056   0.096   1.623   6.021
10386SOL    HW132057   0.180   1.604   6.072
10386SOL    HW232058   0.096   1.719   5.992
10387SOL     OW32059   1.563   3.996   3.339
10387SOL    HW132060   1.490   3.928   3.330
10387SOL    HW232061   1.531   4.072   3.395
10388SOL     OW32062   1.698   4.647   2.027
10388SOL    HW132063   1.634   4.705   2.077
10388SOL    HW232064   1.650   4.601   1.952
10389SOL     OW32065   1.761   5.758   2.942
10389SOL    HW132066   1.719   5.816   3.012
10389SOL    HW232067   1.741   5.795   2.852
10390SOL     OW32068   2.124   3.304   3.449
10390SOL    HW132069   2.075   3.383   3.413
10390SOL    HW232070   2.218   3.305   3.413
10391SOL     OW32071   3.534   5.446   4.165
10391SOL    HW132072   3.626   5.478   4.188
10391SOL    HW232073   3.468   5.521   4.179
10392SOL     OW32074   0.207   5.565   6.998
10392SOL    HW132075   0.292   5.550   0.022
10392SOL    HW232076   0.195   5.663   6.979
10393SOL     OW32077   1.423   1.544   4.454
10393SOL    HW132078   1.365   1.490   4.393
10393SOL    HW232079   1.494   1.486   4.492
10394SOL     OW32080   3.446   6.613   0.797
10394SOL    HW132081   3.437   6.704   0.755
10394SOL    HW232082   3.358   6.586   0.836
10395SOL     OW32083   1.219   6.997   3.485
10395SOL    HW132084   1.124   7.025   3.498
10395SOL    HW232085   1.229   6.900   3.507
10396SOL     OW32086   0.566   0.916   4.362
10396SOL    HW132087   0.604   0.943   4.450
10396SOL    HW232088   0.550   0.997   4.305
10397SOL     OW32089   4.717   2.764   2.785
10397SOL    HW132090   4.718   2.834   2.714
10397SOL    HW232091   4.789   2.783   2.852
10398SOL     OW32092   0.362   2.386   2.404
10398SOL    HW132093   0.277   2.397   2.352
10398SOL    HW232094   0.427   2.333   2.351
10399SOL     OW32095   6.708   2.969   5.994
10399SOL    HW132096   6.793   3.006   6.031
10399SOL    HW232097   6.686   2.883   6.040
10400SOL     OW32098   1.857   5.173   2.548
10400SOL    HW132099   1.770   5.183   2.500
10400SOL    HW232100   1.916   5.111   2.496
10401SOL     OW32101   1.182   6.052   1.232
10401SOL    HW132102   1.130   6.091   1.308
10401SOL    HW232103   1.278   6.078   1.240
10402SOL     OW32104   0.999   2.312   4.852
10402SOL    HW132105   0.899   2.314   4.841
10402SOL    HW232106   1.035   2.404   4.845
10403SOL     OW32107   5.468   1.273   3.237
10403SOL    HW132108   5.446   1.370   3.227
10403SOL    HW232109   5.546   1.251   3.179
10404SOL     OW32110   6.419   0.168   4.514
10404SOL    HW132111   6.445   0.151   4.418
10404SOL    HW232112   6.414   0.081   4.563
10405SOL     OW32113   3.796   0.088   6.298
10405SOL    HW132114   3.735   0.162   6.269
10405SOL    HW232115   3.764   0.052   6.386
10406SOL     OW32116   1.050   6.228   5.021
10406SOL    HW132117   1.106   6.249   5.102
10406SOL    HW232118   0.990   6.151   5.042
10407SOL     OW32119   3.881   0.720   0.199
10407SOL    HW132120   3.919   0.705   0.107
10407SOL    HW232121   3.783   0.735   0.193
10408SOL     OW32122   3.028   0.240   2.425
10408SOL    HW132123   2.974   0.290   2.357
10408SOL    HW232124   3.118   0.284   2.434
10409SOL     OW32125   0.222   4.783   2.128
10409SOL    HW132126   0.128   4.793   2.095
10409SOL    HW232127   0.253   4.690   2.112
10410SOL     OW32128   5.562   5.406   0.535
10410SOL    HW132129   5.660   5.405   0.554
10410SOL    HW232130   5.514   5.350   0.603
10411SOL     OW32131   2.039   5.170   2.241
10411SOL    HW132132   2.036   5.209   2.149
10411SOL    HW232133   2.134   5.166   2.272
10412SOL     OW32134   1.204   3.992   6.170
10412SOL    HW132135   1.140   3.975   6.095
10412SOL    HW232136   1.259   3.910   6.187
10413SOL     OW32137   6.960   1.155   5.041
10413SOL    HW132138   6.864   1.139   5.062
10413SOL    HW232139   6.986   1.247   5.072
10414SOL     OW32140   5.365   5.248   5.059
10414SOL    HW132141   5.444   5.284   5.009
10414SOL    HW232142   5.289   5.312   5.049
10415SOL     OW32143   6.962   4.533   3.044
10415SOL    HW132144   7.002   4.624   3.055
10415SOL    HW232145   6.945   4.516   2.947
10416SOL     OW32146   5.072   0.704   0.300
10416SOL    HW132147   5.100   0.797   0.275
10416SOL    HW232148   5.121   0.638   0.242
10417SOL     OW32149   5.089   4.469   4.470
10417SOL    HW132150   5.117   4.376   4.447
10417SOL    HW232151   5.072   4.521   4.386
10418SOL     OW32152   6.174   2.871   0.247
10418SOL    HW132153   6.266   2.835   0.265
10418SOL    HW232154   6.122   2.806   0.192
10419SOL     OW32155   0.713   6.783   4.447
10419SOL    HW132156   0.782   6.723   4.407
10419SOL    HW232157   0.757   6.866   4.480
10420SOL     OW32158   6.547   4.039   4.041
10420SOL    HW132159   6.503   4.112   3.987
10420SOL    HW232160   6.568   4.073   4.132
10421SOL     OW32161   0.460   3.522   4.077
10421SOL    HW132162   0.436   3.618   4.085
10421SOL    HW232163   0.449   3.477   4.166
10422SOL     OW32164   5.647   3.142   6.030
10422SOL    HW132165   5.646   3.154   6.130
10422SOL    HW232166   5.741   3.124   6.000
10423SOL     OW32167   2.659   5.657   1.614
10423SOL    HW132168   2.598   5.621   1.685
10423SOL    HW232169   2.643   5.610   1.528
10424SOL     OW32170   5.068   0.857   2.984
10424SOL    HW132171   4.975   0.868   3.019
10424SOL    HW232172   5.093   0.761   2.987
10425SOL     OW32173   0.361   4.968   0.892
10425SOL    HW132174   0.288   4.924   0.945
10425SOL    HW232175   0.419   4.898   0.851
10426SOL     OW32176   6.460   2.685   6.813
10426SOL    HW132177   6.423   2.651   6.727
10426SOL    HW232178   6.529   2.755   6.794
10427SOL     OW32179   6.243   0.864   3.342
10427SOL    HW132180   6.295   0.844   3.425
10427SOL    HW232181   6.212   0.959   3.345
10428SOL     OW32182   1.758   0.591   5.025
10428SOL    HW132183   1.725   0.563   5.115
10428SOL    HW232184   1.694   0.559   4.955
10429SOL     OW32185   1.906   4.933   1.959
10429SOL    HW132186   1.994   4.967   1.926
10429SOL    HW232187   1.849   4.908   1.881
10430SOL     OW32188   3.496   1.469   4.746
10430SOL    HW132189   3.420   1.477   4.811
10430SOL    HW232190   3.559   1.546   4.759
10431SOL     OW32191   4.699   2.035   4.034
10431SOL    HW132192   4.681   2.106   3.967
10431SOL    HW232193   4.625   2.032   4.102
10432SOL     OW32194   1.873   4.295   1.330
10432SOL    HW132195   1.815   4.320   1.408
10432SOL    HW232196   1.816   4.280   1.249
10433SOL     OW32197   3.332   6.662   3.687
10433SOL    HW132198   3.248   6.702   3.723
10433SOL    HW232199   3.382   6.617   3.761
10434SOL     OW32200   4.518   1.851   0.661
10434SOL    HW132201   4.558   1.773   0.709
10434SOL    HW232202   4.499   1.826   0.566
10435SOL     OW32203   2.482   1.318   1.363
10435SOL    HW132204   2.389   1.355   1.365
10435SOL    HW232205   2.495   1.257   1.441
10436SOL     OW32206   1.739   3.910   5.386
10436SOL    HW132207   1.698   3.905   5.295
10436SOL    HW232208   1.815   3.975   5.385
10437SOL     OW32209   6.710   0.012   5.310
10437SOL    HW132210   6.624   0.008   5.260
10437SOL    HW232211   6.755   0.100   5.293
10438SOL     OW32212   6.895   6.096   0.070
10438SOL    HW132213   6.966   6.027   0.056
10438SOL    HW232214   6.832   6.066   0.141
10439SOL     OW32215   5.815   4.931   5.646
10439SOL    HW132216   5.798   5.030   5.645
10439SOL    HW232217   5.866   4.906   5.563
10440SOL     OW32218   5.479   2.461   2.204
10440SOL    HW132219   5.454   2.373   2.245
10440SOL    HW232220   5.569   2.489   2.238
10441SOL     OW32221   5.248   1.857   5.873
10441SOL    HW132222   5.312   1.803   5.928
10441SOL    HW232223   5.162   1.807   5.862
10442SOL     OW32224   2.714   0.358   6.031
10442SOL    HW132225   2.700   0.262   6.056
10442SOL    HW232226   2.738   0.363   5.934
10443SOL     OW32227   0.994   1.425   6.643
10443SOL    HW132228   1.089   1.392   6.642
10443SOL    HW232229   0.978   1.476   6.727
10444SOL     OW32230   4.486   5.705   3.673
10444SOL    HW132231   4.541   5.624   3.695
10444SOL    HW232232   4.489   5.721   3.574
10445SOL     OW32233   1.397   3.250   3.700
10445SOL    HW132234   1.346   3.170   3.669
10445SOL    HW232235   1.460   3.223   3.773
10446SOL     OW32236   3.002   4.697   5.360
10446SOL    HW132237   2.917   4.733   5.396
10446SOL    HW232238   2.982   4.640   5.280
10447SOL     OW32239   1.526   2.504   3.090
10447SOL    HW132240   1.478   2.586   3.059
10447SOL    HW232241   1.468   2.453   3.153
10448SOL     OW32242   0.326   5.013   1.507
10448SOL    HW132243   0.385   5.018   1.427
10448SOL    HW232244   0.358   4.939   1.567
10449SOL     OW32245   3.803   5.492   4.192
10449SOL    HW132246   3.830   5.582   4.226
10449SOL    HW232247   3.874   5.457   4.131
10450SOL     OW32248   0.822   2.797   4.547
10450SOL    HW132249   0.829   2.698   4.537
10450SOL    HW232250   0.783   2.836   4.464
10451SOL     OW32251   2.083   2.102   5.059
10451SOL    HW132252   2.030   2.185   5.039
10451SOL    HW232253   2.160   2.125   5.119
10452SOL     OW32254   0.178   3.005   4.456
10452SOL    HW132255   0.223   2.971   4.539
10452SOL    HW232256   0.190   2.939   4.382
10453SOL     OW32257   3.070   5.573   3.886
10453SOL    HW132258   2.972   5.558   3.899
10453SOL    HW232259   3.094   5.665   3.916
10454SOL     OW32260   6.503   2.477   6.981
10454SOL    HW132261   6.485   2.552   6.918
10454SOL    HW232262   6.582   2.425   6.949
10455SOL     OW32263   0.858   6.082   2.799
10455SOL    HW132264   0.825   6.174   2.776
10455SOL    HW232265   0.832   6.019   2.726
10456SOL     OW32266   1.291   6.051   6.002
10456SOL    HW132267   1.242   6.042   5.916
10456SOL    HW232268   1.293   5.963   6.049
10457SOL     OW32269   4.439   1.807   1.067
10457SOL    HW132270   4.400   1.861   1.142
10457SOL    HW232271   4.437   1.710   1.092
10458SOL     OW32272   1.995   6.829   0.018
10458SOL    HW132273   2.079   6.777   0.034
10458SOL    HW232274   1.998   6.868   6.952
10459SOL     OW32275   5.389   5.968   1.020
10459SOL    HW132276   5.315   5.926   1.073
10459SOL    HW232277   5.370   6.065   1.008
10460SOL     OW32278   6.163   1.294   6.848
10460SOL    HW132279   6.191   1.211   6.799
10460SOL    HW232280   6.069   1.316   6.824
10461SOL     OW32281   6.735   4.296   5.834
10461SOL    HW132282   6.701   4.202   5.841
10461SOL    HW232283   6.821   4.296   5.784
10462SOL     OW32284   4.598   3.835   0.226
10462SOL    HW132285   4.640   3.925   0.242
10462SOL    HW232286   4.503   3.837   0.257
10463SOL     OW32287   4.315   2.713   5.343
10463SOL    HW132288   4.249   2.648   5.304
10463SOL    HW232289   4.293   2.806   5.314
10464SOL     OW32290   6.207   4.707   1.678
10464SOL    HW132291   6.181   4.650   1.756
10464SOL    HW232292   6.302   4.737   1.689
10465SOL     OW32293   5.086   4.007   0.496
10465SOL    HW132294   5.171   4.057   0.507
10465SOL    HW232295   5.093   3.944   0.418
10466SOL     OW32296   6.324   3.749   5.585
10466SOL    HW132297   6.346   3.846   5.584
10466SOL    HW232298   6.401   3.697   5.622
10467SOL     OW32299   0.254   3.935   6.711
10467SOL    HW132300   0.269   3.839   6.686
10467SOL    HW232301   0.156   3.952   6.719
10468SOL     OW32302   1.786   4.595   3.639
10468SOL    HW132303   1.867   4.555   3.680
10468SOL    HW232304   1.740   4.654   3.705
10469SOL     OW32305   1.732   0.525   4.582
10469SOL    HW132306   1.787   0.608   4.574
10469SOL    HW232307   1.689   0.522   4.672
10470SOL     OW32308   2.562   4.244   1.764
10470SOL    HW132309   2.633   4.311   1.741
10470SOL    HW232310   2.478   4.291   1.789
10471SOL     OW32311   1.585   4.630   6.283
10471SOL    HW132312   1.575   4.640   6.184
10471SOL    HW232313   1.634   4.546   6.304
10472SOL     OW32314   4.372   5.334   6.063
10472SOL    HW132315   4.374   5.236   6.085
10472SOL    HW232316   4.278   5.363   6.049
10473SOL     OW32317   6.011   5.846   0.412
10473SOL    HW132318   5.926   5.889   0.443
10473SOL    HW232319   6.083   5.861   0.479
10474SOL     OW32320   5.856   5.322   4.947
10474SOL    HW132321   5.804   5.342   4.864
10474SOL    HW232322   5.794   5.295   5.020
10475SOL     OW32323   6.509   6.287   1.835
10475SOL    HW132324   6.516   6.269   1.934
10475SOL    HW232325   6.544   6.378   1.816
10476SOL     OW32326   5.379   6.262   1.057
10476SOL    HW132327   5.432   6.336   1.100
10476SOL    HW232328   5.297   6.301   1.015
10477SOL     OW32329   0.012   5.779   3.221
10477SOL    HW132330   0.046   5.805   3.311
10477SOL    HW232331   0.014   5.679   3.213
10478SOL     OW32332   0.034   1.624   0.401
10478SOL    HW132333   0.079   1.712   0.415
10478SOL    HW232334   6.963   1.633   0.420
10479SOL     OW32335   0.325   4.767   2.799
10479SOL    HW132336   0.384   4.688   2.814
10479SOL    HW232337   0.364   4.824   2.726
10480SOL     OW32338   2.785   1.695   3.707
10480SOL    HW132339   2.814   1.685   3.802
10480SOL    HW232340   2.705   1.637   3.691
10481SOL     OW32341   5.863   0.363   1.955
10481SOL    HW132342   5.867   0.339   2.052
10481SOL    HW232343   5.954   0.385   1.922
10482SOL     OW32344   4.434   4.638   4.477
10482SOL    HW132345   4.440   4.602   4.570
10482SOL    HW232346   4.508   4.599   4.422
10483SOL     OW32347   5.809   1.383   6.501
10483SOL    HW132348   5.828   1.446   6.426
10483SOL    HW232349   5.762   1.302   6.465
10484SOL     OW32350   5.552   0.371   1.380
10484SOL    HW132351   5.467   0.361   1.430
10484SOL    HW232352   5.550   0.456   1.326
10485SOL     OW32353   5.553   3.542   5.364
10485SOL    HW132354   5.455   3.553   5.380
10485SOL    HW232355   5.602   3.620   5.402
10486SOL     OW32356   6.404   2.812   3.003
10486SOL    HW132357   6.477   2.759   2.959
10486SOL    HW232358   6.373   2.763   3.085
10487SOL     OW32359   3.908   0.141   2.436
10487SOL    HW132360   3.870   0.221   2.483
10487SOL    HW232361   4.005   0.134   2.457
10488SOL     OW32362   4.181   3.617   0.013
10488SOL    HW132363   4.123   3.659   0.083
10488SOL    HW232364   4.262   3.674   7.025
10489SOL     OW32365   1.208   5.382   5.300
10489SOL    HW132366   1.262   5.416   5.223
10489SOL    HW232367   1.122   5.344   5.266
10490SOL     OW32368   5.845   6.845   4.428
10490SOL    HW132369   5.926   6.802   4.387
10490SOL    HW232370   5.764   6.817   4.378
10491SOL     OW32371   6.892   5.560   4.912
10491SOL    HW132372   6.899   5.606   4.824
10491SOL    HW232373   6.908   5.626   4.986
10492SOL     OW32374   4.886   3.997   6.091
10492SOL    HW132375   4.938   3.989   6.006
10492SOL    HW232376   4.807   3.936   6.088
10493SOL     OW32377   3.682   1.106   0.224
10493SOL    HW132378   3.672   1.045   0.303
10493SOL    HW232379   3.710   1.053   0.144
10494SOL     OW32380   5.420   1.364   5.202
10494SOL    HW132381   5.416   1.430   5.127
10494SOL    HW232382   5.360   1.286   5.182
10495SOL     OW32383   0.929   0.721   6.898
10495SOL    HW132384   0.906   0.636   6.946
10495SOL    HW232385   0.860   0.739   6.828
10496SOL     OW32386   0.405   0.218   5.388
10496SOL    HW132387   0.339   0.213   5.463
10496SOL    HW232388   0.411   0.129   5.343
10497SOL     OW32389   2.424   1.139   6.402
10497SOL    HW132390   2.515   1.148   6.362
10497SOL    HW232391   2.378   1.059   6.364
10498SOL     OW32392   2.599   5.312   5.608
10498SOL    HW132393   2.612   5.226   5.658
10498SOL    HW232394   2.599   5.388   5.672
10499SOL     OW32395   3.617   6.337   2.451
10499SOL    HW132396   3.536   6.310   2.503
10499SOL    HW232397   3.635   6.434   2.467
10500SOL     OW32398   2.000   1.277   6.463
10500SOL    HW132399   2.012   1.370   6.430
10500SOL    HW232400   2.089   1.241   6.495
10501SOL     OW32401   1.607   3.507   3.192
10501SOL    HW132402   1.674   3.434   3.201
10501SOL    HW232403   1.606   3.539   3.097
10502SOL     OW32404   3.479   6.519   4.812
10502SOL    HW132405   3.385   6.526   4.778
10502SOL    HW232406   3.498   6.595   4.873
10503SOL     OW32407   2.399   3.550   6.827
10503SOL    HW132408   2.309   3.538   6.786
10503SOL    HW232409   2.417   3.476   6.892
10504SOL     OW32410   1.720   2.643   0.522
10504SOL    HW132411   1.810   2.599   0.524
10504SOL    HW232412   1.723   2.728   0.575
10505SOL     OW32413   0.778   5.004   0.361
10505SOL    HW132414   0.739   4.941   0.428
10505SOL    HW232415   0.870   5.031   0.389
10506SOL     OW32416   6.690   5.722   6.347
10506SOL    HW132417   6.736   5.797   6.395
10506SOL    HW232418   6.744   5.638   6.358
10507SOL     OW32419   3.144   0.430   3.934
10507SOL    HW132420   3.230   0.411   3.980
10507SOL    HW232421   3.160   0.483   3.851
10508SOL     OW32422   5.596   5.527   3.220
10508SOL    HW132423   5.599   5.627   3.213
10508SOL    HW232424   5.553   5.501   3.306
10509SOL     OW32425   1.937   1.565   5.172
10509SOL    HW132426   1.904   1.471   5.158
10509SOL    HW232427   1.918   1.619   5.090
10510SOL     OW32428   5.379   0.810   6.186
10510SOL    HW132429   5.407   0.837   6.094
10510SOL    HW232430   5.431   0.730   6.215
10511SOL     OW32431   6.737   2.680   2.135
10511SOL    HW132432   6.833   2.666   2.157
10511SOL    HW232433   6.725   2.678   2.036
10512SOL     OW32434   2.294   6.881   6.983
10512SOL    HW132435   2.330   6.835   0.038
10512SOL    HW232436   2.365   6.941   6.945
10513SOL     OW32437   6.855   2.673   1.312
10513SOL    HW132438   6.766   2.644   1.276
10513SOL    HW232439   6.904   2.594   1.348
10514SOL     OW32440   1.865   2.702   1.573
10514SOL    HW132441   1.864   2.792   1.616
10514SOL    HW232442   1.934   2.644   1.617
10515SOL     OW32443   6.971   3.995   4.856
10515SOL    HW132444   7.004   3.921   4.799
10515SOL    HW232445   7.001   4.083   4.818
10516SOL     OW32446   2.690   6.415   6.898
10516SOL    HW132447   2.782   6.392   6.865
10516SOL    HW232448   2.649   6.484   6.839
10517SOL     OW32449   0.184   2.191   3.639
10517SOL    HW132450   0.104   2.250   3.646
10517SOL    HW232451   0.239   2.198   3.722
10518SOL     OW32452   0.951   6.198   3.336
10518SOL    HW132453   0.871   6.237   3.289
10518SOL    HW232454   0.923   6.161   3.424
10519SOL     OW32455   3.212   3.480   5.192
10519SOL    HW132456   3.189   3.554   5.128
10519SOL    HW232457   3.283   3.511   5.255
10520SOL     OW32458   2.738   4.907   6.666
10520SOL    HW132459   2.757   4.828   6.608
10520SOL    HW232460   2.669   4.965   6.622
10521SOL     OW32461   6.599   5.894   1.738
10521SOL    HW132462   6.539   5.860   1.665
10521SOL    HW232463   6.684   5.842   1.737
10522SOL     OW32464   5.757   6.857   2.846
10522SOL    HW132465   5.799   6.824   2.762
10522SOL    HW232466   5.793   6.948   2.868
10523SOL     OW32467   5.760   6.334   6.256
10523SOL    HW132468   5.793   6.254   6.206
10523SOL    HW232469   5.724   6.305   6.345
10524SOL     OW32470   5.206   1.104   4.707
10524SOL    HW132471   5.189   1.164   4.786
10524SOL    HW232472   5.142   1.027   4.710
10525SOL     OW32473   2.043   0.446   5.055
10525SOL    HW132474   2.067   0.543   5.043
10525SOL    HW232475   1.957   0.427   5.008
10526SOL     OW32476   4.352   5.096   2.526
10526SOL    HW132477   4.421   5.066   2.591
10526SOL    HW232478   4.268   5.044   2.541
10527SOL     OW32479   2.024   2.771   4.186
10527SOL    HW132480   1.993   2.860   4.152
10527SOL    HW232481   2.027   2.773   4.286
10528SOL     OW32482   5.635   4.169   6.669
10528SOL    HW132483   5.609   4.149   6.763
10528SOL    HW232484   5.585   4.250   6.637
10529SOL     OW32485   6.893   5.970   5.482
10529SOL    HW132486   6.949   5.901   5.437
10529SOL    HW232487   6.799   5.963   5.450
10530SOL     OW32488   1.078   1.219   4.712
10530SOL    HW132489   1.142   1.283   4.669
10530SOL    HW232490   1.079   1.132   4.663
10531SOL     OW32491   3.261   2.182   4.552
10531SOL    HW132492   3.354   2.171   4.586
10531SOL    HW232493   3.213   2.251   4.607
10532SOL     OW32494   3.262   3.822   4.304
10532SOL    HW132495   3.210   3.737   4.314
10532SOL    HW232496   3.199   3.899   4.305
10533SOL     OW32497   3.109   1.337   6.564
10533SOL    HW132498   3.076   1.427   6.536
10533SOL    HW232499   3.206   1.328   6.543
10534SOL     OW32500   5.873   4.170   2.163
10534SOL    HW132501   5.848   4.207   2.252
10534SOL    HW232502   5.942   4.229   2.120
10535SOL     OW32503   6.360   1.550   1.395
10535SOL    HW132504   6.301   1.624   1.427
10535SOL    HW232505   6.432   1.534   1.463
10536SOL     OW32506   5.879   5.873   2.579
10536SOL    HW132507   5.826   5.957   2.568
10536SOL    HW232508   5.824   5.794   2.552
10537SOL     OW32509   6.258   5.040   1.121
10537SOL    HW132510   6.205   5.052   1.204
10537SOL    HW232511   6.351   5.072   1.135
10538SOL     OW32512   4.510   3.432   6.442
10538SOL    HW132513   4.475   3.422   6.535
10538SOL    HW232514   4.572   3.511   6.438
10539SOL     OW32515   1.765   2.972   5.160
10539SOL    HW132516   1.777   2.999   5.064
10539SOL    HW232517   1.674   2.933   5.172
10540SOL     OW32518   3.504   0.957   0.959
10540SOL    HW132519   3.456   0.870   0.969
10540SOL    HW232520   3.574   0.949   0.889
10541SOL     OW32521   3.290   2.702   1.483
10541SOL    HW132522   3.254   2.729   1.572
10541SOL    HW232523   3.353   2.625   1.494
10542SOL     OW32524   1.895   2.573   0.236
10542SOL    HW132525   1.918   2.537   0.326
10542SOL    HW232526   1.914   2.504   0.166
10543SOL     OW32527   2.931   0.540   4.049
10543SOL    HW132528   3.000   0.499   3.988
10543SOL    HW232529   2.854   0.477   4.058
10544SOL     OW32530   0.207   1.556   1.325
10544SOL    HW132531   0.121   1.541   1.373
10544SOL    HW232532   0.194   1.623   1.252
10545SOL     OW32533   3.500   0.570   3.178
10545SOL    HW132534   3.576   0.505   3.181
10545SOL    HW232535   3.466   0.576   3.084
10546SOL     OW32536   4.517   1.004   4.731
10546SOL    HW132537   4.594   1.028   4.790
10546SOL    HW232538   4.546   0.938   4.662
10547SOL     OW32539   4.580   5.786   2.056
10547SOL    HW132540   4.583   5.852   1.980
10547SOL    HW232541   4.626   5.825   2.135
10548SOL     OW32542   4.798   4.220   5.849
10548SOL    HW132543   4.755   4.145   5.900
10548SOL    HW232544   4.750   4.305   5.869
10549SOL     OW32545   6.819   1.485   2.454
10549SOL    HW132546   6.865   1.513   2.539
10549SOL    HW232547   6.837   1.553   2.383
10550SOL     OW32548   4.439   0.145   4.950
10550SOL    HW132549   4.476   0.151   5.042
10550SOL    HW232550   4.415   0.236   4.917
10551SOL     OW32551   2.301   2.858   5.734
10551SOL    HW132552   2.209   2.827   5.714
10551SOL    HW232553   2.358   2.779   5.759
10552SOL     OW32554   3.549   0.970   5.281
10552SOL    HW132555   3.454   0.984   5.253
10552SOL    HW232556   3.569   0.872   5.284
10553SOL     OW32557   2.576   4.617   6.700
10553SOL    HW132558   2.595   4.536   6.644
10553SOL    HW232559   2.576   4.698   6.642
10554SOL     OW32560   6.651   4.006   5.995
10554SOL    HW132561   6.578   3.946   6.028
10554SOL    HW232562   6.731   3.998   6.054
10555SOL     OW32563   3.344   2.925   0.583
10555SOL    HW132564   3.295   2.847   0.545
10555SOL    HW232565   3.442   2.904   0.587
10556SOL     OW32566   2.971   4.913   4.158
10556SOL    HW132567   3.069   4.930   4.170
10556SOL    HW232568   2.942   4.841   4.221
10557SOL     OW32569   5.567   1.694   3.077
10557SOL    HW132570   5.495   1.747   3.033
10557SOL    HW232571   5.640   1.676   3.011
10558SOL     OW32572   6.093   5.561   6.165
10558SOL    HW132573   6.160   5.490   6.141
10558SOL    HW232574   6.141   5.641   6.200
10559SOL     OW32575   4.167   3.191   1.539
10559SOL    HW132576   4.263   3.207   1.558
10559SOL    HW232577   4.158   3.109   1.482
10560SOL     OW32578   7.025   2.294   4.206
10560SOL    HW132579   6.964   2.231   4.255
10560SOL    HW232580   0.035   2.362   4.269
10561SOL     OW32581   1.712   4.390   6.373
10561SOL    HW132582   1.684   4.294   6.364
10561SOL    HW232583   1.805   4.394   6.411
10562SOL     OW32584   4.372   1.965   0.868
10562SOL    HW132585   4.393   1.900   0.941
10562SOL    HW232586   4.426   1.944   0.787
10563SOL     OW32587   1.970   1.876   2.464
10563SOL    HW132588   1.955   1.958   2.409
10563SOL    HW232589   2.045   1.823   2.424
10564SOL     OW32590   0.296   1.486   2.678
10564SOL    HW132591   0.384   1.444   2.654
10564SOL    HW232592   0.303   1.585   2.670
10565SOL     OW32593   5.539   2.111   5.264
10565SOL    HW132594   5.458   2.099   5.206
10565SOL    HW232595   5.589   2.025   5.270
10566SOL     OW32596   4.733   5.662   0.241
10566SOL    HW132597   4.672   5.687   0.166
10566SOL    HW232598   4.720   5.566   0.266
10567SOL     OW32599   2.143   6.012   4.945
10567SOL    HW132600   2.146   6.074   5.023
10567SOL    HW232601   2.227   5.958   4.943
10568SOL     OW32602   4.194   0.220   3.935
10568SOL    HW132603   4.106   0.259   3.963
10568SOL    HW232604   4.178   0.145   3.872
10569SOL     OW32605   6.499   2.017   3.615
10569SOL    HW132606   6.588   1.977   3.638
10569SOL    HW232607   6.463   1.972   3.533
10570SOL     OW32608   0.844   2.625   1.982
10570SOL    HW132609   0.937   2.653   1.958
10570SOL    HW232610   0.810   2.681   2.057
10571SOL     OW32611   6.822   6.905   4.861
10571SOL    HW132612   6.833   7.004   4.849
10571SOL    HW232613   6.852   6.880   4.953
10572SOL     OW32614   6.612   3.599   2.744
10572SOL    HW132615   6.670   3.520   2.763
10572SOL    HW232616   6.524   3.569   2.707
10573SOL     OW32617   6.762   4.562   5.465
10573SOL    HW132618   6.674   4.579   5.420
10573SOL    HW232619   6.836   4.593   5.406
10574SOL     OW32620   0.501   2.679   2.640
10574SOL    HW132621   0.416   2.627   2.650
10574SOL    HW232622   0.579   2.619   2.656
10575SOL     OW32623   0.287   0.385   6.149
10575SOL    HW132624   0.228   0.434   6.085
10575SOL    HW232625   0.312   0.296   6.109
10576SOL     OW32626   0.499   5.692   3.872
10576SOL    HW132627   0.579   5.742   3.905
10576SOL    HW232628   0.519   5.594   3.869
10577SOL     OW32629   0.560   3.014   5.733
10577SOL    HW132630   0.624   3.009   5.657
10577SOL    HW232631   0.466   3.017   5.697
10578SOL     OW32632   5.454   0.720   5.700
10578SOL    HW132633   5.376   0.750   5.645
10578SOL    HW232634   5.457   0.621   5.704
10579SOL     OW32635   5.526   6.498   1.113
10579SOL    HW132636   5.604   6.492   1.175
10579SOL    HW232637   5.556   6.534   1.025
10580SOL     OW32638   1.039   5.041   1.027
10580SOL    HW132639   1.069   4.947   1.044
10580SOL    HW232640   0.956   5.060   1.080
10581SOL     OW32641   4.306   2.417   3.089
10581SOL    HW132642   4.331   2.403   2.993
10581SOL    HW232643   4.208   2.432   3.097
10582SOL     OW32644   3.440   4.028   0.019
10582SOL    HW132645   3.496   3.998   0.096
10582SOL    HW232646   3.349   3.986   0.025
10583SOL     OW32647   4.692   0.977   1.474
10583SOL    HW132648   4.623   0.906   1.458
10583SOL    HW232649   4.758   0.976   1.399
10584SOL     OW32650   5.351   6.497   1.462
10584SOL    HW132651   5.278   6.468   1.399
10584SOL    HW232652   5.334   6.591   1.491
10585SOL     OW32653   3.088   4.260   6.484
10585SOL    HW132654   3.096   4.229   6.389
10585SOL    HW232655   3.088   4.360   6.487
10586SOL     OW32656   5.127   2.138   2.048
10586SOL    HW132657   5.109   2.186   1.962
10586SOL    HW232658   5.042   2.132   2.101
10587SOL     OW32659   0.237   3.731   0.724
10587SOL    HW132660   0.198   3.823   0.720
10587SOL    HW232661   0.287   3.712   0.639
10588SOL     OW32662   1.634   5.272   3.816
10588SOL    HW132663   1.689   5.218   3.753
10588SOL    HW232664   1.641   5.369   3.792
10589SOL     OW32665   5.795   0.644   4.775
10589SOL    HW132666   5.751   0.698   4.847
10589SOL    HW232667   5.760   0.672   4.686
10590SOL     OW32668   0.501   0.172   4.254
10590SOL    HW132669   0.445   0.124   4.321
10590SOL    HW232670   0.590   0.194   4.294
10591SOL     OW32671   1.538   2.260   1.149
10591SOL    HW132672   1.614   2.296   1.203
10591SOL    HW232673   1.541   2.160   1.149
10592SOL     OW32674   4.896   1.863   6.069
10592SOL    HW132675   4.834   1.874   6.147
10592SOL    HW232676   4.991   1.869   6.101
10593SOL     OW32677   1.612   3.972   2.409
10593SOL    HW132678   1.640   4.010   2.498
10593SOL    HW232679   1.682   3.991   2.341
10594SOL     OW32680   1.769   1.405   4.204
10594SOL    HW132681   1.797   1.313   4.176
10594SOL    HW232682   1.669   1.409   4.208
10595SOL     OW32683   1.459   5.857   4.952
10595SOL    HW132684   1.520   5.916   4.899
10595SOL    HW232685   1.413   5.793   4.890
10596SOL     OW32686   2.601   1.127   0.901
10596SOL    HW132687   2.639   1.165   0.984
10596SOL    HW232688   2.672   1.079   0.850
10597SOL     OW32689   1.906   0.654   3.558
10597SOL    HW132690   1.870   0.602   3.636
10597SOL    HW232691   1.833   0.713   3.522
10598SOL     OW32692   2.864   1.014   0.808
10598SOL    HW132693   2.916   1.034   0.891
10598SOL    HW232694   2.884   0.920   0.778
10599SOL     OW32695   4.799   6.886   6.221
10599SOL    HW132696   4.714   6.842   6.248
10599SOL    HW232697   4.804   6.891   6.121
10600SOL     OW32698   1.840   3.239   5.233
10600SOL    HW132699   1.799   3.152   5.207
10600SOL    HW232700   1.940   3.232   5.225
10601SOL     OW32701   4.435   6.230   5.431
10601SOL    HW132702   4.360   6.244   5.366
10601SOL    HW232703   4.457   6.316   5.476
10602SOL     OW32704   4.705   2.739   2.324
10602SOL    HW132705   4.747   2.749   2.234
10602SOL    HW232706   4.624   2.681   2.317
10603SOL     OW32707   0.553   5.791   5.113
10603SOL    HW132708   0.632   5.750   5.159
10603SOL    HW232709   0.515   5.725   5.048
10604SOL     OW32710   0.591   4.448   6.737
10604SOL    HW132711   0.608   4.475   6.832
10604SOL    HW232712   0.642   4.509   6.676
10605SOL     OW32713   1.549   4.850   0.517
10605SOL    HW132714   1.638   4.827   0.559
10605SOL    HW232715   1.476   4.816   0.575
10606SOL     OW32716   1.564   0.743   1.705
10606SOL    HW132717   1.487   0.769   1.647
10606SOL    HW232718   1.648   0.742   1.651
10607SOL     OW32719   5.380   4.164   0.151
10607SOL    HW132720   5.351   4.201   0.063
10607SOL    HW232721   5.395   4.066   0.143
10608SOL     OW32722   5.214   6.112   2.480
10608SOL    HW132723   5.165   6.184   2.430
10608SOL    HW232724   5.272   6.154   2.549
10609SOL     OW32725   4.068   6.758   2.967
10609SOL    HW132726   4.089   6.735   2.872
10609SOL    HW232727   4.136   6.823   3.001
10610SOL     OW32728   2.277   4.730   4.918
10610SOL    HW132729   2.312   4.636   4.921
10610SOL    HW232730   2.353   4.792   4.900
10611SOL     OW32731   4.894   2.081   5.527
10611SOL    HW132732   4.818   2.101   5.589
10611SOL    HW232733   4.965   2.032   5.578
10612SOL     OW32734   1.704   0.549   2.094
10612SOL    HW132735   1.622   0.516   2.047
10612SOL    HW232736   1.776   0.481   2.086
10613SOL     OW32737   1.778   6.281   0.128
10613SOL    HW132738   1.719   6.361   0.142
10613SOL    HW232739   1.738   6.223   0.056
10614SOL     OW32740   0.672   1.164   3.181
10614SOL    HW132741   0.660   1.253   3.224
10614SOL    HW232742   0.681   1.094   3.252
10615SOL     OW32743   0.775   6.301   5.568
10615SOL    HW132744   0.844   6.345   5.511
10615SOL    HW232745   0.772   6.203   5.550
10616SOL     OW32746   3.305   5.659   1.692
10616SOL    HW132747   3.235   5.705   1.636
10616SOL    HW232748   3.260   5.595   1.754
10617SOL     OW32749   6.334   2.102   6.370
10617SOL    HW132750   6.367   2.008   6.360
10617SOL    HW232751   6.395   2.152   6.432
10618SOL     OW32752   6.981   3.994   1.271
10618SOL    HW132753   6.902   3.943   1.237
10618SOL    HW232754   6.952   4.086   1.298
10619SOL     OW32755   0.494   3.338   3.889
10619SOL    HW132756   0.505   3.393   3.971
10619SOL    HW232757   0.422   3.270   3.903
10620SOL     OW32758   1.758   4.987   3.919
10620SOL    HW132759   1.735   4.998   3.823
10620SOL    HW232760   1.741   5.073   3.968
10621SOL     OW32761   3.331   0.765   0.511
10621SOL    HW132762   3.243   0.794   0.473
10621SOL    HW232763   3.322   0.748   0.609
10622SOL     OW32764   4.579   2.358   0.621
10622SOL    HW132765   4.573   2.366   0.721
10622SOL    HW232766   4.665   2.399   0.591
10623SOL     OW32767   6.561   1.260   4.515
10623SOL    HW132768   6.660   1.262   4.531
10623SOL    HW232769   6.541   1.195   4.442
10624SOL     OW32770   2.624   1.807   3.487
10624SOL    HW132771   2.533   1.828   3.451
10624SOL    HW232772   2.680   1.768   3.414
10625SOL     OW32773   0.958   2.151   1.579
10625SOL    HW132774   0.985   2.230   1.523
10625SOL    HW232775   0.978   2.067   1.529
10626SOL     OW32776   6.931   2.025   3.002
10626SOL    HW132777   6.990   2.084   2.948
10626SOL    HW232778   6.850   2.076   3.033
10627SOL     OW32779   3.101   5.481   4.436
10627SOL    HW132780   3.151   5.399   4.407
10627SOL    HW232781   3.003   5.463   4.428
10628SOL     OW32782   0.348   0.073   4.987
10628SOL    HW132783   0.414   0.148   4.998
10628SOL    HW232784   0.258   0.104   5.017
10629SOL     OW32785   3.619   3.978   6.638
10629SOL    HW132786   3.549   4.001   6.570
10629SOL    HW232787   3.625   3.879   6.647
10630SOL     OW32788   5.314   1.444   1.584
10630SOL    HW132789   5.359   1.473   1.669
10630SOL    HW232790   5.295   1.346   1.589
10631SOL     OW32791   1.795   6.857   4.155
10631SOL    HW132792   1.778   6.923   4.082
10631SOL    HW232793   1.768   6.897   4.242
10632SOL     OW32794   6.923   2.971   0.463
10632SOL    HW132795   6.860   2.957   0.387
10632SOL    HW232796   6.965   2.884   0.488
10633SOL     OW32797   1.768   5.047   6.594
10633SOL    HW132798   1.824   4.969   6.622
10633SOL    HW232799   1.721   5.084   6.675
10634SOL     OW32800   3.396   5.864   2.640
10634SOL    HW132801   3.460   5.883   2.566
10634SOL    HW232802   3.446   5.829   2.720
10635SOL     OW32803   0.681   0.353   1.315
10635SOL    HW132804   0.749   0.406   1.263
10635SOL    HW232805   0.618   0.309   1.252
10636SOL     OW32806   5.115   1.922   6.869
10636SOL    HW132807   5.156   1.965   6.788
10636SOL    HW232808   5.100   1.991   6.939
10637SOL     OW32809   3.553   3.818   6.869
10637SOL    HW132810   3.640   3.775   6.890
10637SOL    HW232811   3.524   3.874   6.947
10638SOL     OW32812   6.848   1.512   5.526
10638SOL    HW132813   6.944   1.518   5.555
10638SOL    HW232814   6.806   1.429   5.563
10639SOL     OW32815   3.394   1.690   4.282
10639SOL    HW132816   3.356   1.764   4.227
10639SOL    HW232817   3.487   1.713   4.309
10640SOL     OW32818   4.729   6.383   0.824
10640SOL    HW132819   4.725   6.289   0.790
10640SOL    HW232820   4.657   6.437   0.781
10641SOL     OW32821   3.612   6.761   6.952
10641SOL    HW132822   3.632   6.856   6.974
10641SOL    HW232823   3.698   6.709   6.950
10642SOL     OW32824   0.353   6.194   2.178
10642SOL    HW132825   0.269   6.231   2.218
10642SOL    HW232826   0.405   6.145   2.248
10643SOL     OW32827   3.640   3.957   6.213
10643SOL    HW132828   3.724   3.953   6.159
10643SOL    HW232829   3.615   4.052   6.229
10644SOL     OW32830   4.264   1.556   5.295
10644SOL    HW132831   4.191   1.624   5.305
10644SOL    HW232832   4.353   1.601   5.306
10645SOL     OW32833   1.676   1.151   3.337
10645SOL    HW132834   1.689   1.168   3.434
10645SOL    HW232835   1.763   1.165   3.289
10646SOL     OW32836   6.997   4.237   6.967
10646SOL    HW132837   7.017   4.330   6.996
10646SOL    HW232838   0.043   4.205   6.905
10647SOL     OW32839   6.065   6.264   1.377
10647SOL    HW132840   6.126   6.332   1.418
10647SOL    HW232841   6.074   6.177   1.425
10648SOL     OW32842   4.669   3.901   5.900
10648SOL    HW132843   4.602   3.857   5.959
10648SOL    HW232844   4.623   3.940   5.820
10649SOL     OW32845   6.606   4.910   6.089
10649SOL    HW132846   6.635   4.899   6.184
10649SOL    HW232847   6.541   4.986   6.083
10650SOL     OW32848   1.840   1.098   5.572
10650SOL    HW132849   1.746   1.069   5.589
10650SOL    HW232850   1.866   1.167   5.640
10651SOL     OW32851   1.318   0.801   5.587
10651SOL    HW132852   1.351   0.882   5.538
10651SOL    HW232853   1.382   0.725   5.572
10652SOL     OW32854   4.774   0.278   0.679
10652SOL    HW132855   4.795   0.365   0.633
10652SOL    HW232856   4.762   0.207   0.610
10653SOL     OW32857   5.945   4.184   3.155
10653SOL    HW132858   5.987   4.249   3.218
10653SOL    HW232859   5.862   4.224   3.116
10654SOL     OW32860   5.028   0.102   1.446
10654SOL    HW132861   4.964   0.124   1.372
10654SOL    HW232862   4.981   0.044   1.514
10655SOL     OW32863   3.122   5.995   0.485
10655SOL    HW132864   3.157   5.904   0.507
10655SOL    HW232865   3.026   6.001   0.514
10656SOL     OW32866   0.579   3.575   6.107
10656SOL    HW132867   0.645   3.587   6.033
10656SOL    HW232868   0.593   3.485   6.150
10657SOL     OW32869   6.034   0.522   6.555
10657SOL    HW132870   6.035   0.446   6.490
10657SOL    HW232871   6.113   0.515   6.615
10658SOL     OW32872   0.096   5.877   3.484
10658SOL    HW132873   0.172   5.838   3.536
10658SOL    HW232874   0.034   5.925   3.546
10659SOL     OW32875   6.045   1.362   2.146
10659SOL    HW132876   6.067   1.376   2.243
10659SOL    HW232877   5.968   1.421   2.121
10660SOL     OW32878   4.662   4.984   4.903
10660SOL    HW132879   4.613   4.917   4.959
10660SOL    HW232880   4.659   5.073   4.947
10661SOL     OW32881   6.753   0.891   1.826
10661SOL    HW132882   6.809   0.907   1.907
10661SOL    HW232883   6.754   0.971   1.767
10662SOL     OW32884   0.577   2.158   0.741
10662SOL    HW132885   0.536   2.225   0.681
10662SOL    HW232886   0.538   2.067   0.723
10663SOL     OW32887   0.995   2.647   2.912
10663SOL    HW132888   1.081   2.634   2.863
10663SOL    HW232889   0.941   2.563   2.907
10664SOL     OW32890   2.095   5.519   6.326
10664SOL    HW132891   2.144   5.546   6.243
10664SOL    HW232892   2.064   5.425   6.318
10665SOL     OW32893   5.782   1.988   6.724
10665SOL    HW132894   5.797   2.061   6.657
10665SOL    HW232895   5.684   1.970   6.733
10666SOL     OW32896   0.208   5.974   0.959
10666SOL    HW132897   0.278   5.941   0.895
10666SOL    HW232898   0.134   6.018   0.908
10667SOL     OW32899   3.437   2.346   5.926
10667SOL    HW132900   3.517   2.392   5.966
10667SOL    HW232901   3.437   2.361   5.827
10668SOL     OW32902   1.720   6.827   6.618
10668SOL    HW132903   1.803   6.829   6.562
10668SOL    HW232904   1.721   6.903   6.683
10669SOL     OW32905   1.836   6.031   6.220
10669SOL    HW132906   1.862   5.972   6.296
10669SOL    HW232907   1.743   6.009   6.191
10670SOL     OW32908   5.788   4.126   5.481
10670SOL    HW132909   5.745   4.078   5.558
10670SOL    HW232910   5.720   4.139   5.408
10671SOL     OW32911   2.169   3.081   3.623
10671SOL    HW132912   2.159   3.149   3.551
10671SOL    HW232913   2.128   3.114   3.708
10672SOL     OW32914   6.665   2.730   0.477
10672SOL    HW132915   6.720   2.711   0.559
10672SOL    HW232916   6.723   2.729   0.396
10673SOL     OW32917   3.288   4.082   3.541
10673SOL    HW132918   3.309   4.154   3.475
10673SOL    HW232919   3.302   3.993   3.499
10674SOL     OW32920   3.649   1.778   2.771
10674SOL    HW132921   3.633   1.866   2.726
10674SOL    HW232922   3.578   1.762   2.839
10675SOL     OW32923   1.580   2.014   5.315
10675SOL    HW132924   1.577   2.049   5.221
10675SOL    HW232925   1.600   2.089   5.378
10676SOL     OW32926   6.496   0.708   0.002
10676SOL    HW132927   6.578   0.657   7.003
10676SOL    HW232928   6.523   0.790   0.054
10677SOL     OW32929   5.366   0.178   6.484
10677SOL    HW132930   5.266   0.184   6.489
10677SOL    HW232931   5.395   0.086   6.508
10678SOL     OW32932   2.128   5.835   3.745
10678SOL    HW132933   2.160   5.766   3.680
10678SOL    HW232934   2.031   5.822   3.763
10679SOL     OW32935   6.257   4.950   4.495
10679SOL    HW132936   6.160   4.945   4.520
10679SOL    HW232937   6.282   5.045   4.478
10680SOL     OW32938   0.541   2.469   3.528
10680SOL    HW132939   0.576   2.416   3.450
10680SOL    HW232940   0.549   2.414   3.611
10681SOL     OW32941   0.836   2.958   0.013
10681SOL    HW132942   0.787   2.946   0.100
10681SOL    HW232943   0.853   3.055   7.024
10682SOL     OW32944   6.713   2.378   3.799
10682SOL    HW132945   6.764   2.447   3.749
10682SOL    HW232946   6.738   2.287   3.764
10683SOL     OW32947   0.919   0.049   4.247
10683SOL    HW132948   0.972   0.134   4.252
10683SOL    HW232949   0.859   0.042   4.326
10684SOL     OW32950   5.162   6.238   0.802
10684SOL    HW132951   5.256   6.208   0.788
10684SOL    HW232952   5.140   6.310   0.736
10685SOL     OW32953   6.523   2.209   4.164
10685SOL    HW132954   6.541   2.183   4.069
10685SOL    HW232955   6.501   2.307   4.167
10686SOL     OW32956   5.468   4.146   1.245
10686SOL    HW132957   5.565   4.128   1.266
10686SOL    HW232958   5.459   4.237   1.207
10687SOL     OW32959   0.591   5.229   0.998
10687SOL    HW132960   0.594   5.250   0.900
10687SOL    HW232961   0.587   5.315   1.050
10688SOL     OW32962   1.821   5.674   1.480
10688SOL    HW132963   1.830   5.696   1.382
10688SOL    HW232964   1.731   5.702   1.512
10689SOL     OW32965   6.851   1.039   2.237
10689SOL    HW132966   6.810   1.091   2.162
10689SOL    HW232967   6.809   1.066   2.324
10690SOL     OW32968   3.825   0.651   2.487
10690SOL    HW132969   3.785   0.740   2.465
10690SOL    HW232970   3.844   0.647   2.585
10691SOL     OW32971   5.067   1.688   1.820
10691SOL    HW132972   5.152   1.696   1.873
10691SOL    HW232973   5.089   1.682   1.722
10692SOL     OW32974   5.729   6.337   4.079
10692SOL    HW132975   5.638   6.346   4.039
10692SOL    HW232976   5.736   6.395   4.160
10693SOL     OW32977   4.088   2.191   4.628
10693SOL    HW132978   4.186   2.211   4.625
10693SOL    HW232979   4.062   2.169   4.722
10694SOL     OW32980   3.453   6.609   0.114
10694SOL    HW132981   3.532   6.669   0.105
10694SOL    HW232982   3.484   6.514   0.124
10695SOL     OW32983   5.856   3.210   5.736
10695SOL    HW132984   5.825   3.234   5.644
10695SOL    HW232985   5.819   3.120   5.761
10696SOL     OW32986   6.462   0.919   0.876
10696SOL    HW132987   6.493   0.864   0.798
10696SOL    HW232988   6.542   0.952   0.926
10697SOL     OW32989   3.068   5.902   2.937
10697SOL    HW132990   3.007   5.978   2.958
10697SOL    HW232991   3.016   5.829   2.893
10698SOL     OW32992   3.789   6.790   3.505
10698SOL    HW132993   3.806   6.692   3.515
10698SOL    HW232994   3.804   6.817   3.410
10699SOL     OW32995   0.104   3.994   3.360
10699SOL    HW132996   0.058   4.070   3.405
10699SOL    HW232997   0.050   3.911   3.371
10700SOL     OW32998   0.303   2.878   3.443
10700SOL    HW132999   0.371   2.867   3.371
10700SOL    HW233000   0.323   2.814   3.518
10701SOL     OW33001   1.974   6.767   1.638
10701SOL    HW133002   1.993   6.864   1.627
10701SOL    HW233003   1.957   6.748   1.735
10702SOL     OW33004   4.712   1.875   1.030
10702SOL    HW133005   4.702   1.959   1.083
10702SOL    HW233006   4.624   1.828   1.024
10703SOL     OW33007   3.330   4.155   4.618
10703SOL    HW133008   3.291   4.063   4.624
10703SOL    HW233009   3.387   4.173   4.698
10704SOL     OW33010   5.438   5.258   1.533
10704SOL    HW133011   5.420   5.237   1.437
10704SOL    HW233012   5.536   5.264   1.549
10705SOL     OW33013   1.070   3.272   0.270
10705SOL    HW133014   1.039   3.228   0.186
10705SOL    HW233015   0.994   3.277   0.335
10706SOL     OW33016   3.031   3.801   0.581
10706SOL    HW133017   3.008   3.782   0.486
10706SOL    HW233018   3.051   3.716   0.629
10707SOL     OW33019   6.002   1.136   6.321
10707SOL    HW133020   6.018   1.134   6.222
10707SOL    HW233021   6.086   1.163   6.368
10708SOL     OW33022   4.433   3.236   1.266
10708SOL    HW133023   4.448   3.157   1.326
10708SOL    HW233024   4.448   3.320   1.318
10709SOL     OW33025   0.540   1.068   5.537
10709SOL    HW133026   0.534   1.164   5.566
10709SOL    HW233027   0.596   1.062   5.454
10710SOL     OW33028   6.661   6.944   3.742
10710SOL    HW133029   6.660   6.986   3.651
10710SOL    HW233030   6.636   6.847   3.734
10711SOL     OW33031   2.094   4.171   5.064
10711SOL    HW133032   2.116   4.262   5.100
10711SOL    HW233033   2.172   4.110   5.078
10712SOL     OW33034   3.844   2.111   5.751
10712SOL    HW133035   3.908   2.041   5.718
10712SOL    HW233036   3.805   2.082   5.839
10713SOL     OW33037   2.557   6.940   0.132
10713SOL    HW133038   2.598   0.005   0.132
10713SOL    HW233039   2.479   6.938   0.194
10714SOL     OW33040   5.490   5.292   4.459
10714SOL    HW133041   5.405   5.240   4.468
10714SOL    HW233042   5.476   5.385   4.493
10715SOL     OW33043   5.865   6.768   2.612
10715SOL    HW133044   5.902   6.837   2.550
10715SOL    HW233045   5.837   6.687   2.560
10716SOL     OW33046   6.540   1.897   2.872
10716SOL    HW133047   6.442   1.880   2.886
10716SOL    HW233048   6.554   1.994   2.850
10717SOL     OW33049   6.774   6.482   1.030
10717SOL    HW133050   6.775   6.486   0.930
10717SOL    HW233051   6.821   6.561   1.067
10718SOL     OW33052   0.560   4.751   5.302
10718SOL    HW133053   0.491   4.789   5.363
10718SOL    HW233054   0.536   4.657   5.278
10719SOL     OW33055   4.029   6.393   3.007
10719SOL    HW133056   4.069   6.427   2.922
10719SOL    HW233057   4.081   6.428   3.085
10720SOL     OW33058   1.257   3.312   5.683
10720SOL    HW133059   1.336   3.276   5.732
10720SOL    HW233060   1.279   3.317   5.585
10721SOL     OW33061   5.481   0.312   4.524
10721SOL    HW133062   5.487   0.373   4.602
10721SOL    HW233063   5.448   0.223   4.554
10722SOL     OW33064   0.684   4.867   1.077
10722SOL    HW133065   0.701   4.965   1.073
10722SOL    HW233066   0.706   4.833   1.168
10723SOL     OW33067   6.978   5.075   6.476
10723SOL    HW133068   6.948   5.123   6.394
10723SOL    HW233069   0.005   4.994   6.450
10724SOL     OW33070   3.762   6.548   5.794
10724SOL    HW133071   3.762   6.619   5.723
10724SOL    HW233072   3.857   6.524   5.816
10725SOL     OW33073   6.539   0.323   5.057
10725SOL    HW133074   6.621   0.277   5.092
10725SOL    HW233075   6.458   0.283   5.101
10726SOL     OW33076   6.595   1.055   3.962
10726SOL    HW133077   6.579   1.137   4.016
10726SOL    HW233078   6.519   1.040   3.899
10727SOL     OW33079   5.496   5.585   5.981
10727SOL    HW133080   5.400   5.567   6.005
10727SOL    HW233081   5.550   5.502   5.996
10728SOL     OW33082   5.220   6.056   4.807
10728SOL    HW133083   5.251   5.993   4.735
10728SOL    HW233084   5.198   6.144   4.766
10729SOL     OW33085   6.519   3.171   4.840
10729SOL    HW133086   6.572   3.165   4.755
10729SOL    HW233087   6.465   3.256   4.840
10730SOL     OW33088   0.947   6.030   4.339
10730SOL    HW133089   0.970   6.085   4.419
10730SOL    HW233090   0.917   6.091   4.265
10731SOL     OW33091   5.025   3.996   5.415
10731SOL    HW133092   5.011   4.015   5.317
10731SOL    HW233093   5.029   4.083   5.465
10732SOL     OW33094   5.642   5.065   2.174
10732SOL    HW133095   5.605   5.158   2.176
10732SOL    HW233096   5.585   5.005   2.230
10733SOL     OW33097   0.880   1.921   5.935
10733SOL    HW133098   0.877   1.913   5.835
10733SOL    HW233099   0.945   1.855   5.972
10734SOL     OW33100   0.471   1.208   4.350
10734SOL    HW133101   0.566   1.211   4.381
10734SOL    HW233102   0.412   1.244   4.422
10735SOL     OW33103   0.317   1.022   2.147
10735SOL    HW133104   0.290   1.109   2.188
10735SOL    HW233105   0.383   1.038   2.074
10736SOL     OW33106   5.610   5.874   4.716
10736SOL    HW133107   5.702   5.840   4.732
10736SOL    HW233108   5.563   5.888   4.804
10737SOL     OW33109   5.686   1.288   0.692
10737SOL    HW133110   5.757   1.241   0.640
10737SOL    HW233111   5.597   1.269   0.653
10738SOL     OW33112   0.994   6.818   2.232
10738SOL    HW133113   0.992   6.719   2.247
10738SOL    HW233114   0.940   6.863   2.303
10739SOL     OW33115   5.313   2.693   4.101
10739SOL    HW133116   5.295   2.737   4.013
10739SOL    HW233117   5.339   2.597   4.086
10740SOL     OW33118   2.816   0.998   6.469
10740SOL    HW133119   2.805   1.057   6.549
10740SOL    HW233120   2.911   1.002   6.438
10741SOL     OW33121   2.367   2.744   3.914
10741SOL    HW133122   2.429   2.672   3.883
10741SOL    HW233123   2.343   2.803   3.836
10742SOL     OW33124   6.750   0.358   2.520
10742SOL    HW133125   6.775   0.336   2.426
10742SOL    HW233126   6.805   0.303   2.583
10743SOL     OW33127   4.288   3.125   6.483
10743SOL    HW133128   4.292   3.223   6.499
10743SOL    HW233129   4.344   3.078   6.552
10744SOL     OW33130   1.704   1.616   1.059
10744SOL    HW133131   1.647   1.658   0.989
10744SOL    HW233132   1.681   1.519   1.066
10745SOL     OW33133   3.792   5.612   2.065
10745SOL    HW133134   3.852   5.692   2.069
10745SOL    HW233135   3.777   5.587   1.970
10746SOL     OW33136   2.490   5.453   5.329
10746SOL    HW133137   2.562   5.413   5.385
10746SOL    HW233138   2.530   5.501   5.251
10747SOL     OW33139   6.784   0.252   5.179
10747SOL    HW133140   6.841   0.293   5.108
10747SOL    HW233141   6.770   0.318   5.253
10748SOL     OW33142   3.596   6.513   1.981
10748SOL    HW133143   3.545   6.594   1.951
10748SOL    HW233144   3.541   6.432   1.964
10749SOL     OW33145   5.489   2.257   2.856
10749SOL    HW133146   5.462   2.282   2.949
10749SOL    HW233147   5.408   2.227   2.805
10750SOL     OW33148   3.489   2.055   3.912
10750SOL    HW133149   3.503   2.062   4.010
10750SOL    HW233150   3.467   1.960   3.888
10751SOL     OW33151   5.558   6.085   3.286
10751SOL    HW133152   5.598   6.100   3.196
10751SOL    HW233153   5.601   6.147   3.352
10752SOL     OW33154   7.014   6.044   6.533
10752SOL    HW133155   0.075   6.007   6.563
10752SOL    HW233156   6.942   5.976   6.547
10753SOL     OW33157   5.105   6.943   4.822
10753SOL    HW133158   5.088   6.845   4.811
10753SOL    HW233159   5.045   6.994   4.761
10754SOL     OW33160   6.315   5.556   2.027
10754SOL    HW133161   6.278   5.586   1.939
10754SOL    HW233162   6.243   5.508   2.077
10755SOL     OW33163   0.504   1.207   2.372
10755SOL    HW133164   0.452   1.279   2.325
10755SOL    HW233165   0.442   1.154   2.429
10756SOL     OW33166   1.008   6.667   0.034
10756SOL    HW133167   1.028   6.738   0.102
10756SOL    HW233168   0.916   6.682   7.024
10757SOL     OW33169   0.219   2.045   2.356
10757SOL    HW133170   0.122   2.072   2.360
10757SOL    HW233171   0.226   1.946   2.358
10758SOL     OW33172   0.369   1.123   1.157
10758SOL    HW133173   0.336   1.169   1.075
10758SOL    HW233174   0.468   1.107   1.149
10759SOL     OW33175   3.615   5.606   5.667
10759SOL    HW133176   3.540   5.620   5.731
10759SOL    HW233177   3.578   5.578   5.578
10760SOL     OW33178   1.315   4.964   6.495
10760SOL    HW133179   1.399   5.009   6.466
10760SOL    HW233180   1.267   5.023   6.561
10761SOL     OW33181   1.528   0.352   6.848
10761SOL    HW133182   1.625   0.375   6.859
10761SOL    HW233183   1.520   0.269   6.792
10762SOL     OW33184   1.827   5.365   0.946
10762SOL    HW133185   1.770   5.448   0.945
10762SOL    HW233186   1.874   5.358   1.034
10763SOL     OW33187   5.387   1.535   1.817
10763SOL    HW133188   5.472   1.582   1.792
10763SOL    HW233189   5.353   1.572   1.903
10764SOL     OW33190   4.978   6.834   3.771
10764SOL    HW133191   5.064   6.883   3.757
10764SOL    HW233192   4.957   6.830   3.869
10765SOL     OW33193   6.925   2.797   1.882
10765SOL    HW133194   7.000   2.732   1.895
10765SOL    HW233195   6.914   2.815   1.784
10766SOL     OW33196   3.507   5.814   0.035
10766SOL    HW133197   3.507   5.904   7.018
10766SOL    HW233198   3.598   5.794   0.072
10767SOL     OW33199   1.012   5.548   0.111
10767SOL    HW133200   0.981   5.638   0.079
10767SOL    HW233201   0.948   5.478   0.079
10768SOL     OW33202   6.597   6.340   0.230
10768SOL    HW133203   6.683   6.350   0.180
10768SOL    HW233204   6.521   6.369   0.172
10769SOL     OW33205   2.968   3.222   4.457
10769SOL    HW133206   2.956   3.222   4.358
10769SOL    HW233207   2.883   3.196   4.502
10770SOL     OW33208   4.802   0.764   4.789
10770SOL    HW133209   4.787   0.860   4.768
10770SOL    HW233210   4.753   0.740   4.873
10771SOL     OW33211   5.270   6.204   5.500
10771SOL    HW133212   5.339   6.167   5.438
10771SOL    HW233213   5.251   6.138   5.573
10772SOL     OW33214   4.993   3.262   4.189
10772SOL    HW133215   5.031   3.351   4.164
10772SOL    HW233216   4.925   3.235   4.120
10773SOL     OW33217   1.147   3.626   0.417
10773SOL    HW133218   1.186   3.537   0.442
10773SOL    HW233219   1.052   3.614   0.389
10774SOL     OW33220   6.368   2.746   1.739
10774SOL    HW133221   6.383   2.819   1.673
10774SOL    HW233222   6.374   2.657   1.693
10775SOL     OW33223   2.107   4.414   6.206
10775SOL    HW133224   2.171   4.342   6.231
10775SOL    HW233225   2.064   4.451   6.288
10776SOL     OW33226   0.260   3.795   3.814
10776SOL    HW133227   0.299   3.703   3.813
10776SOL    HW233228   0.225   3.818   3.723
10777SOL     OW33229   0.347   6.943   2.136
10777SOL    HW133230   0.420   6.897   2.186
10777SOL    HW233231   0.387   7.007   2.070
10778SOL     OW33232   4.737   6.704   2.998
10778SOL    HW133233   4.765   6.776   3.061
10778SOL    HW233234   4.699   6.744   2.915
10779SOL     OW33235   5.410   2.989   5.441
10779SOL    HW133236   5.477   3.040   5.387
10779SOL    HW233237   5.355   3.052   5.495
10780SOL     OW33238   0.918   5.819   4.649
10780SOL    HW133239   0.880   5.748   4.709
10780SOL    HW233240   0.845   5.858   4.594
10781SOL     OW33241   6.241   2.974   6.076
10781SOL    HW133242   6.163   2.930   6.033
10781SOL    HW233243   6.225   2.982   6.174
10782SOL     OW33244   1.621   3.532   4.831
10782SOL    HW133245   1.564   3.520   4.912
10782SOL    HW233246   1.568   3.512   4.749
10783SOL     OW33247   1.408   3.940   4.710
10783SOL    HW133248   1.373   4.028   4.677
10783SOL    HW233249   1.498   3.923   4.669
10784SOL     OW33250   4.676   5.532   3.617
10784SOL    HW133251   4.656   5.541   3.519
10784SOL    HW233252   4.755   5.589   3.640
10785SOL     OW33253   1.782   5.807   1.801
10785SOL    HW133254   1.802   5.857   1.886
10785SOL    HW233255   1.759   5.872   1.729
10786SOL     OW33256   4.904   1.063   2.388
10786SOL    HW133257   4.876   0.980   2.437
10786SOL    HW233258   4.826   1.099   2.336
10787SOL     OW33259   3.282   1.304   3.558
10787SOL    HW133260   3.307   1.210   3.580
10787SOL    HW233261   3.362   1.363   3.566
10788SOL     OW33262   1.383   2.771   6.801
10788SOL    HW133263   1.389   2.856   6.749
10788SOL    HW233264   1.385   2.791   6.899
10789SOL     OW33265   0.325   2.454   2.684
10789SOL    HW133266   0.409   2.408   2.711
10789SOL    HW233267   0.321   2.459   2.584
10790SOL     OW33268   6.678   3.371   4.681
10790SOL    HW133269   6.693   3.293   4.620
10790SOL    HW233270   6.713   3.454   4.638
10791SOL     OW33271   2.035   2.872   3.409
10791SOL    HW133272   2.117   2.844   3.359
10791SOL    HW233273   2.062   2.914   3.496
10792SOL     OW33274   2.987   0.675   1.677
10792SOL    HW133275   2.889   0.674   1.657
10792SOL    HW233276   3.025   0.764   1.652
10793SOL     OW33277   4.110   2.002   3.469
10793SOL    HW133278   4.038   1.943   3.504
10793SOL    HW233279   4.197   1.979   3.513
10794SOL     OW33280   5.057   2.935   0.396
10794SOL    HW133281   5.102   2.848   0.416
10794SOL    HW233282   5.006   2.927   0.311
10795SOL     OW33283   5.907   2.522   3.614
10795SOL    HW133284   5.907   2.621   3.604
10795SOL    HW233285   5.848   2.481   3.545
10796SOL     OW33286   6.871   2.000   6.857
10796SOL    HW133287   6.881   1.936   6.780
10796SOL    HW233288   6.955   2.054   6.866
10797SOL     OW33289   5.724   4.681   6.902
10797SOL    HW133290   5.745   4.593   6.860
10797SOL    HW233291   5.736   4.754   6.834
10798SOL     OW33292   2.856   5.918   0.554
10798SOL    HW133293   2.822   5.926   0.647
10798SOL    HW233294   2.780   5.923   0.490
10799SOL     OW33295   1.836   1.098   3.105
10799SOL    HW133296   1.904   1.025   3.100
10799SOL    HW233297   1.766   1.083   3.036
10800SOL     OW33298   0.907   0.315   5.185
10800SOL    HW133299   0.927   0.409   5.213
10800SOL    HW233300   0.989   0.276   5.141
10801SOL     OW33301   2.846   6.451   6.632
10801SOL    HW133302   2.834   6.356   6.601
10801SOL    HW233303   2.758   6.499   6.629
10802SOL     OW33304   1.324   5.001   3.266
10802SOL    HW133305   1.299   4.914   3.308
10802SOL    HW233306   1.339   4.989   3.168
10803SOL     OW33307   0.767   4.585   4.869
10803SOL    HW133308   0.811   4.667   4.904
10803SOL    HW233309   0.824   4.505   4.889
10804SOL     OW33310   5.334   5.271   6.142
10804SOL    HW133311   5.390   5.275   6.060
10804SOL    HW233312   5.238   5.287   6.118
10805SOL     OW33313   5.853   5.310   6.283
10805SOL    HW133314   5.869   5.248   6.206
10805SOL    HW233315   5.793   5.266   6.350
10806SOL     OW33316   6.838   2.951   5.336
10806SOL    HW133317   6.865   3.022   5.401
10806SOL    HW233318   6.739   2.945   5.333
10807SOL     OW33319   4.423   3.056   5.395
10807SOL    HW133320   4.508   3.101   5.369
10807SOL    HW233321   4.427   3.030   5.491
10808SOL     OW33322   0.190   2.853   1.045
10808SOL    HW133323   0.124   2.900   0.987
10808SOL    HW233324   0.147   2.774   1.088
10809SOL     OW33325   0.903   0.871   3.742
10809SOL    HW133326   0.950   0.938   3.799
10809SOL    HW233327   0.805   0.874   3.760
10810SOL     OW33328   2.147   1.741   6.264
10810SOL    HW133329   2.229   1.685   6.281
10810SOL    HW233330   2.067   1.696   6.305
10811SOL     OW33331   4.362   4.981   6.365
10811SOL    HW133332   4.292   4.917   6.333
10811SOL    HW233333   4.318   5.052   6.421
10812SOL     OW33334   6.452   3.335   2.234
10812SOL    HW133335   6.460   3.280   2.318
10812SOL    HW233336   6.504   3.419   2.245
10813SOL     OW33337   2.703   5.642   2.262
10813SOL    HW133338   2.647   5.560   2.256
10813SOL    HW233339   2.673   5.698   2.338
10814SOL     OW33340   2.021   5.923   4.285
10814SOL    HW133341   1.994   5.841   4.234
10814SOL    HW233342   1.970   5.928   4.371
10815SOL     OW33343   5.406   2.712   6.217
10815SOL    HW133344   5.446   2.774   6.150
10815SOL    HW233345   5.352   2.642   6.171
10816SOL     OW33346   2.093   2.204   1.295
10816SOL    HW133347   2.126   2.295   1.271
10816SOL    HW233348   1.997   2.209   1.321
10817SOL     OW33349   4.096   1.441   1.904
10817SOL    HW133350   3.997   1.443   1.890
10817SOL    HW233351   4.140   1.501   1.838
10818SOL     OW33352   4.768   3.641   5.800
10818SOL    HW133353   4.727   3.676   5.884
10818SOL    HW233354   4.765   3.712   5.730
10819SOL     OW33355   2.157   3.475   5.019
10819SOL    HW133356   2.185   3.382   4.993
10819SOL    HW233357   2.159   3.534   4.938
10820SOL     OW33358   0.522   6.073   5.031
10820SOL    HW133359   0.452   6.141   5.054
10820SOL    HW233360   0.478   5.984   5.020
10821SOL     OW33361   0.019   0.545   6.000
10821SOL    HW133362   7.001   0.502   6.078
10821SOL    HW233363   0.013   0.645   6.009
10822SOL     OW33364   0.156   5.652   6.361
10822SOL    HW133365   0.217   5.695   6.428
10822SOL    HW233366   0.199   5.568   6.327
10823SOL     OW33367   2.684   2.339   0.202
10823SOL    HW133368   2.618   2.356   0.275
10823SOL    HW233369   2.659   2.392   0.121
10824SOL     OW33370   5.193   1.548   4.497
10824SOL    HW133371   5.264   1.487   4.463
10824SOL    HW233372   5.166   1.521   4.589
10825SOL     OW33373   4.418   1.985   2.082
10825SOL    HW133374   4.507   1.967   2.040
10825SOL    HW233375   4.395   1.910   2.145
10826SOL     OW33376   0.056   3.528   0.720
10826SOL    HW133377   0.084   3.460   0.787
10826SOL    HW233378   0.129   3.596   0.710
10827SOL     OW33379   6.952   3.663   4.803
10827SOL    HW133380   0.015   3.627   4.829
10827SOL    HW233381   6.880   3.604   4.840
10828SOL     OW33382   3.060   4.646   6.895
10828SOL    HW133383   3.150   4.629   6.934
10828SOL    HW233384   3.070   4.678   6.801
10829SOL     OW33385   1.600   3.727   1.428
10829SOL    HW133386   1.585   3.775   1.514
10829SOL    HW233387   1.681   3.668   1.437
10830SOL     OW33388   6.314   0.778   3.589
10830SOL    HW133389   6.300   0.758   3.686
10830SOL    HW233390   6.339   0.694   3.541
10831SOL     OW33391   5.255   3.135   2.610
10831SOL    HW133392   5.240   3.219   2.663
10831SOL    HW233393   5.348   3.102   2.625
10832SOL     OW33394   1.589   2.891   2.397
10832SOL    HW133395   1.550   2.938   2.318
10832SOL    HW233396   1.522   2.888   2.471
10833SOL     OW33397   3.907   0.472   4.719
10833SOL    HW133398   3.854   0.395   4.756
10833SOL    HW233399   3.951   0.521   4.794
10834SOL     OW33400   6.764   2.179   5.849
10834SOL    HW133401   6.739   2.270   5.883
10834SOL    HW233402   6.686   2.138   5.801
10835SOL     OW33403   0.643   0.843   1.106
10835SOL    HW133404   0.736   0.808   1.094
10835SOL    HW233405   0.592   0.832   1.021
10836SOL     OW33406   6.593   1.115   1.673
10836SOL    HW133407   6.579   1.192   1.736
10836SOL    HW233408   6.526   1.044   1.693
10837SOL     OW33409   1.749   4.842   0.738
10837SOL    HW133410   1.748   4.942   0.741
10837SOL    HW233411   1.841   4.809   0.759
10838SOL     OW33412   6.510   6.644   1.157
10838SOL    HW133413   6.566   6.600   1.228
10838SOL    HW233414   6.514   6.743   1.169
10839SOL     OW33415   2.667   1.335   6.542
10839SOL    HW133416   2.576   1.343   6.501
10839SOL    HW233417   2.665   1.267   6.614
10840SOL     OW33418   0.862   0.584   3.631
10840SOL    HW133419   0.796   0.547   3.696
10840SOL    HW233420   0.890   0.675   3.661
10841SOL     OW33421   4.398   4.220   6.778
10841SOL    HW133422   4.470   4.151   6.771
10841SOL    HW233423   4.432   4.300   6.826
10842SOL     OW33424   5.963   2.159   2.548
10842SOL    HW133425   6.025   2.129   2.620
10842SOL    HW233426   5.882   2.100   2.546
10843SOL     OW33427   0.716   1.858   1.585
10843SOL    HW133428   0.812   1.878   1.564
10843SOL    HW233429   0.701   1.759   1.584
10844SOL     OW33430   4.214   6.210   3.463
10844SOL    HW133431   4.234   6.130   3.520
10844SOL    HW233432   4.300   6.256   3.440
10845SOL     OW33433   2.618   3.544   1.206
10845SOL    HW133434   2.595   3.455   1.245
10845SOL    HW233435   2.553   3.566   1.133
10846SOL     OW33436   3.221   1.551   2.056
10846SOL    HW133437   3.122   1.537   2.046
10846SOL    HW233438   3.239   1.646   2.082
10847SOL     OW33439   5.395   1.855   4.980
10847SOL    HW133440   5.386   1.938   5.036
10847SOL    HW233441   5.456   1.874   4.903
10848SOL     OW33442   2.123   0.267   6.166
10848SOL    HW133443   2.155   0.175   6.144
10848SOL    HW233444   2.093   0.270   6.261
10849SOL     OW33445   0.650   4.954   5.168
10849SOL    HW133446   0.633   5.041   5.216
10849SOL    HW233447   0.607   4.879   5.219
10850SOL     OW33448   6.367   1.030   3.749
10850SOL    HW133449   6.378   0.935   3.717
10850SOL    HW233450   6.297   1.033   3.819
10851SOL     OW33451   5.360   3.157   0.618
10851SOL    HW133452   5.292   3.124   0.683
10851SOL    HW233453   5.445   3.106   0.629
10852SOL     OW33454   5.905   1.583   5.676
10852SOL    HW133455   5.838   1.644   5.634
10852SOL    HW233456   5.996   1.605   5.642
10853SOL     OW33457   1.286   6.769   5.611
10853SOL    HW133458   1.289   6.752   5.709
10853SOL    HW233459   1.343   6.848   5.589
10854SOL     OW33460   5.723   6.335   6.786
10854SOL    HW133461   5.795   6.311   6.851
10854SOL    HW233462   5.646   6.375   6.835
10855SOL     OW33463   0.615   6.236   6.723
10855SOL    HW133464   0.709   6.248   6.692
10855SOL    HW233465   0.553   6.285   6.662
10856SOL     OW33466   4.263   6.743   6.702
10856SOL    HW133467   4.255   6.798   6.618
10856SOL    HW233468   4.349   6.766   6.748
10857SOL     OW33469   6.077   6.671   4.580
10857SOL    HW133470   6.057   6.596   4.642
10857SOL    HW233471   6.064   6.758   4.628
10858SOL     OW33472   1.316   2.589   1.340
10858SOL    HW133473   1.330   2.687   1.327
10858SOL    HW233474   1.342   2.563   1.433
10859SOL     OW33475   2.041   4.969   2.475
10859SOL    HW133476   2.093   4.888   2.502
10859SOL    HW233477   2.050   4.984   2.376
10860SOL     OW33478   5.681   1.305   2.636
10860SOL    HW133479   5.629   1.375   2.588
10860SOL    HW233480   5.634   1.280   2.721
10861SOL     OW33481   2.732   4.779   1.140
10861SOL    HW133482   2.641   4.785   1.181
10861SOL    HW233483   2.726   4.735   1.051
10862SOL     OW33484   3.410   4.553   5.584
10862SOL    HW133485   3.345   4.628   5.577
10862SOL    HW233486   3.364   4.466   5.569
10863SOL     OW33487   0.520   0.673   4.232
10863SOL    HW133488   0.498   0.610   4.307
10863SOL    HW233489   0.539   0.764   4.269
10864SOL     OW33490   3.040   3.353   2.170
10864SOL    HW133491   3.126   3.397   2.195
10864SOL    HW233492   3.041   3.258   2.202
10865SOL     OW33493   3.919   1.800   2.748
10865SOL    HW133494   3.832   1.769   2.786
10865SOL    HW233495   3.916   1.899   2.733
10866SOL     OW33496   0.352   3.500   5.118
10866SOL    HW133497   0.441   3.462   5.094
10866SOL    HW233498   0.362   3.561   5.196
10867SOL     OW33499   5.377   3.452   0.584
10867SOL    HW133500   5.326   3.515   0.643
10867SOL    HW233501   5.349   3.358   0.604
10868SOL     OW33502   6.915   0.273   5.904
10868SOL    HW133503   6.845   0.335   5.867
10868SOL    HW233504   6.994   0.327   5.933
10869NA      NA33505   6.614   1.426   6.853
10870NA      NA33506   5.045   4.642   4.640
10871NA      NA33507   1.285   4.521   2.821
10872NA      NA33508   6.362   3.668   3.604
10873NA      NA33509   4.165   2.350   5.283
10874NA      NA33510   2.567   3.749   6.832
10875NA      NA33511   1.811   5.294   0.475
10876NA      NA33512   4.172   4.839   1.873
10877NA      NA33513   5.473   3.678   1.162
10878NA      NA33514   3.688   2.083   0.646
10879NA      NA33515   4.891   6.068   1.333
10880NA      NA33516   2.692   6.317   3.987
10881NA      NA33517   3.777   5.813   2.832
10882NA      NA33518   4.633   4.978   5.677
   7.02638   7.02638   7.02638
