Generated by trjconv : CNT in water t= 409.00000
33518
    1C        C    1   2.842   2.766   4.749
    1C        C    2   2.899   2.720   4.869
    1C        C    3   2.843   2.772   4.987
    1C        C    4   2.847   2.772   4.260
    1C        C    5   2.897   2.724   4.383
    1C        C    6   2.845   2.773   4.505
    1C        C    7   3.016   2.646   4.626
    1C        C    8   2.895   2.720   4.626
    1C        C    9   3.079   2.608   4.746
    1C        C   10   3.013   2.637   4.868
    1C        C   11   3.184   2.500   4.980
    1C        C   12   3.061   2.565   4.978
    1C        C   13   2.850   2.772   3.773
    1C        C   14   2.901   2.722   3.894
    1C        C   15   2.850   2.775   4.015
    1C        C   16   3.018   2.647   4.138
    1C        C   17   2.903   2.728   4.138
    1C        C   18   3.076   2.614   4.262
    1C        C   19   3.013   2.644   4.385
    1C        C   20   3.212   2.558   4.506
    1C        C   21   3.081   2.613   4.505
    1C        C   22   3.278   2.534   4.629
    1C        C   23   3.206   2.545   4.750
    1C        C   24   3.415   2.482   4.867
    1C        C   25   3.274   2.505   4.869
    1C        C   26   3.495   2.479   4.982
    1C        C   27   2.851   2.769   3.283
    1C        C   28   2.906   2.726   3.405
    1C        C   29   2.854   2.774   3.528
    1C        C   30   3.020   2.643   3.652
    1C        C   31   2.907   2.728   3.651
    1C        C   32   3.081   2.609   3.774
    1C        C   33   3.017   2.641   3.896
    1C        C   34   3.211   2.552   4.017
    1C        C   35   3.080   2.606   4.018
    1C        C   36   3.277   2.540   4.142
    1C        C   37   3.209   2.567   4.263
    1C        C   38   3.418   2.516   4.382
    1C        C   39   3.279   2.542   4.383
    1C        C   40   3.486   2.508   4.505
    1C        C   41   3.417   2.513   4.628
    1C        C   42   3.633   2.488   4.745
    1C        C   43   3.491   2.487   4.746
    1C        C   44   3.707   2.489   4.865
    1C        C   45   3.634   2.479   4.984
    1C        C   46   2.841   2.756   2.794
    1C        C   47   2.900   2.717   2.917
    1C        C   48   2.848   2.764   3.040
    1C        C   49   3.023   2.643   3.162
    1C        C   50   2.904   2.720   3.161
    1C        C   51   3.085   2.614   3.285
    1C        C   52   3.022   2.645   3.408
    1C        C   53   3.211   2.551   3.529
    1C        C   54   3.082   2.607   3.530
    1C        C   55   3.279   2.528   3.651
    1C        C   56   3.209   2.550   3.773
    1C        C   57   3.417   2.506   3.896
    1C        C   58   3.278   2.531   3.895
    1C        C   59   3.488   2.502   4.018
    1C        C   60   3.415   2.511   4.139
    1C        C   61   3.629   2.498   4.261
    1C        C   62   3.487   2.502   4.260
    1C        C   63   3.700   2.504   4.382
    1C        C   64   3.627   2.501   4.503
    1C        C   65   3.836   2.547   4.622
    1C        C   66   3.702   2.503   4.623
    1C        C   67   3.907   2.565   4.743
    1C        C   68   3.845   2.521   4.862
    1C        C   69   4.054   2.583   4.978
    1C        C   70   3.927   2.525   4.975
    1C        C   71   2.828   2.738   2.309
    1C        C   72   2.886   2.692   2.430
    1C        C   73   2.836   2.748   2.549
    1C        C   74   3.010   2.629   2.675
    1C        C   75   2.894   2.709   2.672
    1C        C   76   3.074   2.595   2.796
    1C        C   77   3.018   2.640   2.917
    1C        C   78   3.209   2.546   3.039
    1C        C   79   3.080   2.604   3.039
    1C        C   80   3.280   2.533   3.160
    1C        C   81   3.214   2.557   3.283
    1C        C   82   3.416   2.502   3.405
    1C        C   83   3.279   2.534   3.406
    1C        C   84   3.486   2.494   3.528
    1C        C   85   3.417   2.501   3.651
    1C        C   86   3.629   2.498   3.772
    1C        C   87   3.487   2.498   3.773
    1C        C   88   3.698   2.504   3.895
    1C        C   89   3.629   2.505   4.018
    1C        C   90   3.837   2.545   4.138
    1C        C   91   3.700   2.511   4.140
    1C        C   92   3.903   2.574   4.260
    1C        C   93   3.837   2.541   4.380
    1C        C   94   4.033   2.627   4.500
    1C        C   95   3.906   2.564   4.501
    1C        C   96   4.092   2.670   4.621
    1C        C   97   4.031   2.635   4.743
    1C        C   98   4.196   2.762   4.862
    1C        C   99   4.105   2.652   4.863
    1C        C  100   4.218   2.837   4.979
    1C        C  101   2.823   2.728   2.071
    1C        C  102   2.986   2.588   2.194
    1C        C  103   2.872   2.674   2.190
    1C        C  104   3.065   2.575   2.312
    1C        C  105   3.004   2.615   2.433
    1C        C  106   3.200   2.529   2.552
    1C        C  107   3.073   2.590   2.554
    1C        C  108   3.271   2.517   2.674
    1C        C  109   3.203   2.536   2.796
    1C        C  110   3.413   2.492   2.916
    1C        C  111   3.273   2.515   2.917
    1C        C  112   3.486   2.493   3.037
    1C        C  113   3.418   2.504   3.160
    1C        C  114   3.629   2.499   3.281
    1C        C  115   3.488   2.496   3.283
    1C        C  116   3.698   2.506   3.404
    1C        C  117   3.627   2.501   3.526
    1C        C  118   3.834   2.538   3.649
    1C        C  119   3.697   2.504   3.648
    1C        C  120   3.900   2.564   3.771
    1C        C  121   3.835   2.541   3.894
    1C        C  122   4.027   2.637   4.014
    1C        C  123   3.901   2.573   4.015
    1C        C  124   4.088   2.675   4.135
    1C        C  125   4.028   2.639   4.258
    1C        C  126   4.200   2.763   4.376
    1C        C  127   4.091   2.674   4.380
    1C        C  128   4.246   2.818   4.498
    1C        C  129   4.195   2.767   4.619
    1C        C  130   4.328   2.933   4.741
    1C        C  131   4.247   2.815   4.741
    1C        C  132   4.353   3.006   4.859
    1C        C  133   4.291   2.956   4.974
    1C        C  134   3.175   2.472   2.081
    1C        C  135   3.039   2.505   2.090
    1C        C  136   3.260   2.475   2.193
    1C        C  137   3.196   2.520   2.311
    1C        C  138   3.406   2.479   2.429
    1C        C  139   3.266   2.498   2.431
    1C        C  140   3.481   2.480   2.549
    1C        C  141   3.410   2.494   2.671
    1C        C  142   3.623   2.488   2.792
    1C        C  143   3.481   2.486   2.793
    1C        C  144   3.694   2.502   2.913
    1C        C  145   3.627   2.497   3.038
    1C        C  146   3.837   2.537   3.157
    1C        C  147   3.700   2.503   3.159
    1C        C  148   3.902   2.560   3.280
    1C        C  149   3.836   2.538   3.402
    1C        C  150   4.025   2.628   3.525
    1C        C  151   3.899   2.563   3.526
    1C        C  152   4.085   2.667   3.647
    1C        C  153   4.023   2.632   3.769
    1C        C  154   4.193   2.764   3.891
    1C        C  155   4.082   2.676   3.890
    1C        C  156   4.247   2.815   4.011
    1C        C  157   4.198   2.764   4.133
    1C        C  158   4.342   2.922   4.254
    1C        C  159   4.255   2.810   4.254
    1C        C  160   4.375   2.986   4.375
    1C        C  161   4.332   2.930   4.498
    1C        C  162   4.435   3.117   4.616
    1C        C  163   4.368   2.992   4.619
    1C        C  164   4.465   3.186   4.735
    1C        C  165   4.428   3.125   4.857
    1C        C  166   4.506   3.320   4.975
    1C        C  167   4.471   3.185   4.976
    1C        C  168   3.479   2.439   2.075
    1C        C  169   3.399   2.455   2.189
    1C        C  170   3.618   2.467   2.307
    1C        C  171   3.475   2.463   2.307
    1C        C  172   3.692   2.486   2.426
    1C        C  173   3.622   2.488   2.548
    1C        C  174   3.829   2.538   2.669
    1C        C  175   3.692   2.501   2.670
    1C        C  176   3.898   2.561   2.790
    1C        C  177   3.830   2.540   2.912
    1C        C  178   4.026   2.627   3.033
    1C        C  179   3.899   2.565   3.033
    1C        C  180   4.087   2.661   3.156
    1C        C  181   4.029   2.624   3.279
    1C        C  182   4.194   2.753   3.399
    1C        C  183   4.085   2.663   3.402
    1C        C  184   4.242   2.806   3.521
    1C        C  185   4.194   2.757   3.644
    1C        C  186   4.337   2.913   3.763
    1C        C  187   4.246   2.805   3.766
    1C        C  188   4.373   2.979   3.883
    1C        C  189   4.335   2.925   4.009
    1C        C  190   4.448   3.102   4.128
    1C        C  191   4.383   2.977   4.131
    1C        C  192   4.472   3.172   4.249
    1C        C  193   4.440   3.111   4.372
    1C        C  194   4.504   3.316   4.492
    1C        C  195   4.459   3.182   4.493
    1C        C  196   4.523   3.389   4.611
    1C        C  197   4.512   3.321   4.735
    1C        C  198   4.550   3.533   4.855
    1C        C  199   4.529   3.392   4.856
    1C        C  200   4.580   3.620   4.964
    1C        C  201   3.618   2.417   2.071
    1C        C  202   3.825   2.512   2.186
    1C        C  203   3.691   2.461   2.186
    1C        C  204   3.899   2.540   2.304
    1C        C  205   3.829   2.523   2.425
    1C        C  206   4.021   2.620   2.544
    1C        C  207   3.894   2.558   2.546
    1C        C  208   4.085   2.657   2.664
    1C        C  209   4.025   2.623   2.788
    1C        C  210   4.200   2.744   2.909
    1C        C  211   4.086   2.660   2.910
    1C        C  212   4.254   2.793   3.030
    1C        C  213   4.199   2.748   3.152
    1C        C  214   4.330   2.912   3.271
    1C        C  215   4.246   2.798   3.275
    1C        C  216   4.366   2.970   3.394
    1C        C  217   4.329   2.917   3.520
    1C        C  218   4.431   3.103   3.640
    1C        C  219   4.374   2.974   3.641
    1C        C  220   4.460   3.170   3.761
    1C        C  221   4.437   3.104   3.884
    1C        C  222   4.501   3.307   4.004
    1C        C  223   4.466   3.170   4.006
    1C        C  224   4.514   3.378   4.125
    1C        C  225   4.506   3.310   4.248
    1C        C  226   4.518   3.525   4.366
    1C        C  227   4.515   3.383   4.368
    1C        C  228   4.524   3.597   4.488
    1C        C  229   4.531   3.530   4.612
    1C        C  230   4.500   3.741   4.727
    1C        C  231   4.533   3.603   4.732
    1C        C  232   4.494   3.819   4.845
    1C        C  233   4.543   3.755   4.960
    1C        C  234   4.017   2.607   2.064
    1C        C  235   3.893   2.544   2.068
    1C        C  236   4.083   2.650   2.180
    1C        C  237   4.023   2.612   2.302
    1C        C  238   4.200   2.734   2.418
    1C        C  239   4.085   2.650   2.422
    1C        C  240   4.253   2.784   2.540
    1C        C  241   4.198   2.741   2.663
    1C        C  242   4.336   2.902   2.784
    1C        C  243   4.247   2.792   2.785
    1C        C  244   4.378   2.963   2.904
    1C        C  245   4.341   2.905   3.027
    1C        C  246   4.436   3.094   3.149
    1C        C  247   4.373   2.968   3.149
    1C        C  248   4.456   3.161   3.272
    1C        C  249   4.427   3.097   3.395
    1C        C  250   4.487   3.304   3.513
    1C        C  251   4.449   3.168   3.515
    1C        C  252   4.501   3.374   3.635
    1C        C  253   4.493   3.307   3.759
    1C        C  254   4.519   3.517   3.876
    1C        C  255   4.514   3.376   3.881
    1C        C  256   4.511   3.587   3.999
    1C        C  257   4.519   3.519   4.123
    1C        C  258   4.493   3.733   4.243
    1C        C  259   4.516   3.594   4.243
    1C        C  260   4.474   3.803   4.364
    1C        C  261   4.494   3.735   4.486
    1C        C  262   4.426   3.942   4.605
    1C        C  263   4.472   3.808   4.605
    1C        C  264   4.397   4.010   4.725
    1C        C  265   4.431   3.945   4.845
    1C        C  266   4.317   4.131   4.961
    1C        C  267   4.394   4.015   4.961
    1C        C  268   4.260   2.779   2.060
    1C        C  269   4.195   2.736   2.176
    1C        C  270   4.343   2.893   2.297
    1C        C  271   4.251   2.785   2.297
    1C        C  272   4.379   2.956   2.418
    1C        C  273   4.340   2.895   2.539
    1C        C  274   4.441   3.083   2.659
    1C        C  275   4.377   2.957   2.660
    1C        C  276   4.470   3.151   2.779
    1C        C  277   4.445   3.088   2.903
    1C        C  278   4.502   3.292   3.024
    1C        C  279   4.470   3.155   3.026
    1C        C  280   4.512   3.364   3.145
    1C        C  281   4.499   3.296   3.268
    1C        C  282   4.512   3.509   3.389
    1C        C  283   4.506   3.368   3.389
    1C        C  284   4.512   3.582   3.510
    1C        C  285   4.513   3.514   3.634
    1C        C  286   4.495   3.728   3.753
    1C        C  287   4.519   3.589   3.754
    1C        C  288   4.479   3.795   3.876
    1C        C  289   4.489   3.726   3.999
    1C        C  290   4.431   3.933   4.118
    1C        C  291   4.477   3.799   4.119
    1C        C  292   4.401   4.000   4.239
    1C        C  293   4.429   3.937   4.362
    1C        C  294   4.324   4.126   4.480
    1C        C  295   4.397   4.005   4.482
    1C        C  296   4.283   4.188   4.600
    1C        C  297   4.325   4.133   4.723
    1C        C  298   4.201   4.314   4.839
    1C        C  299   4.280   4.195   4.842
    1C        C  300   4.168   4.400   4.949
    1C        C  301   4.352   2.883   2.062
    1C        C  302   4.470   3.071   2.176
    1C        C  303   4.401   2.945   2.178
    1C        C  304   4.482   3.144   2.297
    1C        C  305   4.448   3.080   2.418
    1C        C  306   4.506   3.287   2.538
    1C        C  307   4.472   3.150   2.538
    1C        C  308   4.513   3.360   2.658
    1C        C  309   4.499   3.289   2.780
    1C        C  310   4.519   3.502   2.901
    1C        C  311   4.515   3.361   2.901
    1C        C  312   4.520   3.575   3.022
    1C        C  313   4.520   3.505   3.145
    1C        C  314   4.488   3.718   3.262
    1C        C  315   4.513   3.579   3.266
    1C        C  316   4.473   3.785   3.385
    1C        C  317   4.493   3.722   3.509
    1C        C  318   4.428   3.927   3.630
    1C        C  319   4.474   3.794   3.629
    1C        C  320   4.401   3.994   3.752
    1C        C  321   4.427   3.926   3.873
    1C        C  322   4.322   4.112   3.993
    1C        C  323   4.396   3.992   3.994
    1C        C  324   4.278   4.169   4.115
    1C        C  325   4.323   4.118   4.238
    1C        C  326   4.183   4.282   4.355
    1C        C  327   4.282   4.182   4.358
    1C        C  328   4.131   4.335   4.476
    1C        C  329   4.187   4.292   4.598
    1C        C  330   4.026   4.439   4.715
    1C        C  331   4.137   4.350   4.717
    1C        C  332   3.975   4.501   4.830
    1C        C  333   4.053   4.480   4.945
    1C        C  334   4.559   3.268   2.065
    1C        C  335   4.533   3.130   2.062
    1C        C  336   4.541   3.352   2.175
    1C        C  337   4.515   3.282   2.295
    1C        C  338   4.522   3.497   2.414
    1C        C  339   4.519   3.356   2.415
    1C        C  340   4.518   3.570   2.534
    1C        C  341   4.525   3.500   2.657
    1C        C  342   4.491   3.710   2.773
    1C        C  343   4.519   3.572   2.778
    1C        C  344   4.474   3.779   2.895
    1C        C  345   4.493   3.713   3.018
    1C        C  346   4.428   3.919   3.139
    1C        C  347   4.470   3.784   3.138
    1C        C  348   4.396   3.983   3.260
    1C        C  349   4.429   3.920   3.382
    1C        C  350   4.318   4.101   3.504
    1C        C  351   4.396   3.983   3.504
    1C        C  352   4.277   4.163   3.624
    1C        C  353   4.321   4.111   3.748
    1C        C  354   4.180   4.268   3.870
    1C        C  355   4.277   4.166   3.870
    1C        C  356   4.123   4.314   3.991
    1C        C  357   4.174   4.265   4.113
    1C        C  358   4.010   4.404   4.231
    1C        C  359   4.125   4.323   4.232
    1C        C  360   3.949   4.444   4.352
    1C        C  361   4.017   4.417   4.472
    1C        C  362   3.831   4.521   4.594
    1C        C  363   3.961   4.467   4.592
    1C        C  364   3.762   4.551   4.714
    1C        C  365   3.842   4.549   4.831
    1C        C  366   3.632   4.591   4.951
    1C        C  367   3.770   4.570   4.949
    1C        C  368   4.514   3.565   2.053
    1C        C  369   4.525   3.493   2.172
    1C        C  370   4.506   3.708   2.286
    1C        C  371   4.522   3.568   2.291
    1C        C  372   4.486   3.779   2.407
    1C        C  373   4.505   3.711   2.529
    1C        C  374   4.432   3.911   2.652
    1C        C  375   4.482   3.779   2.650
    1C        C  376   4.402   3.978   2.773
    1C        C  377   4.429   3.913   2.895
    1C        C  378   4.320   4.097   3.013
    1C        C  379   4.401   3.982   3.015
    1C        C  380   4.274   4.154   3.134
    1C        C  381   4.319   4.101   3.257
    1C        C  382   4.181   4.259   3.382
    1C        C  383   4.278   4.157   3.381
    1C        C  384   4.124   4.308   3.501
    1C        C  385   4.178   4.264   3.624
    1C        C  386   4.007   4.387   3.743
    1C        C  387   4.127   4.312   3.747
    1C        C  388   3.944   4.422   3.864
    1C        C  389   4.005   4.391   3.987
    1C        C  390   3.812   4.480   4.109
    1C        C  391   3.946   4.434   4.108
    1C        C  392   3.748   4.512   4.231
    1C        C  393   3.820   4.502   4.352
    1C        C  394   3.616   4.551   4.474
    1C        C  395   3.757   4.534   4.475
    1C        C  396   3.546   4.566   4.596
    1C        C  397   3.622   4.567   4.715
    1C        C  398   3.413   4.548   4.840
    1C        C  399   3.552   4.576   4.837
    1C        C  400   3.345   4.520   4.960
    1C        C  401   4.496   3.703   2.049
    1C        C  402   4.459   3.917   2.169
    1C        C  403   4.492   3.780   2.165
    1C        C  404   4.418   3.981   2.288
    1C        C  405   4.436   3.911   2.409
    1C        C  406   4.324   4.094   2.525
    1C        C  407   4.400   3.975   2.530
    1C        C  408   4.279   4.151   2.646
    1C        C  409   4.325   4.097   2.768
    1C        C  410   4.174   4.248   2.890
    1C        C  411   4.277   4.151   2.890
    1C        C  412   4.117   4.290   3.012
    1C        C  413   4.171   4.250   3.137
    1C        C  414   4.001   4.373   3.255
    1C        C  415   4.121   4.299   3.260
    1C        C  416   3.944   4.411   3.378
    1C        C  417   4.007   4.386   3.502
    1C        C  418   3.811   4.475   3.621
    1C        C  419   3.942   4.422   3.622
    1C        C  420   3.744   4.504   3.743
    1C        C  421   3.817   4.486   3.862
    1C        C  422   3.610   4.528   3.987
    1C        C  423   3.748   4.498   3.984
    1C        C  424   3.539   4.539   4.109
    1C        C  425   3.610   4.542   4.231
    1C        C  426   3.402   4.552   4.355
    1C        C  427   3.543   4.558   4.354
    1C        C  428   3.333   4.545   4.478
    1C        C  429   3.405   4.557   4.599
    1C        C  430   3.197   4.521   4.725
    1C        C  431   3.336   4.548   4.722
    1C        C  432   3.128   4.498   4.847
    1C        C  433   3.209   4.490   4.961
    1C        C  434   4.381   4.120   2.049
    1C        C  435   4.450   3.998   2.055
    1C        C  436   4.305   4.162   2.162
    1C        C  437   4.338   4.098   2.285
    1C        C  438   4.178   4.248   2.402
    1C        C  439   4.282   4.152   2.403
    1C        C  440   4.124   4.297   2.523
    1C        C  441   4.177   4.249   2.645
    1C        C  442   4.007   4.375   2.766
    1C        C  443   4.120   4.290   2.767
    1C        C  444   3.943   4.408   2.888
    1C        C  445   4.001   4.370   3.011
    1C        C  446   3.810   4.466   3.131
    1C        C  447   3.937   4.405   3.132
    1C        C  448   3.746   4.489   3.255
    1C        C  449   3.813   4.465   3.378
    1C        C  450   3.606   4.523   3.494
    1C        C  451   3.745   4.494   3.498
    1C        C  452   3.537   4.532   3.617
    1C        C  453   3.605   4.526   3.740
    1C        C  454   3.397   4.540   3.866
    1C        C  455   3.539   4.538   3.865
    1C        C  456   3.326   4.536   3.988
    1C        C  457   3.398   4.541   4.110
    1C        C  458   3.193   4.507   4.237
    1C        C  459   3.331   4.536   4.234
    1C        C  460   3.128   4.492   4.362
    1C        C  461   3.194   4.520   4.483
    1C        C  462   2.998   4.437   4.605
    1C        C  463   3.126   4.498   4.605
    1C        C  464   2.931   4.407   4.725
    1C        C  465   2.994   4.447   4.846
    1C        C  466   2.805   4.337   4.959
    1C        C  467   2.909   4.431   4.960
    1C        C  468   4.124   4.289   2.045
    1C        C  469   4.188   4.244   2.162
    1C        C  470   4.004   4.369   2.278
    1C        C  471   4.124   4.293   2.279
    1C        C  472   3.939   4.398   2.400
    1C        C  473   4.003   4.369   2.523
    1C        C  474   3.812   4.461   2.643
    1C        C  475   3.943   4.409   2.645
    1C        C  476   3.743   4.486   2.764
    1C        C  477   3.813   4.463   2.884
    1C        C  478   3.607   4.513   3.010
    1C        C  479   3.746   4.487   3.006
    1C        C  480   3.535   4.520   3.131
    1C        C  481   3.608   4.518   3.252
    1C        C  482   3.394   4.522   3.376
    1C        C  483   3.535   4.528   3.373
    1C        C  484   3.326   4.526   3.500
    1C        C  485   3.396   4.538   3.623
    1C        C  486   3.186   4.508   3.745
    1C        C  487   3.325   4.536   3.745
    1C        C  488   3.121   4.486   3.869
    1C        C  489   3.188   4.508   3.992
    1C        C  490   3.001   4.414   4.117
    1C        C  491   3.125   4.482   4.116
    1C        C  492   2.939   4.387   4.241
    1C        C  493   3.004   4.425   4.361
    1C        C  494   2.831   4.304   4.484
    1C        C  495   2.940   4.394   4.483
    1C        C  496   2.778   4.256   4.606
    1C        C  497   2.821   4.316   4.727
    1C        C  498   2.665   4.165   4.844
    1C        C  499   2.755   4.274   4.844
    1C        C  500   2.602   4.114   4.958
    1C        C  501   4.001   4.354   2.038
    1C        C  502   3.814   4.463   2.156
    1C        C  503   3.940   4.399   2.156
    1C        C  504   3.744   4.480   2.277
    1C        C  505   3.808   4.451   2.400
    1C        C  506   3.605   4.512   2.521
    1C        C  507   3.743   4.480   2.521
    1C        C  508   3.533   4.513   2.643
    1C        C  509   3.603   4.507   2.766
    1C        C  510   3.393   4.521   2.885
    1C        C  511   3.535   4.515   2.889
    1C        C  512   3.322   4.522   3.008
    1C        C  513   3.394   4.523   3.129
    1C        C  514   3.186   4.490   3.256
    1C        C  515   3.326   4.514   3.253
    1C        C  516   3.121   4.473   3.380
    1C        C  517   3.188   4.500   3.501
    1C        C  518   2.991   4.424   3.624
    1C        C  519   3.118   4.486   3.623
    1C        C  520   2.936   4.381   3.747
    1C        C  521   3.000   4.414   3.869
    1C        C  522   2.834   4.287   3.994
    1C        C  523   2.943   4.377   3.993
    1C        C  524   2.788   4.241   4.119
    1C        C  525   2.834   4.293   4.242
    1C        C  526   2.700   4.131   4.365
    1C        C  527   2.784   4.245   4.365
    1C        C  528   2.661   4.073   4.488
    1C        C  529   2.695   4.142   4.607
    1C        C  530   2.590   3.958   4.732
    1C        C  531   2.640   4.091   4.726
    1C        C  532   2.544   3.899   4.854
    1C        C  533   2.530   3.994   4.960
    1C        C  534   3.622   4.557   2.041
    1C        C  535   3.753   4.507   2.039
    1C        C  536   3.538   4.537   2.155
    1C        C  537   3.605   4.511   2.277
    1C        C  538   3.393   4.521   2.401
    1C        C  539   3.534   4.510   2.399
    1C        C  540   3.318   4.514   2.520
    1C        C  541   3.392   4.514   2.641
    1C        C  542   3.184   4.484   2.766
    1C        C  543   3.322   4.512   2.764
    1C        C  544   3.118   4.466   2.890
    1C        C  545   3.185   4.490   3.012
    1C        C  546   2.989   4.411   3.135
    1C        C  547   3.117   4.471   3.134
    1C        C  548   2.934   4.372   3.259
    1C        C  549   2.994   4.411   3.381
    1C        C  550   2.824   4.287   3.506
    1C        C  551   2.931   4.380   3.504
    1C        C  552   2.777   4.236   3.629
    1C        C  553   2.828   4.290   3.749
    1C        C  554   2.704   4.120   3.875
    1C        C  555   2.786   4.235   3.872
    1C        C  556   2.666   4.063   3.999
    1C        C  557   2.705   4.126   4.119
    1C        C  558   2.606   3.942   4.247
    1C        C  559   2.668   4.069   4.242
    1C        C  560   2.576   3.879   4.369
    1C        C  561   2.596   3.948   4.491
    1C        C  562   2.536   3.746   4.618
    1C        C  563   2.569   3.883   4.614
    1C        C  564   2.516   3.680   4.741
    1C        C  565   2.517   3.759   4.860
    1C        C  566   2.521   3.542   4.980
    1C        C  567   2.529   3.680   4.975
    1C        C  568   3.329   4.481   2.040
    1C        C  569   3.397   4.517   2.157
    1C        C  570   3.186   4.479   2.281
    1C        C  571   3.323   4.515   2.278
    1C        C  572   3.114   4.461   2.402
    1C        C  573   3.179   4.489   2.524
    1C        C  574   2.984   4.406   2.646
    1C        C  575   3.112   4.466   2.646
    1C        C  576   2.927   4.369   2.770
    1C        C  577   2.991   4.404   2.891
    1C        C  578   2.822   4.279   3.017
    1C        C  579   2.929   4.372   3.014
    1C        C  580   2.774   4.227   3.139
    1C        C  581   2.828   4.279   3.259
    1C        C  582   2.699   4.116   3.385
    1C        C  583   2.778   4.233   3.384
    1C        C  584   2.663   4.056   3.507
    1C        C  585   2.698   4.118   3.629
    1C        C  586   2.601   3.933   3.758
    1C        C  587   2.665   4.060   3.753
    1C        C  588   2.574   3.872   3.882
    1C        C  589   2.601   3.938   4.004
    1C        C  590   2.541   3.736   4.129
    1C        C  591   2.577   3.872   4.127
    1C        C  592   2.529   3.669   4.253
    1C        C  593   2.539   3.743   4.373
    1C        C  594   2.516   3.534   4.499
    1C        C  595   2.524   3.675   4.496
    1C        C  596   2.517   3.463   4.622
    1C        C  597   2.509   3.538   4.741
    1C        C  598   2.527   3.325   4.864
    1C        C  599   2.512   3.466   4.862
    1C        C  600   2.518   3.245   4.979
    1C        C  601   3.196   4.444   2.043
    1C        C  602   2.986   4.394   2.162
    1C        C  603   3.119   4.449   2.159
    1C        C  604   2.923   4.358   2.284
    1C        C  605   2.986   4.402   2.403
    1C        C  606   2.817   4.275   2.528
    1C        C  607   2.923   4.369   2.525
    1C        C  608   2.770   4.226   2.651
    1C        C  609   2.820   4.277   2.773
    1C        C  610   2.690   4.111   2.896
    1C        C  611   2.769   4.228   2.896
    1C        C  612   2.649   4.055   3.019
    1C        C  613   2.686   4.116   3.141
    1C        C  614   2.596   3.927   3.266
    1C        C  615   2.653   4.057   3.265
    1C        C  616   2.572   3.863   3.389
    1C        C  617   2.600   3.930   3.511
    1C        C  618   2.538   3.731   3.640
    1C        C  619   2.577   3.867   3.635
    1C        C  620   2.525   3.663   3.763
    1C        C  621   2.536   3.736   3.884
    1C        C  622   2.514   3.525   4.009
    1C        C  623   2.529   3.666   4.006
    1C        C  624   2.510   3.457   4.133
    1C        C  625   2.513   3.529   4.255
    1C        C  626   2.535   3.321   4.379
    1C        C  627   2.514   3.460   4.378
    1C        C  628   2.555   3.254   4.501
    1C        C  629   2.537   3.324   4.623
    1C        C  630   2.595   3.118   4.744
    1C        C  631   2.547   3.252   4.745
    1C        C  632   2.616   3.046   4.865
    1C        C  633   2.557   3.111   4.979
    1C        C  634   2.785   4.308   2.056
    1C        C  635   2.896   4.393   2.050
    1C        C  636   2.745   4.233   2.167
    1C        C  637   2.810   4.273   2.286
    1C        C  638   2.678   4.109   2.411
    1C        C  639   2.760   4.224   2.409
    1C        C  640   2.640   4.051   2.534
    1C        C  641   2.681   4.116   2.653
    1C        C  642   2.587   3.925   2.779
    1C        C  643   2.648   4.053   2.775
    1C        C  644   2.566   3.857   2.901
    1C        C  645   2.589   3.928   3.021
    1C        C  646   2.527   3.726   3.147
    1C        C  647   2.564   3.863   3.144
    1C        C  648   2.518   3.658   3.270
    1C        C  649   2.536   3.727   3.392
    1C        C  650   2.518   3.521   3.520
    1C        C  651   2.527   3.662   3.518
    1C        C  652   2.518   3.451   3.642
    1C        C  653   2.518   3.522   3.765
    1C        C  654   2.536   3.313   3.892
    1C        C  655   2.516   3.453   3.888
    1C        C  656   2.551   3.244   4.015
    1C        C  657   2.534   3.318   4.134
    1C        C  658   2.603   3.119   4.257
    1C        C  659   2.557   3.252   4.257
    1C        C  660   2.637   3.058   4.380
    1C        C  661   2.601   3.121   4.501
    1C        C  662   2.707   2.937   4.626
    1C        C  663   2.632   3.056   4.623
    1C        C  664   2.751   2.875   4.745
    1C        C  665   2.697   2.928   4.866
    1C        C  666   2.744   2.870   4.984
    1C        C  667   2.688   4.026   2.052
    1C        C  668   2.685   4.105   2.169
    1C        C  669   2.588   3.915   2.290
    1C        C  670   2.642   4.047   2.290
    1C        C  671   2.562   3.852   2.413
    1C        C  672   2.584   3.921   2.534
    1C        C  673   2.532   3.719   2.659
    1C        C  674   2.564   3.856   2.658
    1C        C  675   2.519   3.649   2.781
    1C        C  676   2.532   3.720   2.903
    1C        C  677   2.509   3.512   3.031
    1C        C  678   2.521   3.653   3.027
    1C        C  679   2.513   3.444   3.155
    1C        C  680   2.512   3.517   3.275
    1C        C  681   2.535   3.308   3.403
    1C        C  682   2.514   3.448   3.399
    1C        C  683   2.549   3.240   3.526
    1C        C  684   2.531   3.311   3.647
    1C        C  685   2.601   3.111   3.771
    1C        C  686   2.550   3.243   3.770
    1C        C  687   2.629   3.047   3.894
    1C        C  688   2.597   3.111   4.015
    1C        C  689   2.710   2.932   4.139
    1C        C  690   2.630   3.049   4.137
    1C        C  691   2.758   2.882   4.262
    1C        C  692   2.713   2.939   4.383
    1C        C  693   2.753   2.880   4.505
    1C        C  694   2.634   3.897   2.057
    1C        C  695   2.530   3.706   2.177
    1C        C  696   2.579   3.838   2.172
    1C        C  697   2.514   3.637   2.299
    1C        C  698   2.529   3.714   2.416
    1C        C  699   2.494   3.507   2.544
    1C        C  700   2.515   3.646   2.539
    1C        C  701   2.503   3.437   2.667
    1C        C  702   2.512   3.508   2.788
    1C        C  703   2.524   3.297   2.913
    1C        C  704   2.512   3.438   2.911
    1C        C  705   2.545   3.233   3.037
    1C        C  706   2.527   3.303   3.158
    1C        C  707   2.600   3.107   3.279
    1C        C  708   2.546   3.238   3.282
    1C        C  709   2.630   3.045   3.402
    1C        C  710   2.600   3.108   3.525
    1C        C  711   2.710   2.931   3.648
    1C        C  712   2.630   3.048   3.649
    1C        C  713   2.755   2.876   3.771
    1C        C  714   2.709   2.930   3.893
    1C        C  715   2.755   2.879   4.016
    1C        C  716   2.450   3.499   2.062
    1C        C  717   2.495   3.631   2.063
    1C        C  718   2.467   3.424   2.183
    1C        C  719   2.483   3.498   2.303
    1C        C  720   2.516   3.292   2.426
    1C        C  721   2.485   3.429   2.426
    1C        C  722   2.540   3.225   2.548
    1C        C  723   2.532   3.299   2.669
    1C        C  724   2.591   3.096   2.789
    1C        C  725   2.543   3.228   2.791
    1C        C  726   2.623   3.034   2.912
    1C        C  727   2.598   3.102   3.034
    1C        C  728   2.705   2.922   3.160
    1C        C  729   2.633   3.043   3.157
    1C        C  730   2.750   2.868   3.283
    1C        C  731   2.708   2.927   3.404
    1C        C  732   2.758   2.877   3.527
    1C        C  733   2.492   3.199   2.072
    1C        C  734   2.490   3.282   2.184
    1C        C  735   2.581   3.087   2.306
    1C        C  736   2.528   3.218   2.305
    1C        C  737   2.614   3.021   2.427
    1C        C  738   2.591   3.094   2.546
    1C        C  739   2.698   2.911   2.672
    1C        C  740   2.622   3.030   2.668
    1C        C  741   2.741   2.856   2.795
    1C        C  742   2.701   2.917   2.916
    1C        C  743   2.747   2.863   3.038
    1C        C  744   2.548   3.072   2.071
    1C        C  745   2.688   2.902   2.185
    1C        C  746   2.608   3.018   2.186
    1C        C  747   2.733   2.844   2.306
    1C        C  748   2.691   2.902   2.428
    1C        C  749   2.740   2.852   2.550
    1C        C  750   2.735   2.836   2.071
    1C        C  751   3.670   2.316   1.976
    1C        O  752   3.672   2.193   2.007
    1C        O  753   3.697   2.344   1.842
    1C        C  754   4.635   3.055   1.986
    1C        O  755   4.619   3.005   1.871
    1C        O  756   4.753   3.018   2.051
    1C        C  757   4.442   4.223   1.962
    1C        O  758   4.530   4.306   1.998
    1C        O  759   4.482   4.187   1.833
    1C        C  760   3.582   4.644   1.928
    1C        O  761   3.636   4.758   1.918
    1C        O  762   3.536   4.592   1.807
    1C        C  763   2.882   4.517   1.970
    1C        O  764   2.872   4.504   1.845
    1C        O  765   2.853   4.642   2.025
    1C        C  766   2.329   3.472   1.982
    1C        O  767   2.332   3.514   1.863
    1C        O  768   2.195   3.488   2.022
    1C        C  769   4.710   3.605   5.034
    1C        O  770   4.706   3.528   5.133
    1C        O  771   4.831   3.641   4.974
    1C        C  772   4.272   4.431   5.049
    1C        O  773   4.260   4.408   5.172
    1C        O  774   4.398   4.491   5.034
    1C        C  775   4.148   2.514   5.069
    1C        O  776   4.210   2.412   5.028
    1C        O  777   4.120   2.514   5.206
    1C        C  778   2.872   4.551   5.037
    1C        O  779   2.801   4.639   4.979
    1C        O  780   2.899   4.585   5.170
    1C        C  781   2.485   3.033   5.082
    1C        O  782   2.371   2.982   5.068
    1C        O  783   2.549   3.027   5.206
    1C        C  784   2.414   3.998   5.052
    1C        O  785   2.314   4.072   5.032
    1C        O  786   2.425   3.954   5.185
    1C        C  787   2.948   2.397   2.047
    1C        O  788   2.918   2.370   1.928
    1C        O  789   2.893   2.305   2.137
    1C        C  790   3.171   2.385   5.073
    1C        O  791   3.140   2.268   5.039
    1C        O  792   3.219   2.384   5.204
    1C        H  793   4.272   3.020   5.058
    1C        H  794   4.183   2.804   5.074
    1C        H  795   4.516   3.127   5.054
    1C        H  796   4.573   3.348   5.053
    1C        H  797   4.521   3.799   5.055
    1C        H  798   4.449   3.999   5.051
    1C        H  799   4.244   4.140   5.040
    1C        H  800   4.003   4.485   5.040
    1C        H  801   3.824   4.591   5.038
    1C        H  802   3.595   4.650   5.032
    1C        H  803   3.391   4.503   5.055
    1C        H  804   3.180   4.427   5.043
    1C        H  805   3.904   2.447   5.046
    1C        H  806   3.683   2.466   5.078
    1C        H  807   3.010   2.576   5.072
    1C        H  808   3.449   2.482   5.079
    1C        H  809   2.870   2.730   5.081
    1C        H  810   2.746   2.939   5.066
    1C        H  811   2.452   3.279   5.056
    1C        H  812   2.526   3.495   5.076
    1C        H  813   2.535   3.730   5.070
    1C        H  814   2.602   4.173   5.047
    1C        H  815   2.781   4.299   5.056
    1C        H  816   2.682   2.847   1.978
    1C        H  817   2.814   2.662   1.987
    1C        H  818   3.212   2.424   1.993
    1C        H  819   3.434   2.467   1.982
    1C        H  820   3.888   2.461   2.000
    1C        H  821   4.078   2.595   1.977
    1C        H  822   4.297   2.699   1.999
    1C        H  823   4.393   2.909   1.967
    1C        H  824   4.590   3.306   1.970
    1C        H  825   4.521   3.512   1.960
    1C        H  826   4.482   3.750   1.953
    1C        H  827   3.817   4.545   1.961
    1C        H  828   3.941   4.308   1.962
    1C        H  829   4.190   4.302   1.962
    1C        H  830   4.527   3.982   1.982
    1C        H  831   2.647   3.834   1.972
    1C        H  832   2.774   4.037   1.990
    1C        H  833   2.719   4.312   1.972
    1C        H  834   3.356   4.536   1.952
    1C        H  835   3.169   4.370   1.970
    1C        H  836   2.509   3.002   2.000
    1C        H  837   2.407   3.209   2.006
    1C        H  838   2.493   3.679   1.967
    2V3OU   H29  839   2.815   3.540   4.697
    2V3OU   C27  840   2.796   3.509   4.803
    2V3OU   H27  841   2.740   3.583   4.866
    2V3OU   H28  842   2.747   3.410   4.786
    2V3OU   O11  843   2.914   3.473   4.876
    2V3OU   C15  844   2.916   3.398   4.992
    2V3OU   C13  845   3.049   3.375   5.034
    2V3OU   C14  846   3.073   3.267   5.120
    2V3OU   C16  847   2.972   3.187   5.172
    2V3OU    H6  848   2.989   3.106   5.245
    2V3OU   C12  849   3.208   3.230   5.167
    2V3OU    O2  850   3.238   3.133   5.239
    2V3OU   C10  851   3.322   3.305   5.111
    2V3OU    C8  852   3.454   3.272   5.137
    2V3OU   O10  853   3.486   3.153   5.194
    2V3OU   H26  854   3.407   3.113   5.234
    2V3OU    C6  855   3.566   3.353   5.098
    2V3OU    C5  856   3.539   3.468   5.025
    2V3OU    C4  857   3.703   3.295   5.097
    2V3OU    H4  858   3.723   3.235   5.190
    2V3OU    H5  859   3.710   3.223   5.010
    2V3OU    C2  860   3.815   3.399   5.085
    2V3OU    O6  861   3.807   3.473   5.207
    2V3OU   H21  862   3.771   3.558   5.177
    2V3OU    C3  863   3.786   3.495   4.970
    2V3OU    H2  864   3.862   3.577   4.959
    2V3OU    H3  865   3.788   3.440   4.872
    2V3OU   C25  866   3.948   3.327   5.065
    2V3OU    O7  867   4.002   3.298   4.958
    2V3OU   C26  868   4.023   3.289   5.192
    2V3OU   H22  869   4.062   3.378   5.246
    2V3OU   H23  870   4.107   3.221   5.166
    2V3OU    O8  871   3.952   3.209   5.284
    2V3OU   H24  872   3.925   3.267   5.357
    2V3OU    C1  873   3.650   3.561   4.986
    2V3OU    H1  874   3.630   3.620   4.892
    2V3OU    O3  875   3.656   3.657   5.093
    2V3OU   C19  876   3.621   3.794   5.075
    2V3OU    H9  877   3.524   3.799   5.017
    2V3OU    O4  878   3.717   3.850   4.988
    2V3OU   C20  879   3.849   3.876   5.036
    2V3OU   H10  880   3.895   3.772   5.039
    2V3OU   C24  881   3.612   3.859   5.213
    2V3OU   H16  882   3.546   3.797   5.279
    2V3OU   H17  883   3.564   3.959   5.197
    2V3OU   C23  884   3.752   3.875   5.272
    2V3OU   H15  885   3.792   3.769   5.287
    2V3OU    N1  886   3.740   3.956   5.392
    2V3OU   H19  887   3.817   3.920   5.444
    2V3OU   H20  888   3.654   3.926   5.435
    2V3OU   C21  889   3.849   3.945   5.172
    2V3OU   H11  890   3.950   3.919   5.216
    2V3OU    O5  891   3.835   4.086   5.170
    2V3OU   H18  892   3.779   4.103   5.247
    2V3OU   C22  893   3.914   3.955   4.923
    2V3OU   H12  894   3.863   4.054   4.908
    2V3OU   H13  895   3.907   3.896   4.828
    2V3OU   H14  896   4.025   3.959   4.940
    2V3OU   C11  897   3.157   3.474   5.021
    2V3OU    O1  898   3.138   3.593   4.988
    2V3OU    C9  899   3.296   3.426   5.041
    2V3OU    C7  900   3.403   3.502   4.997
    2V3OU    O9  901   3.388   3.617   4.923
    2V3OU   H25  902   3.292   3.629   4.927
    2V3OU   C17  903   2.818   3.312   5.044
    2V3OU    H7  904   2.719   3.357   5.052
    2V3OU   C18  905   2.840   3.210   5.136
    2V3OU    H8  906   2.756   3.147   5.167
    3SOL     OW  907   3.490   4.201   4.753
    3SOL    HW1  908   3.484   4.129   4.684
    3SOL    HW2  909   3.507   4.289   4.708
    4SOL     OW  910   6.697   6.954   0.306
    4SOL    HW1  911   6.676   6.994   0.396
    4SOL    HW2  912   6.795   6.936   0.300
    5SOL     OW  913   4.054   1.261   1.513
    5SOL    HW1  914   4.082   1.206   1.434
    5SOL    HW2  915   3.983   1.212   1.564
    6SOL     OW  916   5.488   0.554   2.963
    6SOL    HW1  917   5.395   0.555   3.000
    6SOL    HW2  918   5.553   0.581   3.033
    7SOL     OW  919   1.488   4.339   4.193
    7SOL    HW1  920   1.526   4.361   4.282
    7SOL    HW2  921   1.492   4.240   4.179
    8SOL     OW  922   2.023   3.508   5.868
    8SOL    HW1  923   1.963   3.428   5.862
    8SOL    HW2  924   2.095   3.492   5.935
    9SOL     OW  925   6.352   1.252   6.377
    9SOL    HW1  926   6.254   1.234   6.389
    9SOL    HW2  927   6.391   1.281   6.465
   10SOL     OW  928   5.022   4.760   3.494
   10SOL    HW1  929   5.004   4.671   3.537
   10SOL    HW2  930   4.942   4.789   3.442
   11SOL     OW  931   2.256   1.340   0.711
   11SOL    HW1  932   2.273   1.244   0.734
   11SOL    HW2  933   2.228   1.390   0.793
   12SOL     OW  934   3.274   4.897   3.534
   12SOL    HW1  935   3.241   4.807   3.563
   12SOL    HW2  936   3.236   4.918   3.443
   13SOL     OW  937   4.594   6.049   2.311
   13SOL    HW1  938   4.505   6.032   2.353
   13SOL    HW2  939   4.599   6.145   2.281
   14SOL     OW  940   4.811   4.845   5.050
   14SOL    HW1  941   4.715   4.817   5.059
   14SOL    HW2  942   4.865   4.803   5.123
   15SOL     OW  943   0.562   5.924   6.252
   15SOL    HW1  944   0.525   6.004   6.300
   15SOL    HW2  945   0.659   5.914   6.274
   16SOL     OW  946   6.876   2.960   5.929
   16SOL    HW1  947   6.813   2.991   5.859
   16SOL    HW2  948   6.943   2.897   5.889
   17SOL     OW  949   6.075   0.940   5.237
   17SOL    HW1  950   6.108   1.020   5.188
   17SOL    HW2  951   6.055   0.867   5.172
   18SOL     OW  952   3.526   6.885   5.108
   18SOL    HW1  953   3.470   6.949   5.055
   18SOL    HW2  954   3.621   6.916   5.108
   19SOL     OW  955   0.958   1.374   3.260
   19SOL    HW1  956   1.029   1.384   3.190
   19SOL    HW2  957   0.870   1.404   3.222
   20SOL     OW  958   5.548   2.387   5.000
   20SOL    HW1  959   5.524   2.466   5.056
   20SOL    HW2  960   5.643   2.394   4.970
   21SOL     OW  961   3.590   6.352   2.647
   21SOL    HW1  962   3.666   6.321   2.590
   21SOL    HW2  963   3.625   6.404   2.725
   22SOL     OW  964   2.433   6.740   5.044
   22SOL    HW1  965   2.407   6.819   5.099
   22SOL    HW2  966   2.404   6.656   5.091
   23SOL     OW  967   5.280   4.503   2.199
   23SOL    HW1  968   5.328   4.582   2.162
   23SOL    HW2  969   5.296   4.497   2.298
   24SOL     OW  970   4.472   0.712   1.086
   24SOL    HW1  971   4.532   0.760   1.150
   24SOL    HW2  972   4.392   0.769   1.066
   25SOL     OW  973   2.686   6.874   3.282
   25SOL    HW1  974   2.664   6.864   3.379
   25SOL    HW2  975   2.603   6.890   3.230
   26SOL     OW  976   0.594   2.793   6.515
   26SOL    HW1  977   0.631   2.875   6.557
   26SOL    HW2  978   0.510   2.767   6.561
   27SOL     OW  979   6.125   1.443   1.486
   27SOL    HW1  980   6.087   1.410   1.572
   27SOL    HW2  981   6.209   1.494   1.504
   28SOL     OW  982   2.138   0.443   4.421
   28SOL    HW1  983   2.185   0.400   4.498
   28SOL    HW2  984   2.095   0.372   4.365
   29SOL     OW  985   6.983   0.602   0.247
   29SOL    HW1  986   6.965   0.507   0.219
   29SOL    HW2  987   6.897   0.651   0.257
   30SOL     OW  988   4.340   0.564   5.045
   30SOL    HW1  989   4.301   0.635   4.986
   30SOL    HW2  990   4.315   0.583   5.140
   31SOL     OW  991   1.202   3.094   5.664
   31SOL    HW1  992   1.244   3.004   5.671
   31SOL    HW2  993   1.242   3.143   5.586
   32SOL     OW  994   1.759   0.249   1.214
   32SOL    HW1  995   1.703   0.324   1.251
   32SOL    HW2  996   1.845   0.244   1.264
   33SOL     OW  997   0.656   4.378   6.124
   33SOL    HW1  998   0.656   4.406   6.028
   33SOL    HW2  999   0.740   4.326   6.143
   34SOL     OW 1000   1.875   4.952   5.195
   34SOL    HW1 1001   1.791   4.996   5.227
   34SOL    HW2 1002   1.881   4.860   5.235
   35SOL     OW 1003   4.017   2.966   0.125
   35SOL    HW1 1004   4.029   2.997   0.031
   35SOL    HW2 1005   3.999   3.044   0.185
   36SOL     OW 1006   4.761   0.894   3.736
   36SOL    HW1 1007   4.776   0.988   3.767
   36SOL    HW2 1008   4.719   0.841   3.810
   37SOL     OW 1009   2.074   1.465   3.840
   37SOL    HW1 1010   2.173   1.473   3.832
   37SOL    HW2 1011   2.030   1.522   3.770
   38SOL     OW 1012   1.316   4.768   2.248
   38SOL    HW1 1013   1.388   4.703   2.219
   38SOL    HW2 1014   1.270   4.732   2.329
   39SOL     OW 1015   6.437   5.361   6.601
   39SOL    HW1 1016   6.506   5.291   6.616
   39SOL    HW2 1017   6.449   5.435   6.667
   40SOL     OW 1018   3.549   0.809   5.999
   40SOL    HW1 1019   3.487   0.785   5.924
   40SOL    HW2 1020   3.523   0.758   6.081
   41SOL     OW 1021   6.220   4.054   1.992
   41SOL    HW1 1022   6.205   4.048   2.091
   41SOL    HW2 1023   6.285   4.128   1.973
   42SOL     OW 1024   2.320   5.748   5.172
   42SOL    HW1 1025   2.295   5.667   5.226
   42SOL    HW2 1026   2.266   5.750   5.088
   43SOL     OW 1027   5.007   6.712   4.928
   43SOL    HW1 1028   4.944   6.636   4.941
   43SOL    HW2 1029   5.027   6.756   5.016
   44SOL     OW 1030   5.875   2.366   5.342
   44SOL    HW1 1031   5.968   2.340   5.369
   44SOL    HW2 1032   5.839   2.297   5.278
   45SOL     OW 1033   4.057   4.978   0.294
   45SOL    HW1 1034   4.049   5.071   0.259
   45SOL    HW2 1035   4.093   4.918   0.223
   46SOL     OW 1036   0.810   3.236   4.986
   46SOL    HW1 1037   0.895   3.186   4.972
   46SOL    HW2 1038   0.747   3.181   5.041
   47SOL     OW 1039   5.629   3.044   1.639
   47SOL    HW1 1040   5.579   3.040   1.726
   47SOL    HW2 1041   5.722   3.076   1.655
   48SOL     OW 1042   6.528   3.778   6.745
   48SOL    HW1 1043   6.517   3.877   6.757
   48SOL    HW2 1044   6.588   3.742   6.816
   49SOL     OW 1045   4.814   3.309   0.259
   49SOL    HW1 1046   4.840   3.212   0.263
   49SOL    HW2 1047   4.720   3.317   0.228
   50SOL     OW 1048   6.291   2.397   6.097
   50SOL    HW1 1049   6.350   2.464   6.053
   50SOL    HW2 1050   6.248   2.340   6.027
   51SOL     OW 1051   2.036   5.109   3.307
   51SOL    HW1 1052   1.977   5.028   3.309
   51SOL    HW2 1053   2.038   5.151   3.398
   52SOL     OW 1054   5.611   2.766   1.528
   52SOL    HW1 1055   5.621   2.860   1.560
   52SOL    HW2 1056   5.549   2.764   1.450
   53SOL     OW 1057   4.248   0.520   2.612
   53SOL    HW1 1058   4.279   0.615   2.608
   53SOL    HW2 1059   4.269   0.475   2.525
   54SOL     OW 1060   5.215   6.315   6.568
   54SOL    HW1 1061   5.302   6.295   6.614
   54SOL    HW2 1062   5.168   6.388   6.617
   55SOL     OW 1063   1.686   3.011   6.449
   55SOL    HW1 1064   1.642   3.060   6.375
   55SOL    HW2 1065   1.624   2.943   6.487
   56SOL     OW 1066   1.560   2.251   6.683
   56SOL    HW1 1067   1.655   2.222   6.682
   56SOL    HW2 1068   1.506   2.189   6.740
   57SOL     OW 1069   4.111   0.829   0.745
   57SOL    HW1 1070   4.126   0.761   0.817
   57SOL    HW2 1071   4.103   0.783   0.657
   58SOL     OW 1072   0.952   1.109   6.387
   58SOL    HW1 1073   1.023   1.042   6.364
   58SOL    HW2 1074   0.983   1.166   6.463
   59SOL     OW 1075   5.618   3.635   6.291
   59SOL    HW1 1076   5.621   3.606   6.387
   59SOL    HW2 1077   5.580   3.563   6.235
   60SOL     OW 1078   5.244   0.793   3.091
   60SOL    HW1 1079   5.245   0.708   3.039
   60SOL    HW2 1080   5.275   0.776   3.185
   61SOL     OW 1081   0.322   0.403   4.969
   61SOL    HW1 1082   0.334   0.498   4.943
   61SOL    HW2 1083   0.375   0.344   4.908
   62SOL     OW 1084   0.083   1.987   2.351
   62SOL    HW1 1085   0.000   1.933   2.333
   62SOL    HW2 1086   0.120   2.020   2.264
   63SOL     OW 1087   4.097   6.374   4.748
   63SOL    HW1 1088   4.071   6.317   4.670
   63SOL    HW2 1089   4.128   6.316   4.823
   64SOL     OW 1090   1.053   4.402   6.901
   64SOL    HW1 1091   1.099   4.316   6.924
   64SOL    HW2 1092   1.020   4.399   6.807
   65SOL     OW 1093   0.818   0.317   5.069
   65SOL    HW1 1094   0.915   0.338   5.087
   65SOL    HW2 1095   0.801   0.322   4.970
   66SOL     OW 1096   4.207   0.259   2.015
   66SOL    HW1 1097   4.275   0.210   2.070
   66SOL    HW2 1098   4.115   0.232   2.044
   67SOL     OW 1099   0.253   2.943   1.222
   67SOL    HW1 1100   0.243   2.854   1.267
   67SOL    HW2 1101   0.347   2.975   1.232
   68SOL     OW 1102   6.721   2.269   5.653
   68SOL    HW1 1103   6.706   2.181   5.610
   68SOL    HW2 1104   6.656   2.336   5.617
   69SOL     OW 1105   0.854   5.262   5.794
   69SOL    HW1 1106   0.830   5.252   5.890
   69SOL    HW2 1107   0.792   5.329   5.751
   70SOL     OW 1108   5.254   3.388   5.023
   70SOL    HW1 1109   5.162   3.406   4.989
   70SOL    HW2 1110   5.269   3.439   5.108
   71SOL     OW 1111   4.563   1.962   4.390
   71SOL    HW1 1112   4.565   2.058   4.363
   71SOL    HW2 1113   4.489   1.947   4.456
   72SOL     OW 1114   6.487   0.685   3.506
   72SOL    HW1 1115   6.442   0.747   3.442
   72SOL    HW2 1116   6.538   0.738   3.574
   73SOL     OW 1117   2.849   0.624   0.804
   73SOL    HW1 1118   2.865   0.580   0.892
   73SOL    HW2 1119   2.802   0.559   0.743
   74SOL     OW 1120   1.931   1.654   0.004
   74SOL    HW1 1121   1.927   1.693   0.096
   74SOL    HW2 1122   2.019   1.675   6.987
   75SOL     OW 1123   4.263   1.630   0.797
   75SOL    HW1 1124   4.353   1.673   0.807
   75SOL    HW2 1125   4.263   1.572   0.716
   76SOL     OW 1126   2.993   4.355   5.336
   76SOL    HW1 1127   3.091   4.350   5.316
   76SOL    HW2 1128   2.945   4.390   5.255
   77SOL     OW 1129   1.646   5.036   4.288
   77SOL    HW1 1130   1.641   4.975   4.367
   77SOL    HW2 1131   1.736   5.029   4.246
   78SOL     OW 1132   4.361   1.400   1.336
   78SOL    HW1 1133   4.298   1.322   1.337
   78SOL    HW2 1134   4.431   1.384   1.266
   79SOL     OW 1135   1.835   5.542   2.089
   79SOL    HW1 1136   1.773   5.523   2.012
   79SOL    HW2 1137   1.799   5.618   2.142
   80SOL     OW 1138   4.673   1.766   5.358
   80SOL    HW1 1139   4.759   1.747   5.405
   80SOL    HW2 1140   4.663   1.704   5.280
   81SOL     OW 1141   3.135   5.983   1.522
   81SOL    HW1 1142   3.040   5.961   1.544
   81SOL    HW2 1143   3.137   6.065   1.464
   82SOL     OW 1144   1.059   6.104   1.413
   82SOL    HW1 1145   1.046   6.163   1.492
   82SOL    HW2 1146   1.156   6.098   1.391
   83SOL     OW 1147   5.379   2.011   5.325
   83SOL    HW1 1148   5.419   2.097   5.294
   83SOL    HW2 1149   5.410   1.990   5.417
   84SOL     OW 1150   6.004   2.664   3.369
   84SOL    HW1 1151   5.913   2.686   3.336
   84SOL    HW2 1152   6.060   2.630   3.293
   85SOL     OW 1153   2.336   0.343   3.959
   85SOL    HW1 1154   2.258   0.320   3.901
   85SOL    HW2 1155   2.346   0.442   3.964
   86SOL     OW 1156   5.653   1.380   6.225
   86SOL    HW1 1157   5.694   1.462   6.266
   86SOL    HW2 1158   5.555   1.378   6.247
   87SOL     OW 1159   3.673   4.169   6.301
   87SOL    HW1 1160   3.687   4.267   6.292
   87SOL    HW2 1161   3.718   4.122   6.225
   88SOL     OW 1162   3.098   3.653   6.793
   88SOL    HW1 1163   3.055   3.705   6.866
   88SOL    HW2 1164   3.099   3.707   6.709
   89SOL     OW 1165   3.065   3.609   2.901
   89SOL    HW1 1166   3.014   3.528   2.871
   89SOL    HW2 1167   3.153   3.612   2.853
   90SOL     OW 1168   4.804   3.952   3.008
   90SOL    HW1 1169   4.813   4.039   2.960
   90SOL    HW2 1170   4.754   3.966   3.094
   91SOL     OW 1171   5.540   4.964   6.043
   91SOL    HW1 1172   5.581   5.055   6.048
   91SOL    HW2 1173   5.442   4.971   6.062
   92SOL     OW 1174   5.527   4.188   6.918
   92SOL    HW1 1175   5.467   4.157   6.844
   92SOL    HW2 1176   5.570   4.109   6.961
   93SOL     OW 1177   2.429   3.441   1.330
   93SOL    HW1 1178   2.383   3.357   1.358
   93SOL    HW2 1179   2.426   3.449   1.230
   94SOL     OW 1180   3.406   0.806   5.764
   94SOL    HW1 1181   3.328   0.867   5.775
   94SOL    HW2 1182   3.460   0.834   5.686
   95SOL     OW 1183   6.877   0.515   3.835
   95SOL    HW1 1184   6.908   0.496   3.742
   95SOL    HW2 1185   6.946   0.569   3.883
   96SOL     OW 1186   4.738   4.739   0.374
   96SOL    HW1 1187   4.687   4.824   0.387
   96SOL    HW2 1188   4.701   4.689   0.297
   97SOL     OW 1189   2.231   5.526   5.315
   97SOL    HW1 1190   2.258   5.466   5.240
   97SOL    HW2 1191   2.216   5.470   5.397
   98SOL     OW 1192   1.302   2.999   2.801
   98SOL    HW1 1193   1.318   3.079   2.743
   98SOL    HW2 1194   1.216   3.010   2.849
   99SOL     OW 1195   4.048   3.140   3.826
   99SOL    HW1 1196   3.953   3.161   3.802
   99SOL    HW2 1197   4.109   3.202   3.777
  100SOL     OW 1198   7.005   0.127   3.766
  100SOL    HW1 1199   6.990   0.217   3.725
  100SOL    HW2 1200   0.001   0.138   3.863
  101SOL     OW 1201   0.038   3.832   2.817
  101SOL    HW1 1202   0.124   3.837   2.766
  101SOL    HW2 1203   6.986   3.850   2.756
  102SOL     OW 1204   2.422   6.579   0.878
  102SOL    HW1 1205   2.334   6.602   0.835
  102SOL    HW2 1206   2.412   6.495   0.930
  103SOL     OW 1207   1.776   0.822   2.215
  103SOL    HW1 1208   1.872   0.841   2.193
  103SOL    HW2 1209   1.766   0.727   2.243
  104SOL     OW 1210   1.411   4.586   2.004
  104SOL    HW1 1211   1.445   4.544   2.088
  104SOL    HW2 1212   1.316   4.559   1.990
  105SOL     OW 1213   4.658   1.841   6.497
  105SOL    HW1 1214   4.580   1.899   6.521
  105SOL    HW2 1215   4.653   1.818   6.400
  106SOL     OW 1216   5.603   5.070   2.609
  106SOL    HW1 1217   5.676   5.046   2.545
  106SOL    HW2 1218   5.539   5.134   2.565
  107SOL     OW 1219   6.164   1.087   0.447
  107SOL    HW1 1220   6.066   1.079   0.462
  107SOL    HW2 1221   6.200   1.001   0.410
  108SOL     OW 1222   1.750   0.221   5.715
  108SOL    HW1 1223   1.833   0.260   5.677
  108SOL    HW2 1224   1.714   0.282   5.787
  109SOL     OW 1225   2.529   1.243   3.499
  109SOL    HW1 1226   2.461   1.172   3.483
  109SOL    HW2 1227   2.559   1.239   3.595
  110SOL     OW 1228   2.895   4.649   5.572
  110SOL    HW1 1229   2.804   4.625   5.605
  110SOL    HW2 1230   2.889   4.681   5.478
  111SOL     OW 1231   6.433   1.703   2.472
  111SOL    HW1 1232   6.355   1.765   2.480
  111SOL    HW2 1233   6.425   1.650   2.388
  112SOL     OW 1234   4.257   0.026   6.841
  112SOL    HW1 1235   4.266   0.041   6.743
  112SOL    HW2 1236   4.348   0.020   6.883
  113SOL     OW 1237   6.504   6.592   2.755
  113SOL    HW1 1238   6.430   6.561   2.816
  113SOL    HW2 1239   6.519   6.523   2.684
  114SOL     OW 1240   1.607   4.438   3.673
  114SOL    HW1 1241   1.631   4.462   3.767
  114SOL    HW2 1242   1.514   4.401   3.671
  115SOL     OW 1243   5.760   1.440   3.325
  115SOL    HW1 1244   5.802   1.450   3.235
  115SOL    HW2 1245   5.815   1.489   3.393
  116SOL     OW 1246   1.421   5.186   0.565
  116SOL    HW1 1247   1.458   5.121   0.498
  116SOL    HW2 1248   1.333   5.220   0.533
  117SOL     OW 1249   2.176   1.102   0.068
  117SOL    HW1 1250   2.187   1.003   0.062
  117SOL    HW2 1251   2.163   1.140   7.001
  118SOL     OW 1252   1.208   1.502   4.881
  118SOL    HW1 1253   1.162   1.414   4.866
  118SOL    HW2 1254   1.307   1.488   4.886
  119SOL     OW 1255   0.125   6.652   6.320
  119SOL    HW1 1256   0.216   6.660   6.278
  119SOL    HW2 1257   0.058   6.695   6.260
  120SOL     OW 1258   4.644   1.646   4.722
  120SOL    HW1 1259   4.696   1.731   4.731
  120SOL    HW2 1260   4.697   1.570   4.760
  121SOL     OW 1261   1.214   3.837   6.538
  121SOL    HW1 1262   1.202   3.812   6.634
  121SOL    HW2 1263   1.198   3.935   6.526
  122SOL     OW 1264   1.361   4.261   0.169
  122SOL    HW1 1265   1.349   4.296   0.262
  122SOL    HW2 1266   1.347   4.162   0.168
  123SOL     OW 1267   1.209   1.373   1.755
  123SOL    HW1 1268   1.251   1.292   1.713
  123SOL    HW2 1269   1.170   1.430   1.683
  124SOL     OW 1270   2.636   2.438   0.519
  124SOL    HW1 1271   2.558   2.402   0.569
  124SOL    HW2 1272   2.646   2.536   0.539
  125SOL     OW 1273   3.457   3.133   0.363
  125SOL    HW1 1274   3.494   3.045   0.393
  125SOL    HW2 1275   3.526   3.204   0.374
  126SOL     OW 1276   3.941   3.179   4.112
  126SOL    HW1 1277   4.021   3.220   4.155
  126SOL    HW2 1278   3.968   3.132   4.028
  127SOL     OW 1279   0.261   6.262   6.262
  127SOL    HW1 1280   0.207   6.337   6.299
  127SOL    HW2 1281   0.356   6.291   6.253
  128SOL     OW 1282   4.841   3.389   0.988
  128SOL    HW1 1283   4.787   3.356   1.065
  128SOL    HW2 1284   4.934   3.408   1.018
  129SOL     OW 1285   2.322   5.839   0.590
  129SOL    HW1 1286   2.282   5.748   0.597
  129SOL    HW2 1287   2.262   5.898   0.536
  130SOL     OW 1288   5.422   2.682   4.867
  130SOL    HW1 1289   5.363   2.692   4.947
  130SOL    HW2 1290   5.397   2.600   4.817
  131SOL     OW 1291   6.882   2.572   3.532
  131SOL    HW1 1292   6.940   2.606   3.606
  131SOL    HW2 1293   6.940   2.547   3.454
  132SOL     OW 1294   3.447   4.068   1.898
  132SOL    HW1 1295   3.411   4.155   1.864
  132SOL    HW2 1296   3.544   4.062   1.878
  133SOL     OW 1297   5.616   6.520   5.414
  133SOL    HW1 1298   5.602   6.535   5.512
  133SOL    HW2 1299   5.604   6.606   5.365
  134SOL     OW 1300   5.233   1.060   2.142
  134SOL    HW1 1301   5.197   1.125   2.208
  134SOL    HW2 1302   5.205   1.087   2.050
  135SOL     OW 1303   4.867   3.533   4.541
  135SOL    HW1 1304   4.896   3.514   4.447
  135SOL    HW2 1305   4.781   3.486   4.560
  136SOL     OW 1306   3.536   6.778   5.348
  136SOL    HW1 1307   3.543   6.808   5.253
  136SOL    HW2 1308   3.476   6.842   5.398
  137SOL     OW 1309   2.924   2.131   4.984
  137SOL    HW1 1310   2.935   2.050   4.928
  137SOL    HW2 1311   3.012   2.176   4.996
  138SOL     OW 1312   0.883   5.423   5.144
  138SOL    HW1 1313   0.957   5.430   5.212
  138SOL    HW2 1314   0.915   5.372   5.065
  139SOL     OW 1315   2.330   6.133   6.400
  139SOL    HW1 1316   2.339   6.046   6.351
  139SOL    HW2 1317   2.421   6.170   6.418
  140SOL     OW 1318   2.282   1.000   2.747
  140SOL    HW1 1319   2.227   0.984   2.829
  140SOL    HW2 1320   2.223   1.031   2.672
  141SOL     OW 1321   6.925   4.529   0.131
  141SOL    HW1 1322   6.937   4.556   0.226
  141SOL    HW2 1323   6.873   4.599   0.082
  142SOL     OW 1324   1.209   4.012   1.929
  142SOL    HW1 1325   1.154   4.062   1.996
  142SOL    HW2 1326   1.182   3.916   1.929
  143SOL     OW 1327   5.169   6.538   1.963
  143SOL    HW1 1328   5.182   6.590   2.047
  143SOL    HW2 1329   5.219   6.451   1.969
  144SOL     OW 1330   2.922   4.840   2.955
  144SOL    HW1 1331   3.022   4.829   2.950
  144SOL    HW2 1332   2.900   4.923   3.007
  145SOL     OW 1333   0.114   4.213   2.982
  145SOL    HW1 1334   0.063   4.146   3.038
  145SOL    HW2 1335   0.099   4.305   3.018
  146SOL     OW 1336   6.350   1.545   6.151
  146SOL    HW1 1337   6.385   1.630   6.110
  146SOL    HW2 1338   6.264   1.520   6.107
  147SOL     OW 1339   4.593   1.195   5.729
  147SOL    HW1 1340   4.526   1.129   5.763
  147SOL    HW2 1341   4.633   1.244   5.807
  148SOL     OW 1342   1.450   4.665   0.965
  148SOL    HW1 1343   1.417   4.713   1.047
  148SOL    HW2 1344   1.372   4.644   0.905
  149SOL     OW 1345   1.987   2.542   5.413
  149SOL    HW1 1346   2.028   2.451   5.423
  149SOL    HW2 1347   2.051   2.611   5.446
  150SOL     OW 1348   4.590   1.257   4.588
  150SOL    HW1 1349   4.652   1.198   4.536
  150SOL    HW2 1350   4.564   1.336   4.532
  151SOL     OW 1351   4.173   1.977   0.812
  151SOL    HW1 1352   4.125   1.893   0.837
  151SOL    HW2 1353   4.177   2.038   0.891
  152SOL     OW 1354   0.792   1.064   0.116
  152SOL    HW1 1355   0.809   0.983   0.172
  152SOL    HW2 1356   0.735   1.128   0.168
  153SOL     OW 1357   2.576   1.179   4.135
  153SOL    HW1 1358   2.527   1.096   4.109
  153SOL    HW2 1359   2.518   1.235   4.194
  154SOL     OW 1360   5.774   2.111   1.323
  154SOL    HW1 1361   5.792   2.158   1.410
  154SOL    HW2 1362   5.860   2.073   1.288
  155SOL     OW 1363   1.072   6.931   1.600
  155SOL    HW1 1364   1.099   6.843   1.638
  155SOL    HW2 1365   1.154   6.980   1.568
  156SOL     OW 1366   4.811   2.148   0.483
  156SOL    HW1 1367   4.820   2.049   0.473
  156SOL    HW2 1368   4.747   2.183   0.414
  157SOL     OW 1369   5.200   4.734   0.564
  157SOL    HW1 1370   5.127   4.708   0.628
  157SOL    HW2 1371   5.289   4.720   0.607
  158SOL     OW 1372   0.472   2.799   3.240
  158SOL    HW1 1373   0.511   2.890   3.235
  158SOL    HW2 1374   0.545   2.732   3.255
  159SOL     OW 1375   5.533   5.606   0.439
  159SOL    HW1 1376   5.532   5.605   0.339
  159SOL    HW2 1377   5.458   5.665   0.472
  160SOL     OW 1378   6.378   6.797   1.090
  160SOL    HW1 1379   6.416   6.887   1.070
  160SOL    HW2 1380   6.401   6.734   1.016
  161SOL     OW 1381   0.552   0.338   0.602
  161SOL    HW1 1382   0.559   0.329   0.503
  161SOL    HW2 1383   0.637   0.305   0.644
  162SOL     OW 1384   3.858   6.679   0.374
  162SOL    HW1 1385   3.902   6.733   0.446
  162SOL    HW2 1386   3.830   6.591   0.412
  163SOL     OW 1387   0.149   3.833   3.876
  163SOL    HW1 1388   0.052   3.844   3.898
  163SOL    HW2 1389   0.200   3.811   3.959
  164SOL     OW 1390   1.815   1.798   3.208
  164SOL    HW1 1391   1.774   1.889   3.209
  164SOL    HW2 1392   1.904   1.801   3.253
  165SOL     OW 1393   0.833   5.641   2.431
  165SOL    HW1 1394   0.779   5.722   2.409
  165SOL    HW2 1395   0.930   5.663   2.424
  166SOL     OW 1396   6.869   4.159   2.746
  166SOL    HW1 1397   6.804   4.139   2.819
  166SOL    HW2 1398   6.906   4.251   2.758
  167SOL     OW 1399   4.679   2.413   0.071
  167SOL    HW1 1400   4.612   2.427   0.143
  167SOL    HW2 1401   4.703   2.316   0.066
  168SOL     OW 1402   4.822   3.900   2.046
  168SOL    HW1 1403   4.797   3.806   2.025
  168SOL    HW2 1404   4.786   3.962   1.976
  169SOL     OW 1405   6.101   2.344   1.017
  169SOL    HW1 1406   6.128   2.336   1.113
  169SOL    HW2 1407   6.002   2.329   1.010
  170SOL     OW 1408   0.771   5.148   2.033
  170SOL    HW1 1409   0.854   5.096   2.056
  170SOL    HW2 1410   0.763   5.154   1.933
  171SOL     OW 1411   2.592   3.910   0.527
  171SOL    HW1 1412   2.683   3.929   0.489
  171SOL    HW2 1413   2.589   3.939   0.622
  172SOL     OW 1414   6.312   2.162   1.578
  172SOL    HW1 1415   6.391   2.223   1.577
  172SOL    HW2 1416   6.311   2.108   1.493
  173SOL     OW 1417   6.591   1.448   5.993
  173SOL    HW1 1418   6.674   1.486   6.034
  173SOL    HW2 1419   6.519   1.443   6.063
  174SOL     OW 1420   5.780   5.290   5.200
  174SOL    HW1 1421   5.754   5.370   5.255
  174SOL    HW2 1422   5.795   5.319   5.105
  175SOL     OW 1423   0.939   0.605   0.582
  175SOL    HW1 1424   0.987   0.531   0.627
  175SOL    HW2 1425   0.842   0.583   0.576
  176SOL     OW 1426   4.997   4.537   2.623
  176SOL    HW1 1427   5.070   4.539   2.691
  176SOL    HW2 1428   5.009   4.457   2.564
  177SOL     OW 1429   5.597   2.334   4.161
  177SOL    HW1 1430   5.511   2.375   4.190
  177SOL    HW2 1431   5.671   2.401   4.174
  178SOL     OW 1432   1.925   6.593   5.423
  178SOL    HW1 1433   2.009   6.594   5.476
  178SOL    HW2 1434   1.902   6.687   5.396
  179SOL     OW 1435   4.362   5.390   0.919
  179SOL    HW1 1436   4.306   5.368   0.998
  179SOL    HW2 1437   4.337   5.480   0.883
  180SOL     OW 1438   4.588   0.878   1.313
  180SOL    HW1 1439   4.507   0.922   1.351
  180SOL    HW2 1440   4.626   0.935   1.241
  181SOL     OW 1441   3.536   2.713   5.371
  181SOL    HW1 1442   3.439   2.709   5.346
  181SOL    HW2 1443   3.560   2.807   5.394
  182SOL     OW 1444   5.098   2.373   6.544
  182SOL    HW1 1445   5.121   2.397   6.638
  182SOL    HW2 1446   5.096   2.455   6.488
  183SOL     OW 1447   3.069   1.623   3.868
  183SOL    HW1 1448   3.150   1.565   3.878
  183SOL    HW2 1449   3.067   1.689   3.943
  184SOL     OW 1450   6.707   7.009   2.458
  184SOL    HW1 1451   6.774   0.036   2.511
  184SOL    HW2 1452   6.752   6.968   2.379
  185SOL     OW 1453   0.275   1.409   3.700
  185SOL    HW1 1454   0.291   1.377   3.793
  185SOL    HW2 1455   0.362   1.410   3.650
  186SOL     OW 1456   4.458   5.386   4.080
  186SOL    HW1 1457   4.475   5.479   4.114
  186SOL    HW2 1458   4.492   5.320   4.147
  187SOL     OW 1459   4.091   6.136   2.163
  187SOL    HW1 1460   4.095   6.206   2.234
  187SOL    HW2 1461   4.050   6.174   2.080
  188SOL     OW 1462   2.485   2.576   2.862
  188SOL    HW1 1463   2.524   2.485   2.879
  188SOL    HW2 1464   2.494   2.632   2.944
  189SOL     OW 1465   6.051   5.572   6.296
  189SOL    HW1 1466   6.093   5.493   6.253
  189SOL    HW2 1467   6.120   5.644   6.310
  190SOL     OW 1468   5.617   6.735   0.248
  190SOL    HW1 1469   5.549   6.790   0.199
  190SOL    HW2 1470   5.705   6.782   0.248
  191SOL     OW 1471   5.967   0.824   5.475
  191SOL    HW1 1472   5.994   0.877   5.394
  191SOL    HW2 1473   5.879   0.858   5.509
  192SOL     OW 1474   0.306   5.376   0.752
  192SOL    HW1 1475   0.210   5.404   0.757
  192SOL    HW2 1476   0.333   5.331   0.837
  193SOL     OW 1477   3.012   5.023   6.159
  193SOL    HW1 1478   3.000   4.948   6.225
  193SOL    HW2 1479   2.923   5.045   6.118
  194SOL     OW 1480   3.959   7.004   2.215
  194SOL    HW1 1481   4.038   6.961   2.257
  194SOL    HW2 1482   3.883   7.005   2.280
  195SOL     OW 1483   3.132   0.742   1.284
  195SOL    HW1 1484   3.130   0.841   1.301
  195SOL    HW2 1485   3.038   0.708   1.277
  196SOL     OW 1486   1.971   0.774   6.809
  196SOL    HW1 1487   1.944   0.684   6.774
  196SOL    HW2 1488   2.044   0.812   6.751
  197SOL     OW 1489   2.615   5.398   0.258
  197SOL    HW1 1490   2.701   5.351   0.281
  197SOL    HW2 1491   2.588   5.458   0.333
  198SOL     OW 1492   3.937   6.574   6.977
  198SOL    HW1 1493   3.926   6.534   6.886
  198SOL    HW2 1494   3.963   6.670   6.968
  199SOL     OW 1495   5.786   6.890   2.959
  199SOL    HW1 1496   5.838   6.899   2.875
  199SOL    HW2 1497   5.688   6.889   2.938
  200SOL     OW 1498   0.621   3.706   3.304
  200SOL    HW1 1499   0.579   3.773   3.244
  200SOL    HW2 1500   0.671   3.639   3.250
  201SOL     OW 1501   2.857   0.768   0.105
  201SOL    HW1 1502   2.905   0.833   0.046
  201SOL    HW2 1503   2.842   0.682   0.055
  202SOL     OW 1504   3.835   6.938   3.518
  202SOL    HW1 1505   3.861   6.845   3.546
  202SOL    HW2 1506   3.765   6.973   3.580
  203SOL     OW 1507   5.200   3.760   6.431
  203SOL    HW1 1508   5.222   3.696   6.505
  203SOL    HW2 1509   5.245   3.731   6.347
  204SOL     OW 1510   1.682   7.019   0.449
  204SOL    HW1 1511   1.734   7.013   0.364
  204SOL    HW2 1512   1.701   0.081   0.495
  205SOL     OW 1513   5.686   1.774   1.086
  205SOL    HW1 1514   5.694   1.711   1.164
  205SOL    HW2 1515   5.611   1.838   1.102
  206SOL     OW 1516   0.448   4.689   1.617
  206SOL    HW1 1517   0.541   4.676   1.581
  206SOL    HW2 1518   0.443   4.777   1.665
  207SOL     OW 1519   4.519   0.616   5.885
  207SOL    HW1 1520   4.472   0.578   5.965
  207SOL    HW2 1521   4.595   0.673   5.915
  208SOL     OW 1522   4.920   5.297   6.036
  208SOL    HW1 1523   4.849   5.249   5.983
  208SOL    HW2 1524   4.963   5.232   6.100
  209SOL     OW 1525   6.707   6.003   5.790
  209SOL    HW1 1526   6.642   6.003   5.714
  209SOL    HW2 1527   6.777   5.933   5.775
  210SOL     OW 1528   3.893   1.957   1.577
  210SOL    HW1 1529   3.952   1.980   1.500
  210SOL    HW2 1530   3.868   1.860   1.572
  211SOL     OW 1531   0.737   1.492   1.249
  211SOL    HW1 1532   0.712   1.579   1.208
  211SOL    HW2 1533   0.700   1.417   1.193
  212SOL     OW 1534   0.870   5.033   3.306
  212SOL    HW1 1535   0.965   5.018   3.332
  212SOL    HW2 1536   0.815   5.043   3.389
  213SOL     OW 1537   4.930   2.019   0.211
  213SOL    HW1 1538   4.909   1.921   0.215
  213SOL    HW2 1539   4.990   2.043   0.287
  214SOL     OW 1540   0.942   6.448   2.165
  214SOL    HW1 1541   0.910   6.467   2.073
  214SOL    HW2 1542   0.955   6.534   2.215
  215SOL     OW 1543   3.722   3.121   2.425
  215SOL    HW1 1544   3.676   3.033   2.432
  215SOL    HW2 1545   3.729   3.148   2.329
  216SOL     OW 1546   1.419   0.183   5.162
  216SOL    HW1 1547   1.371   0.216   5.080
  216SOL    HW2 1548   1.512   0.156   5.138
  217SOL     OW 1549   1.474   2.800   4.051
  217SOL    HW1 1550   1.436   2.723   4.001
  217SOL    HW2 1551   1.401   2.847   4.101
  218SOL     OW 1552   1.230   2.793   5.225
  218SOL    HW1 1553   1.204   2.717   5.166
  218SOL    HW2 1554   1.258   2.871   5.168
  219SOL     OW 1555   4.327   4.600   0.270
  219SOL    HW1 1556   4.289   4.509   0.258
  219SOL    HW2 1557   4.344   4.616   0.367
  220SOL     OW 1558   2.955   5.233   0.058
  220SOL    HW1 1559   2.889   5.297   0.020
  220SOL    HW2 1560   2.942   5.143   0.015
  221SOL     OW 1561   5.533   3.435   3.932
  221SOL    HW1 1562   5.476   3.501   3.981
  221SOL    HW2 1563   5.604   3.400   3.993
  222SOL     OW 1564   0.790   6.006   5.665
  222SOL    HW1 1565   0.807   5.916   5.626
  222SOL    HW2 1566   0.748   5.996   5.755
  223SOL     OW 1567   0.165   3.207   2.276
  223SOL    HW1 1568   0.207   3.142   2.212
  223SOL    HW2 1569   0.070   3.179   2.295
  224SOL     OW 1570   2.668   2.302   2.303
  224SOL    HW1 1571   2.752   2.275   2.256
  224SOL    HW2 1572   2.636   2.389   2.266
  225SOL     OW 1573   5.782   0.816   6.952
  225SOL    HW1 1574   5.724   0.837   6.873
  225SOL    HW2 1575   5.878   0.817   6.924
  226SOL     OW 1576   0.955   5.853   0.317
  226SOL    HW1 1577   0.999   5.929   0.269
  226SOL    HW2 1578   0.856   5.860   0.308
  227SOL     OW 1579   1.963   3.846   3.734
  227SOL    HW1 1580   1.954   3.876   3.829
  227SOL    HW2 1581   1.892   3.889   3.679
  228SOL     OW 1582   4.092   6.456   3.871
  228SOL    HW1 1583   4.122   6.537   3.922
  228SOL    HW2 1584   4.094   6.476   3.773
  229SOL     OW 1585   5.917   5.807   1.848
  229SOL    HW1 1586   5.991   5.836   1.909
  229SOL    HW2 1587   5.868   5.730   1.890
  230SOL     OW 1588   2.290   4.274   4.878
  230SOL    HW1 1589   2.222   4.250   4.808
  230SOL    HW2 1590   2.306   4.195   4.938
  231SOL     OW 1591   0.030   3.529   6.508
  231SOL    HW1 1592   6.982   3.528   6.577
  231SOL    HW2 1593   0.050   3.435   6.479
  232SOL     OW 1594   1.122   3.707   0.019
  232SOL    HW1 1595   1.025   3.723   0.001
  232SOL    HW2 1596   1.136   3.612   0.045
  233SOL     OW 1597   2.256   1.215   5.684
  233SOL    HW1 1598   2.301   1.162   5.612
  233SOL    HW2 1599   2.157   1.214   5.669
  234SOL     OW 1600   2.768   4.791   6.864
  234SOL    HW1 1601   2.796   4.719   6.928
  234SOL    HW2 1602   2.849   4.836   6.827
  235SOL     OW 1603   2.845   3.542   4.129
  235SOL    HW1 1604   2.880   3.635   4.130
  235SOL    HW2 1605   2.745   3.544   4.117
  236SOL     OW 1606   6.640   2.907   5.515
  236SOL    HW1 1607   6.713   2.903   5.446
  236SOL    HW2 1608   6.598   2.817   5.525
  237SOL     OW 1609   0.352   0.037   1.336
  237SOL    HW1 1610   0.450   0.053   1.347
  237SOL    HW2 1611   0.338   6.972   1.292
  238SOL     OW 1612   5.697   3.617   2.257
  238SOL    HW1 1613   5.758   3.540   2.238
  238SOL    HW2 1614   5.718   3.692   2.194
  239SOL     OW 1615   6.693   5.934   6.521
  239SOL    HW1 1616   6.750   5.977   6.592
  239SOL    HW2 1617   6.752   5.882   6.459
  240SOL     OW 1618   0.402   4.315   6.216
  240SOL    HW1 1619   0.480   4.368   6.183
  240SOL    HW2 1620   0.427   4.219   6.224
  241SOL     OW 1621   0.528   0.812   3.525
  241SOL    HW1 1622   0.544   0.911   3.527
  241SOL    HW2 1623   0.483   0.784   3.610
  242SOL     OW 1624   1.341   3.698   4.970
  242SOL    HW1 1625   1.369   3.734   5.059
  242SOL    HW2 1626   1.281   3.764   4.925
  243SOL     OW 1627   5.791   0.047   5.444
  243SOL    HW1 1628   5.776   7.009   5.367
  243SOL    HW2 1629   5.709   0.052   5.500
  244SOL     OW 1630   5.406   1.952   5.051
  244SOL    HW1 1631   5.378   1.968   5.145
  244SOL    HW2 1632   5.368   1.865   5.019
  245SOL     OW 1633   6.519   2.831   4.631
  245SOL    HW1 1634   6.518   2.758   4.563
  245SOL    HW2 1635   6.428   2.871   4.640
  246SOL     OW 1636   4.945   3.598   3.665
  246SOL    HW1 1637   4.899   3.660   3.602
  246SOL    HW2 1638   5.044   3.605   3.651
  247SOL     OW 1639   1.779   1.571   3.952
  247SOL    HW1 1640   1.825   1.514   4.020
  247SOL    HW2 1641   1.699   1.614   3.993
  248SOL     OW 1642   5.051   2.094   3.801
  248SOL    HW1 1643   4.968   2.119   3.751
  248SOL    HW2 1644   5.123   2.068   3.737
  249SOL     OW 1645   3.207   6.565   4.419
  249SOL    HW1 1646   3.231   6.548   4.323
  249SOL    HW2 1647   3.197   6.478   4.466
  250SOL     OW 1648   5.244   3.482   5.261
  250SOL    HW1 1649   5.181   3.556   5.239
  250SOL    HW2 1650   5.293   3.504   5.346
  251SOL     OW 1651   4.271   2.927   6.432
  251SOL    HW1 1652   4.322   2.867   6.494
  251SOL    HW2 1653   4.187   2.881   6.404
  252SOL     OW 1654   6.683   0.893   5.969
  252SOL    HW1 1655   6.660   0.796   5.959
  252SOL    HW2 1656   6.715   0.910   6.062
  253SOL     OW 1657   2.672   2.946   0.306
  253SOL    HW1 1658   2.771   2.936   0.312
  253SOL    HW2 1659   2.649   3.044   0.304
  254SOL     OW 1660   6.305   3.344   4.750
  254SOL    HW1 1661   6.275   3.438   4.732
  254SOL    HW2 1662   6.237   3.297   4.805
  255SOL     OW 1663   2.872   2.269   3.522
  255SOL    HW1 1664   2.793   2.329   3.508
  255SOL    HW2 1665   2.898   2.270   3.619
  256SOL     OW 1666   6.326   5.328   0.065
  256SOL    HW1 1667   6.228   5.328   0.084
  256SOL    HW2 1668   6.350   5.412   0.016
  257SOL     OW 1669   3.035   5.690   6.356
  257SOL    HW1 1670   3.018   5.736   6.443
  257SOL    HW2 1671   3.042   5.592   6.371
  258SOL     OW 1672   5.923   4.341   3.940
  258SOL    HW1 1673   5.874   4.263   3.900
  258SOL    HW2 1674   5.983   4.308   4.012
  259SOL     OW 1675   1.403   2.377   2.867
  259SOL    HW1 1676   1.436   2.334   2.783
  259SOL    HW2 1677   1.405   2.477   2.856
  260SOL     OW 1678   5.714   0.237   6.082
  260SOL    HW1 1679   5.636   0.299   6.094
  260SOL    HW2 1680   5.795   0.277   6.125
  261SOL     OW 1681   0.920   4.004   2.106
  261SOL    HW1 1682   0.868   3.968   2.028
  261SOL    HW2 1683   0.895   4.100   2.122
  262SOL     OW 1684   0.844   3.585   1.835
  262SOL    HW1 1685   0.747   3.598   1.815
  262SOL    HW2 1686   0.880   3.511   1.779
  263SOL     OW 1687   0.600   1.644   5.121
  263SOL    HW1 1688   0.523   1.678   5.066
  263SOL    HW2 1689   0.594   1.545   5.129
  264SOL     OW 1690   1.967   4.632   6.265
  264SOL    HW1 1691   1.902   4.581   6.208
  264SOL    HW2 1692   1.918   4.684   6.334
  265SOL     OW 1693   5.610   4.354   4.170
  265SOL    HW1 1694   5.525   4.307   4.147
  265SOL    HW2 1695   5.622   4.432   4.109
  266SOL     OW 1696   4.340   1.448   0.594
  266SOL    HW1 1697   4.313   1.382   0.524
  266SOL    HW2 1698   4.408   1.511   0.556
  267SOL     OW 1699   1.361   2.051   6.177
  267SOL    HW1 1700   1.409   2.138   6.189
  267SOL    HW2 1701   1.292   2.041   6.249
  268SOL     OW 1702   4.213   4.724   4.473
  268SOL    HW1 1703   4.257   4.750   4.559
  268SOL    HW2 1704   4.120   4.692   4.491
  269SOL     OW 1705   0.747   2.238   6.306
  269SOL    HW1 1706   0.672   2.183   6.342
  269SOL    HW2 1707   0.727   2.335   6.318
  270SOL     OW 1708   4.778   1.016   2.191
  270SOL    HW1 1709   4.842   1.081   2.233
  270SOL    HW2 1710   4.684   1.048   2.207
  271SOL     OW 1711   1.793   0.547   0.156
  271SOL    HW1 1712   1.728   0.499   0.215
  271SOL    HW2 1713   1.745   0.587   0.078
  272SOL     OW 1714   3.625   5.353   3.323
  272SOL    HW1 1715   3.628   5.410   3.405
  272SOL    HW2 1716   3.666   5.264   3.343
  273SOL     OW 1717   2.147   6.059   5.326
  273SOL    HW1 1718   2.242   6.038   5.300
  273SOL    HW2 1719   2.138   6.158   5.338
  274SOL     OW 1720   6.186   2.857   2.878
  274SOL    HW1 1721   6.091   2.830   2.893
  274SOL    HW2 1722   6.217   2.819   2.791
  275SOL     OW 1723   6.611   6.461   5.528
  275SOL    HW1 1724   6.651   6.381   5.572
  275SOL    HW2 1725   6.681   6.507   5.472
  276SOL     OW 1726   6.523   6.145   3.806
  276SOL    HW1 1727   6.433   6.179   3.778
  276SOL    HW2 1728   6.590   6.169   3.736
  277SOL     OW 1729   4.120   1.659   5.521
  277SOL    HW1 1730   4.204   1.608   5.534
  277SOL    HW2 1731   4.141   1.752   5.493
  278SOL     OW 1732   5.719   3.820   2.465
  278SOL    HW1 1733   5.708   3.776   2.376
  278SOL    HW2 1734   5.681   3.761   2.536
  279SOL     OW 1735   0.276   2.897   3.575
  279SOL    HW1 1736   0.358   2.845   3.598
  279SOL    HW2 1737   0.239   2.864   3.488
  280SOL     OW 1738   4.300   0.384   4.633
  280SOL    HW1 1739   4.259   0.300   4.670
  280SOL    HW2 1740   4.232   0.433   4.578
  281SOL     OW 1741   5.169   6.316   3.982
  281SOL    HW1 1742   5.130   6.400   3.944
  281SOL    HW2 1743   5.110   6.283   4.056
  282SOL     OW 1744   4.411   2.069   6.518
  282SOL    HW1 1745   4.356   2.123   6.582
  282SOL    HW2 1746   4.392   1.972   6.531
  283SOL     OW 1747   6.479   1.080   4.902
  283SOL    HW1 1748   6.507   1.044   4.814
  283SOL    HW2 1749   6.493   1.179   4.904
  284SOL     OW 1750   6.322   5.377   4.389
  284SOL    HW1 1751   6.263   5.448   4.349
  284SOL    HW2 1752   6.339   5.398   4.485
  285SOL     OW 1753   4.073   0.506   6.914
  285SOL    HW1 1754   4.042   0.411   6.925
  285SOL    HW2 1755   4.139   0.510   6.839
  286SOL     OW 1756   3.885   4.907   4.431
  286SOL    HW1 1757   3.792   4.879   4.457
  286SOL    HW2 1758   3.922   4.968   4.500
  287SOL     OW 1759   2.882   6.196   5.745
  287SOL    HW1 1760   2.976   6.218   5.722
  287SOL    HW2 1761   2.827   6.279   5.747
  288SOL     OW 1762   3.566   1.289   0.290
  288SOL    HW1 1763   3.612   1.365   0.244
  288SOL    HW2 1764   3.530   1.225   0.222
  289SOL     OW 1765   0.592   6.127   3.976
  289SOL    HW1 1766   0.627   6.216   3.946
  289SOL    HW2 1767   0.540   6.139   4.061
  290SOL     OW 1768   3.860   0.759   4.239
  290SOL    HW1 1769   3.930   0.793   4.175
  290SOL    HW2 1770   3.799   0.697   4.191
  291SOL     OW 1771   4.600   0.500   4.473
  291SOL    HW1 1772   4.502   0.480   4.480
  291SOL    HW2 1773   4.651   0.414   4.470
  292SOL     OW 1774   3.637   0.123   3.612
  292SOL    HW1 1775   3.606   0.133   3.707
  292SOL    HW2 1776   3.643   0.213   3.569
  293SOL     OW 1777   5.879   0.027   3.308
  293SOL    HW1 1778   5.897   6.972   3.366
  293SOL    HW2 1779   5.962   0.051   3.258
  294SOL     OW 1780   5.852   1.201   5.834
  294SOL    HW1 1781   5.886   1.107   5.837
  294SOL    HW2 1782   5.797   1.215   5.752
  295SOL     OW 1783   1.028   1.718   5.240
  295SOL    HW1 1784   1.067   1.807   5.263
  295SOL    HW2 1785   0.970   1.727   5.159
  296SOL     OW 1786   6.767   1.471   1.538
  296SOL    HW1 1787   6.818   1.554   1.560
  296SOL    HW2 1788   6.811   1.392   1.579
  297SOL     OW 1789   5.611   4.132   3.478
  297SOL    HW1 1790   5.564   4.076   3.546
  297SOL    HW2 1791   5.704   4.098   3.465
  298SOL     OW 1792   4.122   0.738   0.458
  298SOL    HW1 1793   4.129   0.662   0.393
  298SOL    HW2 1794   4.037   0.787   0.443
  299SOL     OW 1795   2.835   1.387   6.686
  299SOL    HW1 1796   2.905   1.401   6.617
  299SOL    HW2 1797   2.759   1.336   6.646
  300SOL     OW 1798   3.671   1.129   3.115
  300SOL    HW1 1799   3.665   1.106   3.018
  300SOL    HW2 1800   3.739   1.200   3.129
  301SOL     OW 1801   6.224   6.022   1.533
  301SOL    HW1 1802   6.228   6.000   1.435
  301SOL    HW2 1803   6.128   6.029   1.561
  302SOL     OW 1804   6.563   6.227   1.536
  302SOL    HW1 1805   6.490   6.188   1.593
  302SOL    HW2 1806   6.642   6.248   1.594
  303SOL     OW 1807   6.427   6.007   2.612
  303SOL    HW1 1808   6.445   6.041   2.705
  303SOL    HW2 1809   6.350   5.943   2.615
  304SOL     OW 1810   1.352   7.015   5.365
  304SOL    HW1 1811   1.266   6.984   5.406
  304SOL    HW2 1812   1.333   0.041   5.281
  305SOL     OW 1813   1.934   2.499   2.013
  305SOL    HW1 1814   2.012   2.438   2.031
  305SOL    HW2 1815   1.851   2.444   2.004
  306SOL     OW 1816   6.126   0.963   3.254
  306SOL    HW1 1817   6.103   1.060   3.260
  306SOL    HW2 1818   6.189   0.948   3.179
  307SOL     OW 1819   3.244   3.269   2.140
  307SOL    HW1 1820   3.320   3.243   2.081
  307SOL    HW2 1821   3.164   3.213   2.118
  308SOL     OW 1822   5.624   1.660   4.117
  308SOL    HW1 1823   5.688   1.585   4.102
  308SOL    HW2 1824   5.578   1.648   4.205
  309SOL     OW 1825   0.897   6.542   6.512
  309SOL    HW1 1826   0.911   6.554   6.610
  309SOL    HW2 1827   0.954   6.467   6.479
  310SOL     OW 1828   5.077   5.366   4.764
  310SOL    HW1 1829   5.025   5.297   4.815
  310SOL    HW2 1830   5.022   5.449   4.756
  311SOL     OW 1831   1.703   5.396   2.752
  311SOL    HW1 1832   1.776   5.463   2.766
  311SOL    HW2 1833   1.657   5.378   2.839
  312SOL     OW 1834   4.450   2.442   3.233
  312SOL    HW1 1835   4.454   2.527   3.286
  312SOL    HW2 1836   4.526   2.383   3.258
  313SOL     OW 1837   3.655   3.525   2.942
  313SOL    HW1 1838   3.630   3.434   2.977
  313SOL    HW2 1839   3.681   3.584   3.019
  314SOL     OW 1840   1.875   6.606   5.097
  314SOL    HW1 1841   1.939   6.675   5.133
  314SOL    HW2 1842   1.857   6.538   5.168
  315SOL     OW 1843   6.479   1.203   3.603
  315SOL    HW1 1844   6.579   1.196   3.597
  315SOL    HW2 1845   6.437   1.148   3.532
  316SOL     OW 1846   3.837   1.522   5.037
  316SOL    HW1 1847   3.915   1.567   5.081
  316SOL    HW2 1848   3.843   1.423   5.051
  317SOL     OW 1849   1.378   1.206   1.636
  317SOL    HW1 1850   1.460   1.260   1.652
  317SOL    HW2 1851   1.360   1.199   1.538
  318SOL     OW 1852   0.016   0.685   5.450
  318SOL    HW1 1853   0.054   0.600   5.414
  318SOL    HW2 1854   0.053   0.702   5.542
  319SOL     OW 1855   1.231   1.947   2.360
  319SOL    HW1 1856   1.311   2.006   2.369
  319SOL    HW2 1857   1.178   1.949   2.445
  320SOL     OW 1858   5.788   2.044   6.908
  320SOL    HW1 1859   5.847   2.124   6.918
  320SOL    HW2 1860   5.692   2.071   6.918
  321SOL     OW 1861   4.078   3.065   0.770
  321SOL    HW1 1862   4.038   3.037   0.683
  321SOL    HW2 1863   4.167   3.022   0.781
  322SOL     OW 1864   4.628   3.325   6.713
  322SOL    HW1 1865   4.721   3.291   6.723
  322SOL    HW2 1866   4.629   3.424   6.701
  323SOL     OW 1867   0.410   3.144   3.723
  323SOL    HW1 1868   0.353   3.199   3.784
  323SOL    HW2 1869   0.383   3.160   3.628
  324SOL     OW 1870   1.424   0.471   2.928
  324SOL    HW1 1871   1.395   0.561   2.960
  324SOL    HW2 1872   1.502   0.440   2.982
  325SOL     OW 1873   0.781   3.546   2.363
  325SOL    HW1 1874   0.836   3.520   2.442
  325SOL    HW2 1875   0.710   3.611   2.391
  326SOL     OW 1876   2.088   6.055   6.516
  326SOL    HW1 1877   2.166   6.085   6.461
  326SOL    HW2 1878   2.034   5.990   6.464
  327SOL     OW 1879   3.945   5.341   3.312
  327SOL    HW1 1880   3.862   5.285   3.309
  327SOL    HW2 1881   3.925   5.432   3.277
  328SOL     OW 1882   2.407   4.543   2.003
  328SOL    HW1 1883   2.436   4.465   2.059
  328SOL    HW2 1884   2.340   4.597   2.054
  329SOL     OW 1885   3.047   3.958   1.714
  329SOL    HW1 1886   3.005   4.048   1.726
  329SOL    HW2 1887   3.123   3.964   1.649
  330SOL     OW 1888   4.172   4.800   0.150
  330SOL    HW1 1889   4.106   4.726   0.145
  330SOL    HW2 1890   4.265   4.763   0.149
  331SOL     OW 1891   4.808   5.472   0.815
  331SOL    HW1 1892   4.881   5.506   0.874
  331SOL    HW2 1893   4.755   5.403   0.863
  332SOL     OW 1894   5.528   2.231   3.128
  332SOL    HW1 1895   5.541   2.302   3.059
  332SOL    HW2 1896   5.465   2.162   3.093
  333SOL     OW 1897   3.652   0.951   5.440
  333SOL    HW1 1898   3.680   0.944   5.536
  333SOL    HW2 1899   3.591   1.030   5.429
  334SOL     OW 1900   4.141   3.393   3.163
  334SOL    HW1 1901   4.064   3.455   3.168
  334SOL    HW2 1902   4.112   3.308   3.118
  335SOL     OW 1903   3.756   0.002   6.678
  335SOL    HW1 1904   3.687   6.988   6.617
  335SOL    HW2 1905   3.796   6.955   6.735
  336SOL     OW 1906   2.151   1.827   3.612
  336SOL    HW1 1907   2.154   1.926   3.604
  336SOL    HW2 1908   2.133   1.787   3.522
  337SOL     OW 1909   1.545   1.801   6.151
  337SOL    HW1 1910   1.602   1.840   6.078
  337SOL    HW2 1911   1.452   1.838   6.143
  338SOL     OW 1912   4.511   2.765   1.314
  338SOL    HW1 1913   4.442   2.749   1.244
  338SOL    HW2 1914   4.502   2.696   1.386
  339SOL     OW 1915   3.986   5.002   4.664
  339SOL    HW1 1916   4.083   4.979   4.659
  339SOL    HW2 1917   3.966   5.045   4.752
  340SOL     OW 1918   4.768   2.244   4.712
  340SOL    HW1 1919   4.688   2.230   4.770
  340SOL    HW2 1920   4.775   2.170   4.645
  341SOL     OW 1921   5.601   6.519   3.808
  341SOL    HW1 1922   5.522   6.458   3.799
  341SOL    HW2 1923   5.652   6.495   3.890
  342SOL     OW 1924   5.006   3.159   0.945
  342SOL    HW1 1925   4.955   3.073   0.938
  342SOL    HW2 1926   4.943   3.236   0.936
  343SOL     OW 1927   1.255   5.527   3.053
  343SOL    HW1 1928   1.174   5.497   3.102
  343SOL    HW2 1929   1.302   5.448   3.014
  344SOL     OW 1930   1.523   1.265   1.334
  344SOL    HW1 1931   1.540   1.169   1.310
  344SOL    HW2 1932   1.598   1.298   1.392
  345SOL     OW 1933   6.535   2.125   4.427
  345SOL    HW1 1934   6.626   2.098   4.459
  345SOL    HW2 1935   6.522   2.092   4.333
  346SOL     OW 1936   1.735   0.287   2.739
  346SOL    HW1 1937   1.765   0.220   2.671
  346SOL    HW2 1938   1.680   0.242   2.809
  347SOL     OW 1939   2.983   5.578   0.500
  347SOL    HW1 1940   3.066   5.584   0.556
  347SOL    HW2 1941   3.007   5.553   0.407
  348SOL     OW 1942   5.104   5.441   2.229
  348SOL    HW1 1943   5.116   5.457   2.327
  348SOL    HW2 1944   5.054   5.355   2.216
  349SOL     OW 1945   6.977   4.146   1.280
  349SOL    HW1 1946   6.998   4.097   1.195
  349SOL    HW2 1947   6.910   4.218   1.261
  350SOL     OW 1948   3.950   3.182   0.305
  350SOL    HW1 1949   4.014   3.224   0.240
  350SOL    HW2 1950   3.887   3.251   0.340
  351SOL     OW 1951   3.394   4.022   0.397
  351SOL    HW1 1952   3.353   3.931   0.403
  351SOL    HW2 1953   3.419   4.053   0.489
  352SOL     OW 1954   4.531   5.660   3.667
  352SOL    HW1 1955   4.602   5.691   3.604
  352SOL    HW2 1956   4.572   5.637   3.755
  353SOL     OW 1957   2.524   6.996   6.019
  353SOL    HW1 1958   2.549   6.902   6.041
  353SOL    HW2 1959   2.437   7.019   6.062
  354SOL     OW 1960   5.710   2.571   1.111
  354SOL    HW1 1961   5.788   2.608   1.161
  354SOL    HW2 1962   5.710   2.471   1.118
  355SOL     OW 1963   1.473   2.904   2.318
  355SOL    HW1 1964   1.424   2.896   2.405
  355SOL    HW2 1965   1.412   2.881   2.243
  356SOL     OW 1966   1.789   0.220   5.327
  356SOL    HW1 1967   1.747   0.212   5.417
  356SOL    HW2 1968   1.719   0.205   5.257
  357SOL     OW 1969   5.763   0.239   4.607
  357SOL    HW1 1970   5.807   0.279   4.688
  357SOL    HW2 1971   5.800   0.281   4.524
  358SOL     OW 1972   5.157   5.812   0.782
  358SOL    HW1 1973   5.237   5.798   0.724
  358SOL    HW2 1974   5.082   5.848   0.727
  359SOL     OW 1975   3.100   1.679   2.214
  359SOL    HW1 1976   3.110   1.717   2.306
  359SOL    HW2 1977   3.029   1.729   2.165
  360SOL     OW 1978   1.063   5.192   4.367
  360SOL    HW1 1979   1.074   5.154   4.275
  360SOL    HW2 1980   1.152   5.218   4.403
  361SOL     OW 1981   6.456   5.960   3.262
  361SOL    HW1 1982   6.454   6.055   3.231
  361SOL    HW2 1983   6.363   5.925   3.268
  362SOL     OW 1984   4.060   4.270   0.606
  362SOL    HW1 1985   4.021   4.185   0.644
  362SOL    HW2 1986   3.992   4.314   0.547
  363SOL     OW 1987   6.529   5.057   2.569
  363SOL    HW1 1988   6.498   4.975   2.521
  363SOL    HW2 1989   6.475   5.069   2.652
  364SOL     OW 1990   0.589   5.130   6.488
  364SOL    HW1 1991   0.685   5.115   6.463
  364SOL    HW2 1992   0.532   5.125   6.406
  365SOL     OW 1993   3.495   0.847   2.060
  365SOL    HW1 1994   3.497   0.757   2.016
  365SOL    HW2 1995   3.447   0.840   2.147
  366SOL     OW 1996   6.078   3.416   6.862
  366SOL    HW1 1997   6.006   3.467   6.910
  366SOL    HW2 1998   6.165   3.464   6.872
  367SOL     OW 1999   5.074   2.285   5.549
  367SOL    HW1 2000   4.985   2.330   5.540
  367SOL    HW2 2001   5.061   2.190   5.576
  368SOL     OW 2002   6.689   1.914   6.137
  368SOL    HW1 2003   6.661   1.949   6.227
  368SOL    HW2 2004   6.756   1.977   6.097
  369SOL     OW 2005   5.843   4.219   3.117
  369SOL    HW1 2006   5.770   4.288   3.123
  369SOL    HW2 2007   5.814   4.145   3.056
  370SOL     OW 2008   1.836   2.928   4.154
  370SOL    HW1 2009   1.767   2.890   4.216
  370SOL    HW2 2010   1.809   3.021   4.128
  371SOL     OW 2011   1.615   4.129   6.898
  371SOL    HW1 2012   1.658   4.075   6.970
  371SOL    HW2 2013   1.650   4.100   6.809
  372SOL     OW 2014   2.092   6.803   4.866
  372SOL    HW1 2015   2.169   6.760   4.821
  372SOL    HW2 2016   2.107   6.805   4.965
  373SOL     OW 2017   5.760   6.474   5.096
  373SOL    HW1 2018   5.703   6.530   5.035
  373SOL    HW2 2019   5.810   6.533   5.158
  374SOL     OW 2020   2.258   1.703   2.688
  374SOL    HW1 2021   2.270   1.767   2.612
  374SOL    HW2 2022   2.195   1.630   2.661
  375SOL     OW 2023   0.415   5.495   5.271
  375SOL    HW1 2024   0.479   5.435   5.223
  375SOL    HW2 2025   0.375   5.446   5.349
  376SOL     OW 2026   2.846   1.148   4.167
  376SOL    HW1 2027   2.764   1.193   4.132
  376SOL    HW2 2028   2.891   1.207   4.235
  377SOL     OW 2029   1.394   2.500   0.284
  377SOL    HW1 2030   1.426   2.432   0.219
  377SOL    HW2 2031   1.344   2.572   0.235
  378SOL     OW 2032   2.980   1.582   0.057
  378SOL    HW1 2033   2.961   1.625   6.994
  378SOL    HW2 2034   3.007   1.652   0.123
  379SOL     OW 2035   5.798   2.329   6.468
  379SOL    HW1 2036   5.838   2.347   6.378
  379SOL    HW2 2037   5.698   2.328   6.461
  380SOL     OW 2038   3.116   1.009   1.346
  380SOL    HW1 2039   3.020   1.007   1.377
  380SOL    HW2 2040   3.156   1.098   1.368
  381SOL     OW 2041   1.443   4.823   4.371
  381SOL    HW1 2042   1.439   4.870   4.284
  381SOL    HW2 2043   1.406   4.731   4.362
  382SOL     OW 2044   6.227   0.296   0.549
  382SOL    HW1 2045   6.171   0.230   0.499
  382SOL    HW2 2046   6.176   0.381   0.561
  383SOL     OW 2047   4.013   2.787   0.992
  383SOL    HW1 2048   4.030   2.765   0.896
  383SOL    HW2 2049   4.076   2.859   1.021
  384SOL     OW 2050   0.314   3.803   4.115
  384SOL    HW1 2051   0.239   3.737   4.118
  384SOL    HW2 2052   0.339   3.829   4.209
  385SOL     OW 2053   3.908   5.245   6.262
  385SOL    HW1 2054   3.941   5.333   6.297
  385SOL    HW2 2055   3.894   5.251   6.164
  386SOL     OW 2056   4.229   0.441   4.075
  386SOL    HW1 2057   4.213   0.510   4.146
  386SOL    HW2 2058   4.144   0.426   4.024
  387SOL     OW 2059   2.054   5.363   2.983
  387SOL    HW1 2060   2.104   5.304   3.046
  387SOL    HW2 2061   1.961   5.377   3.017
  388SOL     OW 2062   2.222   2.094   6.583
  388SOL    HW1 2063   2.133   2.066   6.619
  388SOL    HW2 2064   2.248   2.181   6.625
  389SOL     OW 2065   3.540   3.918   3.102
  389SOL    HW1 2066   3.449   3.876   3.101
  389SOL    HW2 2067   3.608   3.850   3.126
  390SOL     OW 2068   2.360   0.977   4.057
  390SOL    HW1 2069   2.294   1.051   4.044
  390SOL    HW2 2070   2.375   0.929   3.971
  391SOL     OW 2071   1.573   3.207   6.828
  391SOL    HW1 2072   1.551   3.189   6.924
  391SOL    HW2 2073   1.671   3.224   6.819
  392SOL     OW 2074   2.063   5.230   1.452
  392SOL    HW1 2075   2.049   5.273   1.363
  392SOL    HW2 2076   2.002   5.272   1.519
  393SOL     OW 2077   6.357   4.621   5.183
  393SOL    HW1 2078   6.387   4.605   5.277
  393SOL    HW2 2079   6.278   4.682   5.183
  394SOL     OW 2080   0.570   7.021   0.544
  394SOL    HW1 2081   0.580   0.053   0.626
  394SOL    HW2 2082   0.481   0.015   0.502
  395SOL     OW 2083   4.946   3.765   2.286
  395SOL    HW1 2084   4.919   3.811   2.202
  395SOL    HW2 2085   4.934   3.666   2.275
  396SOL     OW 2086   3.746   3.990   2.802
  396SOL    HW1 2087   3.721   4.042   2.884
  396SOL    HW2 2088   3.797   3.909   2.829
  397SOL     OW 2089   4.130   2.990   5.803
  397SOL    HW1 2090   4.147   2.909   5.748
  397SOL    HW2 2091   4.034   3.017   5.795
  398SOL     OW 2092   1.010   5.572   2.137
  398SOL    HW1 2093   0.970   5.480   2.136
  398SOL    HW2 2094   1.035   5.596   2.231
  399SOL     OW 2095   5.287   5.782   2.524
  399SOL    HW1 2096   5.258   5.854   2.587
  399SOL    HW2 2097   5.380   5.800   2.492
  400SOL     OW 2098   0.091   0.282   5.851
  400SOL    HW1 2099   0.130   0.211   5.910
  400SOL    HW2 2100   0.087   0.369   5.900
  401SOL     OW 2101   5.022   0.473   6.524
  401SOL    HW1 2102   5.116   0.444   6.539
  401SOL    HW2 2103   5.015   0.572   6.538
  402SOL     OW 2104   6.345   6.672   3.221
  402SOL    HW1 2105   6.371   6.742   3.154
  402SOL    HW2 2106   6.264   6.624   3.189
  403SOL     OW 2107   4.638   2.321   6.062
  403SOL    HW1 2108   4.548   2.285   6.086
  403SOL    HW2 2109   4.672   2.274   5.980
  404SOL     OW 2110   1.587   0.133   3.358
  404SOL    HW1 2111   1.621   0.050   3.403
  404SOL    HW2 2112   1.487   0.134   3.362
  405SOL     OW 2113   2.033   2.178   1.553
  405SOL    HW1 2114   2.005   2.244   1.483
  405SOL    HW2 2115   2.085   2.104   1.510
  406SOL     OW 2116   1.044   2.914   4.116
  406SOL    HW1 2117   1.011   2.820   4.125
  406SOL    HW2 2118   1.126   2.925   4.173
  407SOL     OW 2119   2.403   0.045   4.033
  407SOL    HW1 2120   2.361   0.132   4.007
  407SOL    HW2 2121   2.458   0.058   4.116
  408SOL     OW 2122   1.510   0.809   3.255
  408SOL    HW1 2123   1.452   0.891   3.255
  408SOL    HW2 2124   1.598   0.830   3.299
  409SOL     OW 2125   5.883   3.296   2.670
  409SOL    HW1 2126   5.842   3.227   2.730
  409SOL    HW2 2127   5.824   3.312   2.591
  410SOL     OW 2128   2.530   0.149   0.182
  410SOL    HW1 2129   2.602   0.122   0.118
  410SOL    HW2 2130   2.448   0.095   0.164
  411SOL     OW 2131   5.975   6.144   6.400
  411SOL    HW1 2132   5.944   6.146   6.305
  411SOL    HW2 2133   5.897   6.134   6.461
  412SOL     OW 2134   3.932   6.906   2.783
  412SOL    HW1 2135   3.956   6.972   2.854
  412SOL    HW2 2136   3.934   6.814   2.822
  413SOL     OW 2137   3.970   4.472   0.994
  413SOL    HW1 2138   4.018   4.415   0.929
  413SOL    HW2 2139   3.893   4.421   1.033
  414SOL     OW 2140   4.567   5.309   2.370
  414SOL    HW1 2141   4.531   5.395   2.406
  414SOL    HW2 2142   4.605   5.325   2.279
  415SOL     OW 2143   1.530   5.879   0.424
  415SOL    HW1 2144   1.464   5.878   0.349
  415SOL    HW2 2145   1.611   5.930   0.395
  416SOL     OW 2146   4.589   5.494   4.935
  416SOL    HW1 2147   4.532   5.427   4.983
  416SOL    HW2 2148   4.534   5.574   4.914
  417SOL     OW 2149   3.098   6.726   0.973
  417SOL    HW1 2150   3.160   6.804   0.972
  417SOL    HW2 2151   3.150   6.643   0.993
  418SOL     OW 2152   4.877   6.431   0.223
  418SOL    HW1 2153   4.935   6.459   0.146
  418SOL    HW2 2154   4.804   6.499   0.235
  419SOL     OW 2155   0.979   0.204   1.174
  419SOL    HW1 2156   0.949   0.110   1.185
  419SOL    HW2 2157   1.061   0.220   1.229
  420SOL     OW 2158   6.302   3.771   1.140
  420SOL    HW1 2159   6.313   3.818   1.228
  420SOL    HW2 2160   6.390   3.734   1.111
  421SOL     OW 2161   0.798   4.967   6.188
  421SOL    HW1 2162   0.894   4.938   6.195
  421SOL    HW2 2163   0.754   4.958   6.277
  422SOL     OW 2164   6.321   5.798   0.743
  422SOL    HW1 2165   6.227   5.824   0.764
  422SOL    HW2 2166   6.370   5.779   0.829
  423SOL     OW 2167   6.366   3.427   6.905
  423SOL    HW1 2168   6.372   3.327   6.910
  423SOL    HW2 2169   6.426   3.468   6.973
  424SOL     OW 2170   3.035   3.382   0.833
  424SOL    HW1 2171   3.049   3.283   0.830
  424SOL    HW2 2172   2.996   3.412   0.746
  425SOL     OW 2173   5.112   1.197   1.894
  425SOL    HW1 2174   5.114   1.175   1.797
  425SOL    HW2 2175   5.019   1.218   1.922
  426SOL     OW 2176   5.984   2.499   5.055
  426SOL    HW1 2177   6.058   2.476   5.117
  426SOL    HW2 2178   5.919   2.423   5.050
  427SOL     OW 2179   5.559   5.140   2.877
  427SOL    HW1 2180   5.467   5.109   2.902
  427SOL    HW2 2181   5.574   5.126   2.779
  428SOL     OW 2182   4.538   0.221   5.218
  428SOL    HW1 2183   4.588   0.222   5.305
  428SOL    HW2 2184   4.563   0.301   5.164
  429SOL     OW 2185   3.041   5.149   0.997
  429SOL    HW1 2186   3.066   5.060   0.959
  429SOL    HW2 2187   2.941   5.153   1.009
  430SOL     OW 2188   0.840   6.644   3.945
  430SOL    HW1 2189   0.800   6.669   3.857
  430SOL    HW2 2190   0.812   6.551   3.969
  431SOL     OW 2191   3.464   1.097   0.105
  431SOL    HW1 2192   3.521   1.052   0.036
  431SOL    HW2 2193   3.375   1.052   0.110
  432SOL     OW 2194   6.669   2.667   0.984
  432SOL    HW1 2195   6.719   2.719   0.915
  432SOL    HW2 2196   6.654   2.573   0.952
  433SOL     OW 2197   2.700   6.836   3.562
  433SOL    HW1 2198   2.735   6.896   3.634
  433SOL    HW2 2199   2.644   6.764   3.603
  434SOL     OW 2200   4.888   5.003   1.673
  434SOL    HW1 2201   4.833   5.001   1.589
  434SOL    HW2 2202   4.827   5.013   1.752
  435SOL     OW 2203   3.734   2.551   5.497
  435SOL    HW1 2204   3.660   2.605   5.457
  435SOL    HW2 2205   3.822   2.586   5.466
  436SOL     OW 2206   2.004   6.608   1.011
  436SOL    HW1 2207   2.068   6.685   1.013
  436SOL    HW2 2208   1.947   6.610   1.093
  437SOL     OW 2209   0.420   6.967   6.605
  437SOL    HW1 2210   0.475   0.021   6.632
  437SOL    HW2 2211   0.374   6.929   6.685
  438SOL     OW 2212   1.248   3.138   1.996
  438SOL    HW1 2213   1.304   3.220   1.985
  438SOL    HW2 2214   1.185   3.151   2.072
  439SOL     OW 2215   6.083   4.003   3.713
  439SOL    HW1 2216   5.997   3.964   3.679
  439SOL    HW2 2217   6.095   4.095   3.675
  440SOL     OW 2218   0.966   2.086   4.680
  440SOL    HW1 2219   1.034   2.048   4.742
  440SOL    HW2 2220   0.955   2.024   4.602
  441SOL     OW 2221   0.705   1.761   3.001
  441SOL    HW1 2222   0.789   1.759   3.056
  441SOL    HW2 2223   0.695   1.850   2.958
  442SOL     OW 2224   1.947   4.833   0.034
  442SOL    HW1 2225   1.876   4.897   0.064
  442SOL    HW2 2226   1.952   4.756   0.097
  443SOL     OW 2227   1.170   4.112   4.757
  443SOL    HW1 2228   1.132   4.130   4.666
  443SOL    HW2 2229   1.234   4.185   4.782
  444SOL     OW 2230   5.312   2.200   6.067
  444SOL    HW1 2231   5.321   2.155   5.978
  444SOL    HW2 2232   5.383   2.168   6.129
  445SOL     OW 2233   1.554   5.479   3.022
  445SOL    HW1 2234   1.548   5.557   2.960
  445SOL    HW2 2235   1.602   5.505   3.106
  446SOL     OW 2236   4.199   4.810   3.334
  446SOL    HW1 2237   4.135   4.818   3.257
  446SOL    HW2 2238   4.264   4.737   3.315
  447SOL     OW 2239   0.377   3.452   6.980
  447SOL    HW1 2240   0.344   3.493   6.895
  447SOL    HW2 2241   0.362   3.353   6.978
  448SOL     OW 2242   3.515   0.435   4.767
  448SOL    HW1 2243   3.577   0.372   4.721
  448SOL    HW2 2244   3.450   0.383   4.823
  449SOL     OW 2245   4.387   1.040   5.216
  449SOL    HW1 2246   4.472   1.090   5.231
  449SOL    HW2 2247   4.371   0.977   5.292
  450SOL     OW 2248   0.768   6.133   3.064
  450SOL    HW1 2249   0.839   6.111   3.132
  450SOL    HW2 2250   0.703   6.198   3.104
  451SOL     OW 2251   1.452   2.274   2.631
  451SOL    HW1 2252   1.429   2.211   2.556
  451SOL    HW2 2253   1.451   2.368   2.596
  452SOL     OW 2254   5.989   5.648   0.605
  452SOL    HW1 2255   5.894   5.671   0.583
  452SOL    HW2 2256   6.021   5.575   0.544
  453SOL     OW 2257   3.016   0.249   5.134
  453SOL    HW1 2258   2.997   0.274   5.039
  453SOL    HW2 2259   2.930   0.247   5.185
  454SOL     OW 2260   0.336   5.300   5.848
  454SOL    HW1 2261   0.278   5.218   5.850
  454SOL    HW2 2262   0.426   5.277   5.885
  455SOL     OW 2263   6.793   0.731   4.141
  455SOL    HW1 2264   6.703   0.761   4.110
  455SOL    HW2 2265   6.823   0.790   4.216
  456SOL     OW 2266   4.338   5.948   4.594
  456SOL    HW1 2267   4.422   5.905   4.561
  456SOL    HW2 2268   4.306   5.899   4.675
  457SOL     OW 2269   2.133   3.681   3.455
  457SOL    HW1 2270   2.145   3.779   3.472
  457SOL    HW2 2271   2.156   3.660   3.360
  458SOL     OW 2272   4.613   5.899   4.614
  458SOL    HW1 2273   4.615   5.909   4.515
  458SOL    HW2 2274   4.630   5.803   4.638
  459SOL     OW 2275   1.270   0.605   4.120
  459SOL    HW1 2276   1.274   0.562   4.210
  459SOL    HW2 2277   1.306   0.541   4.051
  460SOL     OW 2278   1.006   0.953   2.424
  460SOL    HW1 2279   1.080   0.902   2.467
  460SOL    HW2 2280   1.044   1.023   2.364
  461SOL     OW 2281   5.892   6.684   4.789
  461SOL    HW1 2282   5.826   6.706   4.717
  461SOL    HW2 2283   5.911   6.766   4.843
  462SOL     OW 2284   4.430   2.078   5.815
  462SOL    HW1 2285   4.354   2.053   5.754
  462SOL    HW2 2286   4.485   1.997   5.834
  463SOL     OW 2287   6.408   6.289   3.086
  463SOL    HW1 2288   6.379   6.266   3.178
  463SOL    HW2 2289   6.493   6.342   3.090
  464SOL     OW 2290   2.968   2.025   6.191
  464SOL    HW1 2291   2.981   1.987   6.282
  464SOL    HW2 2292   2.941   2.121   6.198
  465SOL     OW 2293   1.336   2.319   4.492
  465SOL    HW1 2294   1.249   2.268   4.491
  465SOL    HW2 2295   1.401   2.275   4.430
  466SOL     OW 2296   1.105   5.795   2.946
  466SOL    HW1 2297   1.126   5.697   2.941
  466SOL    HW2 2298   1.028   5.816   2.886
  467SOL     OW 2299   1.130   0.687   6.334
  467SOL    HW1 2300   1.042   0.663   6.293
  467SOL    HW2 2301   1.130   0.662   6.431
  468SOL     OW 2302   2.742   6.297   0.444
  468SOL    HW1 2303   2.722   6.394   0.429
  468SOL    HW2 2304   2.832   6.288   0.487
  469SOL     OW 2305   2.521   4.551   0.724
  469SOL    HW1 2306   2.619   4.537   0.711
  469SOL    HW2 2307   2.503   4.649   0.737
  470SOL     OW 2308   3.460   0.476   2.270
  470SOL    HW1 2309   3.391   0.448   2.336
  470SOL    HW2 2310   3.532   0.527   2.318
  471SOL     OW 2311   1.705   2.663   4.791
  471SOL    HW1 2312   1.782   2.604   4.814
  471SOL    HW2 2313   1.641   2.667   4.868
  472SOL     OW 2314   4.895   3.905   6.703
  472SOL    HW1 2315   4.938   3.941   6.786
  472SOL    HW2 2316   4.838   3.827   6.727
  473SOL     OW 2317   0.721   3.154   1.555
  473SOL    HW1 2318   0.704   3.233   1.497
  473SOL    HW2 2319   0.749   3.076   1.498
  474SOL     OW 2320   4.581   5.081   3.792
  474SOL    HW1 2321   4.528   5.147   3.740
  474SOL    HW2 2322   4.631   5.021   3.729
  475SOL     OW 2323   6.075   1.219   6.423
  475SOL    HW1 2324   6.073   1.119   6.434
  475SOL    HW2 2325   6.001   1.247   6.361
  476SOL     OW 2326   0.667   4.209   2.170
  476SOL    HW1 2327   0.735   4.250   2.110
  476SOL    HW2 2328   0.708   4.194   2.261
  477SOL     OW 2329   2.296   4.678   5.154
  477SOL    HW1 2330   2.253   4.749   5.097
  477SOL    HW2 2331   2.385   4.654   5.116
  478SOL     OW 2332   2.949   6.697   2.613
  478SOL    HW1 2333   3.022   6.725   2.676
  478SOL    HW2 2334   2.983   6.699   2.519
  479SOL     OW 2335   4.383   2.222   0.056
  479SOL    HW1 2336   4.420   2.310   0.026
  479SOL    HW2 2337   4.344   2.174   7.003
  480SOL     OW 2338   2.294   0.873   0.386
  480SOL    HW1 2339   2.319   0.964   0.353
  480SOL    HW2 2340   2.366   0.808   0.363
  481SOL     OW 2341   1.612   6.986   0.001
  481SOL    HW1 2342   1.595   6.916   0.071
  481SOL    HW2 2343   1.572   0.048   0.031
  482SOL     OW 2344   4.317   4.999   2.858
  482SOL    HW1 2345   4.377   5.022   2.781
  482SOL    HW2 2346   4.241   4.942   2.825
  483SOL     OW 2347   6.467   2.076   2.117
  483SOL    HW1 2348   6.393   2.020   2.154
  483SOL    HW2 2349   6.539   2.088   2.186
  484SOL     OW 2350   0.876   2.613   5.125
  484SOL    HW1 2351   0.888   2.698   5.072
  484SOL    HW2 2352   0.812   2.630   5.200
  485SOL     OW 2353   4.299   5.810   2.058
  485SOL    HW1 2354   4.286   5.720   2.099
  485SOL    HW2 2355   4.397   5.830   2.051
  486SOL     OW 2356   6.964   1.323   1.196
  486SOL    HW1 2357   7.001   1.412   1.168
  486SOL    HW2 2358   6.995   1.301   1.288
  487SOL     OW 2359   0.657   2.126   0.749
  487SOL    HW1 2360   0.694   2.096   0.837
  487SOL    HW2 2361   0.732   2.158   0.691
  488SOL     OW 2362   0.592   1.311   1.857
  488SOL    HW1 2363   0.613   1.302   1.760
  488SOL    HW2 2364   0.515   1.374   1.868
  489SOL     OW 2365   3.354   6.446   6.337
  489SOL    HW1 2366   3.438   6.483   6.296
  489SOL    HW2 2367   3.306   6.520   6.384
  490SOL     OW 2368   6.890   6.402   3.456
  490SOL    HW1 2369   6.926   6.338   3.524
  490SOL    HW2 2370   6.824   6.463   3.499
  491SOL     OW 2371   0.188   3.049   2.568
  491SOL    HW1 2372   0.188   2.958   2.609
  491SOL    HW2 2373   0.106   3.060   2.513
  492SOL     OW 2374   3.161   0.549   4.594
  492SOL    HW1 2375   3.130   0.463   4.633
  492SOL    HW2 2376   3.119   0.563   4.505
  493SOL     OW 2377   5.789   6.274   5.439
  493SOL    HW1 2378   5.879   6.315   5.459
  493SOL    HW2 2379   5.723   6.347   5.420
  494SOL     OW 2380   0.423   0.241   6.990
  494SOL    HW1 2381   0.474   0.197   0.039
  494SOL    HW2 2382   0.461   0.212   6.902
  495SOL     OW 2383   5.356   5.824   3.087
  495SOL    HW1 2384   5.295   5.817   3.166
  495SOL    HW2 2385   5.361   5.919   3.056
  496SOL     OW 2386   5.287   3.738   2.702
  496SOL    HW1 2387   5.258   3.646   2.675
  496SOL    HW2 2388   5.306   3.792   2.620
  497SOL     OW 2389   3.104   1.587   5.420
  497SOL    HW1 2390   3.067   1.679   5.409
  497SOL    HW2 2391   3.030   1.523   5.441
  498SOL     OW 2392   1.542   3.786   1.663
  498SOL    HW1 2393   1.492   3.719   1.609
  498SOL    HW2 2394   1.634   3.750   1.684
  499SOL     OW 2395   3.051   0.402   4.139
  499SOL    HW1 2396   2.960   0.398   4.099
  499SOL    HW2 2397   3.055   0.475   4.207
  500SOL     OW 2398   1.190   3.395   2.450
  500SOL    HW1 2399   1.222   3.468   2.390
  500SOL    HW2 2400   1.233   3.406   2.540
  501SOL     OW 2401   3.012   0.086   0.297
  501SOL    HW1 2402   2.969   0.136   0.371
  501SOL    HW2 2403   3.063   0.149   0.239
  502SOL     OW 2404   6.764   4.589   6.415
  502SOL    HW1 2405   6.842   4.605   6.476
  502SOL    HW2 2406   6.778   4.636   6.328
  503SOL     OW 2407   5.580   5.673   5.884
  503SOL    HW1 2408   5.486   5.661   5.855
  503SOL    HW2 2409   5.597   5.619   5.966
  504SOL     OW 2410   2.351   5.661   3.268
  504SOL    HW1 2411   2.285   5.724   3.309
  504SOL    HW2 2412   2.391   5.703   3.186
  505SOL     OW 2413   3.729   6.434   5.611
  505SOL    HW1 2414   3.698   6.363   5.674
  505SOL    HW2 2415   3.650   6.478   5.569
  506SOL     OW 2416   1.055   5.563   4.737
  506SOL    HW1 2417   1.031   5.567   4.640
  506SOL    HW2 2418   1.151   5.589   4.749
  507SOL     OW 2419   3.373   0.935   3.826
  507SOL    HW1 2420   3.385   0.928   3.727
  507SOL    HW2 2421   3.459   0.963   3.868
  508SOL     OW 2422   6.196   3.586   2.870
  508SOL    HW1 2423   6.137   3.666   2.855
  508SOL    HW2 2424   6.143   3.513   2.913
  509SOL     OW 2425   2.736   0.886   0.611
  509SOL    HW1 2426   2.709   0.795   0.643
  509SOL    HW2 2427   2.745   0.885   0.512
  510SOL     OW 2428   6.369   4.880   5.760
  510SOL    HW1 2429   6.403   4.845   5.672
  510SOL    HW2 2430   6.426   4.956   5.790
  511SOL     OW 2431   0.063   6.835   6.836
  511SOL    HW1 2432   0.079   6.738   6.820
  511SOL    HW2 2433   0.042   6.880   6.749
  512SOL     OW 2434   0.313   2.913   0.336
  512SOL    HW1 2435   0.360   2.918   0.425
  512SOL    HW2 2436   0.282   3.004   0.310
  513SOL     OW 2437   5.760   6.436   2.856
  513SOL    HW1 2438   5.830   6.406   2.921
  513SOL    HW2 2439   5.672   6.444   2.903
  514SOL     OW 2440   6.857   2.868   3.668
  514SOL    HW1 2441   6.855   2.828   3.577
  514SOL    HW2 2442   6.817   2.959   3.666
  515SOL     OW 2443   1.523   0.529   6.676
  515SOL    HW1 2444   1.523   0.495   6.582
  515SOL    HW2 2445   1.462   0.608   6.683
  516SOL     OW 2446   2.960   4.693   1.705
  516SOL    HW1 2447   2.913   4.633   1.769
  516SOL    HW2 2448   3.058   4.689   1.721
  517SOL     OW 2449   4.867   5.944   1.763
  517SOL    HW1 2450   4.907   5.929   1.853
  517SOL    HW2 2451   4.939   5.944   1.694
  518SOL     OW 2452   2.948   2.248   2.414
  518SOL    HW1 2453   2.879   2.289   2.473
  518SOL    HW2 2454   2.930   2.273   2.319
  519SOL     OW 2455   0.427   0.668   4.769
  519SOL    HW1 2456   0.355   0.731   4.802
  519SOL    HW2 2457   0.517   0.706   4.791
  520SOL     OW 2458   6.186   5.054   6.732
  520SOL    HW1 2459   6.128   5.101   6.666
  520SOL    HW2 2460   6.136   4.977   6.771
  521SOL     OW 2461   6.453   3.103   6.583
  521SOL    HW1 2462   6.438   3.193   6.543
  521SOL    HW2 2463   6.431   3.032   6.516
  522SOL     OW 2464   3.599   3.447   5.391
  522SOL    HW1 2465   3.670   3.446   5.320
  522SOL    HW2 2466   3.513   3.480   5.351
  523SOL     OW 2467   0.463   4.529   2.437
  523SOL    HW1 2468   0.544   4.535   2.496
  523SOL    HW2 2469   0.381   4.550   2.491
  524SOL     OW 2470   1.809   0.944   0.125
  524SOL    HW1 2471   1.831   1.019   0.187
  524SOL    HW2 2472   1.882   0.875   0.130
  525SOL     OW 2473   2.690   3.711   6.687
  525SOL    HW1 2474   2.643   3.784   6.636
  525SOL    HW2 2475   2.737   3.751   6.766
  526SOL     OW 2476   2.854   0.299   4.452
  526SOL    HW1 2477   2.780   0.365   4.449
  526SOL    HW2 2478   2.853   0.243   4.369
  527SOL     OW 2479   5.855   3.287   5.842
  527SOL    HW1 2480   5.935   3.239   5.807
  527SOL    HW2 2481   5.842   3.372   5.791
  528SOL     OW 2482   0.749   1.985   4.249
  528SOL    HW1 2483   0.781   1.919   4.181
  528SOL    HW2 2484   0.770   2.077   4.218
  529SOL     OW 2485   0.520   5.616   4.337
  529SOL    HW1 2486   0.492   5.545   4.402
  529SOL    HW2 2487   0.444   5.678   4.320
  530SOL     OW 2488   2.722   2.943   5.387
  530SOL    HW1 2489   2.664   2.978   5.313
  530SOL    HW2 2490   2.663   2.906   5.459
  531SOL     OW 2491   0.101   0.725   2.172
  531SOL    HW1 2492   0.107   0.770   2.082
  531SOL    HW2 2493   0.021   0.664   2.173
  532SOL     OW 2494   1.002   2.125   6.953
  532SOL    HW1 2495   0.979   2.195   6.885
  532SOL    HW2 2496   0.940   2.134   0.007
  533SOL     OW 2497   3.853   5.994   4.078
  533SOL    HW1 2498   3.842   6.089   4.049
  533SOL    HW2 2499   3.782   5.937   4.036
  534SOL     OW 2500   5.275   5.155   3.643
  534SOL    HW1 2501   5.290   5.168   3.545
  534SOL    HW2 2502   5.319   5.229   3.694
  535SOL     OW 2503   0.914   4.019   4.853
  535SOL    HW1 2504   0.875   4.041   4.943
  535SOL    HW2 2505   0.983   4.086   4.829
  536SOL     OW 2506   0.171   4.944   2.078
  536SOL    HW1 2507   0.106   5.015   2.050
  536SOL    HW2 2508   0.196   4.889   1.998
  537SOL     OW 2509   1.866   6.580   3.555
  537SOL    HW1 2510   1.831   6.500   3.506
  537SOL    HW2 2511   1.816   6.591   3.640
  538SOL     OW 2512   2.189   5.543   3.912
  538SOL    HW1 2513   2.178   5.642   3.919
  538SOL    HW2 2514   2.102   5.502   3.885
  539SOL     OW 2515   0.655   5.762   0.357
  539SOL    HW1 2516   0.631   5.680   0.410
  539SOL    HW2 2517   0.649   5.741   0.260
  540SOL     OW 2518   0.035   1.103   2.060
  540SOL    HW1 2519   0.045   1.047   2.143
  540SOL    HW2 2520   0.126   1.128   2.026
  541SOL     OW 2521   2.952   6.958   4.597
  541SOL    HW1 2522   2.953   6.965   4.697
  541SOL    HW2 2523   2.970   6.863   4.570
  542SOL     OW 2524   6.986   0.173   0.430
  542SOL    HW1 2525   0.013   0.242   0.480
  542SOL    HW2 2526   6.888   0.184   0.449
  543SOL     OW 2527   0.651   5.202   5.469
  543SOL    HW1 2528   0.659   5.108   5.501
  543SOL    HW2 2529   0.618   5.203   5.375
  544SOL     OW 2530   2.038   4.174   1.171
  544SOL    HW1 2531   1.960   4.221   1.212
  544SOL    HW2 2532   2.122   4.218   1.201
  545SOL     OW 2533   3.432   1.395   3.385
  545SOL    HW1 2534   3.397   1.324   3.447
  545SOL    HW2 2535   3.376   1.397   3.302
  546SOL     OW 2536   1.529   3.371   0.889
  546SOL    HW1 2537   1.546   3.469   0.873
  546SOL    HW2 2538   1.542   3.321   0.804
  547SOL     OW 2539   2.882   1.080   6.457
  547SOL    HW1 2540   2.934   1.100   6.540
  547SOL    HW2 2541   2.818   1.005   6.475
  548SOL     OW 2542   3.753   2.891   2.867
  548SOL    HW1 2543   3.818   2.891   2.791
  548SOL    HW2 2544   3.660   2.882   2.831
  549SOL     OW 2545   4.601   3.602   1.252
  549SOL    HW1 2546   4.640   3.680   1.301
  549SOL    HW2 2547   4.502   3.602   1.263
  550SOL     OW 2548   6.727   4.003   3.677
  550SOL    HW1 2549   6.665   3.995   3.598
  550SOL    HW2 2550   6.798   3.933   3.670
  551SOL     OW 2551   0.084   0.778   1.073
  551SOL    HW1 2552   7.009   0.775   1.064
  551SOL    HW2 2553   0.125   0.798   0.984
  552SOL     OW 2554   4.536   4.939   0.730
  552SOL    HW1 2555   4.633   4.912   0.735
  552SOL    HW2 2556   4.498   4.910   0.642
  553SOL     OW 2557   1.956   0.307   2.109
  553SOL    HW1 2558   1.864   0.305   2.148
  553SOL    HW2 2559   2.009   0.230   2.144
  554SOL     OW 2560   4.787   6.452   6.342
  554SOL    HW1 2561   4.717   6.422   6.407
  554SOL    HW2 2562   4.865   6.389   6.345
  555SOL     OW 2563   2.287   5.086   4.304
  555SOL    HW1 2564   2.311   5.073   4.401
  555SOL    HW2 2565   2.362   5.134   4.258
  556SOL     OW 2566   6.234   1.944   4.399
  556SOL    HW1 2567   6.251   1.860   4.348
  556SOL    HW2 2568   6.264   2.023   4.345
  557SOL     OW 2569   0.262   5.519   6.562
  557SOL    HW1 2570   0.224   5.588   6.623
  557SOL    HW2 2571   0.279   5.559   6.472
  558SOL     OW 2572   3.821   4.042   4.578
  558SOL    HW1 2573   3.762   4.070   4.502
  558SOL    HW2 2574   3.764   4.009   4.653
  559SOL     OW 2575   6.271   6.107   6.947
  559SOL    HW1 2576   6.280   6.021   6.896
  559SOL    HW2 2577   6.290   6.090   0.019
  560SOL     OW 2578   3.988   6.410   0.793
  560SOL    HW1 2579   4.001   6.486   0.856
  560SOL    HW2 2580   3.902   6.363   0.814
  561SOL     OW 2581   6.592   0.080   6.879
  561SOL    HW1 2582   6.515   0.139   6.902
  561SOL    HW2 2583   6.591   7.024   6.937
  562SOL     OW 2584   4.477   0.190   6.658
  562SOL    HW1 2585   4.415   0.254   6.703
  562SOL    HW2 2586   4.558   0.176   6.715
  563SOL     OW 2587   3.050   0.046   3.234
  563SOL    HW1 2588   2.960   0.082   3.259
  563SOL    HW2 2589   3.119   0.082   3.298
  564SOL     OW 2590   2.894   2.286   6.197
  564SOL    HW1 2591   2.816   2.273   6.258
  564SOL    HW2 2592   2.862   2.318   6.108
  565SOL     OW 2593   4.330   3.077   5.380
  565SOL    HW1 2594   4.300   3.166   5.345
  565SOL    HW2 2595   4.335   3.080   5.479
  566SOL     OW 2596   4.673   4.283   3.629
  566SOL    HW1 2597   4.726   4.203   3.602
  566SOL    HW2 2598   4.613   4.310   3.553
  567SOL     OW 2599   3.284   3.775   3.578
  567SOL    HW1 2600   3.226   3.696   3.559
  567SOL    HW2 2601   3.238   3.834   3.645
  568SOL     OW 2602   3.541   2.384   1.073
  568SOL    HW1 2603   3.618   2.358   1.131
  568SOL    HW2 2604   3.550   2.339   0.984
  569SOL     OW 2605   1.533   3.246   0.643
  569SOL    HW1 2606   1.471   3.170   0.659
  569SOL    HW2 2607   1.627   3.217   0.658
  570SOL     OW 2608   1.880   6.954   6.470
  570SOL    HW1 2609   1.781   6.940   6.465
  570SOL    HW2 2610   1.927   6.866   6.455
  571SOL     OW 2611   3.538   6.455   2.951
  571SOL    HW1 2612   3.473   6.421   3.019
  571SOL    HW2 2613   3.511   6.547   2.922
  572SOL     OW 2614   2.848   5.009   5.888
  572SOL    HW1 2615   2.824   5.090   5.942
  572SOL    HW2 2616   2.772   4.986   5.827
  573SOL     OW 2617   3.989   2.048   5.041
  573SOL    HW1 2618   4.088   2.061   5.048
  573SOL    HW2 2619   3.970   1.962   4.993
  574SOL     OW 2620   2.240   2.318   4.214
  574SOL    HW1 2621   2.237   2.348   4.309
  574SOL    HW2 2622   2.335   2.302   4.186
  575SOL     OW 2623   6.343   4.090   6.243
  575SOL    HW1 2624   6.404   4.013   6.262
  575SOL    HW2 2625   6.384   4.150   6.174
  576SOL     OW 2626   1.658   2.059   1.927
  576SOL    HW1 2627   1.732   2.089   1.867
  576SOL    HW2 2628   1.583   2.021   1.872
  577SOL     OW 2629   1.966   1.636   3.652
  577SOL    HW1 2630   1.917   1.709   3.700
  577SOL    HW2 2631   2.053   1.671   3.618
  578SOL     OW 2632   6.782   3.116   3.562
  578SOL    HW1 2633   6.726   3.171   3.623
  578SOL    HW2 2634   6.879   3.140   3.574
  579SOL     OW 2635   3.281   2.415   1.196
  579SOL    HW1 2636   3.216   2.364   1.140
  579SOL    HW2 2637   3.371   2.416   1.150
  580SOL     OW 2638   0.503   4.677   6.068
  580SOL    HW1 2639   0.504   4.708   6.163
  580SOL    HW2 2640   0.472   4.582   6.064
  581SOL     OW 2641   3.114   3.049   2.956
  581SOL    HW1 2642   3.016   3.071   2.949
  581SOL    HW2 2643   3.160   3.073   2.871
  582SOL     OW 2644   5.728   4.803   2.456
  582SOL    HW1 2645   5.734   4.775   2.552
  582SOL    HW2 2646   5.682   4.731   2.403
  583SOL     OW 2647   2.761   4.501   6.549
  583SOL    HW1 2648   2.725   4.462   6.464
  583SOL    HW2 2649   2.693   4.493   6.621
  584SOL     OW 2650   0.423   4.898   5.870
  584SOL    HW1 2651   0.413   4.864   5.777
  584SOL    HW2 2652   0.439   4.821   5.932
  585SOL     OW 2653   6.576   2.674   6.170
  585SOL    HW1 2654   6.561   2.676   6.269
  585SOL    HW2 2655   6.617   2.760   6.141
  586SOL     OW 2656   3.261   6.984   0.401
  586SOL    HW1 2657   3.180   6.988   0.342
  586SOL    HW2 2658   3.251   6.909   0.467
  587SOL     OW 2659   1.874   2.241   5.172
  587SOL    HW1 2660   1.840   2.268   5.081
  587SOL    HW2 2661   1.827   2.295   5.242
  588SOL     OW 2662   3.488   6.386   0.983
  588SOL    HW1 2663   3.459   6.378   0.887
  588SOL    HW2 2664   3.541   6.470   0.995
  589SOL     OW 2665   3.987   5.157   1.956
  589SOL    HW1 2666   3.911   5.221   1.944
  589SOL    HW2 2667   3.952   5.067   1.983
  590SOL     OW 2668   6.770   3.011   2.137
  590SOL    HW1 2669   6.686   3.042   2.180
  590SOL    HW2 2670   6.760   2.915   2.111
  591SOL     OW 2671   3.855   6.837   3.787
  591SOL    HW1 2672   3.785   6.837   3.858
  591SOL    HW2 2673   3.925   6.905   3.809
  592SOL     OW 2674   4.483   1.131   0.445
  592SOL    HW1 2675   4.451   1.041   0.417
  592SOL    HW2 2676   4.405   1.187   0.474
  593SOL     OW 2677   4.482   2.031   3.714
  593SOL    HW1 2678   4.449   1.985   3.796
  593SOL    HW2 2679   4.558   1.980   3.675
  594SOL     OW 2680   4.030   2.774   6.404
  594SOL    HW1 2681   3.964   2.791   6.332
  594SOL    HW2 2682   3.989   2.716   6.475
  595SOL     OW 2683   4.598   6.666   4.009
  595SOL    HW1 2684   4.615   6.567   4.002
  595SOL    HW2 2685   4.654   6.714   3.941
  596SOL     OW 2686   1.140   3.982   1.448
  596SOL    HW1 2687   1.222   3.982   1.505
  596SOL    HW2 2688   1.167   3.979   1.352
  597SOL     OW 2689   4.149   6.559   6.049
  597SOL    HW1 2690   4.116   6.509   6.129
  597SOL    HW2 2691   4.151   6.497   5.970
  598SOL     OW 2692   3.691   4.135   0.531
  598SOL    HW1 2693   3.717   4.045   0.494
  598SOL    HW2 2694   3.642   4.187   0.460
  599SOL     OW 2695   0.329   0.683   2.978
  599SOL    HW1 2696   0.316   0.776   2.943
  599SOL    HW2 2697   0.350   0.687   3.075
  600SOL     OW 2698   0.595   0.120   0.798
  600SOL    HW1 2699   0.557   0.043   0.849
  600SOL    HW2 2700   0.693   0.108   0.787
  601SOL     OW 2701   3.287   5.837   3.258
  601SOL    HW1 2702   3.298   5.759   3.198
  601SOL    HW2 2703   3.348   5.911   3.229
  602SOL     OW 2704   0.681   1.259   0.612
  602SOL    HW1 2705   0.761   1.253   0.671
  602SOL    HW2 2706   0.696   1.204   0.530
  603SOL     OW 2707   3.958   1.720   3.869
  603SOL    HW1 2708   3.963   1.801   3.810
  603SOL    HW2 2709   3.862   1.695   3.883
  604SOL     OW 2710   0.945   2.952   0.381
  604SOL    HW1 2711   0.989   3.009   0.312
  604SOL    HW2 2712   1.014   2.894   0.425
  605SOL     OW 2713   6.681   5.991   3.393
  605SOL    HW1 2714   6.584   5.995   3.367
  605SOL    HW2 2715   6.705   5.897   3.416
  606SOL     OW 2716   4.676   0.673   5.667
  606SOL    HW1 2717   4.606   0.645   5.733
  606SOL    HW2 2718   4.681   0.772   5.664
  607SOL     OW 2719   5.598   1.342   4.546
  607SOL    HW1 2720   5.626   1.382   4.633
  607SOL    HW2 2721   5.601   1.242   4.553
  608SOL     OW 2722   3.217   0.140   0.612
  608SOL    HW1 2723   3.227   0.237   0.588
  608SOL    HW2 2724   3.257   0.084   0.540
  609SOL     OW 2725   3.390   3.072   4.827
  609SOL    HW1 2726   3.314   3.133   4.847
  609SOL    HW2 2727   3.403   3.010   4.904
  610SOL     OW 2728   5.833   2.116   2.817
  610SOL    HW1 2729   5.855   2.109   2.914
  610SOL    HW2 2730   5.846   2.210   2.787
  611SOL     OW 2731   0.507   0.762   6.860
  611SOL    HW1 2732   0.453   0.818   6.923
  611SOL    HW2 2733   0.568   0.821   6.807
  612SOL     OW 2734   3.595   5.768   5.891
  612SOL    HW1 2735   3.551   5.744   5.805
  612SOL    HW2 2736   3.624   5.685   5.939
  613SOL     OW 2737   4.077   1.239   5.406
  613SOL    HW1 2738   3.980   1.257   5.387
  613SOL    HW2 2739   4.133   1.280   5.335
  614SOL     OW 2740   6.050   5.146   1.120
  614SOL    HW1 2741   6.095   5.163   1.032
  614SOL    HW2 2742   6.053   5.048   1.141
  615SOL     OW 2743   0.898   0.414   6.671
  615SOL    HW1 2744   0.874   0.494   6.725
  615SOL    HW2 2745   0.943   0.346   6.730
  616SOL     OW 2746   6.115   1.977   3.548
  616SOL    HW1 2747   6.064   1.906   3.597
  616SOL    HW2 2748   6.091   2.067   3.586
  617SOL     OW 2749   0.327   4.788   6.447
  617SOL    HW1 2750   0.312   4.692   6.422
  617SOL    HW2 2751   0.387   4.831   6.380
  618SOL     OW 2752   5.992   3.386   1.276
  618SOL    HW1 2753   6.054   3.376   1.354
  618SOL    HW2 2754   5.918   3.320   1.284
  619SOL     OW 2755   3.451   6.778   6.789
  619SOL    HW1 2756   3.360   6.740   6.806
  619SOL    HW2 2757   3.506   6.713   6.737
  620SOL     OW 2758   5.763   3.346   1.835
  620SOL    HW1 2759   5.826   3.425   1.837
  620SOL    HW2 2760   5.695   3.357   1.907
  621SOL     OW 2761   2.498   0.236   4.830
  621SOL    HW1 2762   2.411   0.237   4.781
  621SOL    HW2 2763   2.546   0.150   4.810
  622SOL     OW 2764   0.646   2.451   5.664
  622SOL    HW1 2765   0.688   2.436   5.575
  622SOL    HW2 2766   0.548   2.433   5.658
  623SOL     OW 2767   6.138   6.488   5.152
  623SOL    HW1 2768   6.076   6.416   5.184
  623SOL    HW2 2769   6.233   6.460   5.169
  624SOL     OW 2770   6.507   1.183   7.016
  624SOL    HW1 2771   6.566   1.103   7.011
  624SOL    HW2 2772   6.484   1.201   0.087
  625SOL     OW 2773   2.022   0.818   0.359
  625SOL    HW1 2774   2.115   0.827   0.394
  625SOL    HW2 2775   2.023   0.814   0.259
  626SOL     OW 2776   1.443   5.751   3.148
  626SOL    HW1 2777   1.388   5.678   3.108
  626SOL    HW2 2778   1.434   5.834   3.093
  627SOL     OW 2779   6.231   6.247   0.784
  627SOL    HW1 2780   6.246   6.178   0.855
  627SOL    HW2 2781   6.309   6.249   0.722
  628SOL     OW 2782   5.454   3.905   5.033
  628SOL    HW1 2783   5.505   3.825   5.067
  628SOL    HW2 2784   5.508   3.987   5.046
  629SOL     OW 2785   0.300   1.305   0.067
  629SOL    HW1 2786   0.306   1.276   0.162
  629SOL    HW2 2787   0.341   1.396   0.057
  630SOL     OW 2788   6.446   0.956   0.990
  630SOL    HW1 2789   6.347   0.954   1.004
  630SOL    HW2 2790   6.480   0.862   0.984
  631SOL     OW 2791   2.686   2.407   4.658
  631SOL    HW1 2792   2.735   2.411   4.745
  631SOL    HW2 2793   2.653   2.314   4.643
  632SOL     OW 2794   4.822   3.013   0.491
  632SOL    HW1 2795   4.902   3.070   0.473
  632SOL    HW2 2796   4.847   2.937   0.550
  633SOL     OW 2797   2.172   5.048   1.116
  633SOL    HW1 2798   2.145   4.955   1.091
  633SOL    HW2 2799   2.216   5.047   1.206
  634SOL     OW 2800   3.469   3.491   3.444
  634SOL    HW1 2801   3.489   3.393   3.439
  634SOL    HW2 2802   3.370   3.505   3.445
  635SOL     OW 2803   4.850   0.675   0.211
  635SOL    HW1 2804   4.856   0.704   0.115
  635SOL    HW2 2805   4.895   0.742   0.269
  636SOL     OW 2806   3.284   0.271   4.869
  636SOL    HW1 2807   3.246   0.359   4.896
  636SOL    HW2 2808   3.251   0.247   4.778
  637SOL     OW 2809   6.260   1.737   2.720
  637SOL    HW1 2810   6.245   1.803   2.646
  637SOL    HW2 2811   6.238   1.645   2.687
  638SOL     OW 2812   5.883   3.512   4.229
  638SOL    HW1 2813   5.955   3.517   4.160
  638SOL    HW2 2814   5.808   3.456   4.195
  639SOL     OW 2815   5.262   4.845   3.197
  639SOL    HW1 2816   5.325   4.884   3.264
  639SOL    HW2 2817   5.286   4.876   3.105
  640SOL     OW 2818   0.526   3.419   3.387
  640SOL    HW1 2819   0.579   3.470   3.455
  640SOL    HW2 2820   0.575   3.419   3.299
  641SOL     OW 2821   1.565   4.547   5.603
  641SOL    HW1 2822   1.475   4.508   5.623
  641SOL    HW2 2823   1.622   4.478   5.559
  642SOL     OW 2824   1.013   3.559   4.703
  642SOL    HW1 2825   0.914   3.571   4.698
  642SOL    HW2 2826   1.051   3.557   4.611
  643SOL     OW 2827   6.562   6.277   0.030
  643SOL    HW1 2828   6.633   6.316   6.996
  643SOL    HW2 2829   6.483   6.250   6.999
  644SOL     OW 2830   0.460   0.461   4.584
  644SOL    HW1 2831   0.542   0.477   4.529
  644SOL    HW2 2832   0.446   0.538   4.646
  645SOL     OW 2833   3.443   4.916   2.922
  645SOL    HW1 2834   3.519   4.853   2.935
  645SOL    HW2 2835   3.365   4.886   2.977
  646SOL     OW 2836   3.837   0.651   4.708
  646SOL    HW1 2837   3.817   0.701   4.624
  646SOL    HW2 2838   3.751   0.632   4.757
  647SOL     OW 2839   4.790   2.036   4.966
  647SOL    HW1 2840   4.715   2.099   4.947
  647SOL    HW2 2841   4.776   1.950   4.917
  648SOL     OW 2842   6.423   2.757   3.421
  648SOL    HW1 2843   6.406   2.658   3.419
  648SOL    HW2 2844   6.336   2.806   3.421
  649SOL     OW 2845   1.981   4.219   0.240
  649SOL    HW1 2846   2.001   4.278   0.318
  649SOL    HW2 2847   1.964   4.126   0.271
  650SOL     OW 2848   6.339   5.536   0.636
  650SOL    HW1 2849   6.421   5.522   0.691
  650SOL    HW2 2850   6.305   5.629   0.651
  651SOL     OW 2851   1.976   0.729   6.026
  651SOL    HW1 2852   2.058   0.706   5.973
  651SOL    HW2 2853   1.895   0.694   5.978
  652SOL     OW 2854   4.181   6.951   1.797
  652SOL    HW1 2855   4.180   6.877   1.730
  652SOL    HW2 2856   4.130   0.004   1.762
  653SOL     OW 2857   0.696   6.617   0.369
  653SOL    HW1 2858   0.671   6.569   0.285
  653SOL    HW2 2859   0.710   6.551   0.443
  654SOL     OW 2860   0.150   6.092   5.666
  654SOL    HW1 2861   0.132   6.124   5.574
  654SOL    HW2 2862   0.079   6.028   5.695
  655SOL     OW 2863   0.052   5.262   1.949
  655SOL    HW1 2864   0.006   5.234   1.865
  655SOL    HW2 2865   0.086   5.355   1.938
  656SOL     OW 2866   2.833   6.541   0.739
  656SOL    HW1 2867   2.765   6.470   0.716
  656SOL    HW2 2868   2.786   6.627   0.757
  657SOL     OW 2869   2.926   3.225   1.549
  657SOL    HW1 2870   2.834   3.204   1.583
  657SOL    HW2 2871   2.933   3.323   1.531
  658SOL     OW 2872   1.686   4.252   4.581
  658SOL    HW1 2873   1.730   4.210   4.660
  658SOL    HW2 2874   1.678   4.350   4.594
  659SOL     OW 2875   3.165   5.924   5.051
  659SOL    HW1 2876   3.104   5.915   5.131
  659SOL    HW2 2877   3.260   5.921   5.082
  660SOL     OW 2878   4.745   5.244   2.578
  660SOL    HW1 2879   4.695   5.229   2.493
  660SOL    HW2 2880   4.806   5.323   2.567
  661SOL     OW 2881   5.099   4.109   4.305
  661SOL    HW1 2882   5.170   4.121   4.375
  661SOL    HW2 2883   5.109   4.178   4.234
  662SOL     OW 2884   4.822   2.032   6.783
  662SOL    HW1 2885   4.808   2.118   6.734
  662SOL    HW2 2886   4.851   1.961   6.718
  663SOL     OW 2887   0.293   5.226   6.850
  663SOL    HW1 2888   0.361   5.258   6.784
  663SOL    HW2 2889   0.326   5.243   6.943
  664SOL     OW 2890   2.086   5.395   7.001
  664SOL    HW1 2891   2.047   5.319   0.028
  664SOL    HW2 2892   2.159   5.360   6.941
  665SOL     OW 2893   4.145   5.093   1.746
  665SOL    HW1 2894   4.088   5.109   1.827
  665SOL    HW2 2895   4.204   5.172   1.731
  666SOL     OW 2896   3.583   1.911   0.281
  666SOL    HW1 2897   3.515   1.958   0.337
  666SOL    HW2 2898   3.542   1.829   0.241
  667SOL     OW 2899   0.084   2.628   4.434
  667SOL    HW1 2900   0.082   2.673   4.344
  667SOL    HW2 2901   0.001   2.652   4.485
  668SOL     OW 2902   4.335   5.827   6.858
  668SOL    HW1 2903   4.420   5.813   6.806
  668SOL    HW2 2904   4.258   5.830   6.795
  669SOL     OW 2905   1.685   6.837   3.036
  669SOL    HW1 2906   1.620   6.771   2.998
  669SOL    HW2 2907   1.688   6.827   3.136
  670SOL     OW 2908   3.023   3.896   3.211
  670SOL    HW1 2909   2.966   3.949   3.272
  670SOL    HW2 2910   3.118   3.900   3.241
  671SOL     OW 2911   2.297   5.531   6.211
  671SOL    HW1 2912   2.364   5.460   6.193
  671SOL    HW2 2913   2.300   5.599   6.137
  672SOL     OW 2914   0.963   3.428   3.796
  672SOL    HW1 2915   0.911   3.513   3.810
  672SOL    HW2 2916   0.902   3.356   3.764
  673SOL     OW 2917   4.494   7.025   6.964
  673SOL    HW1 2918   4.450   6.977   0.015
  673SOL    HW2 2919   4.540   6.959   6.905
  674SOL     OW 2920   0.553   2.760   4.461
  674SOL    HW1 2921   0.487   2.709   4.517
  674SOL    HW2 2922   0.640   2.711   4.459
  675SOL     OW 2923   1.146   2.008   4.861
  675SOL    HW1 2924   1.192   1.920   4.869
  675SOL    HW2 2925   1.208   2.080   4.891
  676SOL     OW 2926   3.077   4.946   4.199
  676SOL    HW1 2927   3.063   4.955   4.297
  676SOL    HW2 2928   3.007   4.885   4.161
  677SOL     OW 2929   5.774   0.544   7.018
  677SOL    HW1 2930   5.867   0.534   6.984
  677SOL    HW2 2931   5.741   0.637   6.999
  678SOL     OW 2932   2.524   1.775   5.466
  678SOL    HW1 2933   2.433   1.744   5.437
  678SOL    HW2 2934   2.514   1.836   5.545
  679SOL     OW 2935   4.080   1.114   4.008
  679SOL    HW1 2936   4.121   1.205   4.024
  679SOL    HW2 2937   3.999   1.124   3.951
  680SOL     OW 2938   6.027   4.400   6.115
  680SOL    HW1 2939   6.012   4.336   6.040
  680SOL    HW2 2940   5.985   4.488   6.093
  681SOL     OW 2941   6.957   6.449   0.466
  681SOL    HW1 2942   6.990   6.539   0.493
  681SOL    HW2 2943   6.861   6.455   0.437
  682SOL     OW 2944   2.319   6.907   6.430
  682SOL    HW1 2945   2.336   6.817   6.391
  682SOL    HW2 2946   2.363   6.977   6.373
  683SOL     OW 2947   3.858   0.710   5.756
  683SOL    HW1 2948   3.799   0.635   5.725
  683SOL    HW2 2949   3.937   0.717   5.696
  684SOL     OW 2950   6.744   0.769   6.330
  684SOL    HW1 2951   6.786   0.839   6.388
  684SOL    HW2 2952   6.815   0.726   6.274
  685SOL     OW 2953   5.256   0.606   5.964
  685SOL    HW1 2954   5.344   0.560   5.949
  685SOL    HW2 2955   5.271   0.687   6.021
  686SOL     OW 2956   5.619   3.105   3.266
  686SOL    HW1 2957   5.637   3.079   3.360
  686SOL    HW2 2958   5.706   3.120   3.218
  687SOL     OW 2959   0.167   3.150   6.419
  687SOL    HW1 2960   0.157   3.102   6.332
  687SOL    HW2 2961   0.077   3.169   6.458
  688SOL     OW 2962   1.983   3.400   0.242
  688SOL    HW1 2963   1.929   3.462   0.299
  688SOL    HW2 2964   1.928   3.369   0.165
  689SOL     OW 2965   1.319   4.456   5.670
  689SOL    HW1 2966   1.290   4.546   5.703
  689SOL    HW2 2967   1.263   4.385   5.713
  690SOL     OW 2968   0.997   2.969   3.269
  690SOL    HW1 2969   1.064   3.038   3.298
  690SOL    HW2 2970   1.016   2.883   3.316
  691SOL     OW 2971   1.655   2.521   6.194
  691SOL    HW1 2972   1.578   2.458   6.190
  691SOL    HW2 2973   1.653   2.571   6.281
  692SOL     OW 2974   3.209   6.861   3.373
  692SOL    HW1 2975   3.126   6.879   3.320
  692SOL    HW2 2976   3.263   6.792   3.326
  693SOL     OW 2977   6.687   1.592   3.245
  693SOL    HW1 2978   6.645   1.657   3.181
  693SOL    HW2 2979   6.628   1.512   3.254
  694SOL     OW 2980   4.033   5.556   1.274
  694SOL    HW1 2981   3.935   5.550   1.255
  694SOL    HW2 2982   4.073   5.634   1.225
  695SOL     OW 2983   4.767   5.013   4.831
  695SOL    HW1 2984   4.775   4.943   4.901
  695SOL    HW2 2985   4.703   4.982   4.760
  696SOL     OW 2986   3.027   5.177   2.387
  696SOL    HW1 2987   2.959   5.249   2.403
  696SOL    HW2 2988   2.983   5.087   2.397
  697SOL     OW 2989   1.185   3.475   5.526
  697SOL    HW1 2990   1.212   3.570   5.540
  697SOL    HW2 2991   1.103   3.455   5.579
  698SOL     OW 2992   4.980   0.235   4.202
  698SOL    HW1 2993   5.072   0.271   4.191
  698SOL    HW2 2994   4.920   0.276   4.134
  699SOL     OW 2995   1.928   4.527   0.965
  699SOL    HW1 2996   1.830   4.547   0.973
  699SOL    HW2 2997   1.967   4.516   1.057
  700SOL     OW 2998   2.700   1.969   3.343
  700SOL    HW1 2999   2.604   1.994   3.330
  700SOL    HW2 3000   2.759   2.046   3.316
  701SOL     OW 3001   1.325   4.831   6.963
  701SOL    HW1 3002   1.251   4.809   6.900
  701SOL    HW2 3003   1.411   4.841   6.912
  702SOL     OW 3004   5.200   6.003   5.667
  702SOL    HW1 3005   5.126   5.936   5.667
  702SOL    HW2 3006   5.255   5.992   5.584
  703SOL     OW 3007   4.368   3.478   0.128
  703SOL    HW1 3008   4.307   3.522   0.194
  703SOL    HW2 3009   4.418   3.549   0.078
  704SOL     OW 3010   1.100   1.332   5.899
  704SOL    HW1 3011   1.190   1.366   5.928
  704SOL    HW2 3012   1.103   1.306   5.803
  705SOL     OW 3013   4.712   0.499   3.530
  705SOL    HW1 3014   4.707   0.438   3.451
  705SOL    HW2 3015   4.807   0.523   3.547
  706SOL     OW 3016   3.847   1.731   3.382
  706SOL    HW1 3017   3.810   1.714   3.291
  706SOL    HW2 3018   3.826   1.653   3.441
  707SOL     OW 3019   4.474   0.063   1.713
  707SOL    HW1 3020   4.396   0.056   1.776
  707SOL    HW2 3021   4.446   0.034   1.622
  708SOL     OW 3022   4.734   0.454   0.751
  708SOL    HW1 3023   4.725   0.548   0.786
  708SOL    HW2 3024   4.649   0.404   0.767
  709SOL     OW 3025   1.397   5.244   1.288
  709SOL    HW1 3026   1.342   5.280   1.212
  709SOL    HW2 3027   1.336   5.207   1.358
  710SOL     OW 3028   3.493   4.117   2.877
  710SOL    HW1 3029   3.417   4.065   2.838
  710SOL    HW2 3030   3.540   4.061   2.946
  711SOL     OW 3031   6.716   2.618   5.648
  711SOL    HW1 3032   6.695   2.635   5.745
  711SOL    HW2 3033   6.660   2.541   5.615
  712SOL     OW 3034   1.390   3.710   1.117
  712SOL    HW1 3035   1.413   3.701   1.020
  712SOL    HW2 3036   1.453   3.654   1.172
  713SOL     OW 3037   3.516   3.543   1.562
  713SOL    HW1 3038   3.483   3.570   1.653
  713SOL    HW2 3039   3.592   3.478   1.572
  714SOL     OW 3040   5.451   4.027   5.446
  714SOL    HW1 3041   5.549   4.015   5.431
  714SOL    HW2 3042   5.419   4.107   5.395
  715SOL     OW 3043   4.875   5.961   0.092
  715SOL    HW1 3044   4.860   5.870   0.052
  715SOL    HW2 3045   4.888   6.028   0.019
  716SOL     OW 3046   0.742   5.333   1.225
  716SOL    HW1 3047   0.799   5.260   1.263
  716SOL    HW2 3048   0.797   5.417   1.216
  717SOL     OW 3049   6.483   4.942   6.402
  717SOL    HW1 3050   6.492   4.889   6.317
  717SOL    HW2 3051   6.453   4.881   6.476
  718SOL     OW 3052   4.068   2.239   6.286
  718SOL    HW1 3053   4.151   2.184   6.284
  718SOL    HW2 3054   4.089   2.331   6.318
  719SOL     OW 3055   6.443   2.606   1.388
  719SOL    HW1 3056   6.468   2.681   1.449
  719SOL    HW2 3057   6.346   2.615   1.362
  720SOL     OW 3058   2.545   1.865   5.760
  720SOL    HW1 3059   2.639   1.876   5.792
  720SOL    HW2 3060   2.527   1.768   5.740
  721SOL     OW 3061   1.759   0.886   5.012
  721SOL    HW1 3062   1.722   0.876   5.104
  721SOL    HW2 3063   1.843   0.831   5.004
  722SOL     OW 3064   4.336   6.591   4.960
  722SOL    HW1 3065   4.350   6.655   5.036
  722SOL    HW2 3066   4.313   6.642   4.877
  723SOL     OW 3067   1.909   2.901   2.226
  723SOL    HW1 3068   1.838   2.908   2.296
  723SOL    HW2 3069   1.979   2.970   2.243
  724SOL     OW 3070   1.609   1.657   5.667
  724SOL    HW1 3071   1.661   1.719   5.725
  724SOL    HW2 3072   1.525   1.630   5.714
  725SOL     OW 3073   2.625   4.996   2.118
  725SOL    HW1 3074   2.673   5.080   2.143
  725SOL    HW2 3075   2.527   5.015   2.109
  726SOL     OW 3076   3.737   4.739   0.522
  726SOL    HW1 3077   3.732   4.818   0.460
  726SOL    HW2 3078   3.813   4.753   0.587
  727SOL     OW 3079   3.942   6.221   4.313
  727SOL    HW1 3080   3.919   6.245   4.219
  727SOL    HW2 3081   4.039   6.198   4.319
  728SOL     OW 3082   6.924   3.794   5.358
  728SOL    HW1 3083   6.867   3.805   5.277
  728SOL    HW2 3084   6.996   3.726   5.339
  729SOL     OW 3085   2.222   0.440   0.675
  729SOL    HW1 3086   2.293   0.444   0.604
  729SOL    HW2 3087   2.134   0.418   0.633
  730SOL     OW 3088   5.375   0.790   3.329
  730SOL    HW1 3089   5.470   0.758   3.336
  730SOL    HW2 3090   5.366   0.878   3.375
  731SOL     OW 3091   5.464   3.143   5.596
  731SOL    HW1 3092   5.507   3.171   5.509
  731SOL    HW2 3093   5.483   3.047   5.613
  732SOL     OW 3094   0.951   3.281   1.279
  732SOL    HW1 3095   1.032   3.278   1.219
  732SOL    HW2 3096   0.869   3.277   1.223
  733SOL     OW 3097   5.635   4.061   4.229
  733SOL    HW1 3098   5.602   4.148   4.193
  733SOL    HW2 3099   5.700   4.020   4.165
  734SOL     OW 3100   6.955   5.185   2.229
  734SOL    HW1 3101   7.023   5.146   2.291
  734SOL    HW2 3102   7.000   5.225   2.150
  735SOL     OW 3103   2.714   2.853   0.952
  735SOL    HW1 3104   2.702   2.951   0.938
  735SOL    HW2 3105   2.630   2.805   0.925
  736SOL     OW 3106   6.462   6.931   2.556
  736SOL    HW1 3107   6.427   6.887   2.473
  736SOL    HW2 3108   6.546   6.981   2.534
  737SOL     OW 3109   5.094   3.471   1.066
  737SOL    HW1 3110   5.164   3.452   1.135
  737SOL    HW2 3111   5.138   3.488   0.978
  738SOL     OW 3112   1.177   4.892   4.055
  738SOL    HW1 3113   1.175   4.797   4.023
  738SOL    HW2 3114   1.272   4.918   4.075
  739SOL     OW 3115   4.719   6.683   5.488
  739SOL    HW1 3116   4.636   6.685   5.544
  739SOL    HW2 3117   4.744   6.777   5.463
  740SOL     OW 3118   5.256   0.310   0.658
  740SOL    HW1 3119   5.311   0.229   0.680
  740SOL    HW2 3120   5.159   0.289   0.672
  741SOL     OW 3121   1.717   6.485   3.164
  741SOL    HW1 3122   1.812   6.452   3.167
  741SOL    HW2 3123   1.676   6.459   3.076
  742SOL     OW 3124   2.210   0.082   2.368
  742SOL    HW1 3125   2.168   0.049   2.283
  742SOL    HW2 3126   2.305   0.108   2.349
  743SOL     OW 3127   1.847   4.381   4.089
  743SOL    HW1 3128   1.866   4.324   4.009
  743SOL    HW2 3129   1.751   4.410   4.087
  744SOL     OW 3130   6.947   6.461   6.665
  744SOL    HW1 3131   6.966   6.386   6.601
  744SOL    HW2 3132   6.967   6.548   6.621
  745SOL     OW 3133   0.957   6.012   3.737
  745SOL    HW1 3134   0.988   6.078   3.669
  745SOL    HW2 3135   1.035   5.958   3.770
  746SOL     OW 3136   0.251   6.321   5.372
  746SOL    HW1 3137   0.333   6.281   5.413
  746SOL    HW2 3138   0.262   6.421   5.368
  747SOL     OW 3139   4.508   4.943   4.204
  747SOL    HW1 3140   4.476   4.855   4.237
  747SOL    HW2 3141   4.465   4.964   4.117
  748SOL     OW 3142   4.453   5.263   1.977
  748SOL    HW1 3143   4.451   5.180   1.921
  748SOL    HW2 3144   4.364   5.308   1.974
  749SOL     OW 3145   0.002   3.272   5.006
  749SOL    HW1 3146   0.101   3.281   5.014
  749SOL    HW2 3147   6.982   3.344   5.060
  750SOL     OW 3148   2.253   3.026   0.410
  750SOL    HW1 3149   2.161   2.998   0.382
  750SOL    HW2 3150   2.321   2.972   0.359
  751SOL     OW 3151   4.280   2.070   6.294
  751SOL    HW1 3152   4.339   2.053   6.372
  751SOL    HW2 3153   4.283   1.991   6.232
  752SOL     OW 3154   4.643   2.683   1.716
  752SOL    HW1 3155   4.581   2.634   1.778
  752SOL    HW2 3156   4.598   2.765   1.681
  753SOL     OW 3157   2.026   3.105   4.474
  753SOL    HW1 3158   2.054   3.020   4.518
  753SOL    HW2 3159   2.062   3.108   4.381
  754SOL     OW 3160   5.690   3.728   6.847
  754SOL    HW1 3161   5.631   3.675   6.908
  754SOL    HW2 3162   5.774   3.677   6.829
  755SOL     OW 3163   0.955   5.692   6.944
  755SOL    HW1 3164   1.030   5.742   6.900
  755SOL    HW2 3165   0.988   5.651   0.004
  756SOL     OW 3166   5.108   0.284   1.608
  756SOL    HW1 3167   5.064   0.206   1.564
  756SOL    HW2 3168   5.206   0.267   1.616
  757SOL     OW 3169   0.708   6.388   2.885
  757SOL    HW1 3170   0.715   6.363   2.981
  757SOL    HW2 3171   0.618   6.428   2.867
  758SOL     OW 3172   3.407   1.318   1.641
  758SOL    HW1 3173   3.336   1.346   1.577
  758SOL    HW2 3174   3.481   1.273   1.592
  759SOL     OW 3175   6.922   0.906   0.515
  759SOL    HW1 3176   6.911   0.884   0.611
  759SOL    HW2 3177   6.832   0.916   0.472
  760SOL     OW 3178   4.588   1.467   6.175
  760SOL    HW1 3179   4.660   1.535   6.188
  760SOL    HW2 3180   4.506   1.513   6.141
  761SOL     OW 3181   5.333   3.676   6.938
  761SOL    HW1 3182   5.263   3.610   6.966
  761SOL    HW2 3183   5.408   3.675   7.004
  762SOL     OW 3184   1.975   6.257   3.216
  762SOL    HW1 3185   1.953   6.188   3.147
  762SOL    HW2 3186   1.958   6.221   3.307
  763SOL     OW 3187   4.071   5.445   6.565
  763SOL    HW1 3188   4.114   5.412   6.481
  763SOL    HW2 3189   4.019   5.528   6.545
  764SOL     OW 3190   4.064   0.073   4.203
  764SOL    HW1 3191   3.998   0.123   4.147
  764SOL    HW2 3192   4.017   0.003   4.256
  765SOL     OW 3193   1.505   6.305   1.190
  765SOL    HW1 3194   1.570   6.378   1.169
  765SOL    HW2 3195   1.463   6.272   1.105
  766SOL     OW 3196   6.744   1.390   7.021
  766SOL    HW1 3197   6.773   1.443   6.941
  766SOL    HW2 3198   6.651   1.355   7.005
  767SOL     OW 3199   0.851   6.159   2.031
  767SOL    HW1 3200   0.924   6.092   2.023
  767SOL    HW2 3201   0.853   6.221   1.952
  768SOL     OW 3202   2.045   0.835   2.598
  768SOL    HW1 3203   2.086   0.770   2.662
  768SOL    HW2 3204   1.974   0.888   2.645
  769SOL     OW 3205   2.980   6.398   4.158
  769SOL    HW1 3206   2.990   6.363   4.251
  769SOL    HW2 3207   2.888   6.379   4.124
  770SOL     OW 3208   2.180   4.845   3.004
  770SOL    HW1 3209   2.263   4.798   2.975
  770SOL    HW2 3210   2.166   4.832   3.102
  771SOL     OW 3211   1.908   5.813   2.579
  771SOL    HW1 3212   1.966   5.734   2.558
  771SOL    HW2 3213   1.965   5.895   2.586
  772SOL     OW 3214   6.551   5.148   0.770
  772SOL    HW1 3215   6.454   5.125   0.763
  772SOL    HW2 3216   6.590   5.102   0.850
  773SOL     OW 3217   0.632   2.928   3.545
  773SOL    HW1 3218   0.572   2.902   3.470
  773SOL    HW2 3219   0.655   3.025   3.538
  774SOL     OW 3220   1.487   1.750   1.550
  774SOL    HW1 3221   1.555   1.808   1.505
  774SOL    HW2 3222   1.466   1.671   1.492
  775SOL     OW 3223   1.375   2.549   3.984
  775SOL    HW1 3224   1.471   2.540   3.959
  775SOL    HW2 3225   1.352   2.483   4.055
  776SOL     OW 3226   0.141   0.520   5.994
  776SOL    HW1 3227   0.212   0.525   6.063
  776SOL    HW2 3228   0.062   0.574   6.024
  777SOL     OW 3229   3.721   0.636   0.945
  777SOL    HW1 3230   3.738   0.538   0.930
  777SOL    HW2 3231   3.686   0.650   1.038
  778SOL     OW 3232   3.674   1.464   3.651
  778SOL    HW1 3233   3.580   1.430   3.661
  778SOL    HW2 3234   3.682   1.553   3.695
  779SOL     OW 3235   0.378   1.713   2.356
  779SOL    HW1 3236   0.302   1.741   2.415
  779SOL    HW2 3237   0.453   1.778   2.366
  780SOL     OW 3238   5.367   3.251   4.707
  780SOL    HW1 3239   5.362   3.351   4.712
  780SOL    HW2 3240   5.406   3.216   4.792
  781SOL     OW 3241   6.043   1.335   5.999
  781SOL    HW1 3242   6.124   1.277   6.004
  781SOL    HW2 3243   5.978   1.296   5.935
  782SOL     OW 3244   1.651   4.281   0.792
  782SOL    HW1 3245   1.737   4.231   0.802
  782SOL    HW2 3246   1.641   4.310   0.696
  783SOL     OW 3247   3.527   4.540   0.458
  783SOL    HW1 3248   3.555   4.485   0.380
  783SOL    HW2 3249   3.601   4.602   0.484
  784SOL     OW 3250   4.910   0.206   5.533
  784SOL    HW1 3251   4.983   0.163   5.480
  784SOL    HW2 3252   4.929   0.196   5.631
  785SOL     OW 3253   6.633   2.211   2.973
  785SOL    HW1 3254   6.702   2.212   2.901
  785SOL    HW2 3255   6.576   2.130   2.963
  786SOL     OW 3256   0.561   0.890   0.444
  786SOL    HW1 3257   0.547   0.928   0.352
  786SOL    HW2 3258   0.481   0.910   0.501
  787SOL     OW 3259   2.941   0.881   5.805
  787SOL    HW1 3260   3.000   0.888   5.725
  787SOL    HW2 3261   2.885   0.963   5.813
  788SOL     OW 3262   2.414   2.586   4.676
  788SOL    HW1 3263   2.450   2.565   4.585
  788SOL    HW2 3264   2.470   2.541   4.745
  789SOL     OW 3265   6.158   4.159   1.732
  789SOL    HW1 3266   6.073   4.210   1.729
  789SOL    HW2 3267   6.171   4.121   1.824
  790SOL     OW 3268   2.159   1.705   4.226
  790SOL    HW1 3269   2.077   1.763   4.231
  790SOL    HW2 3270   2.240   1.763   4.223
  791SOL     OW 3271   3.654   6.816   4.008
  791SOL    HW1 3272   3.664   6.893   4.070
  791SOL    HW2 3273   3.559   6.785   4.007
  792SOL     OW 3274   6.633   6.873   1.491
  792SOL    HW1 3275   6.593   6.915   1.572
  792SOL    HW2 3276   6.712   6.817   1.518
  793SOL     OW 3277   4.779   6.264   2.083
  793SOL    HW1 3278   4.801   6.276   1.987
  793SOL    HW2 3279   4.703   6.324   2.109
  794SOL     OW 3280   2.278   4.179   5.526
  794SOL    HW1 3281   2.208   4.247   5.549
  794SOL    HW2 3282   2.340   4.217   5.458
  795SOL     OW 3283   3.010   5.070   5.240
  795SOL    HW1 3284   3.022   4.972   5.251
  795SOL    HW2 3285   3.099   5.113   5.227
  796SOL     OW 3286   0.414   2.376   6.366
  796SOL    HW1 3287   0.493   2.434   6.345
  796SOL    HW2 3288   0.381   2.397   6.458
  797SOL     OW 3289   5.264   2.568   2.564
  797SOL    HW1 3290   5.259   2.667   2.556
  797SOL    HW2 3291   5.243   2.540   2.658
  798SOL     OW 3292   4.834   0.329   1.075
  798SOL    HW1 3293   4.776   0.262   1.122
  798SOL    HW2 3294   4.848   0.301   0.980
  799SOL     OW 3295   6.745   1.271   3.460
  799SOL    HW1 3296   6.703   1.338   3.522
  799SOL    HW2 3297   6.804   1.210   3.513
  800SOL     OW 3298   5.485   0.664   2.398
  800SOL    HW1 3299   5.568   0.672   2.453
  800SOL    HW2 3300   5.465   0.752   2.355
  801SOL     OW 3301   1.519   3.720   2.932
  801SOL    HW1 3302   1.443   3.669   2.970
  801SOL    HW2 3303   1.533   3.804   2.984
  802SOL     OW 3304   4.721   1.224   0.521
  802SOL    HW1 3305   4.644   1.200   0.463
  802SOL    HW2 3306   4.698   1.204   0.616
  803SOL     OW 3307   6.602   5.896   4.912
  803SOL    HW1 3308   6.651   5.847   4.839
  803SOL    HW2 3309   6.505   5.874   4.907
  804SOL     OW 3310   6.471   5.847   6.982
  804SOL    HW1 3311   6.393   5.832   6.922
  804SOL    HW2 3312   6.449   5.917   0.024
  805SOL     OW 3313   4.238   2.273   5.676
  805SOL    HW1 3314   4.241   2.360   5.725
  805SOL    HW2 3315   4.275   2.286   5.583
  806SOL     OW 3316   3.460   2.092   4.953
  806SOL    HW1 3317   3.478   1.999   4.921
  806SOL    HW2 3318   3.480   2.156   4.879
  807SOL     OW 3319   0.949   1.963   3.551
  807SOL    HW1 3320   0.905   1.876   3.573
  807SOL    HW2 3321   1.029   1.947   3.494
  808SOL     OW 3322   5.287   3.108   6.308
  808SOL    HW1 3323   5.275   3.199   6.347
  808SOL    HW2 3324   5.245   3.104   6.217
  809SOL     OW 3325   1.390   4.661   1.732
  809SOL    HW1 3326   1.420   4.662   1.637
  809SOL    HW2 3327   1.469   4.662   1.793
  810SOL     OW 3328   4.348   2.936   0.830
  810SOL    HW1 3329   4.293   2.899   0.755
  810SOL    HW2 3330   4.423   2.990   0.792
  811SOL     OW 3331   4.769   5.065   3.544
  811SOL    HW1 3332   4.754   5.164   3.546
  811SOL    HW2 3333   4.861   5.044   3.576
  812SOL     OW 3334   0.312   0.913   1.879
  812SOL    HW1 3335   0.213   0.903   1.871
  812SOL    HW2 3336   0.351   0.828   1.914
  813SOL     OW 3337   4.135   5.594   3.613
  813SOL    HW1 3338   4.115   5.504   3.573
  813SOL    HW2 3339   4.050   5.645   3.625
  814SOL     OW 3340   4.877   6.472   3.235
  814SOL    HW1 3341   4.915   6.522   3.313
  814SOL    HW2 3342   4.918   6.381   3.231
  815SOL     OW 3343   6.570   3.069   2.300
  815SOL    HW1 3344   6.558   3.068   2.399
  815SOL    HW2 3345   6.498   3.123   2.258
  816SOL     OW 3346   0.263   6.751   0.226
  816SOL    HW1 3347   0.336   6.740   0.293
  816SOL    HW2 3348   0.183   6.700   0.255
  817SOL     OW 3349   1.847   3.939   2.222
  817SOL    HW1 3350   1.794   3.932   2.137
  817SOL    HW2 3351   1.937   3.897   2.209
  818SOL     OW 3352   6.834   2.828   0.823
  818SOL    HW1 3353   6.927   2.826   0.859
  818SOL    HW2 3354   6.832   2.883   0.739
  819SOL     OW 3355   6.048   2.940   4.141
  819SOL    HW1 3356   6.114   2.968   4.071
  819SOL    HW2 3357   5.955   2.959   4.108
  820SOL     OW 3358   1.340   2.839   5.676
  820SOL    HW1 3359   1.361   2.819   5.771
  820SOL    HW2 3360   1.418   2.814   5.618
  821SOL     OW 3361   2.810   4.241   0.488
  821SOL    HW1 3362   2.746   4.271   0.417
  821SOL    HW2 3363   2.822   4.142   0.483
  822SOL     OW 3364   0.789   5.224   4.199
  822SOL    HW1 3365   0.770   5.318   4.227
  822SOL    HW2 3366   0.887   5.214   4.180
  823SOL     OW 3367   4.390   3.963   6.442
  823SOL    HW1 3368   4.352   4.046   6.401
  823SOL    HW2 3369   4.462   3.989   6.507
  824SOL     OW 3370   5.316   1.180   5.255
  824SOL    HW1 3371   5.315   1.111   5.327
  824SOL    HW2 3372   5.311   1.135   5.166
  825SOL     OW 3373   2.135   3.026   2.094
  825SOL    HW1 3374   2.085   3.108   2.065
  825SOL    HW2 3375   2.183   3.044   2.179
  826SOL     OW 3376   6.224   4.299   0.665
  826SOL    HW1 3377   6.218   4.216   0.721
  826SOL    HW2 3378   6.202   4.276   0.570
  827SOL     OW 3379   3.210   5.447   5.568
  827SOL    HW1 3380   3.261   5.390   5.505
  827SOL    HW2 3381   3.151   5.390   5.625
  828SOL     OW 3382   6.082   0.520   5.188
  828SOL    HW1 3383   6.175   0.486   5.204
  828SOL    HW2 3384   6.040   0.545   5.275
  829SOL     OW 3385   2.918   3.349   4.328
  829SOL    HW1 3386   2.900   3.435   4.281
  829SOL    HW2 3387   2.893   3.272   4.268
  830SOL     OW 3388   5.085   4.392   6.098
  830SOL    HW1 3389   5.057   4.483   6.065
  830SOL    HW2 3390   5.097   4.331   6.020
  831SOL     OW 3391   0.087   6.914   4.472
  831SOL    HW1 3392   0.186   6.911   4.457
  831SOL    HW2 3393   0.055   6.823   4.498
  832SOL     OW 3394   2.057   1.176   0.295
  832SOL    HW1 3395   1.963   1.209   0.304
  832SOL    HW2 3396   2.074   1.147   0.201
  833SOL     OW 3397   0.477   5.702   6.127
  833SOL    HW1 3398   0.410   5.711   6.053
  833SOL    HW2 3399   0.510   5.792   6.154
  834SOL     OW 3400   3.665   4.046   2.310
  834SOL    HW1 3401   3.719   3.987   2.250
  834SOL    HW2 3402   3.708   4.050   2.400
  835SOL     OW 3403   4.088   6.682   4.034
  835SOL    HW1 3404   3.994   6.666   4.067
  835SOL    HW2 3405   4.131   6.753   4.090
  836SOL     OW 3406   3.103   6.310   6.846
  836SOL    HW1 3407   3.018   6.329   6.797
  836SOL    HW2 3408   3.157   6.243   6.795
  837SOL     OW 3409   4.908   0.283   6.898
  837SOL    HW1 3410   4.914   0.273   6.799
  837SOL    HW2 3411   5.000   0.276   6.937
  838SOL     OW 3412   1.126   0.096   4.963
  838SOL    HW1 3413   1.214   0.076   4.920
  838SOL    HW2 3414   1.052   0.075   4.899
  839SOL     OW 3415   2.887   1.270   2.920
  839SOL    HW1 3416   2.872   1.339   2.849
  839SOL    HW2 3417   2.985   1.251   2.927
  840SOL     OW 3418   6.394   1.118   5.486
  840SOL    HW1 3419   6.380   1.146   5.581
  840SOL    HW2 3420   6.491   1.097   5.472
  841SOL     OW 3421   6.074   4.398   0.254
  841SOL    HW1 3422   5.982   4.411   0.290
  841SOL    HW2 3423   6.140   4.449   0.310
  842SOL     OW 3424   4.330   5.395   3.440
  842SOL    HW1 3425   4.260   5.350   3.495
  842SOL    HW2 3426   4.418   5.348   3.453
  843SOL     OW 3427   5.276   2.069   0.206
  843SOL    HW1 3428   5.295   1.985   0.257
  843SOL    HW2 3429   5.286   2.052   0.108
  844SOL     OW 3430   4.606   6.471   0.282
  844SOL    HW1 3431   4.639   6.379   0.266
  844SOL    HW2 3432   4.607   6.490   0.380
  845SOL     OW 3433   6.183   2.720   4.894
  845SOL    HW1 3434   6.215   2.726   4.989
  845SOL    HW2 3435   6.104   2.780   4.882
  846SOL     OW 3436   5.386   1.383   6.278
  846SOL    HW1 3437   5.337   1.313   6.330
  846SOL    HW2 3438   5.360   1.474   6.313
  847SOL     OW 3439   6.269   3.051   0.789
  847SOL    HW1 3440   6.361   3.024   0.818
  847SOL    HW2 3441   6.222   3.097   0.864
  848SOL     OW 3442   6.050   1.031   6.119
  848SOL    HW1 3443   6.018   1.109   6.173
  848SOL    HW2 3444   6.123   0.984   6.168
  849SOL     OW 3445   6.951   5.641   5.149
  849SOL    HW1 3446   7.019   5.632   5.077
  849SOL    HW2 3447   6.964   5.567   5.216
  850SOL     OW 3448   4.374   0.643   3.435
  850SOL    HW1 3449   4.373   0.594   3.522
  850SOL    HW2 3450   4.463   0.686   3.422
  851SOL     OW 3451   0.342   1.273   0.402
  851SOL    HW1 3452   0.283   1.221   0.463
  851SOL    HW2 3453   0.337   1.370   0.426
  852SOL     OW 3454   2.434   2.389   0.064
  852SOL    HW1 3455   2.482   2.429   7.011
  852SOL    HW2 3456   2.455   2.291   0.068
  853SOL     OW 3457   0.958   3.603   3.402
  853SOL    HW1 3458   0.930   3.628   3.309
  853SOL    HW2 3459   1.018   3.674   3.439
  854SOL     OW 3460   5.143   6.304   2.465
  854SOL    HW1 3461   5.240   6.284   2.455
  854SOL    HW2 3462   5.106   6.331   2.376
  855SOL     OW 3463   6.273   0.110   1.338
  855SOL    HW1 3464   6.313   0.019   1.331
  855SOL    HW2 3465   6.174   0.102   1.347
  856SOL     OW 3466   1.990   0.739   5.012
  856SOL    HW1 3467   2.004   0.733   5.111
  856SOL    HW2 3468   2.052   0.808   4.974
  857SOL     OW 3469   5.724   5.067   1.464
  857SOL    HW1 3470   5.791   5.111   1.404
  857SOL    HW2 3471   5.772   5.015   1.535
  858SOL     OW 3472   2.816   4.904   1.932
  858SOL    HW1 3473   2.754   4.938   2.003
  858SOL    HW2 3474   2.834   4.807   1.947
  859SOL     OW 3475   5.832   5.181   6.744
  859SOL    HW1 3476   5.809   5.248   6.674
  859SOL    HW2 3477   5.832   5.089   6.705
  860SOL     OW 3478   4.682   3.730   0.568
  860SOL    HW1 3479   4.701   3.717   0.665
  860SOL    HW2 3480   4.720   3.654   0.516
  861SOL     OW 3481   2.392   7.003   4.525
  861SOL    HW1 3482   2.412   7.001   4.623
  861SOL    HW2 3483   2.413   0.068   4.488
  862SOL     OW 3484   5.792   4.488   5.079
  862SOL    HW1 3485   5.877   4.483   5.133
  862SOL    HW2 3486   5.801   4.562   5.012
  863SOL     OW 3487   1.081   0.138   0.901
  863SOL    HW1 3488   0.998   0.116   0.850
  863SOL    HW2 3489   1.057   0.156   0.997
  864SOL     OW 3490   5.089   4.524   3.641
  864SOL    HW1 3491   5.181   4.489   3.624
  864SOL    HW2 3492   5.085   4.562   3.733
  865SOL     OW 3493   0.927   6.872   4.117
  865SOL    HW1 3494   0.942   6.822   4.032
  865SOL    HW2 3495   0.904   6.807   4.190
  866SOL     OW 3496   2.623   1.631   2.297
  866SOL    HW1 3497   2.588   1.584   2.216
  866SOL    HW2 3498   2.616   1.730   2.284
  867SOL     OW 3499   3.405   2.727   0.404
  867SOL    HW1 3500   3.316   2.710   0.361
  867SOL    HW2 3501   3.466   2.771   0.337
  868SOL     OW 3502   6.139   0.080   1.646
  868SOL    HW1 3503   6.166   0.111   1.555
  868SOL    HW2 3504   6.048   0.039   1.641
  869SOL     OW 3505   6.767   5.541   3.093
  869SOL    HW1 3506   6.837   5.570   3.159
  869SOL    HW2 3507   6.721   5.622   3.056
  870SOL     OW 3508   6.179   3.329   1.499
  870SOL    HW1 3509   6.240   3.402   1.469
  870SOL    HW2 3510   6.231   3.245   1.514
  871SOL     OW 3511   6.950   3.169   1.533
  871SOL    HW1 3512   7.002   3.091   1.500
  871SOL    HW2 3513   6.976   3.190   1.628
  872SOL     OW 3514   6.265   2.982   4.593
  872SOL    HW1 3515   6.284   2.994   4.691
  872SOL    HW2 3516   6.167   2.990   4.577
  873SOL     OW 3517   3.994   0.481   2.710
  873SOL    HW1 3518   4.081   0.486   2.663
  873SOL    HW2 3519   3.957   0.573   2.723
  874SOL     OW 3520   2.026   4.284   5.205
  874SOL    HW1 3521   2.114   4.319   5.172
  874SOL    HW2 3522   2.030   4.184   5.210
  875SOL     OW 3523   5.088   4.650   0.893
  875SOL    HW1 3524   5.175   4.601   0.884
  875SOL    HW2 3525   5.012   4.585   0.884
  876SOL     OW 3526   6.676   4.054   3.223
  876SOL    HW1 3527   6.770   4.075   3.196
  876SOL    HW2 3528   6.662   3.955   3.225
  877SOL     OW 3529   4.750   4.707   6.932
  877SOL    HW1 3530   4.824   4.682   6.995
  877SOL    HW2 3531   4.740   4.636   6.863
  878SOL     OW 3532   3.589   5.156   0.099
  878SOL    HW1 3533   3.592   5.164   7.024
  878SOL    HW2 3534   3.594   5.060   0.125
  879SOL     OW 3535   4.132   1.740   2.570
  879SOL    HW1 3536   4.074   1.721   2.491
  879SOL    HW2 3537   4.198   1.812   2.547
  880SOL     OW 3538   3.366   4.389   6.931
  880SOL    HW1 3539   3.343   4.428   6.842
  880SOL    HW2 3540   3.282   4.378   6.985
  881SOL     OW 3541   4.312   4.714   4.886
  881SOL    HW1 3542   4.250   4.775   4.935
  881SOL    HW2 3543   4.331   4.634   4.942
  882SOL     OW 3544   1.858   1.154   4.678
  882SOL    HW1 3545   1.765   1.190   4.668
  882SOL    HW2 3546   1.924   1.222   4.646
  883SOL     OW 3547   4.031   5.087   5.400
  883SOL    HW1 3548   4.053   5.181   5.428
  883SOL    HW2 3549   3.932   5.079   5.388
  884SOL     OW 3550   6.512   3.195   1.805
  884SOL    HW1 3551   6.421   3.153   1.803
  884SOL    HW2 3552   6.518   3.264   1.733
  885SOL     OW 3553   5.747   6.446   0.066
  885SOL    HW1 3554   5.839   6.407   0.062
  885SOL    HW2 3555   5.723   6.464   0.161
  886SOL     OW 3556   4.111   1.109   6.855
  886SOL    HW1 3557   4.193   1.145   6.898
  886SOL    HW2 3558   4.030   1.147   6.899
  887SOL     OW 3559   4.091   6.805   6.171
  887SOL    HW1 3560   4.118   6.724   6.120
  887SOL    HW2 3561   4.031   6.778   6.247
  888SOL     OW 3562   6.712   6.541   3.624
  888SOL    HW1 3563   6.780   6.613   3.631
  888SOL    HW2 3564   6.710   6.487   3.708
  889SOL     OW 3565   6.979   6.388   5.860
  889SOL    HW1 3566   6.937   6.338   5.784
  889SOL    HW2 3567   0.029   6.335   5.898
  890SOL     OW 3568   2.779   4.791   2.246
  890SOL    HW1 3569   2.736   4.875   2.212
  890SOL    HW2 3570   2.809   4.735   2.169
  891SOL     OW 3571   5.700   3.585   1.463
  891SOL    HW1 3572   5.739   3.508   1.515
  891SOL    HW2 3573   5.727   3.671   1.507
  892SOL     OW 3574   3.158   3.824   0.843
  892SOL    HW1 3575   3.126   3.776   0.924
  892SOL    HW2 3576   3.257   3.811   0.832
  893SOL     OW 3577   1.584   0.395   0.343
  893SOL    HW1 3578   1.620   0.466   0.404
  893SOL    HW2 3579   1.500   0.357   0.383
  894SOL     OW 3580   1.420   5.005   4.138
  894SOL    HW1 3581   1.519   5.015   4.126
  894SOL    HW2 3582   1.381   5.091   4.170
  895SOL     OW 3583   2.193   6.865   4.176
  895SOL    HW1 3584   2.250   6.937   4.136
  895SOL    HW2 3585   2.169   6.890   4.270
  896SOL     OW 3586   5.777   6.464   4.015
  896SOL    HW1 3587   5.743   6.373   4.039
  896SOL    HW2 3588   5.875   6.469   4.032
  897SOL     OW 3589   4.781   1.859   0.427
  897SOL    HW1 3590   4.730   1.829   0.346
  897SOL    HW2 3591   4.717   1.884   0.499
  898SOL     OW 3592   5.378   6.339   3.810
  898SOL    HW1 3593   5.407   6.245   3.798
  898SOL    HW2 3594   5.327   6.348   3.896
  899SOL     OW 3595   0.663   5.114   6.855
  899SOL    HW1 3596   0.664   5.061   6.940
  899SOL    HW2 3597   0.756   5.144   6.834
  900SOL     OW 3598   6.268   5.931   2.284
  900SOL    HW1 3599   6.330   6.009   2.278
  900SOL    HW2 3600   6.316   5.848   2.258
  901SOL     OW 3601   0.030   1.299   4.121
  901SOL    HW1 3602   6.957   1.305   4.102
  901SOL    HW2 3603   0.056   1.374   4.183
  902SOL     OW 3604   6.526   0.292   6.639
  902SOL    HW1 3605   6.449   0.326   6.693
  902SOL    HW2 3606   6.491   0.232   6.566
  903SOL     OW 3607   6.598   4.800   0.874
  903SOL    HW1 3608   6.643   4.711   0.866
  903SOL    HW2 3609   6.520   4.804   0.812
  904SOL     OW 3610   1.347   1.625   3.383
  904SOL    HW1 3611   1.288   1.669   3.315
  904SOL    HW2 3612   1.365   1.531   3.356
  905SOL     OW 3613   4.974   1.996   6.345
  905SOL    HW1 3614   5.040   2.071   6.340
  905SOL    HW2 3615   4.977   1.943   6.261
  906SOL     OW 3616   0.414   4.780   0.236
  906SOL    HW1 3617   0.349   4.708   0.212
  906SOL    HW2 3618   0.365   4.867   0.243
  907SOL     OW 3619   6.146   2.136   2.733
  907SOL    HW1 3620   6.149   2.146   2.634
  907SOL    HW2 3621   6.063   2.088   2.760
  908SOL     OW 3622   1.325   6.674   4.121
  908SOL    HW1 3623   1.359   6.750   4.176
  908SOL    HW2 3624   1.249   6.705   4.064
  909SOL     OW 3625   2.528   0.800   0.202
  909SOL    HW1 3626   2.594   0.832   0.270
  909SOL    HW2 3627   2.512   0.702   0.214
  910SOL     OW 3628   1.183   0.511   0.454
  910SOL    HW1 3629   1.124   0.452   0.400
  910SOL    HW2 3630   1.128   0.557   0.524
  911SOL     OW 3631   0.024   4.833   1.568
  911SOL    HW1 3632   0.046   4.817   1.472
  911SOL    HW2 3633   0.053   4.925   1.594
  912SOL     OW 3634   0.105   1.603   5.620
  912SOL    HW1 3635   0.023   1.660   5.610
  912SOL    HW2 3636   0.146   1.588   5.530
  913SOL     OW 3637   2.109   0.358   3.747
  913SOL    HW1 3638   2.025   0.347   3.695
  913SOL    HW2 3639   2.107   0.444   3.798
  914SOL     OW 3640   2.390   5.891   4.269
  914SOL    HW1 3641   2.384   5.816   4.335
  914SOL    HW2 3642   2.448   5.865   4.193
  915SOL     OW 3643   0.503   3.578   0.153
  915SOL    HW1 3644   0.468   3.671   0.140
  915SOL    HW2 3645   0.454   3.516   0.092
  916SOL     OW 3646   2.124   1.915   2.806
  916SOL    HW1 3647   2.202   1.851   2.808
  916SOL    HW2 3648   2.041   1.866   2.829
  917SOL     OW 3649   3.708   0.761   1.255
  917SOL    HW1 3650   3.633   0.802   1.306
  917SOL    HW2 3651   3.784   0.741   1.317
  918SOL     OW 3652   2.737   6.154   6.187
  918SOL    HW1 3653   2.701   6.245   6.170
  918SOL    HW2 3654   2.663   6.087   6.180
  919SOL     OW 3655   1.289   5.304   1.924
  919SOL    HW1 3656   1.273   5.400   1.947
  919SOL    HW2 3657   1.273   5.248   2.005
  920SOL     OW 3658   2.735   0.348   2.824
  920SOL    HW1 3659   2.748   0.310   2.915
  920SOL    HW2 3660   2.670   0.291   2.773
  921SOL     OW 3661   6.316   4.792   4.171
  921SOL    HW1 3662   6.356   4.723   4.111
  921SOL    HW2 3663   6.363   4.880   4.157
  922SOL     OW 3664   3.290   3.772   0.202
  922SOL    HW1 3665   3.287   3.694   0.140
  922SOL    HW2 3666   3.363   3.834   0.174
  923SOL     OW 3667   2.839   5.799   0.374
  923SOL    HW1 3668   2.829   5.877   0.436
  923SOL    HW2 3669   2.886   5.725   0.422
  924SOL     OW 3670   5.742   3.373   2.468
  924SOL    HW1 3671   5.648   3.359   2.438
  924SOL    HW2 3672   5.800   3.394   2.389
  925SOL     OW 3673   0.137   1.819   5.870
  925SOL    HW1 3674   0.222   1.810   5.923
  925SOL    HW2 3675   0.159   1.816   5.773
  926SOL     OW 3676   5.967   6.571   0.583
  926SOL    HW1 3677   5.932   6.519   0.505
  926SOL    HW2 3678   6.061   6.544   0.602
  927SOL     OW 3679   4.823   4.019   4.060
  927SOL    HW1 3680   4.801   3.999   4.156
  927SOL    HW2 3681   4.844   3.934   4.012
  928SOL     OW 3682   1.294   0.120   0.710
  928SOL    HW1 3683   1.233   0.067   0.652
  928SOL    HW2 3684   1.241   0.164   0.783
  929SOL     OW 3685   0.370   2.746   2.267
  929SOL    HW1 3686   0.440   2.691   2.222
  929SOL    HW2 3687   0.310   2.686   2.321
  930SOL     OW 3688   5.297   4.581   4.270
  930SOL    HW1 3689   5.340   4.662   4.310
  930SOL    HW2 3690   5.200   4.599   4.254
  931SOL     OW 3691   0.676   2.728   2.966
  931SOL    HW1 3692   0.748   2.764   3.025
  931SOL    HW2 3693   0.603   2.795   2.958
  932SOL     OW 3694   3.856   5.958   1.576
  932SOL    HW1 3695   3.873   5.934   1.481
  932SOL    HW2 3696   3.909   6.039   1.600
  933SOL     OW 3697   1.293   4.679   3.152
  933SOL    HW1 3698   1.213   4.738   3.166
  933SOL    HW2 3699   1.362   4.729   3.100
  934SOL     OW 3700   3.367   1.010   4.686
  934SOL    HW1 3701   3.283   0.977   4.730
  934SOL    HW2 3702   3.387   0.953   4.606
  935SOL     OW 3703   4.846   3.404   6.220
  935SOL    HW1 3704   4.771   3.446   6.168
  935SOL    HW2 3705   4.821   3.311   6.245
  936SOL     OW 3706   0.914   6.940   1.190
  936SOL    HW1 3707   0.912   6.928   1.289
  936SOL    HW2 3708   0.930   6.851   1.146
  937SOL     OW 3709   4.934   1.621   4.272
  937SOL    HW1 3710   5.007   1.686   4.253
  937SOL    HW2 3711   4.846   1.667   4.266
  938SOL     OW 3712   6.757   4.042   5.912
  938SOL    HW1 3713   6.663   4.073   5.903
  938SOL    HW2 3714   6.760   3.958   5.966
  939SOL     OW 3715   4.988   1.193   6.112
  939SOL    HW1 3716   4.898   1.151   6.098
  939SOL    HW2 3717   4.987   1.287   6.079
  940SOL     OW 3718   6.924   0.956   2.477
  940SOL    HW1 3719   6.838   0.905   2.465
  940SOL    HW2 3720   6.975   0.954   2.391
  941SOL     OW 3721   5.517   1.634   3.859
  941SOL    HW1 3722   5.548   1.625   3.954
  941SOL    HW2 3723   5.444   1.702   3.854
  942SOL     OW 3724   5.229   6.804   5.340
  942SOL    HW1 3725   5.266   6.717   5.308
  942SOL    HW2 3726   5.304   6.865   5.364
  943SOL     OW 3727   6.548   3.449   2.727
  943SOL    HW1 3728   6.515   3.355   2.739
  943SOL    HW2 3729   6.477   3.504   2.683
  944SOL     OW 3730   6.013   3.405   4.595
  944SOL    HW1 3731   5.983   3.317   4.632
  944SOL    HW2 3732   5.939   3.444   4.539
  945SOL     OW 3733   4.540   4.423   4.014
  945SOL    HW1 3734   4.516   4.394   4.107
  945SOL    HW2 3735   4.598   4.353   3.971
  946SOL     OW 3736   5.856   2.410   6.134
  946SOL    HW1 3737   5.919   2.434   6.060
  946SOL    HW2 3738   5.830   2.492   6.185
  947SOL     OW 3739   3.070   3.507   6.418
  947SOL    HW1 3740   3.106   3.579   6.359
  947SOL    HW2 3741   3.145   3.448   6.449
  948SOL     OW 3742   3.203   0.903   0.342
  948SOL    HW1 3743   3.211   0.815   0.389
  948SOL    HW2 3744   3.206   0.977   0.410
  949SOL     OW 3745   5.933   5.561   6.576
  949SOL    HW1 3746   5.952   5.566   6.478
  949SOL    HW2 3747   6.013   5.525   6.624
  950SOL     OW 3748   4.104   4.835   1.686
  950SOL    HW1 3749   4.132   4.926   1.715
  950SOL    HW2 3750   4.091   4.777   1.766
  951SOL     OW 3751   0.717   0.673   1.466
  951SOL    HW1 3752   0.767   0.752   1.501
  951SOL    HW2 3753   0.770   0.629   1.393
  952SOL     OW 3754   5.038   1.109   2.608
  952SOL    HW1 3755   5.015   1.205   2.598
  952SOL    HW2 3756   5.056   1.089   2.704
  953SOL     OW 3757   4.464   6.312   5.432
  953SOL    HW1 3758   4.563   6.317   5.417
  953SOL    HW2 3759   4.417   6.318   5.344
  954SOL     OW 3760   6.494   0.155   1.502
  954SOL    HW1 3761   6.574   0.142   1.444
  954SOL    HW2 3762   6.411   0.141   1.449
  955SOL     OW 3763   0.731   4.981   3.640
  955SOL    HW1 3764   0.738   4.881   3.629
  955SOL    HW2 3765   0.821   5.018   3.661
  956SOL     OW 3766   1.105   1.494   1.499
  956SOL    HW1 3767   1.082   1.515   1.404
  956SOL    HW2 3768   1.147   1.573   1.542
  957SOL     OW 3769   1.464   5.273   5.484
  957SOL    HW1 3770   1.486   5.179   5.511
  957SOL    HW2 3771   1.365   5.284   5.477
  958SOL     OW 3772   4.848   2.180   0.950
  958SOL    HW1 3773   4.941   2.172   0.985
  958SOL    HW2 3774   4.783   2.181   1.026
  959SOL     OW 3775   2.773   4.743   2.719
  959SOL    HW1 3776   2.829   4.767   2.799
  959SOL    HW2 3777   2.821   4.772   2.636
  960SOL     OW 3778   1.757   5.871   4.206
  960SOL    HW1 3779   1.731   5.830   4.293
  960SOL    HW2 3780   1.822   5.945   4.223
  961SOL     OW 3781   4.117   6.863   2.362
  961SOL    HW1 3782   4.110   6.889   2.458
  961SOL    HW2 3783   4.108   6.764   2.353
  962SOL     OW 3784   1.922   1.170   3.398
  962SOL    HW1 3785   1.866   1.156   3.480
  962SOL    HW2 3786   1.901   1.259   3.357
  963SOL     OW 3787   6.402   0.021   0.949
  963SOL    HW1 3788   6.343   0.098   0.923
  963SOL    HW2 3789   6.427   6.994   0.867
  964SOL     OW 3790   5.551   2.918   0.737
  964SOL    HW1 3791   5.569   2.857   0.659
  964SOL    HW2 3792   5.505   3.000   0.705
  965SOL     OW 3793   6.302   1.417   0.911
  965SOL    HW1 3794   6.262   1.457   0.993
  965SOL    HW2 3795   6.367   1.481   0.871
  966SOL     OW 3796   6.511   1.760   3.127
  966SOL    HW1 3797   6.508   1.851   3.169
  966SOL    HW2 3798   6.541   1.769   3.032
  967SOL     OW 3799   1.654   5.463   0.490
  967SOL    HW1 3800   1.707   5.391   0.535
  967SOL    HW2 3801   1.670   5.459   0.391
  968SOL     OW 3802   4.878   2.732   2.377
  968SOL    HW1 3803   4.835   2.742   2.467
  968SOL    HW2 3804   4.897   2.822   2.338
  969SOL     OW 3805   4.007   6.435   6.248
  969SOL    HW1 3806   3.927   6.425   6.189
  969SOL    HW2 3807   4.041   6.344   6.274
  970SOL     OW 3808   4.088   1.931   5.380
  970SOL    HW1 3809   4.131   1.880   5.306
  970SOL    HW2 3810   3.992   1.948   5.357
  971SOL     OW 3811   7.019   1.176   2.612
  971SOL    HW1 3812   6.999   1.102   2.547
  971SOL    HW2 3813   6.936   1.228   2.630
  972SOL     OW 3814   6.090   4.841   0.801
  972SOL    HW1 3815   6.107   4.745   0.781
  972SOL    HW2 3816   5.993   4.854   0.822
  973SOL     OW 3817   0.441   4.636   6.690
  973SOL    HW1 3818   0.365   4.653   6.753
  973SOL    HW2 3819   0.427   4.689   6.606
  974SOL     OW 3820   3.270   0.433   2.464
  974SOL    HW1 3821   3.293   0.529   2.483
  974SOL    HW2 3822   3.209   0.398   2.535
  975SOL     OW 3823   3.018   6.123   6.196
  975SOL    HW1 3824   3.049   6.029   6.186
  975SOL    HW2 3825   2.921   6.124   6.220
  976SOL     OW 3826   7.004   2.846   2.288
  976SOL    HW1 3827   6.973   2.798   2.370
  976SOL    HW2 3828   6.983   2.944   2.297
  977SOL     OW 3829   1.430   1.249   4.036
  977SOL    HW1 3830   1.359   1.195   3.992
  977SOL    HW2 3831   1.401   1.345   4.039
  978SOL     OW 3832   5.778   4.358   4.417
  978SOL    HW1 3833   5.719   4.379   4.495
  978SOL    HW2 3834   5.722   4.349   4.335
  979SOL     OW 3835   6.320   1.440   3.338
  979SOL    HW1 3836   6.417   1.415   3.333
  979SOL    HW2 3837   6.309   1.516   3.402
  980SOL     OW 3838   5.688   2.486   3.427
  980SOL    HW1 3839   5.603   2.434   3.417
  980SOL    HW2 3840   5.705   2.504   3.524
  981SOL     OW 3841   1.307   1.773   4.839
  981SOL    HW1 3842   1.399   1.798   4.869
  981SOL    HW2 3843   1.283   1.683   4.875
  982SOL     OW 3844   1.702   2.716   2.037
  982SOL    HW1 3845   1.769   2.760   2.097
  982SOL    HW2 3846   1.690   2.621   2.064
  983SOL     OW 3847   6.078   2.316   3.332
  983SOL    HW1 3848   6.161   2.342   3.281
  983SOL    HW2 3849   5.998   2.352   3.286
  984SOL     OW 3850   4.087   0.969   5.469
  984SOL    HW1 3851   4.129   0.921   5.392
  984SOL    HW2 3852   4.080   1.066   5.447
  985SOL     OW 3853   4.450   4.978   7.018
  985SOL    HW1 3854   4.527   4.991   6.956
  985SOL    HW2 3855   4.476   5.004   0.086
  986SOL     OW 3856   5.312   5.497   6.268
  986SOL    HW1 3857   5.247   5.453   6.206
  986SOL    HW2 3858   5.274   5.583   6.301
  987SOL     OW 3859   3.777   6.500   1.479
  987SOL    HW1 3860   3.708   6.566   1.510
  987SOL    HW2 3861   3.757   6.473   1.385
  988SOL     OW 3862   3.836   2.415   0.956
  988SOL    HW1 3863   3.865   2.388   1.048
  988SOL    HW2 3864   3.758   2.359   0.927
  989SOL     OW 3865   0.311   0.581   6.208
  989SOL    HW1 3866   0.330   0.599   6.304
  989SOL    HW2 3867   0.398   0.573   6.158
  990SOL     OW 3868   4.625   7.022   3.976
  990SOL    HW1 3869   4.643   6.970   3.892
  990SOL    HW2 3870   4.599   6.960   4.049
  991SOL     OW 3871   1.466   2.260   4.787
  991SOL    HW1 3872   1.460   2.340   4.727
  991SOL    HW2 3873   1.394   2.265   4.857
  992SOL     OW 3874   0.376   2.867   6.895
  992SOL    HW1 3875   0.315   2.817   6.957
  992SOL    HW2 3876   0.409   2.949   6.941
  993SOL     OW 3877   2.477   5.428   2.505
  993SOL    HW1 3878   2.467   5.369   2.425
  993SOL    HW2 3879   2.493   5.522   2.475
  994SOL     OW 3880   3.340   4.100   2.476
  994SOL    HW1 3881   3.332   4.168   2.548
  994SOL    HW2 3882   3.424   4.115   2.424
  995SOL     OW 3883   1.646   2.720   5.973
  995SOL    HW1 3884   1.683   2.676   5.891
  995SOL    HW2 3885   1.676   2.670   6.054
  996SOL     OW 3886   1.656   3.510   3.620
  996SOL    HW1 3887   1.705   3.487   3.703
  996SOL    HW2 3888   1.718   3.554   3.555
  997SOL     OW 3889   0.415   0.340   1.453
  997SOL    HW1 3890   0.347   0.268   1.438
  997SOL    HW2 3891   0.482   0.309   1.520
  998SOL     OW 3892   4.129   0.001   2.975
  998SOL    HW1 3893   4.166   0.086   3.012
  998SOL    HW2 3894   4.201   6.975   2.929
  999SOL     OW 3895   5.488   5.787   1.507
  999SOL    HW1 3896   5.514   5.765   1.413
  999SOL    HW2 3897   5.389   5.778   1.516
 1000SOL     OW 3898   2.081   1.555   2.524
 1000SOL    HW1 3899   2.144   1.534   2.449
 1000SOL    HW2 3900   1.992   1.511   2.506
 1001SOL     OW 3901   4.044   6.351   6.594
 1001SOL    HW1 3902   4.093   6.345   6.508
 1001SOL    HW2 3903   4.069   6.273   6.652
 1002SOL     OW 3904   5.477   1.463   6.589
 1002SOL    HW1 3905   5.431   1.437   6.504
 1002SOL    HW2 3906   5.409   1.484   6.659
 1003SOL     OW 3907   2.239   6.888   1.943
 1003SOL    HW1 3908   2.281   6.798   1.957
 1003SOL    HW2 3909   2.160   6.898   2.003
 1004SOL     OW 3910   6.524   0.255   0.102
 1004SOL    HW1 3911   6.533   0.157   0.084
 1004SOL    HW2 3912   6.427   0.280   0.106
 1005SOL     OW 3913   0.087   0.776   2.564
 1005SOL    HW1 3914   0.023   0.846   2.534
 1005SOL    HW2 3915   0.042   0.686   2.562
 1006SOL     OW 3916   2.546   5.855   1.678
 1006SOL    HW1 3917   2.557   5.897   1.768
 1006SOL    HW2 3918   2.498   5.919   1.618
 1007SOL     OW 3919   6.310   1.027   3.497
 1007SOL    HW1 3920   6.363   0.973   3.431
 1007SOL    HW2 3921   6.213   1.019   3.476
 1008SOL     OW 3922   0.865   2.656   4.125
 1008SOL    HW1 3923   0.908   2.582   4.177
 1008SOL    HW2 3924   0.773   2.672   4.159
 1009SOL     OW 3925   6.680   5.352   3.643
 1009SOL    HW1 3926   6.719   5.434   3.601
 1009SOL    HW2 3927   6.744   5.316   3.711
 1010SOL     OW 3928   3.980   2.028   0.001
 1010SOL    HW1 3929   3.914   2.022   0.076
 1010SOL    HW2 3930   4.052   1.960   0.014
 1011SOL     OW 3931   2.962   5.459   3.622
 1011SOL    HW1 3932   2.931   5.382   3.678
 1011SOL    HW2 3933   3.008   5.423   3.540
 1012SOL     OW 3934   6.031   5.338   0.052
 1012SOL    HW1 3935   5.955   5.395   0.082
 1012SOL    HW2 3936   5.999   5.245   0.033
 1013SOL     OW 3937   0.516   1.188   6.908
 1013SOL    HW1 3938   0.475   1.255   6.969
 1013SOL    HW2 3939   0.592   1.230   6.858
 1014SOL     OW 3940   5.490   5.421   6.506
 1014SOL    HW1 3941   5.408   5.364   6.499
 1014SOL    HW2 3942   5.469   5.514   6.476
 1015SOL     OW 3943   3.819   6.564   4.864
 1015SOL    HW1 3944   3.770   6.543   4.949
 1015SOL    HW2 3945   3.755   6.603   4.797
 1016SOL     OW 3946   2.761   2.615   0.784
 1016SOL    HW1 3947   2.799   2.524   0.770
 1016SOL    HW2 3948   2.755   2.634   0.882
 1017SOL     OW 3949   5.261   2.341   1.219
 1017SOL    HW1 3950   5.325   2.355   1.295
 1017SOL    HW2 3951   5.168   2.358   1.250
 1018SOL     OW 3952   1.631   3.365   4.229
 1018SOL    HW1 3953   1.612   3.429   4.155
 1018SOL    HW2 3954   1.646   3.415   4.314
 1019SOL     OW 3955   0.139   1.122   0.565
 1019SOL    HW1 3956   0.104   1.042   0.515
 1019SOL    HW2 3957   0.130   1.106   0.663
 1020SOL     OW 3958   1.095   6.742   0.480
 1020SOL    HW1 3959   1.065   6.748   0.385
 1020SOL    HW2 3960   1.161   6.815   0.500
 1021SOL     OW 3961   5.585   1.213   1.883
 1021SOL    HW1 3962   5.585   1.238   1.979
 1021SOL    HW2 3963   5.536   1.127   1.871
 1022SOL     OW 3964   3.981   4.961   6.033
 1022SOL    HW1 3965   4.010   4.994   6.123
 1022SOL    HW2 3966   4.060   4.955   5.973
 1023SOL     OW 3967   6.795   6.964   2.073
 1023SOL    HW1 3968   6.872   6.971   2.137
 1023SOL    HW2 3969   6.712   6.938   2.122
 1024SOL     OW 3970   6.759   2.710   4.347
 1024SOL    HW1 3971   6.662   2.691   4.363
 1024SOL    HW2 3972   6.812   2.682   4.427
 1025SOL     OW 3973   3.976   4.685   0.384
 1025SOL    HW1 3974   4.018   4.770   0.353
 1025SOL    HW2 3975   3.876   4.693   0.378
 1026SOL     OW 3976   1.128   1.119   0.733
 1026SOL    HW1 3977   1.223   1.107   0.759
 1026SOL    HW2 3978   1.092   1.034   0.696
 1027SOL     OW 3979   2.842   5.582   1.456
 1027SOL    HW1 3980   2.886   5.530   1.530
 1027SOL    HW2 3981   2.755   5.619   1.489
 1028SOL     OW 3982   3.408   5.575   0.383
 1028SOL    HW1 3983   3.398   5.594   0.481
 1028SOL    HW2 3984   3.317   5.573   0.340
 1029SOL     OW 3985   1.977   0.380   0.569
 1029SOL    HW1 3986   1.922   0.441   0.627
 1029SOL    HW2 3987   1.992   0.423   0.480
 1030SOL     OW 3988   3.463   2.906   3.666
 1030SOL    HW1 3989   3.374   2.924   3.625
 1030SOL    HW2 3990   3.473   2.960   3.749
 1031SOL     OW 3991   4.106   5.534   1.764
 1031SOL    HW1 3992   4.069   5.489   1.682
 1031SOL    HW2 3993   4.043   5.605   1.794
 1032SOL     OW 3994   2.474   1.300   5.170
 1032SOL    HW1 3995   2.385   1.254   5.176
 1032SOL    HW2 3996   2.463   1.389   5.126
 1033SOL     OW 3997   1.994   5.783   1.211
 1033SOL    HW1 3998   2.093   5.790   1.222
 1033SOL    HW2 3999   1.964   5.843   1.137
 1034SOL     OW 4000   1.848   6.286   4.556
 1034SOL    HW1 4001   1.762   6.311   4.601
 1034SOL    HW2 4002   1.855   6.186   4.553
 1035SOL     OW 4003   2.769   1.986   3.599
 1035SOL    HW1 4004   2.780   1.958   3.504
 1035SOL    HW2 4005   2.776   2.086   3.606
 1036SOL     OW 4006   3.693   0.947   0.845
 1036SOL    HW1 4007   3.741   0.873   0.797
 1036SOL    HW2 4008   3.597   0.923   0.854
 1037SOL     OW 4009   0.826   1.059   1.050
 1037SOL    HW1 4010   0.864   0.985   1.105
 1037SOL    HW2 4011   0.890   1.137   1.049
 1038SOL     OW 4012   0.538   1.321   5.793
 1038SOL    HW1 4013   0.476   1.386   5.838
 1038SOL    HW2 4014   0.575   1.361   5.710
 1039SOL     OW 4015   4.284   1.771   5.287
 1039SOL    HW1 4016   4.313   1.702   5.353
 1039SOL    HW2 4017   4.309   1.741   5.195
 1040SOL     OW 4018   5.473   3.608   3.553
 1040SOL    HW1 4019   5.517   3.680   3.499
 1040SOL    HW2 4020   5.543   3.549   3.593
 1041SOL     OW 4021   6.270   0.095   4.204
 1041SOL    HW1 4022   6.278   0.193   4.188
 1041SOL    HW2 4023   6.179   0.063   4.176
 1042SOL     OW 4024   4.133   4.760   2.339
 1042SOL    HW1 4025   4.193   4.688   2.303
 1042SOL    HW2 4026   4.141   4.841   2.281
 1043SOL     OW 4027   4.134   1.318   6.457
 1043SOL    HW1 4028   4.193   1.237   6.463
 1043SOL    HW2 4029   4.093   1.336   6.547
 1044SOL     OW 4030   3.418   2.559   1.475
 1044SOL    HW1 4031   3.444   2.462   1.482
 1044SOL    HW2 4032   3.335   2.567   1.420
 1045SOL     OW 4033   3.417   0.672   1.654
 1045SOL    HW1 4034   3.345   0.740   1.638
 1045SOL    HW2 4035   3.415   0.644   1.750
 1046SOL     OW 4036   2.582   0.019   6.443
 1046SOL    HW1 4037   2.590   0.107   6.489
 1046SOL    HW2 4038   2.520   6.985   6.495
 1047SOL     OW 4039   1.280   5.338   2.716
 1047SOL    HW1 4040   1.375   5.367   2.722
 1047SOL    HW2 4041   1.222   5.417   2.695
 1048SOL     OW 4042   4.786   5.772   5.215
 1048SOL    HW1 4043   4.768   5.855   5.162
 1048SOL    HW2 4044   4.872   5.731   5.185
 1049SOL     OW 4045   6.835   3.674   4.884
 1049SOL    HW1 4046   6.928   3.686   4.851
 1049SOL    HW2 4047   6.773   3.657   4.807
 1050SOL     OW 4048   3.765   6.269   0.869
 1050SOL    HW1 4049   3.678   6.317   0.876
 1050SOL    HW2 4050   3.749   6.170   0.866
 1051SOL     OW 4051   4.168   4.380   0.040
 1051SOL    HW1 4052   4.074   4.355   0.014
 1051SOL    HW2 4053   4.195   4.328   0.121
 1052SOL     OW 4054   3.829   0.860   4.498
 1052SOL    HW1 4055   3.850   0.823   4.407
 1052SOL    HW2 4056   3.763   0.934   4.489
 1053SOL     OW 4057   6.069   6.403   3.305
 1053SOL    HW1 4058   6.101   6.461   3.231
 1053SOL    HW2 4059   5.974   6.425   3.326
 1054SOL     OW 4060   2.313   5.206   5.586
 1054SOL    HW1 4061   2.406   5.210   5.549
 1054SOL    HW2 4062   2.261   5.136   5.537
 1055SOL     OW 4063   5.719   6.220   4.524
 1055SOL    HW1 4064   5.684   6.139   4.476
 1055SOL    HW2 4065   5.797   6.194   4.581
 1056SOL     OW 4066   1.495   6.615   5.428
 1056SOL    HW1 4067   1.528   6.604   5.521
 1056SOL    HW2 4068   1.513   6.531   5.376
 1057SOL     OW 4069   3.459   3.874   3.417
 1057SOL    HW1 4070   3.388   3.832   3.474
 1057SOL    HW2 4071   3.543   3.820   3.423
 1058SOL     OW 4072   4.648   1.447   2.058
 1058SOL    HW1 4073   4.579   1.386   2.097
 1058SOL    HW2 4074   4.606   1.534   2.034
 1059SOL     OW 4075   3.549   0.406   1.555
 1059SOL    HW1 4076   3.572   0.489   1.604
 1059SOL    HW2 4077   3.589   0.408   1.463
 1060SOL     OW 4078   0.030   3.790   5.982
 1060SOL    HW1 4079   6.987   3.787   6.056
 1060SOL    HW2 4080   7.024   3.734   5.906
 1061SOL     OW 4081   3.874   4.107   1.038
 1061SOL    HW1 4082   3.798   4.172   1.047
 1061SOL    HW2 4083   3.944   4.129   1.105
 1062SOL     OW 4084   6.707   6.124   5.367
 1062SOL    HW1 4085   6.714   6.071   5.283
 1062SOL    HW2 4086   6.731   6.219   5.348
 1063SOL     OW 4087   1.184   3.760   0.819
 1063SOL    HW1 4088   1.135   3.772   0.905
 1063SOL    HW2 4089   1.221   3.667   0.814
 1064SOL     OW 4090   1.308   3.597   2.298
 1064SOL    HW1 4091   1.349   3.603   2.389
 1064SOL    HW2 4092   1.246   3.674   2.284
 1065SOL     OW 4093   4.929   0.683   4.266
 1065SOL    HW1 4094   4.923   0.735   4.180
 1065SOL    HW2 4095   4.876   0.599   4.258
 1066SOL     OW 4096   5.230   0.624   4.368
 1066SOL    HW1 4097   5.266   0.547   4.421
 1066SOL    HW2 4098   5.132   0.611   4.352
 1067SOL     OW 4099   1.559   2.983   0.793
 1067SOL    HW1 4100   1.647   2.970   0.747
 1067SOL    HW2 4101   1.572   3.039   0.875
 1068SOL     OW 4102   0.127   3.828   1.801
 1068SOL    HW1 4103   0.155   3.907   1.855
 1068SOL    HW2 4104   0.204   3.799   1.744
 1069SOL     OW 4105   4.269   4.581   0.957
 1069SOL    HW1 4106   4.282   4.496   1.009
 1069SOL    HW2 4107   4.251   4.559   0.861
 1070SOL     OW 4108   1.733   0.901   6.873
 1070SOL    HW1 4109   1.811   0.851   6.836
 1070SOL    HW2 4110   1.747   0.918   6.970
 1071SOL     OW 4111   3.885   0.097   3.347
 1071SOL    HW1 4112   3.828   0.078   3.267
 1071SOL    HW2 4113   3.861   0.034   3.421
 1072SOL     OW 4114   2.567   5.781   2.101
 1072SOL    HW1 4115   2.615   5.806   2.185
 1072SOL    HW2 4116   2.535   5.865   2.055
 1073SOL     OW 4117   3.712   5.681   1.907
 1073SOL    HW1 4118   3.687   5.674   2.003
 1073SOL    HW2 4119   3.657   5.617   1.853
 1074SOL     OW 4120   1.486   5.600   1.938
 1074SOL    HW1 4121   1.554   5.594   1.866
 1074SOL    HW2 4122   1.395   5.602   1.898
 1075SOL     OW 4123   4.957   5.001   3.134
 1075SOL    HW1 4124   4.953   4.934   3.209
 1075SOL    HW2 4125   4.879   4.987   3.073
 1076SOL     OW 4126   1.043   4.235   5.093
 1076SOL    HW1 4127   1.123   4.282   5.057
 1076SOL    HW2 4128   0.966   4.298   5.096
 1077SOL     OW 4129   5.906   6.797   0.020
 1077SOL    HW1 4130   5.912   6.764   0.114
 1077SOL    HW2 4131   5.992   6.842   7.020
 1078SOL     OW 4132   1.950   1.057   2.424
 1078SOL    HW1 4133   2.020   1.092   2.486
 1078SOL    HW2 4134   1.909   0.975   2.463
 1079SOL     OW 4135   2.275   5.447   3.507
 1079SOL    HW1 4136   2.308   5.443   3.601
 1079SOL    HW2 4137   2.346   5.413   3.445
 1080SOL     OW 4138   2.695   5.293   3.206
 1080SOL    HW1 4139   2.759   5.354   3.253
 1080SOL    HW2 4140   2.662   5.224   3.269
 1081SOL     OW 4141   1.157   1.240   5.634
 1081SOL    HW1 4142   1.071   1.193   5.612
 1081SOL    HW2 4143   1.233   1.187   5.597
 1082SOL     OW 4144   1.375   6.918   5.880
 1082SOL    HW1 4145   1.411   6.975   5.806
 1082SOL    HW2 4146   1.450   6.877   5.931
 1083SOL     OW 4147   4.056   3.377   2.391
 1083SOL    HW1 4148   3.971   3.419   2.357
 1083SOL    HW2 4149   4.112   3.446   2.436
 1084SOL     OW 4150   6.271   5.635   1.169
 1084SOL    HW1 4151   6.174   5.655   1.153
 1084SOL    HW2 4152   6.286   5.622   1.267
 1085SOL     OW 4153   2.193   4.593   3.904
 1085SOL    HW1 4154   2.252   4.625   3.978
 1085SOL    HW2 4155   2.233   4.618   3.816
 1086SOL     OW 4156   6.202   5.629   3.591
 1086SOL    HW1 4157   6.253   5.712   3.567
 1086SOL    HW2 4158   6.257   5.549   3.570
 1087SOL     OW 4159   5.128   2.989   4.941
 1087SOL    HW1 4160   5.171   2.955   4.857
 1087SOL    HW2 4161   5.032   3.008   4.924
 1088SOL     OW 4162   5.009   4.361   3.359
 1088SOL    HW1 4163   5.073   4.295   3.320
 1088SOL    HW2 4164   5.011   4.355   3.459
 1089SOL     OW 4165   0.262   0.338   4.433
 1089SOL    HW1 4166   0.172   0.380   4.432
 1089SOL    HW2 4167   0.324   0.392   4.491
 1090SOL     OW 4168   2.970   1.175   4.737
 1090SOL    HW1 4169   2.941   1.271   4.730
 1090SOL    HW2 4170   3.068   1.169   4.716
 1091SOL     OW 4171   1.338   2.377   4.201
 1091SOL    HW1 4172   1.250   2.328   4.198
 1091SOL    HW2 4173   1.407   2.319   4.243
 1092SOL     OW 4174   2.514   3.855   1.027
 1092SOL    HW1 4175   2.484   3.895   1.113
 1092SOL    HW2 4176   2.613   3.837   1.032
 1093SOL     OW 4177   1.492   1.550   2.384
 1093SOL    HW1 4178   1.537   1.632   2.417
 1093SOL    HW2 4179   1.456   1.567   2.292
 1094SOL     OW 4180   0.151   6.644   1.505
 1094SOL    HW1 4181   0.080   6.596   1.556
 1094SOL    HW2 4182   0.146   6.742   1.525
 1095SOL     OW 4183   6.344   2.178   6.312
 1095SOL    HW1 4184   6.257   2.150   6.272
 1095SOL    HW2 4185   6.396   2.231   6.245
 1096SOL     OW 4186   4.001   5.189   1.455
 1096SOL    HW1 4187   3.963   5.110   1.504
 1096SOL    HW2 4188   4.084   5.162   1.406
 1097SOL     OW 4189   1.531   5.208   4.750
 1097SOL    HW1 4190   1.545   5.306   4.743
 1097SOL    HW2 4191   1.572   5.162   4.671
 1098SOL     OW 4192   5.195   2.481   0.678
 1098SOL    HW1 4193   5.215   2.579   0.674
 1098SOL    HW2 4194   5.199   2.450   0.773
 1099SOL     OW 4195   3.948   2.165   4.514
 1099SOL    HW1 4196   3.890   2.122   4.584
 1099SOL    HW2 4197   4.032   2.199   4.557
 1100SOL     OW 4198   0.683   1.425   6.498
 1100SOL    HW1 4199   0.603   1.468   6.457
 1100SOL    HW2 4200   0.713   1.349   6.439
 1101SOL     OW 4201   5.889   3.652   1.257
 1101SOL    HW1 4202   5.921   3.564   1.292
 1101SOL    HW2 4203   5.809   3.682   1.309
 1102SOL     OW 4204   0.981   4.701   4.332
 1102SOL    HW1 4205   0.937   4.774   4.280
 1102SOL    HW2 4206   1.028   4.639   4.269
 1103SOL     OW 4207   1.743   1.441   1.863
 1103SOL    HW1 4208   1.691   1.494   1.929
 1103SOL    HW2 4209   1.746   1.345   1.891
 1104SOL     OW 4210   2.039   4.376   5.995
 1104SOL    HW1 4211   2.104   4.452   5.989
 1104SOL    HW2 4212   1.975   4.380   5.918
 1105SOL     OW 4213   4.891   4.115   6.518
 1105SOL    HW1 4214   4.915   4.032   6.569
 1105SOL    HW2 4215   4.952   4.124   6.440
 1106SOL     OW 4216   0.587   1.976   6.438
 1106SOL    HW1 4217   0.650   1.905   6.409
 1106SOL    HW2 4218   0.496   1.936   6.452
 1107SOL     OW 4219   0.757   0.234   6.988
 1107SOL    HW1 4220   0.835   0.242   6.926
 1107SOL    HW2 4221   0.703   0.318   6.985
 1108SOL     OW 4222   2.557   0.700   4.899
 1108SOL    HW1 4223   2.558   0.659   4.990
 1108SOL    HW2 4224   2.537   0.629   4.831
 1109SOL     OW 4225   3.694   5.478   4.643
 1109SOL    HW1 4226   3.609   5.530   4.654
 1109SOL    HW2 4227   3.747   5.516   4.567
 1110SOL     OW 4228   2.716   2.500   1.272
 1110SOL    HW1 4229   2.758   2.590   1.281
 1110SOL    HW2 4230   2.679   2.490   1.180
 1111SOL     OW 4231   5.056   6.789   6.581
 1111SOL    HW1 4232   5.082   6.885   6.591
 1111SOL    HW2 4233   4.976   6.781   6.522
 1112SOL     OW 4234   5.989   1.000   2.695
 1112SOL    HW1 4235   6.054   1.049   2.753
 1112SOL    HW2 4236   5.975   0.907   2.731
 1113SOL     OW 4237   6.160   3.337   2.503
 1113SOL    HW1 4238   6.090   3.318   2.572
 1113SOL    HW2 4239   6.144   3.428   2.464
 1114SOL     OW 4240   4.909   0.389   6.285
 1114SOL    HW1 4241   4.826   0.433   6.250
 1114SOL    HW2 4242   4.935   0.431   6.372
 1115SOL     OW 4243   3.839   1.890   0.549
 1115SOL    HW1 4244   3.890   1.966   0.509
 1115SOL    HW2 4245   3.898   1.809   0.556
 1116SOL     OW 4246   5.332   5.730   4.049
 1116SOL    HW1 4247   5.261   5.772   3.992
 1116SOL    HW2 4248   5.293   5.651   4.097
 1117SOL     OW 4249   2.355   2.747   1.481
 1117SOL    HW1 4250   2.388   2.760   1.388
 1117SOL    HW2 4251   2.412   2.680   1.528
 1118SOL     OW 4252   1.671   5.051   3.097
 1118SOL    HW1 4253   1.583   5.097   3.102
 1118SOL    HW2 4254   1.692   5.028   3.002
 1119SOL     OW 4255   4.437   3.955   1.713
 1119SOL    HW1 4256   4.460   4.038   1.763
 1119SOL    HW2 4257   4.350   3.968   1.665
 1120SOL     OW 4258   5.052   6.502   5.735
 1120SOL    HW1 4259   5.057   6.402   5.729
 1120SOL    HW2 4260   5.130   6.542   5.687
 1121SOL     OW 4261   5.039   2.638   2.037
 1121SOL    HW1 4262   4.940   2.630   2.039
 1121SOL    HW2 4263   5.070   2.691   2.116
 1122SOL     OW 4264   5.806   2.850   6.667
 1122SOL    HW1 4265   5.830   2.946   6.651
 1122SOL    HW2 4266   5.882   2.792   6.640
 1123SOL     OW 4267   4.955   1.384   1.523
 1123SOL    HW1 4268   4.972   1.480   1.547
 1123SOL    HW2 4269   4.880   1.349   1.580
 1124SOL     OW 4270   6.486   3.552   4.927
 1124SOL    HW1 4271   6.433   3.637   4.931
 1124SOL    HW2 4272   6.552   3.558   4.852
 1125SOL     OW 4273   2.714   2.506   5.189
 1125SOL    HW1 4274   2.778   2.569   5.232
 1125SOL    HW2 4275   2.631   2.556   5.161
 1126SOL     OW 4276   4.329   6.842   0.131
 1126SOL    HW1 4277   4.396   6.767   0.127
 1126SOL    HW2 4278   4.249   6.813   0.183
 1127SOL     OW 4279   2.511   4.171   6.341
 1127SOL    HW1 4280   2.511   4.193   6.243
 1127SOL    HW2 4281   2.601   4.138   6.368
 1128SOL     OW 4282   4.354   2.335   4.144
 1128SOL    HW1 4283   4.368   2.428   4.179
 1128SOL    HW2 4284   4.366   2.334   4.045
 1129SOL     OW 4285   4.224   0.360   0.589
 1129SOL    HW1 4286   4.210   0.390   0.495
 1129SOL    HW2 4287   4.257   0.438   0.643
 1130SOL     OW 4288   1.579   4.242   1.490
 1130SOL    HW1 4289   1.621   4.181   1.557
 1130SOL    HW2 4290   1.489   4.271   1.523
 1131SOL     OW 4291   0.356   6.247   5.767
 1131SOL    HW1 4292   0.282   6.194   5.726
 1131SOL    HW2 4293   0.431   6.256   5.701
 1132SOL     OW 4294   5.214   6.645   5.958
 1132SOL    HW1 4295   5.220   6.593   6.043
 1132SOL    HW2 4296   5.148   6.602   5.897
 1133SOL     OW 4297   0.400   2.242   1.757
 1133SOL    HW1 4298   0.305   2.217   1.776
 1133SOL    HW2 4299   0.405   2.283   1.666
 1134SOL     OW 4300   5.769   2.539   6.682
 1134SOL    HW1 4301   5.820   2.613   6.640
 1134SOL    HW2 4302   5.759   2.464   6.616
 1135SOL     OW 4303   2.988   2.089   3.350
 1135SOL    HW1 4304   2.959   2.148   3.426
 1135SOL    HW2 4305   3.005   2.144   3.269
 1136SOL     OW 4306   2.391   5.430   3.755
 1136SOL    HW1 4307   2.407   5.337   3.790
 1136SOL    HW2 4308   2.321   5.474   3.811
 1137SOL     OW 4309   0.791   1.926   6.767
 1137SOL    HW1 4310   0.764   1.931   6.863
 1137SOL    HW2 4311   0.890   1.917   6.761
 1138SOL     OW 4312   2.262   3.404   6.028
 1138SOL    HW1 4313   2.320   3.385   5.949
 1138SOL    HW2 4314   2.263   3.502   6.047
 1139SOL     OW 4315   1.585   6.166   3.246
 1139SOL    HW1 4316   1.546   6.076   3.264
 1139SOL    HW2 4317   1.514   6.226   3.208
 1140SOL     OW 4318   3.867   2.103   3.297
 1140SOL    HW1 4319   3.962   2.102   3.265
 1140SOL    HW2 4320   3.805   2.112   3.218
 1141SOL     OW 4321   5.266   5.430   5.660
 1141SOL    HW1 4322   5.339   5.364   5.649
 1141SOL    HW2 4323   5.189   5.388   5.708
 1142SOL     OW 4324   4.998   0.119   4.482
 1142SOL    HW1 4325   5.037   0.030   4.505
 1142SOL    HW2 4326   4.993   0.129   4.383
 1143SOL     OW 4327   4.030   2.047   2.449
 1143SOL    HW1 4328   3.981   2.063   2.535
 1143SOL    HW2 4329   3.966   2.055   2.373
 1144SOL     OW 4330   0.039   4.444   4.120
 1144SOL    HW1 4331   0.137   4.448   4.141
 1144SOL    HW2 4332   0.025   4.456   4.022
 1145SOL     OW 4333   6.878   5.844   3.549
 1145SOL    HW1 4334   6.961   5.856   3.493
 1145SOL    HW2 4335   6.891   5.889   3.637
 1146SOL     OW 4336   5.567   1.940   0.794
 1146SOL    HW1 4337   5.536   1.931   0.889
 1146SOL    HW2 4338   5.515   2.013   0.749
 1147SOL     OW 4339   1.091   3.600   1.559
 1147SOL    HW1 4340   1.006   3.549   1.570
 1147SOL    HW2 4341   1.085   3.657   1.477
 1148SOL     OW 4342   3.334   5.928   6.252
 1148SOL    HW1 4343   3.348   5.831   6.273
 1148SOL    HW2 4344   3.404   5.958   6.187
 1149SOL     OW 4345   6.304   3.381   3.129
 1149SOL    HW1 4346   6.403   3.379   3.137
 1149SOL    HW2 4347   6.263   3.340   3.211
 1150SOL     OW 4348   2.504   4.656   1.104
 1150SOL    HW1 4349   2.554   4.570   1.118
 1150SOL    HW2 4350   2.567   4.726   1.070
 1151SOL     OW 4351   5.660   5.627   6.365
 1151SOL    HW1 4352   5.744   5.667   6.401
 1151SOL    HW2 4353   5.597   5.700   6.337
 1152SOL     OW 4354   1.207   0.339   4.777
 1152SOL    HW1 4355   1.158   0.423   4.800
 1152SOL    HW2 4356   1.188   0.314   4.682
 1153SOL     OW 4357   2.453   6.420   2.976
 1153SOL    HW1 4358   2.498   6.395   3.063
 1153SOL    HW2 4359   2.493   6.366   2.902
 1154SOL     OW 4360   0.367   3.595   1.892
 1154SOL    HW1 4361   0.318   3.585   1.805
 1154SOL    HW2 4362   0.347   3.516   1.950
 1155SOL     OW 4363   3.146   6.013   0.494
 1155SOL    HW1 4364   3.095   5.981   0.574
 1155SOL    HW2 4365   3.209   5.941   0.464
 1156SOL     OW 4366   2.391   0.317   3.571
 1156SOL    HW1 4367   2.365   0.295   3.665
 1156SOL    HW2 4368   2.320   0.373   3.529
 1157SOL     OW 4369   6.942   2.264   5.095
 1157SOL    HW1 4370   6.875   2.273   5.168
 1157SOL    HW2 4371   0.010   2.276   5.132
 1158SOL     OW 4372   5.455   4.662   5.554
 1158SOL    HW1 4373   5.489   4.727   5.485
 1158SOL    HW2 4374   5.378   4.704   5.603
 1159SOL     OW 4375   3.923   6.660   2.903
 1159SOL    HW1 4376   3.901   6.571   2.863
 1159SOL    HW2 4377   3.980   6.648   2.984
 1160SOL     OW 4378   3.462   4.144   2.186
 1160SOL    HW1 4379   3.486   4.217   2.122
 1160SOL    HW2 4380   3.545   4.099   2.219
 1161SOL     OW 4381   5.214   0.505   4.760
 1161SOL    HW1 4382   5.175   0.577   4.816
 1161SOL    HW2 4383   5.142   0.443   4.730
 1162SOL     OW 4384   3.483   2.900   1.025
 1162SOL    HW1 4385   3.569   2.926   1.069
 1162SOL    HW2 4386   3.480   2.800   1.014
 1163SOL     OW 4387   5.156   2.427   1.839
 1163SOL    HW1 4388   5.061   2.412   1.866
 1163SOL    HW2 4389   5.164   2.518   1.796
 1164SOL     OW 4390   5.297   2.992   2.864
 1164SOL    HW1 4391   5.213   2.939   2.848
 1164SOL    HW2 4392   5.355   2.987   2.783
 1165SOL     OW 4393   1.225   3.432   3.655
 1165SOL    HW1 4394   1.137   3.464   3.690
 1165SOL    HW2 4395   1.223   3.332   3.647
 1166SOL     OW 4396   4.061   1.710   6.355
 1166SOL    HW1 4397   4.091   1.621   6.318
 1166SOL    HW2 4398   3.998   1.753   6.290
 1167SOL     OW 4399   3.606   0.404   5.156
 1167SOL    HW1 4400   3.583   0.318   5.111
 1167SOL    HW2 4401   3.695   0.436   5.124
 1168SOL     OW 4402   6.163   7.025   3.042
 1168SOL    HW1 4403   6.118   0.083   3.076
 1168SOL    HW2 4404   6.096   6.950   3.040
 1169SOL     OW 4405   0.439   3.454   0.998
 1169SOL    HW1 4406   0.465   3.493   0.909
 1169SOL    HW2 4407   0.366   3.510   1.038
 1170SOL     OW 4408   3.550   0.889   2.450
 1170SOL    HW1 4409   3.639   0.916   2.488
 1170SOL    HW2 4410   3.563   0.819   2.380
 1171SOL     OW 4411   2.996   6.069   0.780
 1171SOL    HW1 4412   2.912   6.119   0.798
 1171SOL    HW2 4413   2.989   5.977   0.819
 1172SOL     OW 4414   4.004   3.913   4.236
 1172SOL    HW1 4415   4.019   4.006   4.204
 1172SOL    HW2 4416   4.039   3.848   4.167
 1173SOL     OW 4417   3.411   7.024   5.389
 1173SOL    HW1 4418   3.370   0.064   5.325
 1173SOL    HW2 4419   3.511   0.009   5.387
 1174SOL     OW 4420   2.732   5.452   0.539
 1174SOL    HW1 4421   2.650   5.508   0.524
 1174SOL    HW2 4422   2.812   5.511   0.544
 1175SOL     OW 4423   5.957   4.699   7.013
 1175SOL    HW1 4424   5.959   4.710   0.087
 1175SOL    HW2 4425   5.944   4.602   6.991
 1176SOL     OW 4426   5.633   4.901   1.012
 1176SOL    HW1 4427   5.631   5.001   1.007
 1176SOL    HW2 4428   5.628   4.872   1.107
 1177SOL     OW 4429   0.002   2.679   5.356
 1177SOL    HW1 4430   0.049   2.663   5.443
 1177SOL    HW2 4431   6.929   2.661   5.368
 1178SOL     OW 4432   4.681   4.291   2.442
 1178SOL    HW1 4433   4.702   4.208   2.390
 1178SOL    HW2 4434   4.636   4.357   2.381
 1179SOL     OW 4435   1.663   3.848   0.883
 1179SOL    HW1 4436   1.632   3.925   0.939
 1179SOL    HW2 4437   1.759   3.859   0.861
 1180SOL     OW 4438   2.198   1.358   3.541
 1180SOL    HW1 4439   2.131   1.294   3.505
 1180SOL    HW2 4440   2.254   1.393   3.465
 1181SOL     OW 4441   1.044   4.835   4.556
 1181SOL    HW1 4442   1.138   4.861   4.577
 1181SOL    HW2 4443   1.041   4.792   4.465
 1182SOL     OW 4444   2.282   4.416   3.504
 1182SOL    HW1 4445   2.321   4.450   3.418
 1182SOL    HW2 4446   2.182   4.414   3.497
 1183SOL     OW 4447   4.715   5.312   1.804
 1183SOL    HW1 4448   4.674   5.241   1.860
 1183SOL    HW2 4449   4.654   5.392   1.801
 1184SOL     OW 4450   3.376   3.205   5.559
 1184SOL    HW1 4451   3.350   3.302   5.555
 1184SOL    HW2 4452   3.294   3.148   5.551
 1185SOL     OW 4453   2.445   0.552   0.253
 1185SOL    HW1 4454   2.361   0.507   0.221
 1185SOL    HW2 4455   2.464   0.524   0.347
 1186SOL     OW 4456   6.037   0.173   5.031
 1186SOL    HW1 4457   5.971   0.168   5.106
 1186SOL    HW2 4458   6.119   0.222   5.062
 1187SOL     OW 4459   5.430   6.111   4.684
 1187SOL    HW1 4460   5.434   6.109   4.584
 1187SOL    HW2 4461   5.496   6.177   4.718
 1188SOL     OW 4462   2.550   6.542   5.807
 1188SOL    HW1 4463   2.511   6.481   5.876
 1188SOL    HW2 4464   2.527   6.637   5.830
 1189SOL     OW 4465   5.121   1.432   2.286
 1189SOL    HW1 4466   5.165   1.449   2.197
 1189SOL    HW2 4467   5.032   1.477   2.289
 1190SOL     OW 4468   3.766   5.103   3.364
 1190SOL    HW1 4469   3.858   5.064   3.376
 1190SOL    HW2 4470   3.717   5.051   3.294
 1191SOL     OW 4471   3.377   5.222   6.117
 1191SOL    HW1 4472   3.342   5.174   6.036
 1191SOL    HW2 4473   3.400   5.155   6.188
 1192SOL     OW 4474   5.780   4.620   3.392
 1192SOL    HW1 4475   5.695   4.626   3.443
 1192SOL    HW2 4476   5.857   4.636   3.453
 1193SOL     OW 4477   5.409   0.143   4.408
 1193SOL    HW1 4478   5.506   0.124   4.402
 1193SOL    HW2 4479   5.367   0.083   4.476
 1194SOL     OW 4480   6.834   0.485   0.721
 1194SOL    HW1 4481   6.853   0.411   0.785
 1194SOL    HW2 4482   6.894   0.477   0.642
 1195SOL     OW 4483   6.326   0.902   6.235
 1195SOL    HW1 4484   6.370   0.980   6.188
 1195SOL    HW2 4485   6.374   0.885   6.321
 1196SOL     OW 4486   0.406   4.975   2.294
 1196SOL    HW1 4487   0.483   4.913   2.308
 1196SOL    HW2 4488   0.380   4.974   2.197
 1197SOL     OW 4489   3.686   5.978   5.508
 1197SOL    HW1 4490   3.735   6.059   5.474
 1197SOL    HW2 4491   3.699   5.902   5.445
 1198SOL     OW 4492   2.729   2.295   2.591
 1198SOL    HW1 4493   2.674   2.213   2.606
 1198SOL    HW2 4494   2.681   2.356   2.527
 1199SOL     OW 4495   2.993   3.823   2.449
 1199SOL    HW1 4496   2.950   3.911   2.469
 1199SOL    HW2 4497   2.981   3.762   2.527
 1200SOL     OW 4498   4.237   3.954   5.310
 1200SOL    HW1 4499   4.330   3.953   5.348
 1200SOL    HW2 4500   4.185   4.029   5.351
 1201SOL     OW 4501   1.636   1.637   5.035
 1201SOL    HW1 4502   1.584   1.577   4.975
 1201SOL    HW2 4503   1.714   1.675   4.985
 1202SOL     OW 4504   5.642   6.831   6.042
 1202SOL    HW1 4505   5.691   6.911   6.077
 1202SOL    HW2 4506   5.545   6.853   6.031
 1203SOL     OW 4507   5.308   0.069   1.189
 1203SOL    HW1 4508   5.248   0.149   1.190
 1203SOL    HW2 4509   5.323   0.040   1.094
 1204SOL     OW 4510   3.624   1.389   0.549
 1204SOL    HW1 4511   3.591   1.353   0.462
 1204SOL    HW2 4512   3.707   1.443   0.533
 1205SOL     OW 4513   5.576   2.597   6.327
 1205SOL    HW1 4514   5.668   2.635   6.326
 1205SOL    HW2 4515   5.509   2.670   6.311
 1206SOL     OW 4516   1.897   1.502   5.137
 1206SOL    HW1 4517   1.810   1.452   5.138
 1206SOL    HW2 4518   1.956   1.467   5.209
 1207SOL     OW 4519   6.245   6.320   0.354
 1207SOL    HW1 4520   6.344   6.316   0.370
 1207SOL    HW2 4521   6.197   6.285   0.434
 1208SOL     OW 4522   3.390   3.684   2.877
 1208SOL    HW1 4523   3.483   3.652   2.861
 1208SOL    HW2 4524   3.375   3.693   2.976
 1209SOL     OW 4525   6.330   5.613   5.391
 1209SOL    HW1 4526   6.344   5.602   5.292
 1209SOL    HW2 4527   6.289   5.529   5.427
 1210SOL     OW 4528   3.787   0.286   2.564
 1210SOL    HW1 4529   3.877   0.313   2.530
 1210SOL    HW2 4530   3.734   0.368   2.587
 1211SOL     OW 4531   1.280   3.156   3.843
 1211SOL    HW1 4532   1.251   3.166   3.748
 1211SOL    HW2 4533   1.305   3.061   3.860
 1212SOL     OW 4534   1.440   3.088   5.896
 1212SOL    HW1 4535   1.422   2.990   5.901
 1212SOL    HW2 4536   1.377   3.131   5.831
 1213SOL     OW 4537   6.473   2.985   5.258
 1213SOL    HW1 4538   6.496   2.975   5.355
 1213SOL    HW2 4539   6.415   2.909   5.229
 1214SOL     OW 4540   1.905   3.476   4.805
 1214SOL    HW1 4541   1.988   3.471   4.750
 1214SOL    HW2 4542   1.841   3.405   4.776
 1215SOL     OW 4543   2.291   4.546   2.657
 1215SOL    HW1 4544   2.349   4.489   2.599
 1215SOL    HW2 4545   2.341   4.572   2.739
 1216SOL     OW 4546   1.396   6.548   1.538
 1216SOL    HW1 4547   1.477   6.602   1.517
 1216SOL    HW2 4548   1.422   6.452   1.552
 1217SOL     OW 4549   1.003   6.605   6.904
 1217SOL    HW1 4550   1.041   6.662   6.831
 1217SOL    HW2 4551   0.908   6.632   6.921
 1218SOL     OW 4552   1.229   3.243   5.380
 1218SOL    HW1 4553   1.220   3.328   5.432
 1218SOL    HW2 4554   1.203   3.260   5.285
 1219SOL     OW 4555   4.744   5.059   0.373
 1219SOL    HW1 4556   4.731   5.117   0.453
 1219SOL    HW2 4557   4.785   5.112   0.299
 1220SOL     OW 4558   5.604   3.442   2.709
 1220SOL    HW1 4559   5.699   3.474   2.704
 1220SOL    HW2 4560   5.585   3.382   2.631
 1221SOL     OW 4561   5.879   3.997   0.102
 1221SOL    HW1 4562   5.932   3.964   0.024
 1221SOL    HW2 4563   5.935   4.060   0.156
 1222SOL     OW 4564   6.811   6.562   0.760
 1222SOL    HW1 4565   6.874   6.622   0.810
 1222SOL    HW2 4566   6.751   6.516   0.825
 1223SOL     OW 4567   5.946   0.240   6.622
 1223SOL    HW1 4568   5.981   0.179   6.693
 1223SOL    HW2 4569   5.960   0.335   6.650
 1224SOL     OW 4570   4.174   5.988   0.010
 1224SOL    HW1 4571   4.213   6.060   0.068
 1224SOL    HW2 4572   4.246   5.949   6.977
 1225SOL     OW 4573   3.876   1.659   1.117
 1225SOL    HW1 4574   3.848   1.567   1.142
 1225SOL    HW2 4575   3.828   1.725   1.175
 1226SOL     OW 4576   6.007   6.563   0.937
 1226SOL    HW1 4577   6.103   6.587   0.947
 1226SOL    HW2 4578   5.978   6.578   0.843
 1227SOL     OW 4579   5.650   4.488   5.741
 1227SOL    HW1 4580   5.594   4.570   5.734
 1227SOL    HW2 4581   5.717   4.487   5.666
 1228SOL     OW 4582   3.633   3.044   1.967
 1228SOL    HW1 4583   3.688   2.982   1.912
 1228SOL    HW2 4584   3.673   3.053   2.058
 1229SOL     OW 4585   1.456   6.684   2.108
 1229SOL    HW1 4586   1.537   6.646   2.152
 1229SOL    HW2 4587   1.405   6.611   2.063
 1230SOL     OW 4588   5.278   5.311   2.792
 1230SOL    HW1 4589   5.332   5.392   2.812
 1230SOL    HW2 4590   5.239   5.274   2.877
 1231SOL     OW 4591   1.802   2.731   6.374
 1231SOL    HW1 4592   1.794   2.825   6.408
 1231SOL    HW2 4593   1.801   2.732   6.274
 1232SOL     OW 4594   3.855   1.127   4.826
 1232SOL    HW1 4595   3.766   1.084   4.814
 1232SOL    HW2 4596   3.921   1.085   4.763
 1233SOL     OW 4597   1.422   4.697   3.608
 1233SOL    HW1 4598   1.470   4.721   3.523
 1233SOL    HW2 4599   1.455   4.608   3.640
 1234SOL     OW 4600   6.807   3.489   6.692
 1234SOL    HW1 4601   6.763   3.541   6.766
 1234SOL    HW2 4602   6.775   3.395   6.693
 1235SOL     OW 4603   6.179   5.012   0.171
 1235SOL    HW1 4604   6.260   4.964   0.140
 1235SOL    HW2 4605   6.143   5.069   0.098
 1236SOL     OW 4606   3.059   1.303   6.905
 1236SOL    HW1 4607   3.148   1.293   6.948
 1236SOL    HW2 4608   3.047   1.397   6.875
 1237SOL     OW 4609   1.444   0.607   4.569
 1237SOL    HW1 4610   1.512   0.649   4.630
 1237SOL    HW2 4611   1.358   0.595   4.618
 1238SOL     OW 4612   0.367   0.138   2.901
 1238SOL    HW1 4613   0.325   0.106   2.816
 1238SOL    HW2 4614   0.301   0.192   2.952
 1239SOL     OW 4615   0.167   5.183   4.448
 1239SOL    HW1 4616   0.205   5.165   4.538
 1239SOL    HW2 4617   0.072   5.152   4.444
 1240SOL     OW 4618   6.104   5.705   3.070
 1240SOL    HW1 4619   6.082   5.613   3.102
 1240SOL    HW2 4620   6.136   5.700   2.975
 1241SOL     OW 4621   0.092   5.404   4.239
 1241SOL    HW1 4622   0.132   5.354   4.316
 1241SOL    HW2 4623   0.018   5.349   4.199
 1242SOL     OW 4624   1.123   3.467   0.101
 1242SOL    HW1 4625   1.078   3.403   0.163
 1242SOL    HW2 4626   1.183   3.417   0.038
 1243SOL     OW 4627   1.024   3.413   5.728
 1243SOL    HW1 4628   1.112   3.408   5.775
 1243SOL    HW2 4629   0.967   3.336   5.755
 1244SOL     OW 4630   5.595   6.770   5.288
 1244SOL    HW1 4631   5.570   6.863   5.313
 1244SOL    HW2 4632   5.555   6.747   5.200
 1245SOL     OW 4633   5.279   5.753   1.212
 1245SOL    HW1 4634   5.372   5.734   1.181
 1245SOL    HW2 4635   5.238   5.823   1.154
 1246SOL     OW 4636   4.646   1.188   0.808
 1246SOL    HW1 4637   4.553   1.217   0.829
 1246SOL    HW2 4638   4.711   1.242   0.862
 1247SOL     OW 4639   6.996   6.822   4.015
 1247SOL    HW1 4640   6.950   6.734   4.026
 1247SOL    HW2 4641   0.050   6.827   4.075
 1248SOL     OW 4642   0.097   6.629   4.673
 1248SOL    HW1 4643   0.058   6.639   4.581
 1248SOL    HW2 4644   0.048   6.689   4.736
 1249SOL     OW 4645   0.451   4.734   1.337
 1249SOL    HW1 4646   0.420   4.733   1.432
 1249SOL    HW2 4647   0.537   4.683   1.329
 1250SOL     OW 4648   5.786   3.923   4.862
 1250SOL    HW1 4649   5.885   3.907   4.869
 1250SOL    HW2 4650   5.767   3.975   4.779
 1251SOL     OW 4651   2.236   1.408   3.133
 1251SOL    HW1 4652   2.255   1.467   3.055
 1251SOL    HW2 4653   2.205   1.464   3.210
 1252SOL     OW 4654   3.086   5.592   0.024
 1252SOL    HW1 4655   3.165   5.651   0.006
 1252SOL    HW2 4656   3.077   5.525   6.975
 1253SOL     OW 4657   3.241   0.399   0.544
 1253SOL    HW1 4658   3.330   0.386   0.501
 1253SOL    HW2 4659   3.176   0.433   0.475
 1254SOL     OW 4660   6.189   1.732   2.990
 1254SOL    HW1 4661   6.191   1.821   3.036
 1254SOL    HW2 4662   6.217   1.743   2.895
 1255SOL     OW 4663   5.908   2.748   4.973
 1255SOL    HW1 4664   5.833   2.789   5.026
 1255SOL    HW2 4665   5.937   2.663   5.017
 1256SOL     OW 4666   6.716   5.744   3.910
 1256SOL    HW1 4667   6.621   5.748   3.879
 1256SOL    HW2 4668   6.768   5.817   3.868
 1257SOL     OW 4669   1.087   4.493   3.617
 1257SOL    HW1 4670   1.110   4.422   3.684
 1257SOL    HW2 4671   1.061   4.576   3.665
 1258SOL     OW 4672   1.920   5.991   3.505
 1258SOL    HW1 4673   1.857   5.992   3.582
 1258SOL    HW2 4674   1.886   5.930   3.434
 1259SOL     OW 4675   4.599   0.463   5.089
 1259SOL    HW1 4676   4.623   0.509   5.174
 1259SOL    HW2 4677   4.507   0.490   5.060
 1260SOL     OW 4678   2.739   0.726   2.088
 1260SOL    HW1 4679   2.720   0.812   2.135
 1260SOL    HW2 4680   2.751   0.743   1.991
 1261SOL     OW 4681   0.252   3.535   6.742
 1261SOL    HW1 4682   0.189   3.457   6.743
 1261SOL    HW2 4683   0.254   3.576   6.651
 1262SOL     OW 4684   4.548   4.978   1.215
 1262SOL    HW1 4685   4.520   5.033   1.136
 1262SOL    HW2 4686   4.593   5.037   1.282
 1263SOL     OW 4687   6.514   2.007   1.058
 1263SOL    HW1 4688   6.519   2.038   0.963
 1263SOL    HW2 4689   6.528   1.908   1.061
 1264SOL     OW 4690   0.580   4.474   3.339
 1264SOL    HW1 4691   0.522   4.437   3.412
 1264SOL    HW2 4692   0.640   4.401   3.305
 1265SOL     OW 4693   0.469   3.669   4.342
 1265SOL    HW1 4694   0.436   3.578   4.365
 1265SOL    HW2 4695   0.569   3.672   4.351
 1266SOL     OW 4696   2.692   1.190   5.284
 1266SOL    HW1 4697   2.655   1.156   5.371
 1266SOL    HW2 4698   2.626   1.252   5.242
 1267SOL     OW 4699   0.184   5.544   2.855
 1267SOL    HW1 4700   0.280   5.517   2.864
 1267SOL    HW2 4701   0.169   5.585   2.765
 1268SOL     OW 4702   5.458   2.054   6.755
 1268SOL    HW1 4703   5.545   2.084   6.714
 1268SOL    HW2 4704   5.382   2.084   6.697
 1269SOL     OW 4705   6.825   6.594   5.097
 1269SOL    HW1 4706   6.924   6.605   5.105
 1269SOL    HW2 4707   6.780   6.683   5.107
 1270SOL     OW 4708   1.985   3.961   4.234
 1270SOL    HW1 4709   1.945   3.910   4.310
 1270SOL    HW2 4710   2.021   4.048   4.269
 1271SOL     OW 4711   3.304   1.875   3.115
 1271SOL    HW1 4712   3.268   1.955   3.066
 1271SOL    HW2 4713   3.232   1.808   3.128
 1272SOL     OW 4714   0.511   5.550   1.090
 1272SOL    HW1 4715   0.502   5.452   1.074
 1272SOL    HW2 4716   0.587   5.586   1.037
 1273SOL     OW 4717   1.937   4.142   0.573
 1273SOL    HW1 4718   1.942   4.241   0.557
 1273SOL    HW2 4719   1.968   4.093   0.492
 1274SOL     OW 4720   0.417   2.906   1.693
 1274SOL    HW1 4721   0.389   2.844   1.766
 1274SOL    HW2 4722   0.469   2.982   1.732
 1275SOL     OW 4723   4.395   0.720   3.846
 1275SOL    HW1 4724   4.493   0.722   3.864
 1275SOL    HW2 4725   4.377   0.662   3.767
 1276SOL     OW 4726   6.686   0.582   2.943
 1276SOL    HW1 4727   6.625   0.512   2.906
 1276SOL    HW2 4728   6.659   0.603   3.037
 1277SOL     OW 4729   0.413   1.126   4.939
 1277SOL    HW1 4730   0.423   1.082   4.850
 1277SOL    HW2 4731   0.477   1.203   4.946
 1278SOL     OW 4732   2.100   1.820   5.816
 1278SOL    HW1 4733   2.004   1.847   5.805
 1278SOL    HW2 4734   2.118   1.739   5.760
 1279SOL     OW 4735   2.534   6.981   0.518
 1279SOL    HW1 4736   2.536   0.056   0.511
 1279SOL    HW2 4737   2.464   6.954   0.584
 1280SOL     OW 4738   2.300   0.604   2.826
 1280SOL    HW1 4739   2.207   0.595   2.792
 1280SOL    HW2 4740   2.363   0.556   2.765
 1281SOL     OW 4741   1.159   6.053   3.011
 1281SOL    HW1 4742   1.128   5.960   2.991
 1281SOL    HW2 4743   1.165   6.066   3.110
 1282SOL     OW 4744   0.422   1.428   1.089
 1282SOL    HW1 4745   0.377   1.390   1.008
 1282SOL    HW2 4746   0.513   1.387   1.099
 1283SOL     OW 4747   5.574   3.732   5.666
 1283SOL    HW1 4748   5.528   3.698   5.584
 1283SOL    HW2 4749   5.507   3.777   5.725
 1284SOL     OW 4750   2.943   2.444   1.659
 1284SOL    HW1 4751   2.931   2.447   1.759
 1284SOL    HW2 4752   3.039   2.429   1.638
 1285SOL     OW 4753   5.754   3.292   6.288
 1285SOL    HW1 4754   5.821   3.310   6.361
 1285SOL    HW2 4755   5.688   3.224   6.320
 1286SOL     OW 4756   4.958   4.486   2.293
 1286SOL    HW1 4757   4.896   4.540   2.350
 1286SOL    HW2 4758   5.045   4.474   2.340
 1287SOL     OW 4759   6.145   4.791   6.270
 1287SOL    HW1 4760   6.161   4.757   6.362
 1287SOL    HW2 4761   6.047   4.802   6.254
 1288SOL     OW 4762   0.451   2.906   0.641
 1288SOL    HW1 4763   0.526   2.933   0.702
 1288SOL    HW2 4764   0.429   2.809   0.656
 1289SOL     OW 4765   0.276   5.793   1.716
 1289SOL    HW1 4766   0.180   5.792   1.690
 1289SOL    HW2 4767   0.330   5.835   1.643
 1290SOL     OW 4768   0.188   0.666   6.819
 1290SOL    HW1 4769   0.261   0.735   6.819
 1290SOL    HW2 4770   0.212   0.591   6.880
 1291SOL     OW 4771   2.178   4.775   6.627
 1291SOL    HW1 4772   2.278   4.769   6.620
 1291SOL    HW2 4773   2.153   4.810   6.717
 1292SOL     OW 4774   6.985   4.602   2.122
 1292SOL    HW1 4775   7.003   4.658   2.041
 1292SOL    HW2 4776   7.021   4.648   2.203
 1293SOL     OW 4777   2.585   1.113   6.086
 1293SOL    HW1 4778   2.545   1.150   6.002
 1293SOL    HW2 4779   2.631   1.027   6.067
 1294SOL     OW 4780   0.448   3.373   1.607
 1294SOL    HW1 4781   0.426   3.291   1.659
 1294SOL    HW2 4782   0.521   3.423   1.653
 1295SOL     OW 4783   6.231   4.046   2.696
 1295SOL    HW1 4784   6.300   4.091   2.752
 1295SOL    HW2 4785   6.252   4.062   2.599
 1296SOL     OW 4786   3.536   1.683   6.141
 1296SOL    HW1 4787   3.537   1.603   6.201
 1296SOL    HW2 4788   3.488   1.660   6.056
 1297SOL     OW 4789   5.977   1.758   5.552
 1297SOL    HW1 4790   5.944   1.851   5.571
 1297SOL    HW2 4791   5.900   1.695   5.556
 1298SOL     OW 4792   5.981   3.246   3.511
 1298SOL    HW1 4793   6.032   3.198   3.440
 1298SOL    HW2 4794   6.041   3.311   3.558
 1299SOL     OW 4795   2.112   4.224   3.156
 1299SOL    HW1 4796   2.163   4.235   3.070
 1299SOL    HW2 4797   2.176   4.211   3.231
 1300SOL     OW 4798   3.092   3.636   1.968
 1300SOL    HW1 4799   3.045   3.627   2.056
 1300SOL    HW2 4800   3.042   3.586   1.898
 1301SOL     OW 4801   1.291   6.394   2.440
 1301SOL    HW1 4802   1.331   6.459   2.376
 1301SOL    HW2 4803   1.194   6.382   2.419
 1302SOL     OW 4804   2.138   6.963   4.437
 1302SOL    HW1 4805   2.231   6.943   4.465
 1302SOL    HW2 4806   2.086   6.997   4.515
 1303SOL     OW 4807   3.989   1.316   0.876
 1303SOL    HW1 4808   4.061   1.246   0.878
 1303SOL    HW2 4809   4.009   1.385   0.945
 1304SOL     OW 4810   1.155   0.962   6.334
 1304SOL    HW1 4811   1.122   0.871   6.307
 1304SOL    HW2 4812   1.191   1.009   6.255
 1305SOL     OW 4813   5.448   5.780   5.070
 1305SOL    HW1 4814   5.360   5.812   5.037
 1305SOL    HW2 4815   5.439   5.749   5.165
 1306SOL     OW 4816   1.283   3.587   5.294
 1306SOL    HW1 4817   1.203   3.579   5.234
 1306SOL    HW2 4818   1.268   3.534   5.377
 1307SOL     OW 4819   1.738   3.132   4.941
 1307SOL    HW1 4820   1.775   3.159   5.031
 1307SOL    HW2 4821   1.789   3.053   4.907
 1308SOL     OW 4822   4.023   6.095   4.643
 1308SOL    HW1 4823   4.068   6.008   4.663
 1308SOL    HW2 4824   4.072   6.142   4.569
 1309SOL     OW 4825   5.859   3.341   5.403
 1309SOL    HW1 4826   5.828   3.274   5.471
 1309SOL    HW2 4827   5.780   3.385   5.361
 1310SOL     OW 4828   5.782   3.855   5.131
 1310SOL    HW1 4829   5.872   3.878   5.167
 1310SOL    HW2 4830   5.781   3.872   5.032
 1311SOL     OW 4831   5.768   6.754   3.985
 1311SOL    HW1 4832   5.733   6.662   4.005
 1311SOL    HW2 4833   5.867   6.756   4.002
 1312SOL     OW 4834   0.705   0.908   6.728
 1312SOL    HW1 4835   0.764   0.967   6.783
 1312SOL    HW2 4836   0.728   0.919   6.631
 1313SOL     OW 4837   2.771   5.823   5.426
 1313SOL    HW1 4838   2.771   5.866   5.516
 1313SOL    HW2 4839   2.715   5.740   5.430
 1314SOL     OW 4840   1.923   1.194   5.692
 1314SOL    HW1 4841   1.921   1.106   5.645
 1314SOL    HW2 4842   1.832   1.216   5.728
 1315SOL     OW 4843   1.120   1.373   0.624
 1315SOL    HW1 4844   1.201   1.356   0.567
 1315SOL    HW2 4845   1.094   1.290   0.672
 1316SOL     OW 4846   1.963   0.055   3.034
 1316SOL    HW1 4847   2.050   0.035   3.079
 1316SOL    HW2 4848   1.887   0.023   3.091
 1317SOL     OW 4849   0.747   4.472   4.762
 1317SOL    HW1 4850   0.653   4.460   4.731
 1317SOL    HW2 4851   0.784   4.556   4.722
 1318SOL     OW 4852   0.461   1.194   0.767
 1318SOL    HW1 4853   0.556   1.220   0.749
 1318SOL    HW2 4854   0.443   1.104   0.726
 1319SOL     OW 4855   6.126   1.139   0.029
 1319SOL    HW1 4856   6.091   1.163   6.964
 1319SOL    HW2 4857   6.215   1.094   0.019
 1320SOL     OW 4858   5.727   4.336   0.282
 1320SOL    HW1 4859   5.662   4.404   0.315
 1320SOL    HW2 4860   5.749   4.354   0.186
 1321SOL     OW 4861   4.578   3.309   0.117
 1321SOL    HW1 4862   4.506   3.379   0.119
 1321SOL    HW2 4863   4.538   3.219   0.133
 1322SOL     OW 4864   5.275   1.229   2.918
 1322SOL    HW1 4865   5.340   1.231   2.994
 1322SOL    HW2 4866   5.264   1.322   2.881
 1323SOL     OW 4867   5.525   1.612   5.395
 1323SOL    HW1 4868   5.552   1.545   5.326
 1323SOL    HW2 4869   5.570   1.590   5.482
 1324SOL     OW 4870   1.681   2.022   2.343
 1324SOL    HW1 4871   1.653   1.927   2.358
 1324SOL    HW2 4872   1.694   2.067   2.431
 1325SOL     OW 4873   2.005   0.065   2.739
 1325SOL    HW1 4874   2.026   0.158   2.710
 1325SOL    HW2 4875   1.998   0.062   2.839
 1326SOL     OW 4876   4.971   2.610   4.660
 1326SOL    HW1 4877   5.014   2.661   4.585
 1326SOL    HW2 4878   5.019   2.629   4.745
 1327SOL     OW 4879   2.403   5.313   2.996
 1327SOL    HW1 4880   2.334   5.379   2.966
 1327SOL    HW2 4881   2.368   5.262   3.075
 1328SOL     OW 4882   1.251   2.095   0.048
 1328SOL    HW1 4883   1.169   2.133   0.004
 1328SOL    HW2 4884   1.311   2.055   7.003
 1329SOL     OW 4885   6.627   1.398   0.702
 1329SOL    HW1 4886   6.670   1.429   0.618
 1329SOL    HW2 4887   6.621   1.298   0.703
 1330SOL     OW 4888   6.565   6.859   0.798
 1330SOL    HW1 4889   6.653   6.876   0.842
 1330SOL    HW2 4890   6.521   6.779   0.839
 1331SOL     OW 4891   5.287   1.494   2.848
 1331SOL    HW1 4892   5.344   1.511   2.768
 1331SOL    HW2 4893   5.195   1.531   2.833
 1332SOL     OW 4894   3.940   0.860   1.108
 1332SOL    HW1 4895   3.928   0.924   1.031
 1332SOL    HW2 4896   3.852   0.843   1.151
 1333SOL     OW 4897   3.615   4.193   5.007
 1333SOL    HW1 4898   3.714   4.189   4.994
 1333SOL    HW2 4899   3.570   4.197   4.917
 1334SOL     OW 4900   1.178   2.585   5.045
 1334SOL    HW1 4901   1.234   2.599   4.963
 1334SOL    HW2 4902   1.084   2.564   5.018
 1335SOL     OW 4903   2.596   6.356   2.288
 1335SOL    HW1 4904   2.653   6.433   2.318
 1335SOL    HW2 4905   2.508   6.390   2.254
 1336SOL     OW 4906   1.216   1.431   6.997
 1336SOL    HW1 4907   1.293   1.483   6.960
 1336SOL    HW2 4908   1.248   1.375   0.049
 1337SOL     OW 4909   1.465   2.788   5.409
 1337SOL    HW1 4910   1.401   2.814   5.337
 1337SOL    HW2 4911   1.554   2.829   5.391
 1338SOL     OW 4912   4.408   3.758   6.264
 1338SOL    HW1 4913   4.433   3.671   6.307
 1338SOL    HW2 4914   4.415   3.831   6.332
 1339SOL     OW 4915   0.156   5.120   6.637
 1339SOL    HW1 4916   0.234   5.060   6.622
 1339SOL    HW2 4917   0.165   5.164   6.727
 1340SOL     OW 4918   1.005   2.011   1.146
 1340SOL    HW1 4919   1.055   1.929   1.118
 1340SOL    HW2 4920   1.018   2.026   1.244
 1341SOL     OW 4921   4.240   1.285   5.031
 1341SOL    HW1 4922   4.259   1.194   5.068
 1341SOL    HW2 4923   4.228   1.349   5.107
 1342SOL     OW 4924   1.733   5.924   6.134
 1342SOL    HW1 4925   1.672   5.888   6.064
 1342SOL    HW2 4926   1.827   5.924   6.100
 1343SOL     OW 4927   3.544   6.413   2.121
 1343SOL    HW1 4928   3.454   6.370   2.112
 1343SOL    HW2 4929   3.563   6.467   2.038
 1344SOL     OW 4930   6.598   2.346   3.190
 1344SOL    HW1 4931   6.679   2.402   3.207
 1344SOL    HW2 4932   6.612   2.290   3.108
 1345SOL     OW 4933   0.565   1.390   3.700
 1345SOL    HW1 4934   0.651   1.339   3.694
 1345SOL    HW2 4935   0.584   1.484   3.730
 1346SOL     OW 4936   0.986   6.847   3.026
 1346SOL    HW1 4937   0.905   6.900   3.053
 1346SOL    HW2 4938   0.996   6.850   2.927
 1347SOL     OW 4939   6.309   6.762   3.474
 1347SOL    HW1 4940   6.363   6.841   3.502
 1347SOL    HW2 4941   6.312   6.753   3.375
 1348SOL     OW 4942   5.965   5.418   3.984
 1348SOL    HW1 4943   5.950   5.342   3.921
 1348SOL    HW2 4944   6.013   5.491   3.936
 1349SOL     OW 4945   4.630   2.862   6.569
 1349SOL    HW1 4946   4.594   2.955   6.584
 1349SOL    HW2 4947   4.689   2.863   6.489
 1350SOL     OW 4948   3.703   4.885   6.737
 1350SOL    HW1 4949   3.643   4.956   6.701
 1350SOL    HW2 4950   3.649   4.806   6.765
 1351SOL     OW 4951   1.122   0.741   3.095
 1351SOL    HW1 4952   1.199   0.759   3.033
 1351SOL    HW2 4953   1.077   0.656   3.068
 1352SOL     OW 4954   6.944   0.349   3.624
 1352SOL    HW1 4955   6.985   0.406   3.553
 1352SOL    HW2 4956   6.857   0.312   3.591
 1353SOL     OW 4957   6.389   4.618   5.527
 1353SOL    HW1 4958   6.455   4.569   5.583
 1353SOL    HW2 4959   6.408   4.716   5.531
 1354SOL     OW 4960   6.703   1.050   0.998
 1354SOL    HW1 4961   6.687   1.148   1.013
 1354SOL    HW2 4962   6.616   1.005   0.978
 1355SOL     OW 4963   5.323   4.103   0.586
 1355SOL    HW1 4964   5.422   4.110   0.590
 1355SOL    HW2 4965   5.296   4.007   0.581
 1356SOL     OW 4966   3.933   3.957   3.215
 1356SOL    HW1 4967   4.022   4.003   3.215
 1356SOL    HW2 4968   3.860   4.025   3.213
 1357SOL     OW 4969   2.989   3.126   6.128
 1357SOL    HW1 4970   2.981   3.075   6.213
 1357SOL    HW2 4971   2.926   3.088   6.059
 1358SOL     OW 4972   2.127   2.614   6.199
 1358SOL    HW1 4973   2.102   2.661   6.284
 1358SOL    HW2 4974   2.054   2.550   6.174
 1359SOL     OW 4975   6.548   3.522   1.802
 1359SOL    HW1 4976   6.543   3.513   1.902
 1359SOL    HW2 4977   6.644   3.534   1.776
 1360SOL     OW 4978   4.016   3.853   2.559
 1360SOL    HW1 4979   3.955   3.932   2.549
 1360SOL    HW2 4980   4.027   3.809   2.470
 1361SOL     OW 4981   0.696   0.151   5.992
 1361SOL    HW1 4982   0.770   0.175   5.930
 1361SOL    HW2 4983   0.643   0.075   5.955
 1362SOL     OW 4984   2.863   3.439   5.442
 1362SOL    HW1 4985   2.835   3.343   5.444
 1362SOL    HW2 4986   2.962   3.445   5.447
 1363SOL     OW 4987   6.698   6.169   3.598
 1363SOL    HW1 4988   6.650   6.254   3.577
 1363SOL    HW2 4989   6.714   6.117   3.514
 1364SOL     OW 4990   0.088   3.054   0.580
 1364SOL    HW1 4991   0.112   3.055   0.678
 1364SOL    HW2 4992   0.082   3.148   0.547
 1365SOL     OW 4993   1.278   3.721   5.585
 1365SOL    HW1 4994   1.210   3.762   5.645
 1365SOL    HW2 4995   1.269   3.759   5.493
 1366SOL     OW 4996   0.163   3.231   1.293
 1366SOL    HW1 4997   0.075   3.216   1.249
 1366SOL    HW2 4998   0.207   3.143   1.310
 1367SOL     OW 4999   1.157   5.315   3.588
 1367SOL    HW1 5000   1.234   5.339   3.530
 1367SOL    HW2 5001   1.184   5.320   3.684
 1368SOL     OW 5002   6.772   6.554   4.268
 1368SOL    HW1 5003   6.845   6.544   4.199
 1368SOL    HW2 5004   6.720   6.637   4.250
 1369SOL     OW 5005   2.306   6.128   1.377
 1369SOL    HW1 5006   2.312   6.094   1.283
 1369SOL    HW2 5007   2.333   6.225   1.379
 1370SOL     OW 5008   0.511   2.405   3.753
 1370SOL    HW1 5009   0.560   2.490   3.734
 1370SOL    HW2 5010   0.524   2.380   3.849
 1371SOL     OW 5011   5.326   0.983   5.048
 1371SOL    HW1 5012   5.365   1.037   4.974
 1371SOL    HW2 5013   5.229   0.965   5.029
 1372SOL     OW 5014   6.398   2.489   0.642
 1372SOL    HW1 5015   6.422   2.570   0.588
 1372SOL    HW2 5016   6.361   2.518   0.730
 1373SOL     OW 5017   4.806   2.457   0.899
 1373SOL    HW1 5018   4.784   2.531   0.963
 1373SOL    HW2 5019   4.813   2.371   0.950
 1374SOL     OW 5020   5.603   4.181   0.636
 1374SOL    HW1 5021   5.673   4.168   0.566
 1374SOL    HW2 5022   5.611   4.109   0.704
 1375SOL     OW 5023   0.152   5.790   6.148
 1375SOL    HW1 5024   0.201   5.839   6.076
 1375SOL    HW2 5025   0.067   5.838   6.169
 1376SOL     OW 5026   3.149   4.610   6.014
 1376SOL    HW1 5027   3.095   4.572   6.089
 1376SOL    HW2 5028   3.121   4.568   5.928
 1377SOL     OW 5029   1.179   2.661   4.238
 1377SOL    HW1 5030   1.260   2.633   4.186
 1377SOL    HW2 5031   1.207   2.715   4.317
 1378SOL     OW 5032   4.342   2.346   4.793
 1378SOL    HW1 5033   4.293   2.382   4.873
 1378SOL    HW2 5034   4.384   2.422   4.743
 1379SOL     OW 5035   5.177   5.794   2.229
 1379SOL    HW1 5036   5.264   5.754   2.199
 1379SOL    HW2 5037   5.167   5.783   2.328
 1380SOL     OW 5038   6.637   6.571   2.505
 1380SOL    HW1 5039   6.583   6.628   2.443
 1380SOL    HW2 5040   6.724   6.616   2.524
 1381SOL     OW 5041   5.788   1.977   6.358
 1381SOL    HW1 5042   5.820   1.968   6.453
 1381SOL    HW2 5043   5.739   1.894   6.332
 1382SOL     OW 5044   4.718   3.371   1.628
 1382SOL    HW1 5045   4.764   3.415   1.550
 1382SOL    HW2 5046   4.620   3.391   1.624
 1383SOL     OW 5047   1.440   6.234   1.603
 1383SOL    HW1 5048   1.436   6.150   1.549
 1383SOL    HW2 5049   1.359   6.241   1.660
 1384SOL     OW 5050   4.326   6.971   1.018
 1384SOL    HW1 5051   4.424   6.973   1.039
 1384SOL    HW2 5052   4.297   0.037   0.986
 1385SOL     OW 5053   2.459   5.181   3.882
 1385SOL    HW1 5054   2.477   5.193   3.979
 1385SOL    HW2 5055   2.483   5.088   3.855
 1386SOL     OW 5056   2.930   6.438   3.353
 1386SOL    HW1 5057   2.920   6.504   3.428
 1386SOL    HW2 5058   2.889   6.477   3.270
 1387SOL     OW 5059   3.228   5.851   1.743
 1387SOL    HW1 5060   3.254   5.755   1.739
 1387SOL    HW2 5061   3.225   5.889   1.651
 1388SOL     OW 5062   6.261   6.554   1.200
 1388SOL    HW1 5063   6.312   6.637   1.178
 1388SOL    HW2 5064   6.324   6.477   1.206
 1389SOL     OW 5065   5.735   1.495   2.997
 1389SOL    HW1 5066   5.779   1.535   2.917
 1389SOL    HW2 5067   5.646   1.539   3.012
 1390SOL     OW 5068   0.385   3.828   0.154
 1390SOL    HW1 5069   0.409   3.900   0.088
 1390SOL    HW2 5070   0.287   3.808   0.148
 1391SOL     OW 5071   6.497   0.483   3.957
 1391SOL    HW1 5072   6.562   0.408   3.942
 1391SOL    HW2 5073   6.421   0.451   4.013
 1392SOL     OW 5074   4.929   5.796   6.022
 1392SOL    HW1 5075   4.862   5.784   6.095
 1392SOL    HW2 5076   4.992   5.719   6.021
 1393SOL     OW 5077   6.288   5.427   5.098
 1393SOL    HW1 5078   6.247   5.444   5.008
 1393SOL    HW2 5079   6.339   5.508   5.127
 1394SOL     OW 5080   2.909   5.867   4.859
 1394SOL    HW1 5081   2.990   5.880   4.916
 1394SOL    HW2 5082   2.828   5.896   4.909
 1395SOL     OW 5083   2.432   4.674   6.322
 1395SOL    HW1 5084   2.336   4.647   6.323
 1395SOL    HW2 5085   2.439   4.768   6.287
 1396SOL     OW 5086   2.098   1.021   4.499
 1396SOL    HW1 5087   2.089   0.973   4.412
 1396SOL    HW2 5088   2.129   0.957   4.569
 1397SOL     OW 5089   0.343   0.218   3.919
 1397SOL    HW1 5090   0.294   0.280   3.859
 1397SOL    HW2 5091   0.441   0.229   3.907
 1398SOL     OW 5092   2.263   0.987   6.146
 1398SOL    HW1 5093   2.318   1.062   6.184
 1398SOL    HW2 5094   2.181   1.024   6.102
 1399SOL     OW 5095   4.074   6.871   0.984
 1399SOL    HW1 5096   4.169   6.898   0.998
 1399SOL    HW2 5097   4.069   6.773   0.964
 1400SOL     OW 5098   6.635   1.719   2.884
 1400SOL    HW1 5099   6.568   1.771   2.832
 1400SOL    HW2 5100   6.717   1.775   2.899
 1401SOL     OW 5101   6.896   1.868   4.720
 1401SOL    HW1 5102   6.978   1.921   4.697
 1401SOL    HW2 5103   6.921   1.788   4.773
 1402SOL     OW 5104   0.782   4.259   0.537
 1402SOL    HW1 5105   0.864   4.283   0.483
 1402SOL    HW2 5106   0.721   4.338   0.541
 1403SOL     OW 5107   3.005   1.650   1.672
 1403SOL    HW1 5108   3.012   1.729   1.731
 1403SOL    HW2 5109   2.918   1.653   1.622
 1404SOL     OW 5110   5.263   6.794   6.997
 1404SOL    HW1 5111   5.317   6.722   6.953
 1404SOL    HW2 5112   5.305   6.820   0.059
 1405SOL     OW 5113   2.137   3.704   1.415
 1405SOL    HW1 5114   2.229   3.681   1.448
 1405SOL    HW2 5115   2.078   3.624   1.421
 1406SOL     OW 5116   1.438   5.395   1.542
 1406SOL    HW1 5117   1.430   5.326   1.614
 1406SOL    HW2 5118   1.450   5.350   1.454
 1407SOL     OW 5119   0.761   2.162   2.217
 1407SOL    HW1 5120   0.678   2.111   2.197
 1407SOL    HW2 5121   0.829   2.101   2.258
 1408SOL     OW 5122   5.153   0.854   5.940
 1408SOL    HW1 5123   5.149   0.922   6.014
 1408SOL    HW2 5124   5.248   0.838   5.915
 1409SOL     OW 5125   0.814   6.885   5.102
 1409SOL    HW1 5126   0.743   6.897   5.032
 1409SOL    HW2 5127   0.804   6.795   5.144
 1410SOL     OW 5128   2.219   3.668   6.713
 1410SOL    HW1 5129   2.234   3.760   6.677
 1410SOL    HW2 5130   2.307   3.625   6.733
 1411SOL     OW 5131   2.729   6.567   2.417
 1411SOL    HW1 5132   2.828   6.580   2.414
 1411SOL    HW2 5133   2.703   6.530   2.506
 1412SOL     OW 5134   0.542   2.153   1.163
 1412SOL    HW1 5135   0.483   2.093   1.109
 1412SOL    HW2 5136   0.487   2.224   1.206
 1413SOL     OW 5137   2.367   1.034   4.911
 1413SOL    HW1 5138   2.420   1.012   4.992
 1413SOL    HW2 5139   2.404   1.117   4.868
 1414SOL     OW 5140   2.667   0.852   1.291
 1414SOL    HW1 5141   2.583   0.904   1.274
 1414SOL    HW2 5142   2.688   0.853   1.388
 1415SOL     OW 5143   2.643   0.842   4.676
 1415SOL    HW1 5144   2.662   0.935   4.707
 1415SOL    HW2 5145   2.648   0.779   4.753
 1416SOL     OW 5146   4.520   4.565   4.384
 1416SOL    HW1 5147   4.480   4.594   4.471
 1416SOL    HW2 5148   4.493   4.629   4.312
 1417SOL     OW 5149   2.670   1.538   0.018
 1417SOL    HW1 5150   2.720   1.452   0.014
 1417SOL    HW2 5151   2.733   1.612   0.041
 1418SOL     OW 5152   3.050   3.826   3.747
 1418SOL    HW1 5153   3.058   3.907   3.689
 1418SOL    HW2 5154   2.990   3.759   3.703
 1419SOL     OW 5155   2.610   6.628   4.670
 1419SOL    HW1 5156   2.610   6.531   4.645
 1419SOL    HW2 5157   2.592   6.683   4.589
 1420SOL     OW 5158   2.319   6.835   1.388
 1420SOL    HW1 5159   2.376   6.858   1.467
 1420SOL    HW2 5160   2.223   6.850   1.410
 1421SOL     OW 5161   1.955   3.377   3.348
 1421SOL    HW1 5162   1.871   3.325   3.363
 1421SOL    HW2 5163   2.012   3.373   3.430
 1422SOL     OW 5164   2.249   3.942   1.631
 1422SOL    HW1 5165   2.173   3.972   1.574
 1422SOL    HW2 5166   2.246   3.991   1.718
 1423SOL     OW 5167   5.246   6.583   3.043
 1423SOL    HW1 5168   5.210   6.650   2.978
 1423SOL    HW2 5169   5.273   6.630   3.128
 1424SOL     OW 5170   6.904   4.345   4.726
 1424SOL    HW1 5171   6.858   4.335   4.814
 1424SOL    HW2 5172   6.853   4.293   4.657
 1425SOL     OW 5173   1.037   6.292   4.637
 1425SOL    HW1 5174   1.081   6.344   4.710
 1425SOL    HW2 5175   1.088   6.302   4.552
 1426SOL     OW 5176   1.028   2.048   5.868
 1426SOL    HW1 5177   1.067   1.957   5.853
 1426SOL    HW2 5178   0.949   2.062   5.808
 1427SOL     OW 5179   0.079   6.954   3.100
 1427SOL    HW1 5180   0.038   6.950   3.191
 1427SOL    HW2 5181   0.158   6.893   3.096
 1428SOL     OW 5182   5.597   2.708   0.524
 1428SOL    HW1 5183   5.592   2.786   0.461
 1428SOL    HW2 5184   5.620   2.625   0.473
 1429SOL     OW 5185   5.388   1.911   0.393
 1429SOL    HW1 5186   5.412   1.821   0.428
 1429SOL    HW2 5187   5.405   1.980   0.463
 1430SOL     OW 5188   1.754   4.688   4.352
 1430SOL    HW1 5189   1.760   4.727   4.260
 1430SOL    HW2 5190   1.743   4.762   4.418
 1431SOL     OW 5191   2.163   1.759   0.925
 1431SOL    HW1 5192   2.209   1.768   1.013
 1431SOL    HW2 5193   2.073   1.718   0.938
 1432SOL     OW 5194   3.493   1.510   2.862
 1432SOL    HW1 5195   3.569   1.534   2.922
 1432SOL    HW2 5196   3.412   1.562   2.888
 1433SOL     OW 5197   3.967   1.421   4.288
 1433SOL    HW1 5198   4.003   1.486   4.355
 1433SOL    HW2 5199   4.021   1.337   4.291
 1434SOL     OW 5200   6.856   1.056   5.712
 1434SOL    HW1 5201   6.878   1.060   5.810
 1434SOL    HW2 5202   6.923   1.108   5.660
 1435SOL     OW 5203   5.958   0.612   2.336
 1435SOL    HW1 5204   5.928   0.537   2.394
 1435SOL    HW2 5205   6.006   0.680   2.391
 1436SOL     OW 5206   6.106   3.856   0.381
 1436SOL    HW1 5207   6.077   3.926   0.314
 1436SOL    HW2 5208   6.183   3.805   0.343
 1437SOL     OW 5209   2.480   2.638   3.624
 1437SOL    HW1 5210   2.564   2.609   3.669
 1437SOL    HW2 5211   2.441   2.716   3.673
 1438SOL     OW 5212   3.374   6.741   1.216
 1438SOL    HW1 5213   3.349   6.828   1.173
 1438SOL    HW2 5214   3.292   6.686   1.230
 1439SOL     OW 5215   6.904   5.537   1.298
 1439SOL    HW1 5216   6.810   5.505   1.301
 1439SOL    HW2 5217   6.906   5.637   1.308
 1440SOL     OW 5218   3.080   3.933   0.584
 1440SOL    HW1 5219   3.155   3.900   0.527
 1440SOL    HW2 5220   3.100   3.915   0.680
 1441SOL     OW 5221   5.902   0.613   3.071
 1441SOL    HW1 5222   5.941   0.521   3.064
 1441SOL    HW2 5223   5.938   0.658   3.152
 1442SOL     OW 5224   6.799   5.737   6.802
 1442SOL    HW1 5225   6.782   5.697   6.712
 1442SOL    HW2 5226   6.742   5.690   6.870
 1443SOL     OW 5227   0.614   2.464   2.453
 1443SOL    HW1 5228   0.613   2.471   2.353
 1443SOL    HW2 5229   0.582   2.550   2.493
 1444SOL     OW 5230   5.270   6.221   0.738
 1444SOL    HW1 5231   5.246   6.288   0.808
 1444SOL    HW2 5232   5.187   6.188   0.693
 1445SOL     OW 5233   0.901   2.993   2.316
 1445SOL    HW1 5234   0.818   2.958   2.272
 1445SOL    HW2 5235   0.957   2.917   2.348
 1446SOL     OW 5236   6.043   0.951   6.417
 1446SOL    HW1 5237   6.110   0.877   6.420
 1446SOL    HW2 5238   6.002   0.963   6.508
 1447SOL     OW 5239   5.975   5.891   4.131
 1447SOL    HW1 5240   5.963   5.870   4.228
 1447SOL    HW2 5241   5.978   5.991   4.119
 1448SOL     OW 5242   6.699   3.201   5.304
 1448SOL    HW1 5243   6.658   3.240   5.386
 1448SOL    HW2 5244   6.763   3.129   5.329
 1449SOL     OW 5245   1.511   4.082   5.460
 1449SOL    HW1 5246   1.472   4.106   5.371
 1449SOL    HW2 5247   1.564   3.998   5.451
 1450SOL     OW 5248   1.060   2.000   0.248
 1450SOL    HW1 5249   0.979   2.054   0.228
 1450SOL    HW2 5250   1.133   2.022   0.183
 1451SOL     OW 5251   1.726   6.621   2.258
 1451SOL    HW1 5252   1.713   6.606   2.160
 1451SOL    HW2 5253   1.791   6.695   2.272
 1452SOL     OW 5254   4.291   2.729   5.370
 1452SOL    HW1 5255   4.273   2.820   5.408
 1452SOL    HW2 5256   4.336   2.739   5.281
 1453SOL     OW 5257   0.422   4.215   5.634
 1453SOL    HW1 5258   0.408   4.117   5.648
 1453SOL    HW2 5259   0.334   4.260   5.621
 1454SOL     OW 5260   1.484   1.615   2.119
 1454SOL    HW1 5261   1.564   1.644   2.067
 1454SOL    HW2 5262   1.455   1.525   2.088
 1455SOL     OW 5263   1.671   0.056   2.128
 1455SOL    HW1 5264   1.725   0.042   2.044
 1455SOL    HW2 5265   1.704   0.139   2.174
 1456SOL     OW 5266   6.632   6.752   6.017
 1456SOL    HW1 5267   6.584   6.694   5.951
 1456SOL    HW2 5268   6.619   6.715   6.109
 1457SOL     OW 5269   1.796   5.427   0.226
 1457SOL    HW1 5270   1.824   5.331   0.229
 1457SOL    HW2 5271   1.844   5.472   0.151
 1458SOL     OW 5272   5.732   4.898   5.148
 1458SOL    HW1 5273   5.792   4.857   5.079
 1458SOL    HW2 5274   5.642   4.916   5.107
 1459SOL     OW 5275   4.205   6.631   5.569
 1459SOL    HW1 5276   4.240   6.543   5.602
 1459SOL    HW2 5277   4.211   6.699   5.643
 1460SOL     OW 5278   2.039   6.848   5.154
 1460SOL    HW1 5279   1.979   6.855   5.234
 1460SOL    HW2 5280   2.134   6.860   5.183
 1461SOL     OW 5281   6.962   4.154   3.413
 1461SOL    HW1 5282   6.928   4.101   3.335
 1461SOL    HW2 5283   6.896   4.225   3.436
 1462SOL     OW 5284   1.293   1.078   6.661
 1462SOL    HW1 5285   1.327   1.058   6.569
 1462SOL    HW2 5286   1.366   1.066   6.728
 1463SOL     OW 5287   1.213   4.799   5.794
 1463SOL    HW1 5288   1.149   4.876   5.802
 1463SOL    HW2 5289   1.190   4.746   5.713
 1464SOL     OW 5290   6.661   5.006   2.325
 1464SOL    HW1 5291   6.639   5.064   2.403
 1464SOL    HW2 5292   6.670   4.911   2.356
 1465SOL     OW 5293   1.497   1.652   4.126
 1465SOL    HW1 5294   1.439   1.586   4.078
 1465SOL    HW2 5295   1.510   1.622   4.221
 1466SOL     OW 5296   3.689   1.809   2.016
 1466SOL    HW1 5297   3.604   1.847   2.052
 1466SOL    HW2 5298   3.717   1.860   1.935
 1467SOL     OW 5299   1.911   1.238   3.910
 1467SOL    HW1 5300   1.951   1.328   3.889
 1467SOL    HW2 5301   1.820   1.250   3.948
 1468SOL     OW 5302   2.515   5.981   1.934
 1468SOL    HW1 5303   2.556   6.051   1.875
 1468SOL    HW2 5304   2.417   6.000   1.944
 1469SOL     OW 5305   6.882   6.683   2.564
 1469SOL    HW1 5306   6.918   6.759   2.509
 1469SOL    HW2 5307   6.845   6.719   2.650
 1470SOL     OW 5308   0.162   1.648   2.176
 1470SOL    HW1 5309   0.183   1.560   2.133
 1470SOL    HW2 5310   0.242   1.681   2.225
 1471SOL     OW 5311   0.935   0.113   0.151
 1471SOL    HW1 5312   0.868   0.154   0.089
 1471SOL    HW2 5313   0.982   0.186   0.201
 1472SOL     OW 5314   3.656   5.475   0.397
 1472SOL    HW1 5315   3.702   5.436   0.317
 1472SOL    HW2 5316   3.561   5.497   0.373
 1473SOL     OW 5317   2.391   6.117   5.193
 1473SOL    HW1 5318   2.467   6.055   5.211
 1473SOL    HW2 5319   2.384   6.135   5.095
 1474SOL     OW 5320   4.221   4.367   1.300
 1474SOL    HW1 5321   4.288   4.329   1.363
 1474SOL    HW2 5322   4.244   4.341   1.206
 1475SOL     OW 5323   5.411   0.879   0.260
 1475SOL    HW1 5324   5.501   0.856   0.223
 1475SOL    HW2 5325   5.360   0.795   0.277
 1476SOL     OW 5326   2.244   1.187   1.100
 1476SOL    HW1 5327   2.257   1.220   1.194
 1476SOL    HW2 5328   2.327   1.143   1.068
 1477SOL     OW 5329   3.211   6.643   6.812
 1477SOL    HW1 5330   3.133   6.625   6.752
 1477SOL    HW2 5331   3.214   6.574   6.884
 1478SOL     OW 5332   6.108   5.724   5.157
 1478SOL    HW1 5333   6.146   5.634   5.135
 1478SOL    HW2 5334   6.142   5.753   5.246
 1479SOL     OW 5335   3.206   3.032   1.556
 1479SOL    HW1 5336   3.141   3.107   1.568
 1479SOL    HW2 5337   3.157   2.948   1.535
 1480SOL     OW 5338   2.736   0.089   4.573
 1480SOL    HW1 5339   2.821   0.035   4.571
 1480SOL    HW2 5340   2.747   0.170   4.516
 1481SOL     OW 5341   6.030   3.533   5.512
 1481SOL    HW1 5342   6.054   3.525   5.609
 1481SOL    HW2 5343   5.962   3.463   5.489
 1482SOL     OW 5344   4.764   0.670   1.325
 1482SOL    HW1 5345   4.698   0.744   1.341
 1482SOL    HW2 5346   4.824   0.661   1.404
 1483SOL     OW 5347   5.802   2.319   4.943
 1483SOL    HW1 5348   5.810   2.226   4.979
 1483SOL    HW2 5349   5.859   2.327   4.860
 1484SOL     OW 5350   4.986   4.886   3.909
 1484SOL    HW1 5351   4.978   4.917   3.815
 1484SOL    HW2 5352   4.918   4.815   3.927
 1485SOL     OW 5353   5.381   0.846   4.451
 1485SOL    HW1 5354   5.311   0.778   4.431
 1485SOL    HW2 5355   5.449   0.848   4.378
 1486SOL     OW 5356   4.821   0.610   3.085
 1486SOL    HW1 5357   4.722   0.617   3.069
 1486SOL    HW2 5358   4.868   0.601   2.998
 1487SOL     OW 5359   7.014   1.780   0.285
 1487SOL    HW1 5360   0.031   1.829   0.361
 1487SOL    HW2 5361   6.941   1.721   0.320
 1488SOL     OW 5362   4.667   0.167   3.423
 1488SOL    HW1 5363   4.575   0.167   3.385
 1488SOL    HW2 5364   4.722   0.238   3.378
 1489SOL     OW 5365   4.053   4.643   5.942
 1489SOL    HW1 5366   4.073   4.722   6.000
 1489SOL    HW2 5367   3.972   4.662   5.887
 1490SOL     OW 5368   0.494   3.506   0.756
 1490SOL    HW1 5369   0.591   3.490   0.736
 1490SOL    HW2 5370   0.440   3.486   0.674
 1491SOL     OW 5371   6.704   4.106   2.934
 1491SOL    HW1 5372   6.677   4.010   2.947
 1491SOL    HW2 5373   6.623   4.164   2.936
 1492SOL     OW 5374   6.093   0.357   2.495
 1492SOL    HW1 5375   6.111   0.307   2.410
 1492SOL    HW2 5376   5.995   0.353   2.516
 1493SOL     OW 5377   3.651   0.600   6.189
 1493SOL    HW1 5378   3.562   0.617   6.231
 1493SOL    HW2 5379   3.723   0.614   6.257
 1494SOL     OW 5380   6.142   2.744   6.363
 1494SOL    HW1 5381   6.221   2.806   6.360
 1494SOL    HW2 5382   6.102   2.746   6.455
 1495SOL     OW 5383   6.804   4.268   4.952
 1495SOL    HW1 5384   6.871   4.320   5.005
 1495SOL    HW2 5385   6.833   4.173   4.947
 1496SOL     OW 5386   0.981   0.348   0.367
 1496SOL    HW1 5387   0.958   0.297   0.450
 1496SOL    HW2 5388   0.907   0.412   0.346
 1497SOL     OW 5389   5.165   3.058   2.069
 1497SOL    HW1 5390   5.112   3.016   1.996
 1497SOL    HW2 5391   5.109   3.065   2.152
 1498SOL     OW 5392   2.562   4.349   1.127
 1498SOL    HW1 5393   2.633   4.315   1.064
 1498SOL    HW2 5394   2.605   4.382   1.211
 1499SOL     OW 5395   0.396   3.327   6.077
 1499SOL    HW1 5396   0.427   3.234   6.098
 1499SOL    HW2 5397   0.445   3.361   5.997
 1500SOL     OW 5398   0.425   6.580   0.005
 1500SOL    HW1 5399   0.479   6.517   0.060
 1500SOL    HW2 5400   0.380   6.647   0.065
 1501SOL     OW 5401   5.889   1.731   6.144
 1501SOL    HW1 5402   5.949   1.689   6.075
 1501SOL    HW2 5403   5.932   1.814   6.179
 1502SOL     OW 5404   4.945   1.234   6.623
 1502SOL    HW1 5405   4.871   1.285   6.578
 1502SOL    HW2 5406   4.984   1.169   6.558
 1503SOL     OW 5407   0.774   3.207   2.432
 1503SOL    HW1 5408   0.824   3.154   2.363
 1503SOL    HW2 5409   0.708   3.268   2.387
 1504SOL     OW 5410   0.835   0.028   3.204
 1504SOL    HW1 5411   0.796   0.096   3.266
 1504SOL    HW2 5412   0.832   0.063   3.110
 1505SOL     OW 5413   5.194   6.950   5.682
 1505SOL    HW1 5414   5.165   7.017   5.614
 1505SOL    HW2 5415   5.123   6.941   5.752
 1506SOL     OW 5416   0.905   0.012   6.732
 1506SOL    HW1 5417   0.834   6.969   6.714
 1506SOL    HW2 5418   0.946   0.040   6.645
 1507SOL     OW 5419   0.119   2.096   5.327
 1507SOL    HW1 5420   0.057   2.153   5.382
 1507SOL    HW2 5421   0.208   2.092   5.372
 1508SOL     OW 5422   6.403   1.361   1.299
 1508SOL    HW1 5423   6.451   1.379   1.385
 1508SOL    HW2 5424   6.470   1.339   1.227
 1509SOL     OW 5425   4.772   1.862   4.757
 1509SOL    HW1 5426   4.847   1.798   4.773
 1509SOL    HW2 5427   4.792   1.917   4.676
 1510SOL     OW 5428   5.763   6.982   4.506
 1510SOL    HW1 5429   5.679   6.933   4.529
 1510SOL    HW2 5430   5.776   0.033   4.569
 1511SOL     OW 5431   4.130   3.307   4.268
 1511SOL    HW1 5432   4.218   3.353   4.278
 1511SOL    HW2 5433   4.060   3.356   4.319
 1512SOL     OW 5434   6.470   5.506   1.608
 1512SOL    HW1 5435   6.550   5.458   1.646
 1512SOL    HW2 5436   6.446   5.582   1.669
 1513SOL     OW 5437   3.464   0.299   4.439
 1513SOL    HW1 5438   3.374   0.263   4.416
 1513SOL    HW2 5439   3.455   0.391   4.477
 1514SOL     OW 5440   4.144   2.949   6.059
 1514SOL    HW1 5441   4.116   2.966   5.964
 1514SOL    HW2 5442   4.123   2.855   6.084
 1515SOL     OW 5443   5.957   1.263   2.608
 1515SOL    HW1 5444   5.909   1.250   2.522
 1515SOL    HW2 5445   5.944   1.182   2.666
 1516SOL     OW 5446   5.426   5.274   5.103
 1516SOL    HW1 5447   5.467   5.241   5.188
 1516SOL    HW2 5448   5.328   5.288   5.117
 1517SOL     OW 5449   4.395   6.143   2.882
 1517SOL    HW1 5450   4.428   6.234   2.907
 1517SOL    HW2 5451   4.358   6.098   2.963
 1518SOL     OW 5452   6.827   3.010   0.594
 1518SOL    HW1 5453   6.911   3.042   0.549
 1518SOL    HW2 5454   6.774   3.090   0.624
 1519SOL     OW 5455   6.457   4.658   1.148
 1519SOL    HW1 5456   6.532   4.667   1.082
 1519SOL    HW2 5457   6.444   4.745   1.196
 1520SOL     OW 5458   0.725   4.669   1.556
 1520SOL    HW1 5459   0.728   4.591   1.494
 1520SOL    HW2 5460   0.737   4.637   1.650
 1521SOL     OW 5461   2.183   4.861   6.896
 1521SOL    HW1 5462   2.198   4.959   6.901
 1521SOL    HW2 5463   2.115   4.834   6.965
 1522SOL     OW 5464   6.225   5.580   4.837
 1522SOL    HW1 5465   6.250   5.676   4.850
 1522SOL    HW2 5466   6.139   5.574   4.787
 1523SOL     OW 5467   3.435   6.388   6.639
 1523SOL    HW1 5468   3.427   6.412   6.543
 1523SOL    HW2 5469   3.467   6.467   6.691
 1524SOL     OW 5470   2.594   1.800   2.912
 1524SOL    HW1 5471   2.495   1.791   2.923
 1524SOL    HW2 5472   2.638   1.716   2.944
 1525SOL     OW 5473   5.878   2.870   0.409
 1525SOL    HW1 5474   5.903   2.774   0.402
 1525SOL    HW2 5475   5.779   2.879   0.413
 1526SOL     OW 5476   6.980   0.852   6.686
 1526SOL    HW1 5477   0.045   0.850   6.730
 1526SOL    HW2 5478   6.925   0.775   6.720
 1527SOL     OW 5479   3.351   1.092   4.092
 1527SOL    HW1 5480   3.316   1.084   3.998
 1527SOL    HW2 5481   3.450   1.084   4.091
 1528SOL     OW 5482   4.102   4.677   1.923
 1528SOL    HW1 5483   4.191   4.690   1.968
 1528SOL    HW2 5484   4.113   4.613   1.847
 1529SOL     OW 5485   4.921   0.898   6.881
 1529SOL    HW1 5486   4.937   0.996   6.890
 1529SOL    HW2 5487   4.999   0.847   6.916
 1530SOL     OW 5488   3.374   1.336   1.352
 1530SOL    HW1 5489   3.284   1.324   1.394
 1530SOL    HW2 5490   3.401   1.433   1.358
 1531SOL     OW 5491   4.792   0.606   4.911
 1531SOL    HW1 5492   4.764   0.701   4.897
 1531SOL    HW2 5493   4.725   0.561   4.970
 1532SOL     OW 5494   3.651   4.253   5.984
 1532SOL    HW1 5495   3.561   4.288   5.957
 1532SOL    HW2 5496   3.657   4.155   5.961
 1533SOL     OW 5497   5.543   5.626   0.142
 1533SOL    HW1 5498   5.459   5.573   0.129
 1533SOL    HW2 5499   5.620   5.577   0.101
 1534SOL     OW 5500   3.077   5.862   6.143
 1534SOL    HW1 5501   3.161   5.906   6.177
 1534SOL    HW2 5502   3.054   5.785   6.202
 1535SOL     OW 5503   5.311   5.662   4.661
 1535SOL    HW1 5504   5.375   5.736   4.680
 1535SOL    HW2 5505   5.346   5.577   4.701
 1536SOL     OW 5506   4.078   4.887   6.423
 1536SOL    HW1 5507   4.097   4.799   6.380
 1536SOL    HW2 5508   3.982   4.891   6.450
 1537SOL     OW 5509   4.460   5.908   4.071
 1537SOL    HW1 5510   4.412   5.840   4.125
 1537SOL    HW2 5511   4.519   5.862   4.005
 1538SOL     OW 5512   3.651   6.661   6.571
 1538SOL    HW1 5513   3.742   6.656   6.612
 1538SOL    HW2 5514   3.627   6.756   6.554
 1539SOL     OW 5515   4.913   3.510   2.152
 1539SOL    HW1 5516   4.891   3.572   2.077
 1539SOL    HW2 5517   4.917   3.416   2.117
 1540SOL     OW 5518   0.349   6.881   5.305
 1540SOL    HW1 5519   0.325   6.968   5.347
 1540SOL    HW2 5520   0.288   6.864   5.227
 1541SOL     OW 5521   3.429   3.289   4.033
 1541SOL    HW1 5522   3.439   3.306   4.131
 1541SOL    HW2 5523   3.405   3.374   3.986
 1542SOL     OW 5524   6.799   0.260   1.909
 1542SOL    HW1 5525   6.717   0.209   1.881
 1542SOL    HW2 5526   6.813   0.337   1.846
 1543SOL     OW 5527   3.705   5.101   4.999
 1543SOL    HW1 5528   3.684   5.197   5.020
 1543SOL    HW2 5529   3.637   5.066   4.934
 1544SOL     OW 5530   3.697   3.957   3.704
 1544SOL    HW1 5531   3.616   3.905   3.731
 1544SOL    HW2 5532   3.725   3.929   3.612
 1545SOL     OW 5533   4.406   0.587   2.829
 1545SOL    HW1 5534   4.311   0.603   2.857
 1545SOL    HW2 5535   4.407   0.532   2.746
 1546SOL     OW 5536   5.514   6.164   5.427
 1546SOL    HW1 5537   5.575   6.216   5.367
 1546SOL    HW2 5538   5.567   6.126   5.504
 1547SOL     OW 5539   1.291   3.508   0.883
 1547SOL    HW1 5540   1.214   3.483   0.942
 1547SOL    HW2 5541   1.372   3.456   0.911
 1548SOL     OW 5542   4.951   4.029   6.951
 1548SOL    HW1 5543   5.046   4.006   6.930
 1548SOL    HW2 5544   4.942   4.129   6.958
 1549SOL     OW 5545   3.672   1.250   2.001
 1549SOL    HW1 5546   3.646   1.212   1.913
 1549SOL    HW2 5547   3.591   1.283   2.049
 1550SOL     OW 5548   3.364   3.640   1.347
 1550SOL    HW1 5549   3.389   3.609   1.439
 1550SOL    HW2 5550   3.347   3.560   1.289
 1551SOL     OW 5551   1.894   4.721   6.549
 1551SOL    HW1 5552   1.856   4.778   6.622
 1551SOL    HW2 5553   1.994   4.721   6.556
 1552SOL     OW 5554   1.624   5.410   0.989
 1552SOL    HW1 5555   1.719   5.411   0.958
 1552SOL    HW2 5556   1.574   5.340   0.939
 1553SOL     OW 5557   6.838   1.720   6.524
 1553SOL    HW1 5558   6.857   1.818   6.519
 1553SOL    HW2 5559   6.766   1.703   6.592
 1554SOL     OW 5560   3.187   1.958   3.481
 1554SOL    HW1 5561   3.279   1.990   3.459
 1554SOL    HW2 5562   3.121   2.002   3.419
 1555SOL     OW 5563   5.746   3.170   6.941
 1555SOL    HW1 5564   5.798   3.112   7.003
 1555SOL    HW2 5565   5.650   3.144   6.942
 1556SOL     OW 5566   1.710   1.617   6.220
 1556SOL    HW1 5567   1.788   1.677   6.236
 1556SOL    HW2 5568   1.626   1.671   6.214
 1557SOL     OW 5569   2.207   3.030   5.627
 1557SOL    HW1 5570   2.170   3.044   5.535
 1557SOL    HW2 5571   2.153   3.081   5.693
 1558SOL     OW 5572   6.243   0.759   4.816
 1558SOL    HW1 5573   6.311   0.766   4.743
 1558SOL    HW2 5574   6.243   0.666   4.853
 1559SOL     OW 5575   1.434   2.851   6.500
 1559SOL    HW1 5576   1.447   2.851   6.599
 1559SOL    HW2 5577   1.404   2.941   6.470
 1560SOL     OW 5578   6.979   0.772   5.732
 1560SOL    HW1 5579   6.914   0.794   5.659
 1560SOL    HW2 5580   6.950   0.818   5.816
 1561SOL     OW 5581   5.039   6.197   3.707
 1561SOL    HW1 5582   4.962   6.239   3.660
 1561SOL    HW2 5583   5.106   6.266   3.731
 1562SOL     OW 5584   4.890   6.016   2.805
 1562SOL    HW1 5585   4.951   6.094   2.792
 1562SOL    HW2 5586   4.828   6.009   2.727
 1563SOL     OW 5587   2.775   0.440   5.056
 1563SOL    HW1 5588   2.813   0.521   5.013
 1563SOL    HW2 5589   2.776   0.451   5.156
 1564SOL     OW 5590   1.498   0.915   3.558
 1564SOL    HW1 5591   1.412   0.864   3.554
 1564SOL    HW2 5592   1.575   0.851   3.567
 1565SOL     OW 5593   4.918   4.568   3.194
 1565SOL    HW1 5594   4.915   4.568   3.094
 1565SOL    HW2 5595   4.976   4.492   3.225
 1566SOL     OW 5596   5.617   4.375   2.727
 1566SOL    HW1 5597   5.577   4.446   2.785
 1566SOL    HW2 5598   5.545   4.312   2.697
 1567SOL     OW 5599   6.757   5.943   1.157
 1567SOL    HW1 5600   6.824   5.918   1.227
 1567SOL    HW2 5601   6.794   6.016   1.099
 1568SOL     OW 5602   1.224   6.976   0.127
 1568SOL    HW1 5603   1.250   6.912   0.054
 1568SOL    HW2 5604   1.186   0.034   0.086
 1569SOL     OW 5605   4.319   6.115   3.454
 1569SOL    HW1 5606   4.231   6.145   3.418
 1569SOL    HW2 5607   4.307   6.027   3.500
 1570SOL     OW 5608   1.475   6.864   0.451
 1570SOL    HW1 5609   1.447   6.816   0.368
 1570SOL    HW2 5610   1.555   6.921   0.430
 1571SOL     OW 5611   5.707   2.634   0.763
 1571SOL    HW1 5612   5.643   2.558   0.773
 1571SOL    HW2 5613   5.714   2.660   0.667
 1572SOL     OW 5614   0.377   0.500   1.806
 1572SOL    HW1 5615   0.312   0.424   1.800
 1572SOL    HW2 5616   0.411   0.521   1.714
 1573SOL     OW 5617   5.263   2.003   1.856
 1573SOL    HW1 5618   5.282   2.065   1.932
 1573SOL    HW2 5619   5.345   1.994   1.800
 1574SOL     OW 5620   6.414   1.479   1.844
 1574SOL    HW1 5621   6.355   1.438   1.914
 1574SOL    HW2 5622   6.400   1.578   1.843
 1575SOL     OW 5623   3.057   1.691   0.838
 1575SOL    HW1 5624   2.979   1.683   0.776
 1575SOL    HW2 5625   3.040   1.636   0.920
 1576SOL     OW 5626   6.378   6.691   4.133
 1576SOL    HW1 5627   6.304   6.733   4.185
 1576SOL    HW2 5628   6.424   6.622   4.189
 1577SOL     OW 5629   2.854   1.901   4.397
 1577SOL    HW1 5630   2.818   1.890   4.490
 1577SOL    HW2 5631   2.952   1.920   4.402
 1578SOL     OW 5632   6.376   3.498   5.570
 1578SOL    HW1 5633   6.447   3.533   5.631
 1578SOL    HW2 5634   6.416   3.431   5.508
 1579SOL     OW 5635   6.989   1.479   3.355
 1579SOL    HW1 5636   0.026   1.499   3.431
 1579SOL    HW2 5637   6.908   1.433   3.390
 1580SOL     OW 5638   2.804   3.816   5.204
 1580SOL    HW1 5639   2.841   3.854   5.120
 1580SOL    HW2 5640   2.754   3.887   5.254
 1581SOL     OW 5641   0.304   4.503   4.668
 1581SOL    HW1 5642   0.269   4.449   4.744
 1581SOL    HW2 5643   0.317   4.444   4.588
 1582SOL     OW 5644   1.457   6.753   4.428
 1582SOL    HW1 5645   1.466   6.672   4.485
 1582SOL    HW2 5646   1.513   6.743   4.346
 1583SOL     OW 5647   0.978   3.017   4.491
 1583SOL    HW1 5648   0.917   2.944   4.458
 1583SOL    HW2 5649   0.959   3.101   4.440
 1584SOL     OW 5650   1.644   6.659   4.714
 1584SOL    HW1 5651   1.667   6.714   4.794
 1584SOL    HW2 5652   1.549   6.627   4.721
 1585SOL     OW 5653   5.860   1.698   3.378
 1585SOL    HW1 5654   5.785   1.764   3.374
 1585SOL    HW2 5655   5.895   1.682   3.286
 1586SOL     OW 5656   3.703   4.060   1.796
 1586SOL    HW1 5657   3.747   4.139   1.754
 1586SOL    HW2 5658   3.774   4.002   1.838
 1587SOL     OW 5659   3.051   4.719   7.014
 1587SOL    HW1 5660   2.988   4.643   7.004
 1587SOL    HW2 5661   3.113   4.702   0.066
 1588SOL     OW 5662   4.470   1.668   3.220
 1588SOL    HW1 5663   4.411   1.748   3.222
 1588SOL    HW2 5664   4.423   1.592   3.175
 1589SOL     OW 5665   5.869   4.137   3.410
 1589SOL    HW1 5666   5.943   4.176   3.465
 1589SOL    HW2 5667   5.872   4.176   3.318
 1590SOL     OW 5668   2.200   6.910   5.866
 1590SOL    HW1 5669   2.110   6.947   5.843
 1590SOL    HW2 5670   2.233   6.854   5.789
 1591SOL     OW 5671   1.465   5.217   3.042
 1591SOL    HW1 5672   1.501   5.310   3.040
 1591SOL    HW2 5673   1.388   5.212   3.105
 1592SOL     OW 5674   2.469   4.260   1.795
 1592SOL    HW1 5675   2.567   4.248   1.781
 1592SOL    HW2 5676   2.441   4.349   1.758
 1593SOL     OW 5677   0.834   6.359   3.397
 1593SOL    HW1 5678   0.821   6.278   3.455
 1593SOL    HW2 5679   0.913   6.410   3.430
 1594SOL     OW 5680   0.518   5.164   2.858
 1594SOL    HW1 5681   0.453   5.193   2.928
 1594SOL    HW2 5682   0.610   5.162   2.897
 1595SOL     OW 5683   0.513   4.879   6.249
 1595SOL    HW1 5684   0.607   4.874   6.215
 1595SOL    HW2 5685   0.478   4.972   6.236
 1596SOL     OW 5686   1.377   3.352   5.701
 1596SOL    HW1 5687   1.472   3.375   5.679
 1596SOL    HW2 5688   1.317   3.386   5.629
 1597SOL     OW 5689   2.999   5.354   0.818
 1597SOL    HW1 5690   3.038   5.441   0.847
 1597SOL    HW2 5691   3.031   5.281   0.879
 1598SOL     OW 5692   0.639   4.166   0.333
 1598SOL    HW1 5693   0.704   4.187   0.407
 1598SOL    HW2 5694   0.615   4.069   0.336
 1599SOL     OW 5695   4.632   3.504   5.772
 1599SOL    HW1 5696   4.726   3.479   5.750
 1599SOL    HW2 5697   4.578   3.421   5.785
 1600SOL     OW 5698   5.222   1.999   4.791
 1600SOL    HW1 5699   5.308   1.957   4.822
 1600SOL    HW2 5700   5.178   2.047   4.867
 1601SOL     OW 5701   0.518   5.142   4.894
 1601SOL    HW1 5702   0.595   5.206   4.888
 1601SOL    HW2 5703   0.547   5.052   4.859
 1602SOL     OW 5704   2.071   5.710   4.241
 1602SOL    HW1 5705   2.133   5.712   4.163
 1602SOL    HW2 5706   2.111   5.654   4.314
 1603SOL     OW 5707   1.036   6.252   1.626
 1603SOL    HW1 5708   1.106   6.206   1.681
 1603SOL    HW2 5709   0.946   6.219   1.652
 1604SOL     OW 5710   5.744   4.947   6.640
 1604SOL    HW1 5711   5.645   4.957   6.651
 1604SOL    HW2 5712   5.781   4.893   6.716
 1605SOL     OW 5713   6.576   0.100   1.920
 1605SOL    HW1 5714   6.532   0.034   1.858
 1605SOL    HW2 5715   6.648   0.053   1.972
 1606SOL     OW 5716   4.641   0.663   5.249
 1606SOL    HW1 5717   4.589   0.614   5.319
 1606SOL    HW2 5718   4.669   0.752   5.285
 1607SOL     OW 5719   4.995   2.607   1.143
 1607SOL    HW1 5720   4.908   2.654   1.130
 1607SOL    HW2 5721   5.069   2.675   1.148
 1608SOL     OW 5722   1.512   0.115   5.780
 1608SOL    HW1 5723   1.451   0.181   5.824
 1608SOL    HW2 5724   1.597   0.160   5.754
 1609SOL     OW 5725   4.783   1.387   6.453
 1609SOL    HW1 5726   4.778   1.427   6.361
 1609SOL    HW2 5727   4.765   1.457   6.521
 1610SOL     OW 5728   5.719   4.006   5.382
 1610SOL    HW1 5729   5.740   3.960   5.296
 1610SOL    HW2 5730   5.787   4.077   5.400
 1611SOL     OW 5731   3.781   3.435   2.021
 1611SOL    HW1 5732   3.845   3.370   1.980
 1611SOL    HW2 5733   3.764   3.510   1.957
 1612SOL     OW 5734   2.715   0.787   5.274
 1612SOL    HW1 5735   2.773   0.865   5.249
 1612SOL    HW2 5736   2.773   0.708   5.296
 1613SOL     OW 5737   2.049   6.055   0.722
 1613SOL    HW1 5738   2.102   6.045   0.806
 1613SOL    HW2 5739   2.060   5.972   0.666
 1614SOL     OW 5740   6.651   4.298   0.410
 1614SOL    HW1 5741   6.684   4.368   0.348
 1614SOL    HW2 5742   6.582   4.337   0.472
 1615SOL     OW 5743   6.305   4.895   1.477
 1615SOL    HW1 5744   6.387   4.890   1.534
 1615SOL    HW2 5745   6.272   4.990   1.475
 1616SOL     OW 5746   4.696   2.180   5.847
 1616SOL    HW1 5747   4.737   2.236   5.776
 1616SOL    HW2 5748   4.609   2.143   5.814
 1617SOL     OW 5749   6.020   0.045   1.346
 1617SOL    HW1 5750   6.013   0.071   1.250
 1617SOL    HW2 5751   5.934   0.003   1.376
 1618SOL     OW 5752   0.679   3.717   1.375
 1618SOL    HW1 5753   0.591   3.759   1.351
 1618SOL    HW2 5754   0.734   3.783   1.427
 1619SOL     OW 5755   1.535   2.759   4.569
 1619SOL    HW1 5756   1.545   2.858   4.585
 1619SOL    HW2 5757   1.586   2.710   4.640
 1620SOL     OW 5758   1.895   5.650   0.946
 1620SOL    HW1 5759   1.914   5.657   1.044
 1620SOL    HW2 5760   1.830   5.721   0.919
 1621SOL     OW 5761   0.441   1.028   0.239
 1621SOL    HW1 5762   0.508   1.101   0.224
 1621SOL    HW2 5763   0.416   0.988   0.151
 1622SOL     OW 5764   1.479   2.033   4.619
 1622SOL    HW1 5765   1.438   2.115   4.659
 1622SOL    HW2 5766   1.579   2.040   4.625
 1623SOL     OW 5767   2.596   2.758   5.940
 1623SOL    HW1 5768   2.694   2.738   5.951
 1623SOL    HW2 5769   2.549   2.675   5.909
 1624SOL     OW 5770   2.795   0.666   5.847
 1624SOL    HW1 5771   2.794   0.608   5.765
 1624SOL    HW2 5772   2.857   0.743   5.833
 1625SOL     OW 5773   1.093   5.333   2.322
 1625SOL    HW1 5774   1.055   5.393   2.392
 1625SOL    HW2 5775   1.191   5.351   2.311
 1626SOL     OW 5776   2.388   1.771   6.675
 1626SOL    HW1 5777   2.427   1.722   6.597
 1626SOL    HW2 5778   2.460   1.787   6.743
 1627SOL     OW 5779   6.954   2.304   4.597
 1627SOL    HW1 5780   0.020   2.290   4.559
 1627SOL    HW2 5781   6.885   2.291   4.525
 1628SOL     OW 5782   4.276   4.916   6.609
 1628SOL    HW1 5783   4.271   4.858   6.690
 1628SOL    HW2 5784   4.191   4.907   6.556
 1629SOL     OW 5785   2.807   2.362   3.993
 1629SOL    HW1 5786   2.866   2.345   4.072
 1629SOL    HW2 5787   2.736   2.291   3.988
 1630SOL     OW 5788   0.523   6.181   6.039
 1630SOL    HW1 5789   0.514   6.236   6.122
 1630SOL    HW2 5790   0.570   6.233   5.968
 1631SOL     OW 5791   6.571   0.632   6.056
 1631SOL    HW1 5792   6.638   0.562   6.034
 1631SOL    HW2 5793   6.565   0.643   6.156
 1632SOL     OW 5794   0.125   1.212   6.870
 1632SOL    HW1 5795   0.206   1.235   6.925
 1632SOL    HW2 5796   0.042   1.229   6.922
 1633SOL     OW 5797   5.347   2.509   3.172
 1633SOL    HW1 5798   5.270   2.539   3.116
 1633SOL    HW2 5799   5.413   2.461   3.113
 1634SOL     OW 5800   4.384   5.722   5.590
 1634SOL    HW1 5801   4.468   5.756   5.548
 1634SOL    HW2 5802   4.322   5.799   5.605
 1635SOL     OW 5803   6.387   5.470   4.658
 1635SOL    HW1 5804   6.452   5.400   4.690
 1635SOL    HW2 5805   6.342   5.512   4.737
 1636SOL     OW 5806   2.192   4.221   1.587
 1636SOL    HW1 5807   2.208   4.318   1.604
 1636SOL    HW2 5808   2.214   4.169   1.669
 1637SOL     OW 5809   6.621   1.419   2.887
 1637SOL    HW1 5810   6.696   1.431   2.952
 1637SOL    HW2 5811   6.592   1.508   2.853
 1638SOL     OW 5812   0.938   3.745   3.964
 1638SOL    HW1 5813   0.867   3.706   3.906
 1638SOL    HW2 5814   1.006   3.792   3.908
 1639SOL     OW 5815   4.911   6.375   2.600
 1639SOL    HW1 5816   4.978   6.340   2.534
 1639SOL    HW2 5817   4.909   6.475   2.596
 1640SOL     OW 5818   5.953   1.936   0.423
 1640SOL    HW1 5819   5.864   1.977   0.443
 1640SOL    HW2 5820   6.026   2.001   0.444
 1641SOL     OW 5821   5.933   2.681   3.651
 1641SOL    HW1 5822   5.861   2.613   3.654
 1641SOL    HW2 5823   6.016   2.640   3.611
 1642SOL     OW 5824   6.857   3.174   0.287
 1642SOL    HW1 5825   6.909   3.244   0.238
 1642SOL    HW2 5826   6.761   3.179   0.259
 1643SOL     OW 5827   2.892   6.192   4.368
 1643SOL    HW1 5828   2.801   6.224   4.342
 1643SOL    HW2 5829   2.894   6.093   4.366
 1644SOL     OW 5830   2.122   2.350   1.021
 1644SOL    HW1 5831   2.191   2.377   1.088
 1644SOL    HW2 5832   2.162   2.351   0.930
 1645SOL     OW 5833   3.234   6.201   5.179
 1645SOL    HW1 5834   3.291   6.122   5.198
 1645SOL    HW2 5835   3.200   6.197   5.085
 1646SOL     OW 5836   2.742   5.156   1.301
 1646SOL    HW1 5837   2.792   5.222   1.244
 1646SOL    HW2 5838   2.692   5.092   1.242
 1647SOL     OW 5839   5.529   2.653   4.399
 1647SOL    HW1 5840   5.507   2.701   4.484
 1647SOL    HW2 5841   5.458   2.586   4.379
 1648SOL     OW 5842   5.589   6.423   1.907
 1648SOL    HW1 5843   5.680   6.425   1.866
 1648SOL    HW2 5844   5.535   6.351   1.865
 1649SOL     OW 5845   3.280   0.522   3.143
 1649SOL    HW1 5846   3.323   0.485   3.061
 1649SOL    HW2 5847   3.213   0.592   3.117
 1650SOL     OW 5848   2.916   6.679   4.072
 1650SOL    HW1 5849   2.960   6.613   4.132
 1650SOL    HW2 5850   2.858   6.740   4.126
 1651SOL     OW 5851   0.548   0.783   1.146
 1651SOL    HW1 5852   0.620   0.804   1.213
 1651SOL    HW2 5853   0.531   0.864   1.089
 1652SOL     OW 5854   1.515   2.031   1.450
 1652SOL    HW1 5855   1.424   2.001   1.422
 1652SOL    HW2 5856   1.568   2.055   1.370
 1653SOL     OW 5857   0.728   5.659   1.357
 1653SOL    HW1 5858   0.635   5.684   1.333
 1653SOL    HW2 5859   0.787   5.739   1.351
 1654SOL     OW 5860   0.034   3.178   1.776
 1654SOL    HW1 5861   6.981   3.225   1.816
 1654SOL    HW2 5862   0.116   3.195   1.830
 1655SOL     OW 5863   5.336   3.939   6.085
 1655SOL    HW1 5864   5.411   3.923   6.150
 1655SOL    HW2 5865   5.330   4.037   6.065
 1656SOL     OW 5866   1.855   4.114   3.132
 1656SOL    HW1 5867   1.788   4.171   3.180
 1656SOL    HW2 5868   1.946   4.153   3.142
 1657SOL     OW 5869   0.017   1.295   4.636
 1657SOL    HW1 5870   0.060   1.246   4.712
 1657SOL    HW2 5871   6.996   1.377   4.671
 1658SOL     OW 5872   6.872   0.075   2.695
 1658SOL    HW1 5873   6.910   0.006   2.756
 1658SOL    HW2 5874   6.834   0.150   2.749
 1659SOL     OW 5875   3.926   1.984   6.298
 1659SOL    HW1 5876   3.941   2.075   6.260
 1659SOL    HW2 5877   3.961   1.915   6.234
 1660SOL     OW 5878   0.914   5.172   3.853
 1660SOL    HW1 5879   0.896   5.269   3.842
 1660SOL    HW2 5880   0.981   5.143   3.785
 1661SOL     OW 5881   3.421   1.672   1.837
 1661SOL    HW1 5882   3.514   1.636   1.835
 1661SOL    HW2 5883   3.409   1.739   1.763
 1662SOL     OW 5884   6.061   1.196   3.543
 1662SOL    HW1 5885   6.081   1.218   3.447
 1662SOL    HW2 5886   6.131   1.236   3.601
 1663SOL     OW 5887   2.252   0.718   3.162
 1663SOL    HW1 5888   2.266   0.698   3.065
 1663SOL    HW2 5889   2.184   0.791   3.171
 1664SOL     OW 5890   1.613   0.563   4.057
 1664SOL    HW1 5891   1.572   0.637   4.004
 1664SOL    HW2 5892   1.678   0.601   4.122
 1665SOL     OW 5893   0.019   1.595   3.073
 1665SOL    HW1 5894   6.952   1.576   3.108
 1665SOL    HW2 5895   0.068   1.509   3.057
 1666SOL     OW 5896   6.109   2.649   0.703
 1666SOL    HW1 5897   6.156   2.734   0.680
 1666SOL    HW2 5898   6.169   2.591   0.758
 1667SOL     OW 5899   5.224   6.642   0.423
 1667SOL    HW1 5900   5.209   6.607   0.515
 1667SOL    HW2 5901   5.279   6.725   0.427
 1668SOL     OW 5902   4.879   6.575   5.280
 1668SOL    HW1 5903   4.815   6.570   5.357
 1668SOL    HW2 5904   4.909   6.670   5.269
 1669SOL     OW 5905   5.904   6.669   0.259
 1669SOL    HW1 5906   5.879   6.582   0.301
 1669SOL    HW2 5907   6.002   6.685   0.272
 1670SOL     OW 5908   6.885   5.805   5.756
 1670SOL    HW1 5909   6.845   5.729   5.703
 1670SOL    HW2 5910   6.983   5.791   5.765
 1671SOL     OW 5911   4.074   2.373   1.147
 1671SOL    HW1 5912   4.095   2.356   1.243
 1671SOL    HW2 5913   4.135   2.444   1.112
 1672SOL     OW 5914   2.111   3.889   2.897
 1672SOL    HW1 5915   2.017   3.857   2.910
 1672SOL    HW2 5916   2.139   3.945   2.975
 1673SOL     OW 5917   0.797   2.404   4.557
 1673SOL    HW1 5918   0.779   2.358   4.644
 1673SOL    HW2 5919   0.711   2.415   4.507
 1674SOL     OW 5920   1.707   3.947   1.348
 1674SOL    HW1 5921   1.660   4.019   1.399
 1674SOL    HW2 5922   1.742   3.984   1.262
 1675SOL     OW 5923   4.157   0.206   6.618
 1675SOL    HW1 5924   4.064   0.200   6.583
 1675SOL    HW2 5925   4.219   0.230   6.544
 1676SOL     OW 5926   3.145   1.375   2.750
 1676SOL    HW1 5927   3.172   1.279   2.758
 1676SOL    HW2 5928   3.139   1.400   2.654
 1677SOL     OW 5929   4.678   2.294   5.410
 1677SOL    HW1 5930   4.719   2.337   5.329
 1677SOL    HW2 5931   4.642   2.204   5.384
 1678SOL     OW 5932   5.859   4.784   3.916
 1678SOL    HW1 5933   5.819   4.855   3.974
 1678SOL    HW2 5934   5.843   4.807   3.820
 1679SOL     OW 5935   1.836   3.647   5.553
 1679SOL    HW1 5936   1.931   3.647   5.584
 1679SOL    HW2 5937   1.802   3.741   5.553
 1680SOL     OW 5938   1.094   1.572   4.166
 1680SOL    HW1 5939   1.078   1.566   4.068
 1680SOL    HW2 5940   1.100   1.479   4.204
 1681SOL     OW 5941   6.624   5.526   1.344
 1681SOL    HW1 5942   6.545   5.512   1.404
 1681SOL    HW2 5943   6.591   5.543   1.251
 1682SOL     OW 5944   0.427   3.135   4.995
 1682SOL    HW1 5945   0.351   3.147   4.931
 1682SOL    HW2 5946   0.453   3.038   4.998
 1683SOL     OW 5947   4.186   5.047   0.760
 1683SOL    HW1 5948   4.135   5.110   0.817
 1683SOL    HW2 5949   4.198   4.960   0.809
 1684SOL     OW 5950   1.270   6.508   3.134
 1684SOL    HW1 5951   1.317   6.567   3.068
 1684SOL    HW2 5952   1.171   6.526   3.129
 1685SOL     OW 5953   1.815   1.195   6.524
 1685SOL    HW1 5954   1.782   1.101   6.522
 1685SOL    HW2 5955   1.807   1.235   6.432
 1686SOL     OW 5956   2.032   5.495   5.827
 1686SOL    HW1 5957   2.034   5.504   5.927
 1686SOL    HW2 5958   1.940   5.517   5.794
 1687SOL     OW 5959   2.047   3.074   1.684
 1687SOL    HW1 5960   2.053   3.174   1.676
 1687SOL    HW2 5961   2.124   3.040   1.737
 1688SOL     OW 5962   1.442   2.096   3.515
 1688SOL    HW1 5963   1.478   2.136   3.599
 1688SOL    HW2 5964   1.454   1.997   3.517
 1689SOL     OW 5965   3.346   1.081   2.064
 1689SOL    HW1 5966   3.414   1.013   2.091
 1689SOL    HW2 5967   3.378   1.172   2.092
 1690SOL     OW 5968   1.459   2.465   3.386
 1690SOL    HW1 5969   1.424   2.547   3.341
 1690SOL    HW2 5970   1.463   2.480   3.485
 1691SOL     OW 5971   5.035   3.965   3.361
 1691SOL    HW1 5972   5.118   3.998   3.316
 1691SOL    HW2 5973   4.956   4.017   3.327
 1692SOL     OW 5974   7.002   0.091   1.220
 1692SOL    HW1 5975   6.999   0.082   1.319
 1692SOL    HW2 5976   0.023   0.011   1.181
 1693SOL     OW 5977   1.715   2.939   3.077
 1693SOL    HW1 5978   1.636   2.963   3.134
 1693SOL    HW2 5979   1.798   2.941   3.133
 1694SOL     OW 5980   3.870   6.287   4.040
 1694SOL    HW1 5981   3.789   6.338   4.011
 1694SOL    HW2 5982   3.952   6.330   4.003
 1695SOL     OW 5983   2.614   1.436   4.560
 1695SOL    HW1 5984   2.704   1.401   4.531
 1695SOL    HW2 5985   2.621   1.473   4.652
 1696SOL     OW 5986   5.110   5.497   0.668
 1696SOL    HW1 5987   5.182   5.559   0.636
 1696SOL    HW2 5988   5.051   5.546   0.732
 1697SOL     OW 5989   0.247   6.598   1.162
 1697SOL    HW1 5990   0.286   6.553   1.242
 1697SOL    HW2 5991   0.249   6.535   1.084
 1698SOL     OW 5992   4.622   1.641   1.258
 1698SOL    HW1 5993   4.566   1.569   1.216
 1698SOL    HW2 5994   4.686   1.678   1.190
 1699SOL     OW 5995   2.846   1.817   2.045
 1699SOL    HW1 5996   2.834   1.836   2.143
 1699SOL    HW2 5997   2.923   1.869   2.010
 1700SOL     OW 5998   6.426   2.347   3.609
 1700SOL    HW1 5999   6.518   2.385   3.600
 1700SOL    HW2 6000   6.426   2.275   3.678
 1701SOL     OW 6001   5.221   2.932   4.688
 1701SOL    HW1 6002   5.154   2.868   4.649
 1701SOL    HW2 6003   5.230   3.012   4.628
 1702SOL     OW 6004   6.636   3.375   0.331
 1702SOL    HW1 6005   6.589   3.442   0.389
 1702SOL    HW2 6006   6.599   3.284   0.348
 1703SOL     OW 6007   3.251   4.034   2.750
 1703SOL    HW1 6008   3.251   3.977   2.668
 1703SOL    HW2 6009   3.166   4.019   2.800
 1704SOL     OW 6010   0.233   1.322   0.876
 1704SOL    HW1 6011   0.152   1.291   0.826
 1704SOL    HW2 6012   0.315   1.279   0.837
 1705SOL     OW 6013   3.264   2.101   1.985
 1705SOL    HW1 6014   3.278   2.133   1.891
 1705SOL    HW2 6015   3.353   2.086   2.029
 1706SOL     OW 6016   3.949   6.907   1.382
 1706SOL    HW1 6017   4.037   6.936   1.345
 1706SOL    HW2 6018   3.878   6.970   1.351
 1707SOL     OW 6019   4.272   1.505   1.992
 1707SOL    HW1 6020   4.328   1.425   2.016
 1707SOL    HW2 6021   4.181   1.495   2.032
 1708SOL     OW 6022   5.962   6.282   3.012
 1708SOL    HW1 6023   5.948   6.185   3.033
 1708SOL    HW2 6024   6.032   6.319   3.073
 1709SOL     OW 6025   2.679   6.463   1.848
 1709SOL    HW1 6026   2.700   6.389   1.912
 1709SOL    HW2 6027   2.624   6.428   1.772
 1710SOL     OW 6028   6.737   4.460   3.994
 1710SOL    HW1 6029   6.794   4.396   3.943
 1710SOL    HW2 6030   6.761   4.554   3.968
 1711SOL     OW 6031   1.834   4.469   5.356
 1711SOL    HW1 6032   1.880   4.397   5.304
 1711SOL    HW2 6033   1.763   4.429   5.413
 1712SOL     OW 6034   0.601   3.289   6.298
 1712SOL    HW1 6035   0.653   3.315   6.216
 1712SOL    HW2 6036   0.600   3.366   6.362
 1713SOL     OW 6037   2.873   2.109   1.132
 1713SOL    HW1 6038   2.921   2.033   1.088
 1713SOL    HW2 6039   2.932   2.190   1.134
 1714SOL     OW 6040   3.845   1.500   6.128
 1714SOL    HW1 6041   3.853   1.436   6.204
 1714SOL    HW2 6042   3.767   1.474   6.071
 1715SOL     OW 6043   6.688   3.544   2.969
 1715SOL    HW1 6044   6.676   3.643   2.972
 1715SOL    HW2 6045   6.640   3.506   2.890
 1716SOL     OW 6046   5.774   6.306   1.437
 1716SOL    HW1 6047   5.701   6.317   1.369
 1716SOL    HW2 6048   5.851   6.259   1.395
 1717SOL     OW 6049   2.613   6.364   6.430
 1717SOL    HW1 6050   2.580   6.447   6.476
 1717SOL    HW2 6051   2.601   6.375   6.331
 1718SOL     OW 6052   1.991   2.503   0.799
 1718SOL    HW1 6053   2.021   2.416   0.761
 1718SOL    HW2 6054   1.893   2.515   0.780
 1719SOL     OW 6055   2.482   4.091   1.568
 1719SOL    HW1 6056   2.393   4.051   1.547
 1719SOL    HW2 6057   2.469   4.175   1.621
 1720SOL     OW 6058   6.513   1.714   1.428
 1720SOL    HW1 6059   6.493   1.620   1.456
 1720SOL    HW2 6060   6.607   1.719   1.394
 1721SOL     OW 6061   1.435   6.957   2.071
 1721SOL    HW1 6062   1.524   7.002   2.080
 1721SOL    HW2 6063   1.448   6.858   2.075
 1722SOL     OW 6064   5.173   1.159   3.317
 1722SOL    HW1 6065   5.183   1.218   3.397
 1722SOL    HW2 6066   5.233   1.192   3.244
 1723SOL     OW 6067   6.744   2.126   3.633
 1723SOL    HW1 6068   6.748   2.036   3.590
 1723SOL    HW2 6069   6.837   2.161   3.645
 1724SOL     OW 6070   6.053   1.213   0.889
 1724SOL    HW1 6071   6.004   1.189   0.973
 1724SOL    HW2 6072   6.124   1.280   0.911
 1725SOL     OW 6073   3.332   4.386   0.330
 1725SOL    HW1 6074   3.259   4.376   0.398
 1725SOL    HW2 6075   3.293   4.419   0.244
 1726SOL     OW 6076   0.099   4.411   4.870
 1726SOL    HW1 6077   0.050   4.440   4.952
 1726SOL    HW2 6078   0.033   4.374   4.804
 1727SOL     OW 6079   3.486   3.051   3.889
 1727SOL    HW1 6080   3.483   3.134   3.945
 1727SOL    HW2 6081   3.524   2.976   3.943
 1728SOL     OW 6082   5.032   4.640   4.326
 1728SOL    HW1 6083   4.961   4.700   4.287
 1728SOL    HW2 6084   4.998   4.599   4.410
 1729SOL     OW 6085   2.215   3.956   3.881
 1729SOL    HW1 6086   2.209   3.892   3.804
 1729SOL    HW2 6087   2.204   3.906   3.967
 1730SOL     OW 6088   6.431   0.559   5.087
 1730SOL    HW1 6089   6.460   0.538   4.994
 1730SOL    HW2 6090   6.450   0.655   5.107
 1731SOL     OW 6091   1.073   5.063   2.449
 1731SOL    HW1 6092   0.977   5.037   2.447
 1731SOL    HW2 6093   1.082   5.160   2.428
 1732SOL     OW 6094   2.154   4.087   6.402
 1732SOL    HW1 6095   2.203   4.105   6.317
 1732SOL    HW2 6096   2.174   4.159   6.468
 1733SOL     OW 6097   1.494   3.361   2.132
 1733SOL    HW1 6098   1.529   3.382   2.041
 1733SOL    HW2 6099   1.423   3.428   2.157
 1734SOL     OW 6100   4.825   3.119   1.709
 1734SOL    HW1 6101   4.761   3.063   1.763
 1734SOL    HW2 6102   4.780   3.204   1.682
 1735SOL     OW 6103   6.038   5.727   1.347
 1735SOL    HW1 6104   5.974   5.703   1.274
 1735SOL    HW2 6105   5.986   5.760   1.426
 1736SOL     OW 6106   4.718   2.127   7.011
 1736SOL    HW1 6107   4.783   2.124   0.062
 1736SOL    HW2 6108   4.744   2.059   6.942
 1737SOL     OW 6109   2.974   0.135   3.968
 1737SOL    HW1 6110   3.024   0.155   4.052
 1737SOL    HW2 6111   3.032   0.082   3.905
 1738SOL     OW 6112   2.332   2.777   3.821
 1738SOL    HW1 6113   2.311   2.869   3.854
 1738SOL    HW2 6114   2.372   2.724   3.896
 1739SOL     OW 6115   4.716   2.433   5.180
 1739SOL    HW1 6116   4.693   2.528   5.197
 1739SOL    HW2 6117   4.756   2.423   5.089
 1740SOL     OW 6118   0.336   0.997   6.794
 1740SOL    HW1 6119   0.409   1.053   6.833
 1740SOL    HW2 6120   0.247   1.040   6.812
 1741SOL     OW 6121   2.591   1.238   2.629
 1741SOL    HW1 6122   2.595   1.140   2.646
 1741SOL    HW2 6123   2.652   1.261   2.553
 1742SOL     OW 6124   3.900   5.809   5.907
 1742SOL    HW1 6125   3.943   5.719   5.912
 1742SOL    HW2 6126   3.802   5.798   5.895
 1743SOL     OW 6127   2.331   1.326   2.564
 1743SOL    HW1 6128   2.429   1.312   2.546
 1743SOL    HW2 6129   2.314   1.423   2.582
 1744SOL     OW 6130   1.434   6.836   1.682
 1744SOL    HW1 6131   1.516   6.779   1.694
 1744SOL    HW2 6132   1.457   6.917   1.628
 1745SOL     OW 6133   6.738   1.241   4.705
 1745SOL    HW1 6134   6.737   1.141   4.710
 1745SOL    HW2 6135   6.791   1.270   4.625
 1746SOL     OW 6136   2.511   5.973   5.651
 1746SOL    HW1 6137   2.473   6.063   5.675
 1746SOL    HW2 6138   2.477   5.946   5.561
 1747SOL     OW 6139   4.931   6.672   2.580
 1747SOL    HW1 6140   4.916   6.736   2.505
 1747SOL    HW2 6141   5.016   6.697   2.628
 1748SOL     OW 6142   0.282   0.741   4.006
 1748SOL    HW1 6143   0.340   0.803   4.059
 1748SOL    HW2 6144   0.291   0.648   4.043
 1749SOL     OW 6145   3.509   6.535   5.476
 1749SOL    HW1 6146   3.482   6.461   5.415
 1749SOL    HW2 6147   3.524   6.618   5.422
 1750SOL     OW 6148   5.515   1.327   3.857
 1750SOL    HW1 6149   5.476   1.415   3.829
 1750SOL    HW2 6150   5.503   1.316   3.956
 1751SOL     OW 6151   3.021   5.383   4.458
 1751SOL    HW1 6152   2.928   5.398   4.425
 1751SOL    HW2 6153   3.022   5.310   4.526
 1752SOL     OW 6154   6.760   2.229   1.426
 1752SOL    HW1 6155   6.719   2.234   1.335
 1752SOL    HW2 6156   6.786   2.134   1.445
 1753SOL     OW 6157   0.652   1.250   0.268
 1753SOL    HW1 6158   0.701   1.195   0.336
 1753SOL    HW2 6159   0.589   1.312   0.316
 1754SOL     OW 6160   3.799   3.124   0.881
 1754SOL    HW1 6161   3.884   3.176   0.872
 1754SOL    HW2 6162   3.731   3.159   0.817
 1755SOL     OW 6163   5.564   4.946   2.191
 1755SOL    HW1 6164   5.512   5.031   2.197
 1755SOL    HW2 6165   5.659   4.966   2.166
 1756SOL     OW 6166   5.188   4.441   5.413
 1756SOL    HW1 6167   5.225   4.467   5.323
 1756SOL    HW2 6168   5.248   4.476   5.485
 1757SOL     OW 6169   2.313   6.658   4.775
 1757SOL    HW1 6170   2.353   6.672   4.685
 1757SOL    HW2 6171   2.371   6.700   4.845
 1758SOL     OW 6172   2.715   0.627   3.824
 1758SOL    HW1 6173   2.743   0.664   3.736
 1758SOL    HW2 6174   2.639   0.564   3.812
 1759SOL     OW 6175   0.719   5.567   6.329
 1759SOL    HW1 6176   0.702   5.577   6.231
 1759SOL    HW2 6177   0.643   5.607   6.380
 1760SOL     OW 6178   5.958   1.490   1.276
 1760SOL    HW1 6179   6.028   1.485   1.348
 1760SOL    HW2 6180   5.868   1.498   1.318
 1761SOL     OW 6181   6.817   6.723   0.551
 1761SOL    HW1 6182   6.859   6.798   0.601
 1761SOL    HW2 6183   6.817   6.640   0.608
 1762SOL     OW 6184   6.671   1.732   5.072
 1762SOL    HW1 6185   6.674   1.824   5.033
 1762SOL    HW2 6186   6.595   1.681   5.031
 1763SOL     OW 6187   1.547   3.699   4.293
 1763SOL    HW1 6188   1.505   3.766   4.355
 1763SOL    HW2 6189   1.642   3.685   4.318
 1764SOL     OW 6190   1.645   3.552   2.733
 1764SOL    HW1 6191   1.623   3.617   2.806
 1764SOL    HW2 6192   1.718   3.588   2.677
 1765SOL     OW 6193   3.671   2.003   6.900
 1765SOL    HW1 6194   3.607   1.926   6.901
 1765SOL    HW2 6195   3.746   1.983   6.838
 1766SOL     OW 6196   5.254   3.107   3.985
 1766SOL    HW1 6197   5.306   3.097   4.069
 1766SOL    HW2 6198   5.302   3.169   3.923
 1767SOL     OW 6199   5.385   4.172   2.718
 1767SOL    HW1 6200   5.355   4.158   2.624
 1767SOL    HW2 6201   5.305   4.190   2.775
 1768SOL     OW 6202   4.001   0.616   4.925
 1768SOL    HW1 6203   3.971   0.628   4.830
 1768SOL    HW2 6204   4.054   0.696   4.953
 1769SOL     OW 6205   4.113   2.190   4.151
 1769SOL    HW1 6206   4.120   2.167   4.054
 1769SOL    HW2 6207   4.196   2.238   4.180
 1770SOL     OW 6208   1.664   6.056   5.124
 1770SOL    HW1 6209   1.713   6.120   5.184
 1770SOL    HW2 6210   1.695   6.068   5.030
 1771SOL     OW 6211   2.874   5.361   6.679
 1771SOL    HW1 6212   2.825   5.441   6.642
 1771SOL    HW2 6213   2.954   5.392   6.731
 1772SOL     OW 6214   3.480   6.252   3.835
 1772SOL    HW1 6215   3.444   6.162   3.859
 1772SOL    HW2 6216   3.437   6.284   3.750
 1773SOL     OW 6217   2.037   4.978   5.666
 1773SOL    HW1 6218   2.023   5.049   5.735
 1773SOL    HW2 6219   2.099   5.011   5.596
 1774SOL     OW 6220   4.668   6.140   1.651
 1774SOL    HW1 6221   4.688   6.232   1.615
 1774SOL    HW2 6222   4.754   6.095   1.674
 1775SOL     OW 6223   1.795   4.223   3.679
 1775SOL    HW1 6224   1.733   4.299   3.699
 1775SOL    HW2 6225   1.744   4.138   3.679
 1776SOL     OW 6226   3.237   7.005   3.610
 1776SOL    HW1 6227   3.141   7.024   3.630
 1776SOL    HW2 6228   3.244   6.947   3.529
 1777SOL     OW 6229   3.746   5.571   6.038
 1777SOL    HW1 6230   3.781   5.499   5.979
 1777SOL    HW2 6231   3.788   5.564   6.128
 1778SOL     OW 6232   4.259   3.496   5.372
 1778SOL    HW1 6233   4.203   3.518   5.293
 1778SOL    HW2 6234   4.355   3.515   5.351
 1779SOL     OW 6235   4.220   1.017   4.498
 1779SOL    HW1 6236   4.211   0.918   4.487
 1779SOL    HW2 6237   4.317   1.042   4.500
 1780SOL     OW 6238   3.280   2.943   6.730
 1780SOL    HW1 6239   3.342   3.021   6.723
 1780SOL    HW2 6240   3.190   2.970   6.695
 1781SOL     OW 6241   4.671   5.776   3.905
 1781SOL    HW1 6242   4.720   5.728   3.978
 1781SOL    HW2 6243   4.737   5.817   3.842
 1782SOL     OW 6244   2.935   1.928   2.558
 1782SOL    HW1 6245   2.979   2.017   2.566
 1782SOL    HW2 6246   2.867   1.917   2.630
 1783SOL     OW 6247   1.651   5.138   6.324
 1783SOL    HW1 6248   1.558   5.125   6.360
 1783SOL    HW2 6249   1.668   5.070   6.253
 1784SOL     OW 6250   4.103   1.400   6.036
 1784SOL    HW1 6251   4.159   1.339   5.980
 1784SOL    HW2 6252   4.067   1.474   5.980
 1785SOL     OW 6253   6.239   4.243   3.311
 1785SOL    HW1 6254   6.248   4.202   3.402
 1785SOL    HW2 6255   6.330   4.252   3.270
 1786SOL     OW 6256   1.911   2.439   0.154
 1786SOL    HW1 6257   1.842   2.479   0.094
 1786SOL    HW2 6258   2.003   2.463   0.120
 1787SOL     OW 6259   3.221   0.944   5.238
 1787SOL    HW1 6260   3.197   1.006   5.163
 1787SOL    HW2 6261   3.285   0.990   5.300
 1788SOL     OW 6262   3.006   2.921   0.098
 1788SOL    HW1 6263   2.995   2.928   0.197
 1788SOL    HW2 6264   3.017   2.825   0.072
 1789SOL     OW 6265   6.213   1.974   3.141
 1789SOL    HW1 6266   6.121   2.011   3.153
 1789SOL    HW2 6267   6.238   1.918   3.221
 1790SOL     OW 6268   4.096   5.908   4.042
 1790SOL    HW1 6269   4.000   5.930   4.058
 1790SOL    HW2 6270   4.153   5.974   4.091
 1791SOL     OW 6271   5.723   0.938   3.210
 1791SOL    HW1 6272   5.760   1.022   3.170
 1791SOL    HW2 6273   5.672   0.961   3.293
 1792SOL     OW 6274   6.745   3.137   4.775
 1792SOL    HW1 6275   6.720   3.136   4.678
 1792SOL    HW2 6276   6.838   3.174   4.785
 1793SOL     OW 6277   6.553   7.003   3.274
 1793SOL    HW1 6278   6.530   6.960   3.361
 1793SOL    HW2 6279   6.512   6.950   3.199
 1794SOL     OW 6280   5.337   5.810   5.841
 1794SOL    HW1 6281   5.307   5.861   5.922
 1794SOL    HW2 6282   5.310   5.859   5.759
 1795SOL     OW 6283   1.386   2.170   0.715
 1795SOL    HW1 6284   1.461   2.208   0.768
 1795SOL    HW2 6285   1.414   2.159   0.620
 1796SOL     OW 6286   2.405   0.453   4.221
 1796SOL    HW1 6287   2.441   0.512   4.148
 1796SOL    HW2 6288   2.336   0.391   4.182
 1797SOL     OW 6289   1.307   6.730   0.249
 1797SOL    HW1 6290   1.238   6.663   0.224
 1797SOL    HW2 6291   1.275   6.822   0.224
 1798SOL     OW 6292   5.398   2.477   3.612
 1798SOL    HW1 6293   5.416   2.571   3.584
 1798SOL    HW2 6294   5.409   2.416   3.533
 1799SOL     OW 6295   6.824   2.135   6.028
 1799SOL    HW1 6296   6.746   2.139   5.966
 1799SOL    HW2 6297   6.904   2.101   5.979
 1800SOL     OW 6298   3.928   4.875   1.995
 1800SOL    HW1 6299   3.982   4.791   1.996
 1800SOL    HW2 6300   3.835   4.855   1.964
 1801SOL     OW 6301   0.369   0.693   1.994
 1801SOL    HW1 6302   0.347   0.617   1.933
 1801SOL    HW2 6303   0.411   0.658   2.078
 1802SOL     OW 6304   5.488   5.431   3.262
 1802SOL    HW1 6305   5.473   5.480   3.176
 1802SOL    HW2 6306   5.566   5.471   3.310
 1803SOL     OW 6307   0.732   5.742   6.797
 1803SOL    HW1 6308   0.672   5.662   6.799
 1803SOL    HW2 6309   0.814   5.723   6.851
 1804SOL     OW 6310   2.645   3.995   5.354
 1804SOL    HW1 6311   2.634   4.094   5.351
 1804SOL    HW2 6312   2.567   3.951   5.308
 1805SOL     OW 6313   6.162   3.893   5.622
 1805SOL    HW1 6314   6.189   3.891   5.526
 1805SOL    HW2 6315   6.153   3.799   5.656
 1806SOL     OW 6316   0.205   0.716   0.293
 1806SOL    HW1 6317   0.278   0.653   0.269
 1806SOL    HW2 6318   0.117   0.677   0.265
 1807SOL     OW 6319   5.437   2.575   5.178
 1807SOL    HW1 6320   5.437   2.565   5.277
 1807SOL    HW2 6321   5.358   2.630   5.150
 1808SOL     OW 6322   0.304   4.501   6.395
 1808SOL    HW1 6323   0.232   4.468   6.456
 1808SOL    HW2 6324   0.329   4.429   6.331
 1809SOL     OW 6325   2.201   2.183   4.821
 1809SOL    HW1 6326   2.210   2.282   4.822
 1809SOL    HW2 6327   2.104   2.158   4.828
 1810SOL     OW 6328   2.942   6.823   3.205
 1810SOL    HW1 6329   3.001   6.902   3.222
 1810SOL    HW2 6330   2.848   6.845   3.231
 1811SOL     OW 6331   6.025   5.884   3.464
 1811SOL    HW1 6332   5.970   5.882   3.548
 1811SOL    HW2 6333   6.045   5.979   3.440
 1812SOL     OW 6334   4.508   6.381   5.069
 1812SOL    HW1 6335   4.531   6.462   5.123
 1812SOL    HW2 6336   4.563   6.381   4.985
 1813SOL     OW 6337   6.523   5.218   1.234
 1813SOL    HW1 6338   6.611   5.220   1.282
 1813SOL    HW2 6339   6.527   5.281   1.156
 1814SOL     OW 6340   6.132   0.871   1.156
 1814SOL    HW1 6341   6.116   0.787   1.208
 1814SOL    HW2 6342   6.163   0.943   1.218
 1815SOL     OW 6343   6.936   2.034   2.661
 1815SOL    HW1 6344   6.863   1.987   2.611
 1815SOL    HW2 6345   7.023   2.016   2.616
 1816SOL     OW 6346   3.054   2.927   0.965
 1816SOL    HW1 6347   3.002   2.853   0.923
 1816SOL    HW2 6348   3.068   3.000   0.899
 1817SOL     OW 6349   2.833   6.948   2.466
 1817SOL    HW1 6350   2.856   6.869   2.523
 1817SOL    HW2 6351   2.733   6.959   2.464
 1818SOL     OW 6352   1.711   0.026   2.863
 1818SOL    HW1 6353   1.809   0.038   2.848
 1818SOL    HW2 6354   1.695   6.967   2.914
 1819SOL     OW 6355   1.544   4.605   1.507
 1819SOL    HW1 6356   1.587   4.515   1.496
 1819SOL    HW2 6357   1.551   4.657   1.422
 1820SOL     OW 6358   4.602   1.019   2.453
 1820SOL    HW1 6359   4.520   0.989   2.501
 1820SOL    HW2 6360   4.676   0.953   2.468
 1821SOL     OW 6361   0.784   1.061   2.250
 1821SOL    HW1 6362   0.822   1.111   2.173
 1821SOL    HW2 6363   0.856   1.043   2.317
 1822SOL     OW 6364   2.714   3.159   0.913
 1822SOL    HW1 6365   2.732   3.252   0.947
 1822SOL    HW2 6366   2.660   3.164   0.829
 1823SOL     OW 6367   3.048   5.945   2.818
 1823SOL    HW1 6368   3.081   6.039   2.820
 1823SOL    HW2 6369   3.116   5.886   2.775
 1824SOL     OW 6370   3.078   2.520   0.818
 1824SOL    HW1 6371   3.176   2.543   0.820
 1824SOL    HW2 6372   3.059   2.466   0.736
 1825SOL     OW 6373   1.560   1.303   3.026
 1825SOL    HW1 6374   1.591   1.232   3.089
 1825SOL    HW2 6375   1.503   1.369   3.075
 1826SOL     OW 6376   3.202   0.419   1.190
 1826SOL    HW1 6377   3.244   0.464   1.269
 1826SOL    HW2 6378   3.194   0.485   1.115
 1827SOL     OW 6379   0.093   5.587   2.340
 1827SOL    HW1 6380   0.022   5.602   2.410
 1827SOL    HW2 6381   0.178   5.560   2.385
 1828SOL     OW 6382   0.670   2.551   0.411
 1828SOL    HW1 6383   0.676   2.633   0.355
 1828SOL    HW2 6384   0.725   2.563   0.494
 1829SOL     OW 6385   4.116   0.240   3.419
 1829SOL    HW1 6386   4.024   0.215   3.390
 1829SOL    HW2 6387   4.136   0.333   3.391
 1830SOL     OW 6388   5.623   5.994   4.403
 1830SOL    HW1 6389   5.617   5.921   4.334
 1830SOL    HW2 6390   5.536   6.042   4.408
 1831SOL     OW 6391   5.773   0.359   2.718
 1831SOL    HW1 6392   5.781   0.400   2.627
 1831SOL    HW2 6393   5.690   0.304   2.722
 1832SOL     OW 6394   5.412   1.574   0.859
 1832SOL    HW1 6395   5.492   1.592   0.802
 1832SOL    HW2 6396   5.425   1.616   0.949
 1833SOL     OW 6397   5.589   0.980   5.144
 1833SOL    HW1 6398   5.496   0.957   5.117
 1833SOL    HW2 6399   5.643   0.896   5.153
 1834SOL     OW 6400   2.640   3.663   0.420
 1834SOL    HW1 6401   2.638   3.736   0.488
 1834SOL    HW2 6402   2.640   3.574   0.467
 1835SOL     OW 6403   1.357   4.365   1.578
 1835SOL    HW1 6404   1.408   4.363   1.664
 1835SOL    HW2 6405   1.313   4.454   1.567
 1836SOL     OW 6406   5.599   1.689   0.666
 1836SOL    HW1 6407   5.666   1.641   0.722
 1836SOL    HW2 6408   5.581   1.779   0.705
 1837SOL     OW 6409   0.884   2.240   3.889
 1837SOL    HW1 6410   0.978   2.208   3.899
 1837SOL    HW2 6411   0.880   2.308   3.815
 1838SOL     OW 6412   6.923   2.224   3.972
 1838SOL    HW1 6413   6.890   2.314   4.000
 1838SOL    HW2 6414   7.020   2.229   3.951
 1839SOL     OW 6415   4.431   2.479   5.160
 1839SOL    HW1 6416   4.499   2.406   5.159
 1839SOL    HW2 6417   4.346   2.445   5.118
 1840SOL     OW 6418   3.610   5.824   1.124
 1840SOL    HW1 6419   3.578   5.755   1.189
 1840SOL    HW2 6420   3.532   5.874   1.088
 1841SOL     OW 6421   2.247   2.909   4.322
 1841SOL    HW1 6422   2.228   2.997   4.279
 1841SOL    HW2 6423   2.163   2.856   4.330
 1842SOL     OW 6424   1.096   5.517   0.498
 1842SOL    HW1 6425   1.079   5.569   0.582
 1842SOL    HW2 6426   1.183   5.544   0.459
 1843SOL     OW 6427   0.548   2.056   4.416
 1843SOL    HW1 6428   0.627   2.028   4.362
 1843SOL    HW2 6429   0.579   2.100   4.500
 1844SOL     OW 6430   3.439   0.567   5.316
 1844SOL    HW1 6431   3.380   0.589   5.238
 1844SOL    HW2 6432   3.508   0.501   5.288
 1845SOL     OW 6433   2.307   6.948   5.175
 1845SOL    HW1 6434   2.287   0.021   5.186
 1845SOL    HW2 6435   2.399   6.929   5.210
 1846SOL     OW 6436   3.772   2.091   0.221
 1846SOL    HW1 6437   3.697   2.026   0.235
 1846SOL    HW2 6438   3.835   2.085   0.298
 1847SOL     OW 6439   1.491   1.296   0.061
 1847SOL    HW1 6440   1.478   1.197   0.063
 1847SOL    HW2 6441   1.588   1.318   0.062
 1848SOL     OW 6442   1.280   6.958   1.850
 1848SOL    HW1 6443   1.330   6.963   1.937
 1848SOL    HW2 6444   1.333   6.904   1.784
 1849SOL     OW 6445   3.702   1.757   0.887
 1849SOL    HW1 6446   3.661   1.767   0.796
 1849SOL    HW2 6447   3.727   1.847   0.922
 1850SOL     OW 6448   6.487   2.984   2.541
 1850SOL    HW1 6449   6.481   3.067   2.597
 1850SOL    HW2 6450   6.530   2.911   2.594
 1851SOL     OW 6451   0.502   1.664   1.444
 1851SOL    HW1 6452   0.450   1.581   1.421
 1851SOL    HW2 6453   0.544   1.701   1.362
 1852SOL     OW 6454   5.916   3.779   1.008
 1852SOL    HW1 6455   5.912   3.727   1.094
 1852SOL    HW2 6456   5.830   3.768   0.959
 1853SOL     OW 6457   0.583   2.929   2.526
 1853SOL    HW1 6458   0.654   2.964   2.588
 1853SOL    HW2 6459   0.558   3.000   2.460
 1854SOL     OW 6460   2.927   5.899   3.160
 1854SOL    HW1 6461   2.952   5.915   3.064
 1854SOL    HW2 6462   2.896   5.804   3.170
 1855SOL     OW 6463   4.530   3.922   6.877
 1855SOL    HW1 6464   4.505   3.826   6.887
 1855SOL    HW2 6465   4.455   3.980   6.910
 1856SOL     OW 6466   6.754   3.799   5.131
 1856SOL    HW1 6467   6.706   3.727   5.181
 1856SOL    HW2 6468   6.772   3.769   5.038
 1857SOL     OW 6469   3.334   0.948   6.115
 1857SOL    HW1 6470   3.270   0.874   6.094
 1857SOL    HW2 6471   3.412   0.943   6.053
 1858SOL     OW 6472   6.089   2.685   3.886
 1858SOL    HW1 6473   6.095   2.604   3.945
 1858SOL    HW2 6474   6.026   2.667   3.811
 1859SOL     OW 6475   4.133   1.610   3.270
 1859SOL    HW1 6476   4.104   1.702   3.295
 1859SOL    HW2 6477   4.113   1.547   3.345
 1860SOL     OW 6478   6.166   0.493   3.463
 1860SOL    HW1 6479   6.208   0.527   3.547
 1860SOL    HW2 6480   6.127   0.403   3.480
 1861SOL     OW 6481   4.694   6.563   2.745
 1861SOL    HW1 6482   4.699   6.587   2.842
 1861SOL    HW2 6483   4.763   6.615   2.694
 1862SOL     OW 6484   2.144   0.157   6.381
 1862SOL    HW1 6485   2.182   0.250   6.380
 1862SOL    HW2 6486   2.133   0.128   6.476
 1863SOL     OW 6487   2.276   1.968   0.108
 1863SOL    HW1 6488   2.340   2.039   0.080
 1863SOL    HW2 6489   2.243   1.918   0.028
 1864SOL     OW 6490   1.059   6.575   5.833
 1864SOL    HW1 6491   1.130   6.525   5.783
 1864SOL    HW2 6492   0.991   6.610   5.769
 1865SOL     OW 6493   3.684   0.048   5.810
 1865SOL    HW1 6494   3.668   0.120   5.743
 1865SOL    HW2 6495   3.638   6.989   5.780
 1866SOL     OW 6496   4.620   4.842   3.022
 1866SOL    HW1 6497   4.546   4.832   2.955
 1866SOL    HW2 6498   4.621   4.935   3.058
 1867SOL     OW 6499   1.339   4.755   0.213
 1867SOL    HW1 6500   1.436   4.742   0.234
 1867SOL    HW2 6501   1.330   4.797   0.123
 1868SOL     OW 6502   4.935   3.946   0.686
 1868SOL    HW1 6503   4.896   3.919   0.598
 1868SOL    HW2 6504   4.872   3.921   0.760
 1869SOL     OW 6505   6.378   2.038   5.442
 1869SOL    HW1 6506   6.385   1.999   5.534
 1869SOL    HW2 6507   6.282   2.050   5.418
 1870SOL     OW 6508   1.870   3.292   5.984
 1870SOL    HW1 6509   1.917   3.271   6.070
 1870SOL    HW2 6510   1.776   3.259   5.989
 1871SOL     OW 6511   0.573   0.512   6.772
 1871SOL    HW1 6512   0.672   0.525   6.785
 1871SOL    HW2 6513   0.526   0.598   6.792
 1872SOL     OW 6514   3.663   3.199   6.990
 1872SOL    HW1 6515   3.758   3.189   7.019
 1872SOL    HW2 6516   3.650   3.288   6.946
 1873SOL     OW 6517   4.930   1.359   5.412
 1873SOL    HW1 6518   4.846   1.365   5.466
 1873SOL    HW2 6519   4.907   1.355   5.315
 1874SOL     OW 6520   2.772   1.082   1.195
 1874SOL    HW1 6521   2.751   1.057   1.100
 1874SOL    HW2 6522   2.746   1.007   1.256
 1875SOL     OW 6523   0.477   1.509   0.055
 1875SOL    HW1 6524   0.573   1.488   0.074
 1875SOL    HW2 6525   0.464   1.520   6.981
 1876SOL     OW 6526   3.928   0.291   5.737
 1876SOL    HW1 6527   3.909   0.299   5.834
 1876SOL    HW2 6528   3.868   0.352   5.686
 1877SOL     OW 6529   0.720   0.298   2.590
 1877SOL    HW1 6530   0.724   0.391   2.626
 1877SOL    HW2 6531   0.695   0.235   2.663
 1878SOL     OW 6532   6.514   1.701   3.708
 1878SOL    HW1 6533   6.533   1.729   3.614
 1878SOL    HW2 6534   6.467   1.776   3.756
 1879SOL     OW 6535   1.327   4.189   3.915
 1879SOL    HW1 6536   1.423   4.165   3.900
 1879SOL    HW2 6537   1.287   4.123   3.978
 1880SOL     OW 6538   6.992   1.480   4.842
 1880SOL    HW1 6539   6.905   1.530   4.848
 1880SOL    HW2 6540   0.042   1.540   4.870
 1881SOL     OW 6541   6.385   2.082   2.959
 1881SOL    HW1 6542   6.341   2.126   2.881
 1881SOL    HW2 6543   6.320   2.078   3.035
 1882SOL     OW 6544   1.249   4.139   6.620
 1882SOL    HW1 6545   1.249   4.167   6.716
 1882SOL    HW2 6546   1.330   4.175   6.574
 1883SOL     OW 6547   6.957   1.974   3.189
 1883SOL    HW1 6548   6.904   1.969   3.104
 1883SOL    HW2 6549   6.934   1.895   3.246
 1884SOL     OW 6550   0.015   1.897   0.555
 1884SOL    HW1 6551   0.010   1.812   0.608
 1884SOL    HW2 6552   0.036   1.973   0.616
 1885SOL     OW 6553   1.880   1.836   6.187
 1885SOL    HW1 6554   1.971   1.837   6.144
 1885SOL    HW2 6555   1.887   1.876   6.278
 1886SOL     OW 6556   1.563   0.279   1.606
 1886SOL    HW1 6557   1.539   0.298   1.702
 1886SOL    HW2 6558   1.651   0.323   1.585
 1887SOL     OW 6559   0.739   5.438   5.552
 1887SOL    HW1 6560   0.705   5.353   5.511
 1887SOL    HW2 6561   0.717   5.515   5.492
 1888SOL     OW 6562   2.984   2.734   6.631
 1888SOL    HW1 6563   2.988   2.737   6.531
 1888SOL    HW2 6564   3.043   2.661   6.664
 1889SOL     OW 6565   0.459   3.800   5.221
 1889SOL    HW1 6566   0.397   3.762   5.289
 1889SOL    HW2 6567   0.486   3.892   5.248
 1890SOL     OW 6568   1.472   5.672   4.026
 1890SOL    HW1 6569   1.502   5.670   4.121
 1890SOL    HW2 6570   1.449   5.766   4.000
 1891SOL     OW 6571   4.979   2.832   1.363
 1891SOL    HW1 6572   4.893   2.874   1.392
 1891SOL    HW2 6573   4.986   2.741   1.404
 1892SOL     OW 6574   1.159   0.081   2.322
 1892SOL    HW1 6575   1.217   0.159   2.296
 1892SOL    HW2 6576   1.141   0.024   2.242
 1893SOL     OW 6577   3.289   3.178   1.776
 1893SOL    HW1 6578   3.242   3.266   1.772
 1893SOL    HW2 6579   3.270   3.126   1.692
 1894SOL     OW 6580   4.143   3.432   3.680
 1894SOL    HW1 6581   4.178   3.434   3.586
 1894SOL    HW2 6582   4.044   3.419   3.678
 1895SOL     OW 6583   4.253   0.202   0.947
 1895SOL    HW1 6584   4.208   0.234   0.864
 1895SOL    HW2 6585   4.191   0.217   1.025
 1896SOL     OW 6586   5.700   1.597   1.325
 1896SOL    HW1 6587   5.752   1.680   1.345
 1896SOL    HW2 6588   5.689   1.543   1.408
 1897SOL     OW 6589   2.248   5.326   1.717
 1897SOL    HW1 6590   2.272   5.229   1.722
 1897SOL    HW2 6591   2.301   5.370   1.644
 1898SOL     OW 6592   2.018   5.066   3.874
 1898SOL    HW1 6593   2.055   5.037   3.963
 1898SOL    HW2 6594   2.080   5.039   3.801
 1899SOL     OW 6595   0.137   1.599   0.927
 1899SOL    HW1 6596   0.073   1.588   1.004
 1899SOL    HW2 6597   0.196   1.519   0.921
 1900SOL     OW 6598   2.251   0.616   6.936
 1900SOL    HW1 6599   2.329   0.560   6.909
 1900SOL    HW2 6600   2.282   0.708   6.959
 1901SOL     OW 6601   1.828   2.390   1.018
 1901SOL    HW1 6602   1.921   2.354   1.018
 1901SOL    HW2 6603   1.818   2.460   1.089
 1902SOL     OW 6604   2.269   0.904   4.703
 1902SOL    HW1 6605   2.304   0.954   4.783
 1902SOL    HW2 6606   2.330   0.919   4.625
 1903SOL     OW 6607   0.732   3.191   2.876
 1903SOL    HW1 6608   0.769   3.120   2.817
 1903SOL    HW2 6609   0.632   3.182   2.880
 1904SOL     OW 6610   5.893   5.254   3.436
 1904SOL    HW1 6611   5.868   5.341   3.477
 1904SOL    HW2 6612   5.984   5.228   3.467
 1905SOL     OW 6613   0.822   0.220   3.430
 1905SOL    HW1 6614   0.824   0.307   3.381
 1905SOL    HW2 6615   0.730   0.203   3.463
 1906SOL     OW 6616   3.272   0.396   5.499
 1906SOL    HW1 6617   3.334   0.473   5.494
 1906SOL    HW2 6618   3.307   0.328   5.564
 1907SOL     OW 6619   4.379   2.064   1.663
 1907SOL    HW1 6620   4.468   2.024   1.642
 1907SOL    HW2 6621   4.318   1.993   1.696
 1908SOL     OW 6622   3.744   5.874   6.557
 1908SOL    HW1 6623   3.748   5.971   6.581
 1908SOL    HW2 6624   3.658   5.835   6.588
 1909SOL     OW 6625   0.853   2.786   3.521
 1909SOL    HW1 6626   0.918   2.850   3.562
 1909SOL    HW2 6627   0.760   2.820   3.533
 1910SOL     OW 6628   0.043   5.373   5.885
 1910SOL    HW1 6629   0.033   5.468   5.913
 1910SOL    HW2 6630   0.140   5.353   5.868
 1911SOL     OW 6631   7.006   3.526   4.656
 1911SOL    HW1 6632   0.043   3.535   4.578
 1911SOL    HW2 6633   7.024   3.600   4.722
 1912SOL     OW 6634   2.886   6.163   1.765
 1912SOL    HW1 6635   2.920   6.189   1.675
 1912SOL    HW2 6636   2.786   6.151   1.761
 1913SOL     OW 6637   2.977   0.902   4.858
 1913SOL    HW1 6638   2.963   1.000   4.842
 1913SOL    HW2 6639   3.035   0.865   4.786
 1914SOL     OW 6640   3.435   3.101   0.082
 1914SOL    HW1 6641   3.430   3.126   0.179
 1914SOL    HW2 6642   3.520   3.135   0.043
 1915SOL     OW 6643   4.172   2.511   5.906
 1915SOL    HW1 6644   4.096   2.572   5.926
 1915SOL    HW2 6645   4.220   2.489   5.991
 1916SOL     OW 6646   4.613   6.119   1.253
 1916SOL    HW1 6647   4.607   6.061   1.172
 1916SOL    HW2 6648   4.616   6.062   1.335
 1917SOL     OW 6649   2.158   3.674   0.085
 1917SOL    HW1 6650   2.159   3.733   0.004
 1917SOL    HW2 6651   2.188   3.582   0.059
 1918SOL     OW 6652   0.757   0.980   4.981
 1918SOL    HW1 6653   0.717   1.064   5.017
 1918SOL    HW2 6654   0.856   0.991   4.974
 1919SOL     OW 6655   1.931   1.540   1.702
 1919SOL    HW1 6656   1.975   1.455   1.672
 1919SOL    HW2 6657   1.862   1.520   1.771
 1920SOL     OW 6658   6.267   3.833   3.197
 1920SOL    HW1 6659   6.305   3.844   3.288
 1920SOL    HW2 6660   6.198   3.903   3.181
 1921SOL     OW 6661   1.851   3.094   0.130
 1921SOL    HW1 6662   1.908   3.078   0.050
 1921SOL    HW2 6663   1.818   3.189   0.129
 1922SOL     OW 6664   2.848   3.498   1.797
 1922SOL    HW1 6665   2.879   3.581   1.751
 1922SOL    HW2 6666   2.754   3.477   1.768
 1923SOL     OW 6667   4.201   2.280   6.597
 1923SOL    HW1 6668   4.129   2.213   6.577
 1923SOL    HW2 6669   4.195   2.356   6.533
 1924SOL     OW 6670   4.456   6.882   0.699
 1924SOL    HW1 6671   4.405   6.961   0.665
 1924SOL    HW2 6672   4.539   6.870   0.645
 1925SOL     OW 6673   1.187   5.135   1.446
 1925SOL    HW1 6674   1.097   5.130   1.402
 1925SOL    HW2 6675   1.178   5.178   1.536
 1926SOL     OW 6676   3.320   0.098   2.059
 1926SOL    HW1 6677   3.298   0.001   2.049
 1926SOL    HW2 6678   3.384   0.110   2.135
 1927SOL     OW 6679   2.414   4.155   0.507
 1927SOL    HW1 6680   2.409   4.132   0.604
 1927SOL    HW2 6681   2.482   4.096   0.463
 1928SOL     OW 6682   5.173   4.425   4.565
 1928SOL    HW1 6683   5.124   4.483   4.500
 1928SOL    HW2 6684   5.233   4.363   4.516
 1929SOL     OW 6685   2.443   0.543   1.920
 1929SOL    HW1 6686   2.503   0.532   1.998
 1929SOL    HW2 6687   2.497   0.558   1.837
 1930SOL     OW 6688   5.612   3.257   6.653
 1930SOL    HW1 6689   5.522   3.220   6.677
 1930SOL    HW2 6690   5.683   3.208   6.704
 1931SOL     OW 6691   1.099   1.915   6.805
 1931SOL    HW1 6692   1.065   1.979   6.874
 1931SOL    HW2 6693   1.113   1.825   6.846
 1932SOL     OW 6694   4.745   2.896   3.214
 1932SOL    HW1 6695   4.834   2.855   3.193
 1932SOL    HW2 6696   4.757   2.963   3.288
 1933SOL     OW 6697   1.538   2.521   0.780
 1933SOL    HW1 6698   1.572   2.440   0.828
 1933SOL    HW2 6699   1.480   2.493   0.703
 1934SOL     OW 6700   0.248   1.059   5.156
 1934SOL    HW1 6701   0.171   1.024   5.102
 1934SOL    HW2 6702   0.329   1.067   5.097
 1935SOL     OW 6703   4.304   5.135   3.593
 1935SOL    HW1 6704   4.340   5.099   3.506
 1935SOL    HW2 6705   4.248   5.216   3.575
 1936SOL     OW 6706   4.962   3.682   4.134
 1936SOL    HW1 6707   5.038   3.747   4.130
 1936SOL    HW2 6708   4.933   3.659   4.042
 1937SOL     OW 6709   4.334   6.169   0.250
 1937SOL    HW1 6710   4.351   6.240   0.318
 1937SOL    HW2 6711   4.411   6.165   0.186
 1938SOL     OW 6712   1.515   1.970   0.966
 1938SOL    HW1 6713   1.477   1.924   0.886
 1938SOL    HW2 6714   1.529   1.904   1.039
 1939SOL     OW 6715   0.484   6.152   4.245
 1939SOL    HW1 6716   0.402   6.204   4.270
 1939SOL    HW2 6717   0.551   6.157   4.319
 1940SOL     OW 6718   6.004   4.134   1.242
 1940SOL    HW1 6719   6.078   4.108   1.180
 1940SOL    HW2 6720   6.018   4.092   1.331
 1941SOL     OW 6721   1.042   2.923   3.661
 1941SOL    HW1 6722   1.095   2.870   3.727
 1941SOL    HW2 6723   0.959   2.957   3.705
 1942SOL     OW 6724   5.609   4.030   2.740
 1942SOL    HW1 6725   5.584   3.935   2.721
 1942SOL    HW2 6726   5.531   4.090   2.719
 1943SOL     OW 6727   1.427   1.317   2.521
 1943SOL    HW1 6728   1.470   1.265   2.595
 1943SOL    HW2 6729   1.491   1.386   2.488
 1944SOL     OW 6730   6.408   4.364   7.020
 1944SOL    HW1 6731   6.373   4.449   6.981
 1944SOL    HW2 6732   6.345   4.289   6.998
 1945SOL     OW 6733   4.104   6.096   0.834
 1945SOL    HW1 6734   4.132   6.152   0.756
 1945SOL    HW2 6735   4.046   6.021   0.803
 1946SOL     OW 6736   6.040   6.625   1.567
 1946SOL    HW1 6737   6.074   6.532   1.551
 1946SOL    HW2 6738   5.960   6.622   1.626
 1947SOL     OW 6739   5.907   5.903   4.402
 1947SOL    HW1 6740   5.809   5.900   4.424
 1947SOL    HW2 6741   5.942   5.996   4.415
 1948SOL     OW 6742   5.689   5.029   3.103
 1948SOL    HW1 6743   5.636   5.053   3.022
 1948SOL    HW2 6744   5.640   5.062   3.185
 1949SOL     OW 6745   4.030   3.929   0.511
 1949SOL    HW1 6746   4.035   3.830   0.498
 1949SOL    HW2 6747   4.102   3.958   0.574
 1950SOL     OW 6748   4.068   3.311   3.405
 1950SOL    HW1 6749   4.001   3.381   3.431
 1950SOL    HW2 6750   4.109   3.335   3.317
 1951SOL     OW 6751   6.959   4.359   6.074
 1951SOL    HW1 6752   6.981   4.449   6.113
 1951SOL    HW2 6753   0.015   4.301   6.077
 1952SOL     OW 6754   5.573   4.907   1.295
 1952SOL    HW1 6755   5.481   4.946   1.292
 1952SOL    HW2 6756   5.634   4.969   1.346
 1953SOL     OW 6757   6.942   1.551   6.336
 1953SOL    HW1 6758   6.890   1.561   6.251
 1953SOL    HW2 6759   6.910   1.619   6.402
 1954SOL     OW 6760   5.542   0.002   1.426
 1954SOL    HW1 6761   5.550   6.981   1.338
 1954SOL    HW2 6762   5.609   0.075   1.432
 1955SOL     OW 6763   0.297   0.865   1.228
 1955SOL    HW1 6764   0.373   0.816   1.184
 1955SOL    HW2 6765   0.212   0.843   1.180
 1956SOL     OW 6766   4.698   6.999   2.876
 1956SOL    HW1 6767   4.784   6.948   2.890
 1956SOL    HW2 6768   4.697   0.013   2.784
 1957SOL     OW 6769   5.356   3.808   4.006
 1957SOL    HW1 6770   5.354   3.728   4.066
 1957SOL    HW2 6771   5.278   3.868   4.027
 1958SOL     OW 6772   4.791   1.280   1.703
 1958SOL    HW1 6773   4.813   1.279   1.800
 1958SOL    HW2 6774   4.693   1.264   1.691
 1959SOL     OW 6775   6.746   6.351   3.856
 1959SOL    HW1 6776   6.813   6.301   3.800
 1959SOL    HW2 6777   6.684   6.286   3.900
 1960SOL     OW 6778   0.243   3.291   2.709
 1960SOL    HW1 6779   0.210   3.210   2.661
 1960SOL    HW2 6780   0.194   3.300   2.796
 1961SOL     OW 6781   6.636   4.521   4.381
 1961SOL    HW1 6782   6.633   4.615   4.347
 1961SOL    HW2 6783   6.545   4.480   4.370
 1962SOL     OW 6784   1.107   6.029   2.286
 1962SOL    HW1 6785   1.174   5.957   2.271
 1962SOL    HW2 6786   1.042   6.032   2.210
 1963SOL     OW 6787   1.156   1.970   1.484
 1963SOL    HW1 6788   1.202   2.022   1.557
 1963SOL    HW2 6789   1.058   1.967   1.502
 1964SOL     OW 6790   5.357   4.483   1.754
 1964SOL    HW1 6791   5.370   4.546   1.830
 1964SOL    HW2 6792   5.260   4.464   1.741
 1965SOL     OW 6793   1.484   3.406   4.626
 1965SOL    HW1 6794   1.468   3.492   4.675
 1965SOL    HW2 6795   1.571   3.366   4.655
 1966SOL     OW 6796   1.465   5.046   1.066
 1966SOL    HW1 6797   1.544   4.995   1.033
 1966SOL    HW2 6798   1.447   5.024   1.162
 1967SOL     OW 6799   6.487   2.652   4.386
 1967SOL    HW1 6800   6.457   2.573   4.440
 1967SOL    HW2 6801   6.490   2.627   4.289
 1968SOL     OW 6802   2.615   1.122   5.569
 1968SOL    HW1 6803   2.519   1.094   5.561
 1968SOL    HW2 6804   2.651   1.093   5.658
 1969SOL     OW 6805   3.345   0.550   1.370
 1969SOL    HW1 6806   3.291   0.631   1.348
 1969SOL    HW2 6807   3.372   0.553   1.466
 1970SOL     OW 6808   6.875   0.064   5.598
 1970SOL    HW1 6809   6.929   0.149   5.599
 1970SOL    HW2 6810   6.934   7.013   5.570
 1971SOL     OW 6811   0.593   0.255   5.260
 1971SOL    HW1 6812   0.673   0.282   5.206
 1971SOL    HW2 6813   0.609   0.279   5.356
 1972SOL     OW 6814   5.917   2.802   1.500
 1972SOL    HW1 6815   5.827   2.835   1.472
 1972SOL    HW2 6816   5.985   2.829   1.432
 1973SOL     OW 6817   2.253   4.110   1.833
 1973SOL    HW1 6818   2.343   4.153   1.833
 1973SOL    HW2 6819   2.194   4.156   1.899
 1974SOL     OW 6820   4.691   6.804   4.636
 1974SOL    HW1 6821   4.733   6.750   4.562
 1974SOL    HW2 6822   4.729   6.896   4.635
 1975SOL     OW 6823   2.105   3.110   4.201
 1975SOL    HW1 6824   2.127   3.200   4.165
 1975SOL    HW2 6825   2.077   3.050   4.126
 1976SOL     OW 6826   5.210   6.662   6.344
 1976SOL    HW1 6827   5.230   6.571   6.309
 1976SOL    HW2 6828   5.129   6.659   6.402
 1977SOL     OW 6829   2.259   3.172   6.160
 1977SOL    HW1 6830   2.273   3.098   6.094
 1977SOL    HW2 6831   2.249   3.259   6.111
 1978SOL     OW 6832   1.684   6.144   2.991
 1978SOL    HW1 6833   1.673   6.178   3.084
 1978SOL    HW2 6834   1.614   6.076   2.972
 1979SOL     OW 6835   5.935   5.093   7.003
 1979SOL    HW1 6836   5.897   5.104   6.911
 1979SOL    HW2 6837   5.870   5.044   0.036
 1980SOL     OW 6838   3.638   0.361   2.912
 1980SOL    HW1 6839   3.721   0.344   2.860
 1980SOL    HW2 6840   3.659   0.360   3.010
 1981SOL     OW 6841   5.623   2.798   2.280
 1981SOL    HW1 6842   5.706   2.754   2.314
 1981SOL    HW2 6843   5.558   2.728   2.251
 1982SOL     OW 6844   6.930   3.862   4.033
 1982SOL    HW1 6845   6.921   3.959   4.053
 1982SOL    HW2 6846   6.839   3.821   4.023
 1983SOL     OW 6847   0.826   0.499   1.278
 1983SOL    HW1 6848   0.736   0.458   1.282
 1983SOL    HW2 6849   0.890   0.437   1.232
 1984SOL     OW 6850   5.114   2.624   5.317
 1984SOL    HW1 6851   5.116   2.524   5.312
 1984SOL    HW2 6852   5.062   2.660   5.240
 1985SOL     OW 6853   6.876   5.688   1.945
 1985SOL    HW1 6854   6.788   5.731   1.924
 1985SOL    HW2 6855   6.907   5.636   1.866
 1986SOL     OW 6856   2.786   1.338   6.403
 1986SOL    HW1 6857   2.726   1.283   6.461
 1986SOL    HW2 6858   2.829   1.280   6.335
 1987SOL     OW 6859   2.029   1.488   4.107
 1987SOL    HW1 6860   2.065   1.574   4.145
 1987SOL    HW2 6861   2.035   1.491   4.007
 1988SOL     OW 6862   6.711   1.267   1.345
 1988SOL    HW1 6863   6.759   1.258   1.257
 1988SOL    HW2 6864   6.721   1.361   1.379
 1989SOL     OW 6865   2.401   6.409   4.334
 1989SOL    HW1 6866   2.392   6.309   4.340
 1989SOL    HW2 6867   2.438   6.433   4.244
 1990SOL     OW 6868   3.938   0.048   0.677
 1990SOL    HW1 6869   3.933   0.054   0.777
 1990SOL    HW2 6870   3.934   6.977   0.649
 1991SOL     OW 6871   2.517   4.593   0.097
 1991SOL    HW1 6872   2.597   4.653   0.085
 1991SOL    HW2 6873   2.452   4.610   0.023
 1992SOL     OW 6874   6.893   6.965   0.984
 1992SOL    HW1 6875   6.946   6.980   1.067
 1992SOL    HW2 6876   6.800   7.000   0.997
 1993SOL     OW 6877   2.981   2.240   4.682
 1993SOL    HW1 6878   2.945   2.216   4.773
 1993SOL    HW2 6879   3.069   2.194   4.668
 1994SOL     OW 6880   4.661   2.130   0.762
 1994SOL    HW1 6881   4.744   2.149   0.814
 1994SOL    HW2 6882   4.683   2.115   0.666
 1995SOL     OW 6883   5.627   3.389   4.512
 1995SOL    HW1 6884   5.616   3.458   4.441
 1995SOL    HW2 6885   5.611   3.299   4.473
 1996SOL     OW 6886   2.551   1.153   1.365
 1996SOL    HW1 6887   2.500   1.084   1.314
 1996SOL    HW2 6888   2.641   1.165   1.324
 1997SOL     OW 6889   3.055   1.316   4.296
 1997SOL    HW1 6890   3.147   1.278   4.305
 1997SOL    HW2 6891   3.059   1.400   4.242
 1998SOL     OW 6892   1.204   3.353   0.674
 1998SOL    HW1 6893   1.232   3.369   0.579
 1998SOL    HW2 6894   1.222   3.434   0.729
 1999SOL     OW 6895   0.294   0.821   4.939
 1999SOL    HW1 6896   0.380   0.841   4.987
 1999SOL    HW2 6897   0.238   0.760   4.996
 2000SOL     OW 6898   3.904   3.966   6.089
 2000SOL    HW1 6899   3.857   3.969   6.001
 2000SOL    HW2 6900   3.978   4.033   6.091
 2001SOL     OW 6901   1.449   2.259   0.190
 2001SOL    HW1 6902   1.463   2.221   0.282
 2001SOL    HW2 6903   1.368   2.217   0.149
 2002SOL     OW 6904   1.219   5.721   0.954
 2002SOL    HW1 6905   1.304   5.692   0.910
 2002SOL    HW2 6906   1.150   5.739   0.885
 2003SOL     OW 6907   6.742   5.197   1.895
 2003SOL    HW1 6908   6.730   5.279   1.951
 2003SOL    HW2 6909   6.761   5.118   1.953
 2004SOL     OW 6910   4.575   1.159   4.083
 2004SOL    HW1 6911   4.510   1.083   4.078
 2004SOL    HW2 6912   4.647   1.136   4.148
 2005SOL     OW 6913   6.634   5.486   7.007
 2005SOL    HW1 6914   6.564   5.522   0.044
 2005SOL    HW2 6915   6.724   5.499   0.024
 2006SOL     OW 6916   5.105   6.943   4.284
 2006SOL    HW1 6917   5.192   6.992   4.274
 2006SOL    HW2 6918   5.123   6.845   4.292
 2007SOL     OW 6919   5.488   4.154   1.112
 2007SOL    HW1 6920   5.504   4.235   1.055
 2007SOL    HW2 6921   5.573   4.102   1.119
 2008SOL     OW 6922   2.151   3.595   3.872
 2008SOL    HW1 6923   2.142   3.659   3.948
 2008SOL    HW2 6924   2.088   3.621   3.798
 2009SOL     OW 6925   5.427   5.921   1.876
 2009SOL    HW1 6926   5.427   5.984   1.798
 2009SOL    HW2 6927   5.343   5.867   1.875
 2010SOL     OW 6928   1.761   1.750   1.657
 2010SOL    HW1 6929   1.670   1.713   1.637
 2010SOL    HW2 6930   1.823   1.676   1.680
 2011SOL     OW 6931   6.614   0.171   5.296
 2011SOL    HW1 6932   6.556   0.095   5.327
 2011SOL    HW2 6933   6.668   0.205   5.373
 2012SOL     OW 6934   1.434   3.797   2.101
 2012SOL    HW1 6935   1.519   3.841   2.071
 2012SOL    HW2 6936   1.376   3.779   2.021
 2013SOL     OW 6937   6.873   3.164   3.285
 2013SOL    HW1 6938   6.822   3.150   3.369
 2013SOL    HW2 6939   6.811   3.195   3.213
 2014SOL     OW 6940   2.839   0.228   3.057
 2014SOL    HW1 6941   2.869   0.274   3.141
 2014SOL    HW2 6942   2.912   0.168   3.025
 2015SOL     OW 6943   3.794   0.378   0.904
 2015SOL    HW1 6944   3.875   0.343   0.856
 2015SOL    HW2 6945   3.715   0.321   0.882
 2016SOL     OW 6946   1.526   5.837   5.731
 2016SOL    HW1 6947   1.524   5.854   5.829
 2016SOL    HW2 6948   1.438   5.863   5.691
 2017SOL     OW 6949   4.001   0.679   3.535
 2017SOL    HW1 6950   4.044   0.616   3.471
 2017SOL    HW2 6951   4.051   0.678   3.622
 2018SOL     OW 6952   0.058   2.690   3.760
 2018SOL    HW1 6953   0.133   2.743   3.800
 2018SOL    HW2 6954   7.007   2.752   3.736
 2019SOL     OW 6955   6.443   4.639   6.399
 2019SOL    HW1 6956   6.408   4.560   6.348
 2019SOL    HW2 6957   6.538   4.622   6.427
 2020SOL     OW 6958   1.311   6.201   6.302
 2020SOL    HW1 6959   1.315   6.177   6.399
 2020SOL    HW2 6960   1.398   6.241   6.274
 2021SOL     OW 6961   6.014   0.260   3.537
 2021SOL    HW1 6962   5.948   0.326   3.500
 2021SOL    HW2 6963   6.008   0.175   3.485
 2022SOL     OW 6964   1.657   4.445   4.828
 2022SOL    HW1 6965   1.723   4.409   4.894
 2022SOL    HW2 6966   1.704   4.506   4.763
 2023SOL     OW 6967   6.879   6.965   6.668
 2023SOL    HW1 6968   6.873   0.032   6.628
 2023SOL    HW2 6969   6.899   6.974   6.766
 2024SOL     OW 6970   0.366   5.843   4.235
 2024SOL    HW1 6971   0.276   5.834   4.192
 2024SOL    HW2 6972   0.400   5.937   4.221
 2025SOL     OW 6973   3.158   0.787   3.350
 2025SOL    HW1 6974   3.252   0.816   3.332
 2025SOL    HW2 6975   3.132   0.816   3.442
 2026SOL     OW 6976   6.064   1.681   6.516
 2026SOL    HW1 6977   6.036   1.595   6.559
 2026SOL    HW2 6978   6.137   1.662   6.450
 2027SOL     OW 6979   0.639   5.880   1.737
 2027SOL    HW1 6980   0.708   5.821   1.696
 2027SOL    HW2 6981   0.566   5.897   1.671
 2028SOL     OW 6982   3.542   5.558   2.765
 2028SOL    HW1 6983   3.538   5.658   2.760
 2028SOL    HW2 6984   3.538   5.530   2.861
 2029SOL     OW 6985   6.728   1.756   0.141
 2029SOL    HW1 6986   6.655   1.763   0.209
 2029SOL    HW2 6987   6.697   1.700   0.065
 2030SOL     OW 6988   3.140   6.722   2.812
 2030SOL    HW1 6989   3.081   6.680   2.881
 2030SOL    HW2 6990   3.234   6.721   2.845
 2031SOL     OW 6991   6.826   5.758   2.861
 2031SOL    HW1 6992   6.786   5.850   2.861
 2031SOL    HW2 6993   6.918   5.763   2.899
 2032SOL     OW 6994   3.460   1.484   0.744
 2032SOL    HW1 6995   3.391   1.414   0.762
 2032SOL    HW2 6996   3.509   1.462   0.660
 2033SOL     OW 6997   1.178   1.115   0.342
 2033SOL    HW1 6998   1.183   1.024   0.383
 2033SOL    HW2 6999   1.157   1.107   0.244
 2034SOL     OW 7000   1.496   5.522   5.628
 2034SOL    HW1 7001   1.462   5.437   5.587
 2034SOL    HW2 7002   1.433   5.551   5.700
 2035SOL     OW 7003   6.413   0.519   2.119
 2035SOL    HW1 7004   6.358   0.509   2.202
 2035SOL    HW2 7005   6.423   0.430   2.075
 2036SOL     OW 7006   1.531   3.223   3.028
 2036SOL    HW1 7007   1.526   3.265   2.938
 2036SOL    HW2 7008   1.625   3.228   3.062
 2037SOL     OW 7009   6.817   2.513   6.215
 2037SOL    HW1 7010   6.736   2.457   6.197
 2037SOL    HW2 7011   6.899   2.455   6.211
 2038SOL     OW 7012   2.595   1.187   0.153
 2038SOL    HW1 7013   2.558   1.165   0.063
 2038SOL    HW2 7014   2.679   1.240   0.143
 2039SOL     OW 7015   7.003   5.794   2.179
 2039SOL    HW1 7016   6.951   5.786   2.094
 2039SOL    HW2 7017   0.035   5.713   2.191
 2040SOL     OW 7018   1.849   2.208   6.618
 2040SOL    HW1 7019   1.887   2.203   6.526
 2040SOL    HW2 7020   1.911   2.258   6.678
 2041SOL     OW 7021   1.846   6.855   5.368
 2041SOL    HW1 7022   1.901   6.938   5.363
 2041SOL    HW2 7023   1.750   6.878   5.348
 2042SOL     OW 7024   4.760   0.002   6.087
 2042SOL    HW1 7025   4.762   0.012   5.988
 2042SOL    HW2 7026   4.666   0.010   6.120
 2043SOL     OW 7027   6.247   2.325   1.966
 2043SOL    HW1 7028   6.328   2.383   1.975
 2043SOL    HW2 7029   6.167   2.376   1.998
 2044SOL     OW 7030   5.804   0.891   1.867
 2044SOL    HW1 7031   5.809   0.792   1.878
 2044SOL    HW2 7032   5.761   0.913   1.779
 2045SOL     OW 7033   1.896   5.884   5.289
 2045SOL    HW1 7034   1.913   5.982   5.302
 2045SOL    HW2 7035   1.811   5.859   5.336
 2046SOL     OW 7036   6.857   1.892   5.439
 2046SOL    HW1 7037   6.801   1.973   5.453
 2046SOL    HW2 7038   6.880   1.884   5.342
 2047SOL     OW 7039   6.328   2.231   0.882
 2047SOL    HW1 7040   6.345   2.134   0.898
 2047SOL    HW2 7041   6.263   2.266   0.950
 2048SOL     OW 7042   0.499   1.714   4.469
 2048SOL    HW1 7043   0.597   1.722   4.456
 2048SOL    HW2 7044   0.453   1.722   4.381
 2049SOL     OW 7045   4.574   1.174   4.862
 2049SOL    HW1 7046   4.526   1.169   4.775
 2049SOL    HW2 7047   4.549   1.258   4.910
 2050SOL     OW 7048   6.825   2.186   4.849
 2050SOL    HW1 7049   6.878   2.219   4.927
 2050SOL    HW2 7050   6.885   2.172   4.770
 2051SOL     OW 7051   1.995   6.445   6.890
 2051SOL    HW1 7052   2.086   6.406   6.909
 2051SOL    HW2 7053   2.006   6.539   6.859
 2052SOL     OW 7054   1.645   3.145   1.018
 2052SOL    HW1 7055   1.739   3.156   1.052
 2052SOL    HW2 7056   1.601   3.234   1.012
 2053SOL     OW 7057   0.417   5.424   4.494
 2053SOL    HW1 7058   0.428   5.353   4.425
 2053SOL    HW2 7059   0.491   5.416   4.561
 2054SOL     OW 7060   3.605   2.902   2.495
 2054SOL    HW1 7061   3.524   2.922   2.551
 2054SOL    HW2 7062   3.576   2.857   2.410
 2055SOL     OW 7063   6.777   2.665   5.005
 2055SOL    HW1 7064   6.757   2.751   4.958
 2055SOL    HW2 7065   6.834   2.608   4.946
 2056SOL     OW 7066   4.509   4.514   1.450
 2056SOL    HW1 7067   4.432   4.478   1.502
 2056SOL    HW2 7068   4.476   4.569   1.374
 2057SOL     OW 7069   5.355   2.975   4.291
 2057SOL    HW1 7070   5.263   3.008   4.272
 2057SOL    HW2 7071   5.360   2.877   4.273
 2058SOL     OW 7072   0.498   6.291   2.593
 2058SOL    HW1 7073   0.468   6.340   2.675
 2058SOL    HW2 7074   0.580   6.334   2.557
 2059SOL     OW 7075   2.616   0.345   5.485
 2059SOL    HW1 7076   2.563   0.344   5.400
 2059SOL    HW2 7077   2.636   0.251   5.512
 2060SOL     OW 7078   0.948   3.360   0.430
 2060SOL    HW1 7079   0.947   3.447   0.480
 2060SOL    HW2 7080   0.854   3.333   0.409
 2061SOL     OW 7081   1.955   2.953   2.566
 2061SOL    HW1 7082   1.865   2.981   2.534
 2061SOL    HW2 7083   1.952   2.858   2.597
 2062SOL     OW 7084   6.571   5.083   5.046
 2062SOL    HW1 7085   6.626   5.152   4.998
 2062SOL    HW2 7086   6.581   4.995   5.001
 2063SOL     OW 7087   1.527   6.388   5.270
 2063SOL    HW1 7088   1.516   6.317   5.339
 2063SOL    HW2 7089   1.598   6.362   5.206
 2064SOL     OW 7090   1.207   3.854   3.869
 2064SOL    HW1 7091   1.231   3.757   3.878
 2064SOL    HW2 7092   1.272   3.899   3.808
 2065SOL     OW 7093   5.292   2.778   5.436
 2065SOL    HW1 7094   5.214   2.722   5.405
 2065SOL    HW2 7095   5.331   2.826   5.358
 2066SOL     OW 7096   6.258   3.702   5.404
 2066SOL    HW1 7097   6.317   3.669   5.478
 2066SOL    HW2 7098   6.180   3.640   5.393
 2067SOL     OW 7099   6.315   4.659   2.060
 2067SOL    HW1 7100   6.232   4.713   2.073
 2067SOL    HW2 7101   6.297   4.564   2.087
 2068SOL     OW 7102   3.507   1.488   3.896
 2068SOL    HW1 7103   3.539   1.574   3.936
 2068SOL    HW2 7104   3.453   1.438   3.964
 2069SOL     OW 7105   6.948   2.056   4.238
 2069SOL    HW1 7106   7.012   2.121   4.278
 2069SOL    HW2 7107   6.921   2.088   4.147
 2070SOL     OW 7108   1.669   3.124   1.437
 2070SOL    HW1 7109   1.720   3.042   1.465
 2070SOL    HW2 7110   1.606   3.100   1.363
 2071SOL     OW 7111   6.447   1.126   6.146
 2071SOL    HW1 7112   6.445   1.182   6.063
 2071SOL    HW2 7113   6.411   1.178   6.223
 2072SOL     OW 7114   3.798   4.688   5.448
 2072SOL    HW1 7115   3.842   4.754   5.387
 2072SOL    HW2 7116   3.822   4.595   5.420
 2073SOL     OW 7117   3.786   5.845   6.275
 2073SOL    HW1 7118   3.759   5.861   6.370
 2073SOL    HW2 7119   3.885   5.837   6.269
 2074SOL     OW 7120   1.561   3.305   5.986
 2074SOL    HW1 7121   1.545   3.403   5.974
 2074SOL    HW2 7122   1.484   3.254   5.948
 2075SOL     OW 7123   6.693   2.418   2.096
 2075SOL    HW1 7124   6.781   2.465   2.087
 2075SOL    HW2 7125   6.653   2.404   2.005
 2076SOL     OW 7126   6.032   6.958   4.898
 2076SOL    HW1 7127   6.049   6.878   4.955
 2076SOL    HW2 7128   6.031   0.015   4.954
 2077SOL     OW 7129   0.263   2.379   1.551
 2077SOL    HW1 7130   0.197   2.314   1.590
 2077SOL    HW2 7131   0.240   2.472   1.580
 2078SOL     OW 7132   1.744   4.927   6.182
 2078SOL    HW1 7133   1.843   4.927   6.178
 2078SOL    HW2 7134   1.709   4.834   6.170
 2079SOL     OW 7135   5.141   0.803   2.052
 2079SOL    HW1 7136   5.058   0.758   2.019
 2079SOL    HW2 7137   5.121   0.898   2.075
 2080SOL     OW 7138   2.869   2.288   4.426
 2080SOL    HW1 7139   2.913   2.267   4.513
 2080SOL    HW2 7140   2.798   2.357   4.441
 2081SOL     OW 7141   0.093   6.761   3.521
 2081SOL    HW1 7142   0.126   6.833   3.582
 2081SOL    HW2 7143   0.158   6.685   3.521
 2082SOL     OW 7144   0.730   6.151   2.367
 2082SOL    HW1 7145   0.771   6.080   2.425
 2082SOL    HW2 7146   0.786   6.233   2.371
 2083SOL     OW 7147   0.702   6.174   3.563
 2083SOL    HW1 7148   0.729   6.083   3.597
 2083SOL    HW2 7149   0.603   6.184   3.572
 2084SOL     OW 7150   1.150   1.760   1.287
 2084SOL    HW1 7151   1.125   1.816   1.365
 2084SOL    HW2 7152   1.077   1.693   1.269
 2085SOL     OW 7153   4.897   5.947   0.709
 2085SOL    HW1 7154   4.823   5.982   0.767
 2085SOL    HW2 7155   4.863   5.873   0.651
 2086SOL     OW 7156   3.582   6.935   6.963
 2086SOL    HW1 7157   3.516   6.883   6.908
 2086SOL    HW2 7158   3.672   6.930   6.921
 2087SOL     OW 7159   4.296   2.107   6.843
 2087SOL    HW1 7160   4.251   2.173   6.782
 2087SOL    HW2 7161   4.227   2.049   6.885
 2088SOL     OW 7162   0.802   5.898   6.332
 2088SOL    HW1 7163   0.830   5.994   6.329
 2088SOL    HW2 7164   0.812   5.863   6.425
 2089SOL     OW 7165   3.959   2.649   5.371
 2089SOL    HW1 7166   4.022   2.603   5.308
 2089SOL    HW2 7167   3.937   2.740   5.336
 2090SOL     OW 7168   4.765   3.321   5.471
 2090SOL    HW1 7169   4.735   3.257   5.541
 2090SOL    HW2 7170   4.865   3.325   5.470
 2091SOL     OW 7171   6.587   6.078   1.862
 2091SOL    HW1 7172   6.669   6.113   1.817
 2091SOL    HW2 7173   6.508   6.094   1.804
 2092SOL     OW 7174   4.772   3.999   1.109
 2092SOL    HW1 7175   4.787   3.941   1.189
 2092SOL    HW2 7176   4.860   4.032   1.074
 2093SOL     OW 7177   3.869   2.097   2.136
 2093SOL    HW1 7178   3.797   2.126   2.073
 2093SOL    HW2 7179   3.838   2.111   2.230
 2094SOL     OW 7180   6.043   2.774   7.010
 2094SOL    HW1 7181   6.087   2.810   6.928
 2094SOL    HW2 7182   6.075   2.681   0.003
 2095SOL     OW 7183   5.872   6.441   3.672
 2095SOL    HW1 7184   5.784   6.450   3.719
 2095SOL    HW2 7185   5.917   6.529   3.669
 2096SOL     OW 7186   4.476   6.343   2.382
 2096SOL    HW1 7187   4.436   6.275   2.444
 2096SOL    HW2 7188   4.491   6.428   2.432
 2097SOL     OW 7189   2.481   4.318   6.622
 2097SOL    HW1 7190   2.514   4.409   6.646
 2097SOL    HW2 7191   2.390   4.326   6.581
 2098SOL     OW 7192   4.021   6.018   3.374
 2098SOL    HW1 7193   4.106   5.974   3.344
 2098SOL    HW2 7194   3.946   5.987   3.315
 2099SOL     OW 7195   4.013   1.447   0.279
 2099SOL    HW1 7196   4.057   1.359   0.259
 2099SOL    HW2 7197   3.948   1.469   0.207
 2100SOL     OW 7198   5.160   1.235   0.564
 2100SOL    HW1 7199   5.226   1.280   0.624
 2100SOL    HW2 7200   5.207   1.201   0.483
 2101SOL     OW 7201   0.338   5.988   1.145
 2101SOL    HW1 7202   0.286   6.073   1.151
 2101SOL    HW2 7203   0.403   5.994   1.070
 2102SOL     OW 7204   4.032   3.071   1.492
 2102SOL    HW1 7205   4.016   3.142   1.560
 2102SOL    HW2 7206   3.945   3.026   1.470
 2103SOL     OW 7207   3.103   4.682   0.302
 2103SOL    HW1 7208   3.166   4.709   0.375
 2103SOL    HW2 7209   3.084   4.584   0.308
 2104SOL     OW 7210   1.990   4.568   2.638
 2104SOL    HW1 7211   1.943   4.651   2.666
 2104SOL    HW2 7212   2.089   4.582   2.644
 2105SOL     OW 7213   4.699   4.468   0.614
 2105SOL    HW1 7214   4.686   4.469   0.515
 2105SOL    HW2 7215   4.751   4.548   0.643
 2106SOL     OW 7216   5.301   3.403   1.252
 2106SOL    HW1 7217   5.328   3.491   1.291
 2106SOL    HW2 7218   5.313   3.332   1.321
 2107SOL     OW 7219   5.325   3.645   6.218
 2107SOL    HW1 7220   5.316   3.612   6.124
 2107SOL    HW2 7221   5.376   3.577   6.272
 2108SOL     OW 7222   5.894   6.537   5.789
 2108SOL    HW1 7223   5.986   6.525   5.827
 2108SOL    HW2 7224   5.855   6.447   5.769
 2109SOL     OW 7225   3.294   5.145   2.253
 2109SOL    HW1 7226   3.315   5.052   2.225
 2109SOL    HW2 7227   3.195   5.154   2.268
 2110SOL     OW 7228   4.106   0.995   6.556
 2110SOL    HW1 7229   4.186   0.935   6.550
 2110SOL    HW2 7230   4.107   1.042   6.645
 2111SOL     OW 7231   0.978   2.667   6.041
 2111SOL    HW1 7232   0.968   2.763   6.015
 2111SOL    HW2 7233   0.902   2.642   6.102
 2112SOL     OW 7234   5.960   1.234   6.839
 2112SOL    HW1 7235   5.861   1.249   6.841
 2112SOL    HW2 7236   6.002   1.300   6.776
 2113SOL     OW 7237   1.762   6.843   3.986
 2113SOL    HW1 7238   1.775   6.934   3.946
 2113SOL    HW2 7239   1.689   6.796   3.937
 2114SOL     OW 7240   2.426   2.850   0.238
 2114SOL    HW1 7241   2.384   2.778   0.295
 2114SOL    HW2 7242   2.515   2.874   0.276
 2115SOL     OW 7243   1.001   4.573   2.687
 2115SOL    HW1 7244   1.093   4.560   2.724
 2115SOL    HW2 7245   0.948   4.631   2.748
 2116SOL     OW 7246   0.989   2.637   0.436
 2116SOL    HW1 7247   0.956   2.619   0.529
 2116SOL    HW2 7248   1.075   2.688   0.440
 2117SOL     OW 7249   5.806   2.580   2.311
 2117SOL    HW1 7250   5.872   2.521   2.358
 2117SOL    HW2 7251   5.713   2.546   2.327
 2118SOL     OW 7252   6.648   3.830   2.907
 2118SOL    HW1 7253   6.666   3.793   2.815
 2118SOL    HW2 7254   6.566   3.786   2.944
 2119SOL     OW 7255   2.265   0.407   6.370
 2119SOL    HW1 7256   2.309   0.464   6.440
 2119SOL    HW2 7257   2.335   0.350   6.326
 2120SOL     OW 7258   6.827   2.208   2.231
 2120SOL    HW1 7259   6.781   2.288   2.194
 2120SOL    HW2 7260   6.762   2.156   2.287
 2121SOL     OW 7261   1.698   0.935   5.863
 2121SOL    HW1 7262   1.666   0.875   5.937
 2121SOL    HW2 7263   1.619   0.973   5.815
 2122SOL     OW 7264   5.798   0.279   5.803
 2122SOL    HW1 7265   5.834   0.370   5.784
 2122SOL    HW2 7266   5.753   0.279   5.892
 2123SOL     OW 7267   0.240   6.181   2.644
 2123SOL    HW1 7268   0.332   6.200   2.610
 2123SOL    HW2 7269   0.223   6.234   2.727
 2124SOL     OW 7270   3.255   2.917   6.039
 2124SOL    HW1 7271   3.224   2.876   6.124
 2124SOL    HW2 7272   3.346   2.882   6.016
 2125SOL     OW 7273   1.582   5.874   3.342
 2125SOL    HW1 7274   1.540   5.811   3.277
 2125SOL    HW2 7275   1.674   5.843   3.364
 2126SOL     OW 7276   3.693   3.431   0.793
 2126SOL    HW1 7277   3.696   3.528   0.771
 2126SOL    HW2 7278   3.604   3.409   0.834
 2127SOL     OW 7279   0.049   2.765   5.935
 2127SOL    HW1 7280   7.004   2.694   5.938
 2127SOL    HW2 7281   0.109   2.756   6.014
 2128SOL     OW 7282   6.172   4.047   0.778
 2128SOL    HW1 7283   6.180   3.948   0.790
 2128SOL    HW2 7284   6.088   4.068   0.727
 2129SOL     OW 7285   5.100   3.924   3.670
 2129SOL    HW1 7286   5.082   3.906   3.574
 2129SOL    HW2 7287   5.190   3.887   3.695
 2130SOL     OW 7288   2.317   1.329   1.374
 2130SOL    HW1 7289   2.403   1.279   1.384
 2130SOL    HW2 7290   2.335   1.427   1.376
 2131SOL     OW 7291   5.664   1.814   5.718
 2131SOL    HW1 7292   5.700   1.740   5.661
 2131SOL    HW2 7293   5.673   1.790   5.815
 2132SOL     OW 7294   2.827   1.660   6.760
 2132SOL    HW1 7295   2.879   1.678   6.677
 2132SOL    HW2 7296   2.822   1.562   6.775
 2133SOL     OW 7297   2.274   1.472   2.036
 2133SOL    HW1 7298   2.259   1.430   2.125
 2133SOL    HW2 7299   2.354   1.533   2.042
 2134SOL     OW 7300   0.386   6.875   4.446
 2134SOL    HW1 7301   0.390   6.871   4.546
 2134SOL    HW2 7302   0.474   6.908   4.411
 2135SOL     OW 7303   1.054   1.661   3.900
 2135SOL    HW1 7304   1.121   1.735   3.891
 2135SOL    HW2 7305   1.080   1.585   3.841
 2136SOL     OW 7306   1.088   3.538   5.061
 2136SOL    HW1 7307   1.130   3.582   4.981
 2136SOL    HW2 7308   0.989   3.543   5.053
 2137SOL     OW 7309   1.038   6.040   5.366
 2137SOL    HW1 7310   0.992   5.958   5.332
 2137SOL    HW2 7311   0.970   6.100   5.409
 2138SOL     OW 7312   0.207   2.531   1.185
 2138SOL    HW1 7313   0.134   2.468   1.157
 2138SOL    HW2 7314   0.250   2.570   1.104
 2139SOL     OW 7315   2.565   0.668   4.062
 2139SOL    HW1 7316   2.606   0.582   4.033
 2139SOL    HW2 7317   2.583   0.738   3.993
 2140SOL     OW 7318   2.497   6.454   2.657
 2140SOL    HW1 7319   2.570   6.506   2.700
 2140SOL    HW2 7320   2.504   6.358   2.684
 2141SOL     OW 7321   6.666   2.729   1.250
 2141SOL    HW1 7322   6.581   2.698   1.292
 2141SOL    HW2 7323   6.659   2.722   1.151
 2142SOL     OW 7324   1.756   2.057   3.197
 2142SOL    HW1 7325   1.794   2.123   3.261
 2142SOL    HW2 7326   1.673   2.095   3.155
 2143SOL     OW 7327   4.038   6.534   1.588
 2143SOL    HW1 7328   4.105   6.462   1.571
 2143SOL    HW2 7329   3.954   6.514   1.537
 2144SOL     OW 7330   1.339   0.752   2.936
 2144SOL    HW1 7331   1.395   0.740   2.853
 2144SOL    HW2 7332   1.398   0.777   3.012
 2145SOL     OW 7333   3.190   5.505   3.811
 2145SOL    HW1 7334   3.128   5.507   3.733
 2145SOL    HW2 7335   3.285   5.501   3.778
 2146SOL     OW 7336   2.908   3.737   1.657
 2146SOL    HW1 7337   2.833   3.793   1.621
 2146SOL    HW2 7338   2.986   3.796   1.678
 2147SOL     OW 7339   0.241   1.952   0.175
 2147SOL    HW1 7340   0.144   1.934   0.156
 2147SOL    HW2 7341   0.248   1.999   0.263
 2148SOL     OW 7342   4.893   3.522   3.911
 2148SOL    HW1 7343   4.894   3.536   3.812
 2148SOL    HW2 7344   4.823   3.454   3.934
 2149SOL     OW 7345   4.153   0.612   1.529
 2149SOL    HW1 7346   4.179   0.580   1.620
 2149SOL    HW2 7347   4.215   0.574   1.461
 2150SOL     OW 7348   3.724   1.956   2.814
 2150SOL    HW1 7349   3.762   1.879   2.763
 2150SOL    HW2 7350   3.650   1.923   2.873
 2151SOL     OW 7351   3.386   2.671   5.860
 2151SOL    HW1 7352   3.425   2.603   5.922
 2151SOL    HW2 7353   3.364   2.628   5.773
 2152SOL     OW 7354   5.787   6.812   2.278
 2152SOL    HW1 7355   5.866   6.779   2.330
 2152SOL    HW2 7356   5.759   6.742   2.212
 2153SOL     OW 7357   4.632   1.478   3.804
 2153SOL    HW1 7358   4.729   1.459   3.787
 2153SOL    HW2 7359   4.614   1.474   3.902
 2154SOL     OW 7360   2.963   5.396   4.755
 2154SOL    HW1 7361   3.005   5.465   4.696
 2154SOL    HW2 7362   2.863   5.403   4.748
 2155SOL     OW 7363   2.186   5.085   0.260
 2155SOL    HW1 7364   2.253   5.029   0.211
 2155SOL    HW2 7365   2.222   5.107   0.351
 2156SOL     OW 7366   1.991   0.314   1.333
 2156SOL    HW1 7367   2.022   0.383   1.268
 2156SOL    HW2 7368   2.069   0.282   1.386
 2157SOL     OW 7369   0.209   1.345   5.090
 2157SOL    HW1 7370   0.208   1.251   5.124
 2157SOL    HW2 7371   0.147   1.401   5.146
 2158SOL     OW 7372   3.946   0.077   0.964
 2158SOL    HW1 7373   3.991   7.015   0.946
 2158SOL    HW2 7374   3.980   0.115   1.050
 2159SOL     OW 7375   1.370   0.026   4.824
 2159SOL    HW1 7376   1.439   0.090   4.791
 2159SOL    HW2 7377   1.412   6.986   4.889
 2160SOL     OW 7378   4.046   4.155   1.246
 2160SOL    HW1 7379   4.082   4.218   1.315
 2160SOL    HW2 7380   4.075   4.062   1.268
 2161SOL     OW 7381   4.902   3.531   3.103
 2161SOL    HW1 7382   4.848   3.455   3.068
 2161SOL    HW2 7383   4.916   3.599   3.030
 2162SOL     OW 7384   2.189   0.713   6.671
 2162SOL    HW1 7385   2.200   0.684   6.766
 2162SOL    HW2 7386   2.276   0.701   6.623
 2163SOL     OW 7387   1.719   0.243   0.161
 2163SOL    HW1 7388   1.677   0.283   0.243
 2163SOL    HW2 7389   1.647   0.215   0.097
 2164SOL     OW 7390   2.029   0.839   6.494
 2164SOL    HW1 7391   2.073   0.845   6.405
 2164SOL    HW2 7392   2.087   0.787   6.557
 2165SOL     OW 7393   1.535   0.973   2.936
 2165SOL    HW1 7394   1.518   1.022   2.851
 2165SOL    HW2 7395   1.588   0.891   2.916
 2166SOL     OW 7396   1.118   2.011   5.581
 2166SOL    HW1 7397   1.158   1.990   5.492
 2166SOL    HW2 7398   1.184   2.061   5.636
 2167SOL     OW 7399   2.675   0.932   2.237
 2167SOL    HW1 7400   2.634   0.870   2.304
 2167SOL    HW2 7401   2.617   1.013   2.226
 2168SOL     OW 7402   5.731   3.580   4.776
 2168SOL    HW1 7403   5.741   3.481   4.790
 2168SOL    HW2 7404   5.634   3.604   4.783
 2169SOL     OW 7405   5.572   2.938   5.982
 2169SOL    HW1 7406   5.476   2.961   5.998
 2169SOL    HW2 7407   5.578   2.847   5.941
 2170SOL     OW 7408   5.194   4.800   5.500
 2170SOL    HW1 7409   5.235   4.789   5.409
 2170SOL    HW2 7410   5.149   4.715   5.527
 2171SOL     OW 7411   6.682   3.240   7.004
 2171SOL    HW1 7412   6.639   3.273   6.919
 2171SOL    HW2 7413   6.781   3.236   6.991
 2172SOL     OW 7414   3.149   1.379   0.391
 2172SOL    HW1 7415   3.054   1.350   0.378
 2172SOL    HW2 7416   3.158   1.476   0.368
 2173SOL     OW 7417   4.219   0.300   5.706
 2173SOL    HW1 7418   4.123   0.276   5.717
 2173SOL    HW2 7419   4.263   0.235   5.644
 2174SOL     OW 7420   6.639   4.570   4.830
 2174SOL    HW1 7421   6.654   4.648   4.769
 2174SOL    HW2 7422   6.700   4.577   4.909
 2175SOL     OW 7423   2.788   7.012   2.829
 2175SOL    HW1 7424   2.736   6.945   2.883
 2175SOL    HW2 7425   2.860   0.025   2.886
 2176SOL     OW 7426   2.066   2.664   2.239
 2176SOL    HW1 7427   2.023   2.754   2.248
 2176SOL    HW2 7428   2.021   2.612   2.166
 2177SOL     OW 7429   6.344   1.842   1.243
 2177SOL    HW1 7430   6.411   1.821   1.314
 2177SOL    HW2 7431   6.322   1.760   1.190
 2178SOL     OW 7432   1.109   5.117   0.115
 2178SOL    HW1 7433   1.095   5.036   0.172
 2178SOL    HW2 7434   1.022   5.162   0.097
 2179SOL     OW 7435   1.052   5.835   4.087
 2179SOL    HW1 7436   1.091   5.900   4.153
 2179SOL    HW2 7437   0.953   5.829   4.101
 2180SOL     OW 7438   2.927   3.671   2.658
 2180SOL    HW1 7439   2.996   3.599   2.660
 2180SOL    HW2 7440   2.895   3.690   2.751
 2181SOL     OW 7441   4.760   5.341   5.509
 2181SOL    HW1 7442   4.733   5.434   5.486
 2181SOL    HW2 7443   4.749   5.327   5.608
 2182SOL     OW 7444   6.702   3.663   6.901
 2182SOL    HW1 7445   6.689   3.757   6.930
 2182SOL    HW2 7446   6.665   3.601   6.970
 2183SOL     OW 7447   2.956   2.924   0.369
 2183SOL    HW1 7448   2.915   2.855   0.430
 2183SOL    HW2 7449   3.028   2.973   0.418
 2184SOL     OW 7450   3.678   1.243   6.906
 2184SOL    HW1 7451   3.710   1.186   6.830
 2184SOL    HW2 7452   3.579   1.236   6.914
 2185SOL     OW 7453   1.719   0.559   0.510
 2185SOL    HW1 7454   1.706   0.545   0.608
 2185SOL    HW2 7455   1.740   0.655   0.491
 2186SOL     OW 7456   0.292   4.660   2.601
 2186SOL    HW1 7457   0.311   4.749   2.560
 2186SOL    HW2 7458   0.218   4.669   2.668
 2187SOL     OW 7459   6.250   1.570   1.179
 2187SOL    HW1 7460   6.302   1.496   1.221
 2187SOL    HW2 7461   6.155   1.567   1.211
 2188SOL     OW 7462   5.244   6.597   3.527
 2188SOL    HW1 7463   5.151   6.605   3.563
 2188SOL    HW2 7464   5.263   6.502   3.504
 2189SOL     OW 7465   1.978   0.296   5.979
 2189SOL    HW1 7466   2.030   0.335   6.054
 2189SOL    HW2 7467   1.949   0.203   6.003
 2190SOL     OW 7468   6.519   2.382   1.561
 2190SOL    HW1 7469   6.517   2.479   1.537
 2190SOL    HW2 7470   6.573   2.332   1.494
 2191SOL     OW 7471   3.314   3.244   6.416
 2191SOL    HW1 7472   3.356   3.333   6.433
 2191SOL    HW2 7473   3.254   3.220   6.492
 2192SOL     OW 7474   4.213   6.207   5.239
 2192SOL    HW1 7475   4.134   6.209   5.299
 2192SOL    HW2 7476   4.248   6.113   5.233
 2193SOL     OW 7477   0.953   5.184   5.385
 2193SOL    HW1 7478   0.902   5.269   5.392
 2193SOL    HW2 7479   1.040   5.201   5.340
 2194SOL     OW 7480   2.087   6.240   0.329
 2194SOL    HW1 7481   2.025   6.162   0.341
 2194SOL    HW2 7482   2.124   6.267   0.418
 2195SOL     OW 7483   1.099   5.682   2.395
 2195SOL    HW1 7484   1.153   5.625   2.456
 2195SOL    HW2 7485   1.159   5.747   2.348
 2196SOL     OW 7486   3.504   1.588   5.316
 2196SOL    HW1 7487   3.453   1.536   5.386
 2196SOL    HW2 7488   3.571   1.647   5.360
 2197SOL     OW 7489   5.106   4.437   1.640
 2197SOL    HW1 7490   5.081   4.477   1.552
 2197SOL    HW2 7491   5.061   4.348   1.650
 2198SOL     OW 7492   0.006   4.290   0.066
 2198SOL    HW1 7493   6.952   4.271   0.008
 2198SOL    HW2 7494   0.008   4.387   0.090
 2199SOL     OW 7495   4.702   6.808   0.586
 2199SOL    HW1 7496   4.686   6.803   0.488
 2199SOL    HW2 7497   4.761   6.732   0.614
 2200SOL     OW 7498   4.212   0.751   4.609
 2200SOL    HW1 7499   4.301   0.748   4.655
 2200SOL    HW2 7500   4.140   0.767   4.678
 2201SOL     OW 7501   6.302   3.158   2.154
 2201SOL    HW1 7502   6.358   3.234   2.123
 2201SOL    HW2 7503   6.210   3.166   2.116
 2202SOL     OW 7504   3.633   5.435   4.176
 2202SOL    HW1 7505   3.609   5.529   4.197
 2202SOL    HW2 7506   3.550   5.384   4.152
 2203SOL     OW 7507   3.449   2.141   3.430
 2203SOL    HW1 7508   3.521   2.121   3.497
 2203SOL    HW2 7509   3.483   2.208   3.363
 2204SOL     OW 7510   3.126   1.635   0.321
 2204SOL    HW1 7511   3.173   1.706   0.268
 2204SOL    HW2 7512   3.050   1.676   0.371
 2205SOL     OW 7513   1.544   6.763   0.129
 2205SOL    HW1 7514   1.459   6.722   0.162
 2205SOL    HW2 7515   1.620   6.737   0.189
 2206SOL     OW 7516   3.362   3.636   6.900
 2206SOL    HW1 7517   3.402   3.691   6.826
 2206SOL    HW2 7518   3.265   3.620   6.880
 2207SOL     OW 7519   1.692   4.600   6.182
 2207SOL    HW1 7520   1.606   4.648   6.201
 2207SOL    HW2 7521   1.684   4.504   6.208
 2208SOL     OW 7522   0.197   3.404   2.064
 2208SOL    HW1 7523   0.232   3.331   2.005
 2208SOL    HW2 7524   0.166   3.365   2.150
 2209SOL     OW 7525   1.420   5.247   6.508
 2209SOL    HW1 7526   1.327   5.232   6.541
 2209SOL    HW2 7527   1.481   5.178   6.548
 2210SOL     OW 7528   0.870   5.736   3.415
 2210SOL    HW1 7529   0.824   5.811   3.463
 2210SOL    HW2 7530   0.926   5.773   3.340
 2211SOL     OW 7531   6.440   1.124   5.203
 2211SOL    HW1 7532   6.423   1.152   5.298
 2211SOL    HW2 7533   6.524   1.168   5.171
 2212SOL     OW 7534   1.148   0.423   6.104
 2212SOL    HW1 7535   1.120   0.518   6.090
 2212SOL    HW2 7536   1.067   0.367   6.123
 2213SOL     OW 7537   4.180   2.260   3.628
 2213SOL    HW1 7538   4.082   2.280   3.639
 2213SOL    HW2 7539   4.210   2.292   3.538
 2214SOL     OW 7540   5.363   0.422   4.483
 2214SOL    HW1 7541   5.356   0.327   4.451
 2214SOL    HW2 7542   5.381   0.421   4.582
 2215SOL     OW 7543   6.986   1.985   5.658
 2215SOL    HW1 7544   6.975   1.943   5.568
 2215SOL    HW2 7545   0.059   2.000   5.676
 2216SOL     OW 7546   0.914   6.637   0.652
 2216SOL    HW1 7547   0.966   6.572   0.706
 2216SOL    HW2 7548   0.974   6.681   0.585
 2217SOL     OW 7549   4.725   0.133   1.223
 2217SOL    HW1 7550   4.648   0.187   1.256
 2217SOL    HW2 7551   4.759   0.075   1.297
 2218SOL     OW 7552   1.130   5.550   6.170
 2218SOL    HW1 7553   1.107   5.511   6.260
 2218SOL    HW2 7554   1.229   5.558   6.162
 2219SOL     OW 7555   1.256   4.137   2.965
 2219SOL    HW1 7556   1.210   4.095   2.887
 2219SOL    HW2 7557   1.201   4.124   3.047
 2220SOL     OW 7558   0.471   2.029   5.301
 2220SOL    HW1 7559   0.459   2.097   5.373
 2220SOL    HW2 7560   0.466   1.937   5.340
 2221SOL     OW 7561   6.808   1.720   1.326
 2221SOL    HW1 7562   6.874   1.703   1.399
 2221SOL    HW2 7563   6.795   1.818   1.314
 2222SOL     OW 7564   4.863   6.905   2.399
 2222SOL    HW1 7565   4.904   6.833   2.343
 2222SOL    HW2 7566   4.790   6.951   2.347
 2223SOL     OW 7567   5.712   5.591   4.066
 2223SOL    HW1 7568   5.738   5.676   4.020
 2223SOL    HW2 7569   5.791   5.531   4.071
 2224SOL     OW 7570   1.913   4.959   1.707
 2224SOL    HW1 7571   1.935   4.994   1.616
 2224SOL    HW2 7572   1.987   4.982   1.771
 2225SOL     OW 7573   6.349   4.991   2.180
 2225SOL    HW1 7574   6.411   4.916   2.205
 2225SOL    HW2 7575   6.327   4.985   2.083
 2226SOL     OW 7576   3.817   2.651   1.150
 2226SOL    HW1 7577   3.780   2.588   1.082
 2226SOL    HW2 7578   3.904   2.689   1.116
 2227SOL     OW 7579   6.502   4.108   5.930
 2227SOL    HW1 7580   6.478   4.193   5.976
 2227SOL    HW2 7581   6.419   4.062   5.899
 2228SOL     OW 7582   2.907   4.807   6.283
 2228SOL    HW1 7583   2.894   4.709   6.290
 2228SOL    HW2 7584   2.866   4.853   6.362
 2229SOL     OW 7585   4.434   1.186   3.296
 2229SOL    HW1 7586   4.417   1.252   3.222
 2229SOL    HW2 7587   4.531   1.187   3.321
 2230SOL     OW 7588   0.808   5.672   5.060
 2230SOL    HW1 7589   0.826   5.581   5.098
 2230SOL    HW2 7590   0.886   5.701   5.005
 2231SOL     OW 7591   2.255   0.323   1.773
 2231SOL    HW1 7592   2.339   0.376   1.761
 2231SOL    HW2 7593   2.278   0.227   1.788
 2232SOL     OW 7594   6.664   2.821   2.642
 2232SOL    HW1 7595   6.730   2.792   2.712
 2232SOL    HW2 7596   6.702   2.802   2.551
 2233SOL     OW 7597   3.676   6.266   0.508
 2233SOL    HW1 7598   3.644   6.190   0.565
 2233SOL    HW2 7599   3.641   6.255   0.416
 2234SOL     OW 7600   3.510   1.161   0.702
 2234SOL    HW1 7601   3.609   1.171   0.715
 2234SOL    HW2 7602   3.487   1.181   0.607
 2235SOL     OW 7603   0.851   0.012   0.774
 2235SOL    HW1 7604   0.875   6.964   0.839
 2235SOL    HW2 7605   0.871   7.006   0.681
 2236SOL     OW 7606   0.682   4.584   1.273
 2236SOL    HW1 7607   0.753   4.602   1.205
 2236SOL    HW2 7608   0.705   4.502   1.325
 2237SOL     OW 7609   0.074   2.844   4.753
 2237SOL    HW1 7610   0.020   2.905   4.695
 2237SOL    HW2 7611   0.171   2.863   4.741
 2238SOL     OW 7612   0.248   5.726   1.990
 2238SOL    HW1 7613   0.290   5.773   2.067
 2238SOL    HW2 7614   0.286   5.761   1.905
 2239SOL     OW 7615   3.867   4.948   3.700
 2239SOL    HW1 7616   3.840   4.933   3.795
 2239SOL    HW2 7617   3.817   4.886   3.641
 2240SOL     OW 7618   6.862   5.147   2.956
 2240SOL    HW1 7619   6.802   5.093   2.897
 2240SOL    HW2 7620   6.814   5.171   3.040
 2241SOL     OW 7621   6.796   6.467   1.853
 2241SOL    HW1 7622   6.776   6.472   1.951
 2241SOL    HW2 7623   6.711   6.459   1.802
 2242SOL     OW 7624   4.886   2.189   3.020
 2242SOL    HW1 7625   4.834   2.239   2.950
 2242SOL    HW2 7626   4.930   2.254   3.081
 2243SOL     OW 7627   2.143   5.795   4.970
 2243SOL    HW1 7628   2.219   5.797   4.906
 2243SOL    HW2 7629   2.100   5.885   4.975
 2244SOL     OW 7630   2.454   0.252   4.474
 2244SOL    HW1 7631   2.383   0.273   4.541
 2244SOL    HW2 7632   2.502   0.336   4.449
 2245SOL     OW 7633   0.502   1.673   2.648
 2245SOL    HW1 7634   0.533   1.698   2.557
 2245SOL    HW2 7635   0.405   1.697   2.658
 2246SOL     OW 7636   1.195   3.671   6.327
 2246SOL    HW1 7637   1.201   3.738   6.401
 2246SOL    HW2 7638   1.253   3.700   6.251
 2247SOL     OW 7639   1.905   2.423   6.149
 2247SOL    HW1 7640   1.811   2.450   6.173
 2247SOL    HW2 7641   1.907   2.326   6.126
 2248SOL     OW 7642   4.726   4.236   5.534
 2248SOL    HW1 7643   4.755   4.320   5.489
 2248SOL    HW2 7644   4.744   4.242   5.632
 2249SOL     OW 7645   5.575   5.828   3.310
 2249SOL    HW1 7646   5.513   5.783   3.247
 2249SOL    HW2 7647   5.666   5.834   3.269
 2250SOL     OW 7648   6.353   4.245   1.002
 2250SOL    HW1 7649   6.272   4.277   1.050
 2250SOL    HW2 7650   6.332   4.159   0.954
 2251SOL     OW 7651   5.695   1.246   6.914
 2251SOL    HW1 7652   5.627   1.215   6.980
 2251SOL    HW2 7653   5.724   1.339   6.937
 2252SOL     OW 7654   5.260   2.781   5.102
 2252SOL    HW1 7655   5.221   2.808   5.014
 2252SOL    HW2 7656   5.287   2.863   5.153
 2253SOL     OW 7657   2.596   2.933   6.636
 2253SOL    HW1 7658   2.637   2.886   6.714
 2253SOL    HW2 7659   2.572   3.027   6.662
 2254SOL     OW 7660   1.999   3.489   6.404
 2254SOL    HW1 7661   1.932   3.533   6.463
 2254SOL    HW2 7662   1.984   3.518   6.309
 2255SOL     OW 7663   5.977   2.554   2.043
 2255SOL    HW1 7664   6.027   2.613   1.980
 2255SOL    HW2 7665   5.888   2.595   2.065
 2256SOL     OW 7666   4.225   4.955   2.104
 2256SOL    HW1 7667   4.284   4.877   2.088
 2256SOL    HW2 7668   4.135   4.939   2.063
 2257SOL     OW 7669   1.642   3.777   3.821
 2257SOL    HW1 7670   1.569   3.709   3.816
 2257SOL    HW2 7671   1.700   3.757   3.900
 2258SOL     OW 7672   1.591   5.541   5.075
 2258SOL    HW1 7673   1.608   5.628   5.122
 2258SOL    HW2 7674   1.598   5.466   5.140
 2259SOL     OW 7675   5.222   3.964   6.893
 2259SOL    HW1 7676   5.249   4.014   6.811
 2259SOL    HW2 7677   5.273   3.878   6.899
 2260SOL     OW 7678   5.276   4.948   1.746
 2260SOL    HW1 7679   5.211   4.890   1.697
 2260SOL    HW2 7680   5.350   4.975   1.684
 2261SOL     OW 7681   5.544   6.290   0.813
 2261SOL    HW1 7682   5.453   6.271   0.778
 2261SOL    HW2 7683   5.591   6.353   0.750
 2262SOL     OW 7684   5.006   2.672   3.754
 2262SOL    HW1 7685   5.043   2.760   3.783
 2262SOL    HW2 7686   5.000   2.610   3.833
 2263SOL     OW 7687   1.444   5.258   5.972
 2263SOL    HW1 7688   1.536   5.270   5.936
 2263SOL    HW2 7689   1.384   5.223   5.900
 2264SOL     OW 7690   3.180   3.478   3.400
 2264SOL    HW1 7691   3.153   3.382   3.388
 2264SOL    HW2 7692   3.170   3.526   3.313
 2265SOL     OW 7693   0.181   0.446   2.198
 2265SOL    HW1 7694   0.100   0.392   2.176
 2265SOL    HW2 7695   0.157   0.543   2.198
 2266SOL     OW 7696   6.035   0.468   0.719
 2266SOL    HW1 7697   6.016   0.514   0.806
 2266SOL    HW2 7698   5.976   0.387   0.711
 2267SOL     OW 7699   6.160   2.600   5.404
 2267SOL    HW1 7700   6.154   2.615   5.503
 2267SOL    HW2 7701   6.163   2.502   5.385
 2268SOL     OW 7702   7.024   6.194   0.108
 2268SOL    HW1 7703   7.017   6.238   0.018
 2268SOL    HW2 7704   0.058   6.250   0.166
 2269SOL     OW 7705   6.460   5.687   5.963
 2269SOL    HW1 7706   6.482   5.665   5.868
 2269SOL    HW2 7707   6.410   5.773   5.968
 2270SOL     OW 7708   3.071   3.058   2.134
 2270SOL    HW1 7709   2.979   3.063   2.172
 2270SOL    HW2 7710   3.069   3.008   2.048
 2271SOL     OW 7711   5.846   4.682   2.001
 2271SOL    HW1 7712   5.804   4.705   1.913
 2271SOL    HW2 7713   5.778   4.636   2.059
 2272SOL     OW 7714   5.424   1.923   5.573
 2272SOL    HW1 7715   5.331   1.913   5.608
 2272SOL    HW2 7716   5.488   1.876   5.635
 2273SOL     OW 7717   0.791   1.302   3.551
 2273SOL    HW1 7718   0.810   1.241   3.475
 2273SOL    HW2 7719   0.822   1.395   3.529
 2274SOL     OW 7720   1.489   3.465   4.932
 2274SOL    HW1 7721   1.582   3.496   4.954
 2274SOL    HW2 7722   1.423   3.531   4.968
 2275SOL     OW 7723   5.205   5.770   4.918
 2275SOL    HW1 7724   5.202   5.737   4.823
 2275SOL    HW2 7725   5.157   5.857   4.924
 2276SOL     OW 7726   4.391   4.191   0.838
 2276SOL    HW1 7727   4.378   4.244   0.754
 2276SOL    HW2 7728   4.487   4.165   0.846
 2277SOL     OW 7729   3.178   3.383   6.713
 2277SOL    HW1 7730   3.120   3.302   6.720
 2277SOL    HW2 7731   3.125   3.464   6.740
 2278SOL     OW 7732   5.461   6.214   1.732
 2278SOL    HW1 7733   5.543   6.169   1.698
 2278SOL    HW2 7734   5.412   6.257   1.656
 2279SOL     OW 7735   5.714   3.133   5.120
 2279SOL    HW1 7736   5.781   3.206   5.111
 2279SOL    HW2 7737   5.629   3.161   5.074
 2280SOL     OW 7738   6.065   6.093   5.551
 2280SOL    HW1 7739   6.028   6.185   5.536
 2280SOL    HW2 7740   6.145   6.099   5.611
 2281SOL     OW 7741   3.443   1.898   1.679
 2281SOL    HW1 7742   3.470   1.905   1.583
 2281SOL    HW2 7743   3.524   1.903   1.737
 2282SOL     OW 7744   4.984   5.716   3.420
 2282SOL    HW1 7745   5.006   5.643   3.485
 2282SOL    HW2 7746   4.978   5.803   3.467
 2283SOL     OW 7747   0.243   3.459   3.585
 2283SOL    HW1 7748   0.242   3.431   3.681
 2283SOL    HW2 7749   0.291   3.390   3.531
 2284SOL     OW 7750   2.556   1.859   1.697
 2284SOL    HW1 7751   2.509   1.947   1.690
 2284SOL    HW2 7752   2.609   1.843   1.613
 2285SOL     OW 7753   0.995   3.586   0.580
 2285SOL    HW1 7754   0.924   3.639   0.625
 2285SOL    HW2 7755   1.084   3.627   0.599
 2286SOL     OW 7756   6.040   6.200   4.416
 2286SOL    HW1 7757   6.028   6.290   4.373
 2286SOL    HW2 7758   6.017   6.207   4.513
 2287SOL     OW 7759   2.539   2.566   1.572
 2287SOL    HW1 7760   2.586   2.507   1.506
 2287SOL    HW2 7761   2.607   2.615   1.626
 2288SOL     OW 7762   0.006   6.424   2.538
 2288SOL    HW1 7763   6.981   6.506   2.564
 2288SOL    HW2 7764   6.966   6.350   2.518
 2289SOL     OW 7765   6.056   1.643   2.343
 2289SOL    HW1 7766   6.003   1.560   2.325
 2289SOL    HW2 7767   5.995   1.722   2.340
 2290SOL     OW 7768   3.237   3.992   3.330
 2290SOL    HW1 7769   3.254   4.027   3.238
 2290SOL    HW2 7770   3.320   3.947   3.364
 2291SOL     OW 7771   2.065   2.432   1.430
 2291SOL    HW1 7772   2.043   2.498   1.502
 2291SOL    HW2 7773   2.162   2.411   1.432
 2292SOL     OW 7774   4.321   1.985   2.947
 2292SOL    HW1 7775   4.413   2.009   2.916
 2292SOL    HW2 7776   4.254   2.047   2.907
 2293SOL     OW 7777   5.335   1.367   0.703
 2293SOL    HW1 7778   5.376   1.385   0.614
 2293SOL    HW2 7779   5.354   1.443   0.765
 2294SOL     OW 7780   1.378   2.567   6.473
 2294SOL    HW1 7781   1.392   2.663   6.496
 2294SOL    HW2 7782   1.325   2.561   6.388
 2295SOL     OW 7783   0.072   6.898   2.033
 2295SOL    HW1 7784   0.139   6.870   2.101
 2295SOL    HW2 7785   0.009   6.822   2.015
 2296SOL     OW 7786   2.641   5.466   3.466
 2296SOL    HW1 7787   2.562   5.440   3.409
 2296SOL    HW2 7788   2.609   5.520   3.544
 2297SOL     OW 7789   4.482   5.021   5.471
 2297SOL    HW1 7790   4.464   5.119   5.465
 2297SOL    HW2 7791   4.510   4.987   5.381
 2298SOL     OW 7792   3.634   3.135   4.711
 2298SOL    HW1 7793   3.556   3.108   4.767
 2298SOL    HW2 7794   3.619   3.227   4.674
 2299SOL     OW 7795   5.827   2.976   5.331
 2299SOL    HW1 7796   5.824   2.884   5.291
 2299SOL    HW2 7797   5.742   3.024   5.310
 2300SOL     OW 7798   4.172   6.250   3.126
 2300SOL    HW1 7799   4.198   6.154   3.130
 2300SOL    HW2 7800   4.254   6.306   3.114
 2301SOL     OW 7801   3.492   3.011   4.407
 2301SOL    HW1 7802   3.443   3.018   4.320
 2301SOL    HW2 7803   3.590   3.005   4.390
 2302SOL     OW 7804   4.419   1.848   0.194
 2302SOL    HW1 7805   4.455   1.882   0.107
 2302SOL    HW2 7806   4.493   1.807   0.247
 2303SOL     OW 7807   2.370   2.372   0.874
 2303SOL    HW1 7808   2.408   2.281   0.890
 2303SOL    HW2 7809   2.360   2.387   0.776
 2304SOL     OW 7810   6.220   6.275   2.760
 2304SOL    HW1 7811   6.199   6.308   2.668
 2304SOL    HW2 7812   6.139   6.236   2.801
 2305SOL     OW 7813   1.524   1.255   5.295
 2305SOL    HW1 7814   1.489   1.349   5.299
 2305SOL    HW2 7815   1.624   1.257   5.296
 2306SOL     OW 7816   2.324   4.772   3.477
 2306SOL    HW1 7817   2.368   4.756   3.566
 2306SOL    HW2 7818   2.395   4.783   3.407
 2307SOL     OW 7819   1.162   2.498   5.686
 2307SOL    HW1 7820   1.221   2.516   5.764
 2307SOL    HW2 7821   1.162   2.400   5.666
 2308SOL     OW 7822   2.587   4.728   1.827
 2308SOL    HW1 7823   2.535   4.676   1.895
 2308SOL    HW2 7824   2.685   4.716   1.844
 2309SOL     OW 7825   1.236   6.328   4.117
 2309SOL    HW1 7826   1.297   6.407   4.112
 2309SOL    HW2 7827   1.221   6.291   4.025
 2310SOL     OW 7828   4.192   7.001   1.283
 2310SOL    HW1 7829   4.184   0.074   1.260
 2310SOL    HW2 7830   4.255   6.957   1.219
 2311SOL     OW 7831   2.722   5.813   0.806
 2311SOL    HW1 7832   2.646   5.748   0.805
 2311SOL    HW2 7833   2.696   5.897   0.760
 2312SOL     OW 7834   3.793   5.482   2.704
 2312SOL    HW1 7835   3.698   5.508   2.721
 2312SOL    HW2 7836   3.819   5.407   2.764
 2313SOL     OW 7837   4.987   4.890   2.308
 2313SOL    HW1 7838   4.991   4.803   2.258
 2313SOL    HW2 7839   4.976   4.872   2.406
 2314SOL     OW 7840   3.159   5.822   3.532
 2314SOL    HW1 7841   3.181   5.742   3.476
 2314SOL    HW2 7842   3.204   5.903   3.494
 2315SOL     OW 7843   4.248   3.237   5.924
 2315SOL    HW1 7844   4.183   3.287   5.982
 2315SOL    HW2 7845   4.204   3.155   5.888
 2316SOL     OW 7846   5.514   2.962   3.044
 2316SOL    HW1 7847   5.436   2.997   2.991
 2316SOL    HW2 7848   5.518   3.010   3.132
 2317SOL     OW 7849   1.976   4.450   3.262
 2317SOL    HW1 7850   1.955   4.449   3.360
 2317SOL    HW2 7851   2.033   4.371   3.239
 2318SOL     OW 7852   0.517   1.005   3.118
 2318SOL    HW1 7853   0.426   1.020   3.081
 2318SOL    HW2 7854   0.562   1.093   3.134
 2319SOL     OW 7855   1.456   5.100   4.474
 2319SOL    HW1 7856   1.397   5.020   4.488
 2319SOL    HW2 7857   1.515   5.084   4.396
 2320SOL     OW 7858   0.116   2.769   4.176
 2320SOL    HW1 7859   0.200   2.764   4.122
 2320SOL    HW2 7860   0.038   2.775   4.114
 2321SOL     OW 7861   3.256   6.730   4.754
 2321SOL    HW1 7862   3.216   6.654   4.806
 2321SOL    HW2 7863   3.326   6.695   4.692
 2322SOL     OW 7864   1.494   0.797   5.232
 2322SOL    HW1 7865   1.403   0.811   5.194
 2322SOL    HW2 7866   1.516   0.700   5.230
 2323SOL     OW 7867   4.362   5.830   2.470
 2323SOL    HW1 7868   4.405   5.740   2.457
 2323SOL    HW2 7869   4.404   5.876   2.548
 2324SOL     OW 7870   0.420   5.750   2.610
 2324SOL    HW1 7871   0.455   5.843   2.609
 2324SOL    HW2 7872   0.429   5.709   2.519
 2325SOL     OW 7873   1.247   3.948   1.173
 2325SOL    HW1 7874   1.309   3.871   1.190
 2325SOL    HW2 7875   1.300   4.029   1.150
 2326SOL     OW 7876   1.500   5.078   6.810
 2326SOL    HW1 7877   1.400   5.087   6.819
 2326SOL    HW2 7878   1.534   5.017   6.881
 2327SOL     OW 7879   5.120   2.497   3.587
 2327SOL    HW1 7880   5.214   2.476   3.611
 2327SOL    HW2 7881   5.087   2.574   3.642
 2328SOL     OW 7882   4.366   1.339   3.071
 2328SOL    HW1 7883   4.303   1.374   3.001
 2328SOL    HW2 7884   4.460   1.360   3.045
 2329SOL     OW 7885   1.236   5.886   3.726
 2329SOL    HW1 7886   1.293   5.918   3.651
 2329SOL    HW2 7887   1.246   5.786   3.735
 2330SOL     OW 7888   0.902   4.298   2.724
 2330SOL    HW1 7889   0.932   4.386   2.687
 2330SOL    HW2 7890   0.803   4.299   2.734
 2331SOL     OW 7891   0.446   4.280   5.147
 2331SOL    HW1 7892   0.376   4.274   5.076
 2331SOL    HW2 7893   0.536   4.293   5.103
 2332SOL     OW 7894   5.350   1.893   6.010
 2332SOL    HW1 7895   5.289   1.964   6.046
 2332SOL    HW2 7896   5.343   1.811   6.068
 2333SOL     OW 7897   1.033   5.834   3.218
 2333SOL    HW1 7898   1.039   5.822   3.119
 2333SOL    HW2 7899   1.121   5.868   3.253
 2334SOL     OW 7900   3.052   6.977   6.699
 2334SOL    HW1 7901   3.023   0.020   6.767
 2334SOL    HW2 7902   3.007   6.890   6.719
 2335SOL     OW 7903   4.931   6.941   3.224
 2335SOL    HW1 7904   5.017   6.926   3.272
 2335SOL    HW2 7905   4.855   6.910   3.282
 2336SOL     OW 7906   4.757   0.934   5.685
 2336SOL    HW1 7907   4.696   1.014   5.690
 2336SOL    HW2 7908   4.840   0.952   5.737
 2337SOL     OW 7909   4.918   0.185   3.221
 2337SOL    HW1 7910   4.929   0.086   3.230
 2337SOL    HW2 7911   4.953   0.231   3.303
 2338SOL     OW 7912   0.611   6.853   6.446
 2338SOL    HW1 7913   0.653   6.891   6.364
 2338SOL    HW2 7914   0.528   6.905   6.468
 2339SOL     OW 7915   3.882   4.829   0.107
 2339SOL    HW1 7916   3.842   4.847   0.196
 2339SOL    HW2 7917   3.862   4.905   0.045
 2340SOL     OW 7918   3.503   5.669   4.690
 2340SOL    HW1 7919   3.426   5.675   4.754
 2340SOL    HW2 7920   3.567   5.744   4.708
 2341SOL     OW 7921   5.346   5.333   1.080
 2341SOL    HW1 7922   5.445   5.331   1.097
 2341SOL    HW2 7923   5.299   5.366   1.162
 2342SOL     OW 7924   6.283   0.299   5.089
 2342SOL    HW1 7925   6.346   0.376   5.101
 2342SOL    HW2 7926   6.334   0.217   5.066
 2343SOL     OW 7927   1.279   5.481   0.762
 2343SOL    HW1 7928   1.352   5.546   0.785
 2343SOL    HW2 7929   1.299   5.438   0.674
 2344SOL     OW 7930   1.919   1.931   2.254
 2344SOL    HW1 7931   1.928   1.895   2.161
 2344SOL    HW2 7932   1.825   1.965   2.268
 2345SOL     OW 7933   1.776   0.947   4.300
 2345SOL    HW1 7934   1.793   1.042   4.327
 2345SOL    HW2 7935   1.794   0.936   4.203
 2346SOL     OW 7936   5.339   3.781   5.834
 2346SOL    HW1 7937   5.351   3.818   5.926
 2346SOL    HW2 7938   5.309   3.854   5.773
 2347SOL     OW 7939   1.798   2.750   1.758
 2347SOL    HW1 7940   1.811   2.850   1.758
 2347SOL    HW2 7941   1.772   2.721   1.850
 2348SOL     OW 7942   2.792   6.271   2.520
 2348SOL    HW1 7943   2.703   6.256   2.478
 2348SOL    HW2 7944   2.850   6.191   2.506
 2349SOL     OW 7945   6.671   6.525   6.225
 2349SOL    HW1 7946   6.764   6.492   6.206
 2349SOL    HW2 7947   6.662   6.540   6.324
 2350SOL     OW 7948   2.812   0.212   6.078
 2350SOL    HW1 7949   2.871   0.263   6.015
 2350SOL    HW2 7950   2.815   0.115   6.054
 2351SOL     OW 7951   2.500   5.257   4.149
 2351SOL    HW1 7952   2.574   5.256   4.216
 2351SOL    HW2 7953   2.476   5.352   4.127
 2352SOL     OW 7954   0.436   4.206   3.155
 2352SOL    HW1 7955   0.403   4.231   3.064
 2352SOL    HW2 7956   0.373   4.240   3.224
 2353SOL     OW 7957   2.805   4.524   5.930
 2353SOL    HW1 7958   2.711   4.524   5.896
 2353SOL    HW2 7959   2.833   4.619   5.948
 2354SOL     OW 7960   3.375   1.985   0.698
 2354SOL    HW1 7961   3.360   1.899   0.746
 2354SOL    HW2 7962   3.459   1.978   0.643
 2355SOL     OW 7963   0.554   6.385   0.171
 2355SOL    HW1 7964   0.654   6.383   0.166
 2355SOL    HW2 7965   0.519   6.292   0.163
 2356SOL     OW 7966   2.602   5.147   2.914
 2356SOL    HW1 7967   2.604   5.060   2.964
 2356SOL    HW2 7968   2.538   5.209   2.959
 2357SOL     OW 7969   6.223   4.392   2.177
 2357SOL    HW1 7970   6.218   4.366   2.081
 2357SOL    HW2 7971   6.319   4.399   2.205
 2358SOL     OW 7972   3.437   1.137   5.775
 2358SOL    HW1 7973   3.503   1.129   5.849
 2358SOL    HW2 7974   3.470   1.201   5.706
 2359SOL     OW 7975   1.955   1.418   5.486
 2359SOL    HW1 7976   1.865   1.459   5.473
 2359SOL    HW2 7977   1.946   1.335   5.541
 2360SOL     OW 7978   4.645   4.655   0.907
 2360SOL    HW1 7979   4.689   4.702   0.984
 2360SOL    HW2 7980   4.666   4.702   0.822
 2361SOL     OW 7981   3.315   6.707   2.102
 2361SOL    HW1 7982   3.328   6.747   2.011
 2361SOL    HW2 7983   3.221   6.724   2.133
 2362SOL     OW 7984   4.151   5.451   4.495
 2362SOL    HW1 7985   4.060   5.411   4.488
 2362SOL    HW2 7986   4.215   5.400   4.437
 2363SOL     OW 7987   3.218   3.367   0.561
 2363SOL    HW1 7988   3.127   3.407   0.570
 2363SOL    HW2 7989   3.216   3.272   0.591
 2364SOL     OW 7990   4.554   1.705   1.980
 2364SOL    HW1 7991   4.478   1.756   2.019
 2364SOL    HW2 7992   4.549   1.709   1.880
 2365SOL     OW 7993   5.508   3.584   4.331
 2365SOL    HW1 7994   5.519   3.684   4.340
 2365SOL    HW2 7995   5.483   3.562   4.237
 2366SOL     OW 7996   2.554   4.503   5.343
 2366SOL    HW1 7997   2.589   4.495   5.436
 2366SOL    HW2 7998   2.481   4.438   5.329
 2367SOL     OW 7999   0.898   4.220   6.168
 2367SOL    HW1 8000   0.873   4.146   6.105
 2367SOL    HW2 8001   0.965   4.185   6.234
 2368SOL     OW 8002   5.302   0.112   4.158
 2368SOL    HW1 8003   5.352   0.136   4.241
 2368SOL    HW2 8004   5.325   0.019   4.130
 2369SOL     OW 8005   2.866   1.239   3.701
 2369SOL    HW1 8006   2.862   1.339   3.705
 2369SOL    HW2 8007   2.869   1.202   3.794
 2370SOL     OW 8008   5.262   3.234   1.467
 2370SOL    HW1 8009   5.167   3.244   1.499
 2370SOL    HW2 8010   5.324   3.239   1.545
 2371SOL     OW 8011   0.905   6.820   2.741
 2371SOL    HW1 8012   0.980   6.792   2.681
 2371SOL    HW2 8013   0.825   6.842   2.686
 2372SOL     OW 8014   6.745   1.110   6.190
 2372SOL    HW1 8015   6.783   1.079   6.277
 2372SOL    HW2 8016   6.646   1.093   6.189
 2373SOL     OW 8017   6.512   0.249   6.076
 2373SOL    HW1 8018   6.556   0.170   6.120
 2373SOL    HW2 8019   6.413   0.232   6.069
 2374SOL     OW 8020   6.325   6.473   2.902
 2374SOL    HW1 8021   6.293   6.395   2.848
 2374SOL    HW2 8022   6.359   6.442   2.990
 2375SOL     OW 8023   0.983   0.415   4.144
 2375SOL    HW1 8024   0.961   0.459   4.231
 2375SOL    HW2 8025   1.077   0.436   4.118
 2376SOL     OW 8026   6.421   2.465   3.362
 2376SOL    HW1 8027   6.494   2.427   3.306
 2376SOL    HW2 8028   6.420   2.419   3.451
 2377SOL     OW 8029   4.153   4.947   5.806
 2377SOL    HW1 8030   4.095   4.884   5.754
 2377SOL    HW2 8031   4.135   5.041   5.777
 2378SOL     OW 8032   6.458   1.620   0.781
 2378SOL    HW1 8033   6.513   1.551   0.735
 2378SOL    HW2 8034   6.429   1.690   0.716
 2379SOL     OW 8035   6.813   5.225   0.378
 2379SOL    HW1 8036   6.810   5.154   0.449
 2379SOL    HW2 8037   6.806   5.183   0.288
 2380SOL     OW 8038   5.004   4.190   4.661
 2380SOL    HW1 8039   5.052   4.277   4.667
 2380SOL    HW2 8040   5.069   4.118   4.635
 2381SOL     OW 8041   2.792   5.224   5.131
 2381SOL    HW1 8042   2.734   5.185   5.059
 2381SOL    HW2 8043   2.873   5.166   5.142
 2382SOL     OW 8044   1.579   6.255   2.075
 2382SOL    HW1 8045   1.651   6.274   2.009
 2382SOL    HW2 8046   1.605   6.291   2.165
 2383SOL     OW 8047   4.848   5.550   4.696
 2383SOL    HW1 8048   4.803   5.598   4.620
 2383SOL    HW2 8049   4.778   5.505   4.752
 2384SOL     OW 8050   0.927   1.729   1.506
 2384SOL    HW1 8051   0.974   1.750   1.592
 2384SOL    HW2 8052   0.970   1.650   1.463
 2385SOL     OW 8053   0.609   1.757   1.212
 2385SOL    HW1 8054   0.535   1.766   1.145
 2385SOL    HW2 8055   0.697   1.752   1.165
 2386SOL     OW 8056   3.876   5.668   4.493
 2386SOL    HW1 8057   3.897   5.612   4.413
 2386SOL    HW2 8058   3.858   5.762   4.464
 2387SOL     OW 8059   1.166   1.952   3.389
 2387SOL    HW1 8060   1.172   2.052   3.381
 2387SOL    HW2 8061   1.226   1.921   3.462
 2388SOL     OW 8062   6.760   2.124   6.535
 2388SOL    HW1 8063   6.764   2.222   6.515
 2388SOL    HW2 8064   6.853   2.087   6.539
 2389SOL     OW 8065   5.114   4.630   3.906
 2389SOL    HW1 8066   5.127   4.729   3.908
 2389SOL    HW2 8067   5.031   4.607   3.957
 2390SOL     OW 8068   4.881   3.393   5.763
 2390SOL    HW1 8069   4.853   3.298   5.746
 2390SOL    HW2 8070   4.945   3.395   5.840
 2391SOL     OW 8071   3.151   3.705   6.253
 2391SOL    HW1 8072   3.162   3.673   6.159
 2391SOL    HW2 8073   3.086   3.781   6.255
 2392SOL     OW 8074   3.356   5.693   5.219
 2392SOL    HW1 8075   3.267   5.707   5.263
 2392SOL    HW2 8076   3.422   5.662   5.287
 2393SOL     OW 8077   3.795   5.486   1.147
 2393SOL    HW1 8078   3.697   5.501   1.133
 2393SOL    HW2 8079   3.811   5.390   1.171
 2394SOL     OW 8080   0.569   3.148   3.403
 2394SOL    HW1 8081   0.579   3.248   3.401
 2394SOL    HW2 8082   0.599   3.110   3.316
 2395SOL     OW 8083   0.663   2.809   6.052
 2395SOL    HW1 8084   0.748   2.846   6.016
 2395SOL    HW2 8085   0.623   2.746   5.984
 2396SOL     OW 8086   6.114   1.032   4.851
 2396SOL    HW1 8087   6.136   0.934   4.852
 2396SOL    HW2 8088   6.161   1.078   4.926
 2397SOL     OW 8089   0.871   4.723   5.576
 2397SOL    HW1 8090   0.848   4.661   5.651
 2397SOL    HW2 8091   0.869   4.672   5.490
 2398SOL     OW 8092   2.349   5.593   4.131
 2398SOL    HW1 8093   2.428   5.647   4.100
 2398SOL    HW2 8094   2.289   5.574   4.054
 2399SOL     OW 8095   2.619   2.412   3.517
 2399SOL    HW1 8096   2.581   2.345   3.581
 2399SOL    HW2 8097   2.557   2.490   3.510
 2400SOL     OW 8098   1.574   3.558   0.120
 2400SOL    HW1 8099   1.637   3.613   0.174
 2400SOL    HW2 8100   1.521   3.618   0.060
 2401SOL     OW 8101   3.804   6.929   4.832
 2401SOL    HW1 8102   3.894   6.899   4.799
 2401SOL    HW2 8103   3.807   6.940   4.931
 2402SOL     OW 8104   0.937   2.502   2.414
 2402SOL    HW1 8105   0.945   2.543   2.505
 2402SOL    HW2 8106   0.857   2.442   2.411
 2403SOL     OW 8107   3.521   3.838   2.407
 2403SOL    HW1 8108   3.562   3.923   2.375
 2403SOL    HW2 8109   3.538   3.829   2.506
 2404SOL     OW 8110   6.828   0.780   1.026
 2404SOL    HW1 8111   6.754   0.713   1.033
 2404SOL    HW2 8112   6.790   0.872   1.029
 2405SOL     OW 8113   2.427   4.438   0.491
 2405SOL    HW1 8114   2.474   4.457   0.577
 2405SOL    HW2 8115   2.400   4.342   0.488
 2406SOL     OW 8116   2.027   0.150   3.930
 2406SOL    HW1 8117   2.060   0.219   3.866
 2406SOL    HW2 8118   1.929   0.162   3.945
 2407SOL     OW 8119   3.531   1.668   3.454
 2407SOL    HW1 8120   3.512   1.570   3.445
 2407SOL    HW2 8121   3.520   1.713   3.365
 2408SOL     OW 8122   2.042   6.323   3.793
 2408SOL    HW1 8123   2.120   6.381   3.816
 2408SOL    HW2 8124   2.046   6.298   3.696
 2409SOL     OW 8125   2.247   2.611   0.917
 2409SOL    HW1 8126   2.148   2.598   0.906
 2409SOL    HW2 8127   2.292   2.522   0.918
 2410SOL     OW 8128   6.443   3.355   5.993
 2410SOL    HW1 8129   6.439   3.443   6.041
 2410SOL    HW2 8130   6.412   3.283   6.055
 2411SOL     OW 8131   3.035   3.544   0.056
 2411SOL    HW1 8132   3.056   3.454   0.018
 2411SOL    HW2 8133   3.084   3.614   0.004
 2412SOL     OW 8134   2.503   2.427   6.823
 2412SOL    HW1 8135   2.492   2.526   6.829
 2412SOL    HW2 8136   2.420   2.387   6.785
 2413SOL     OW 8137   6.747   2.709   6.644
 2413SOL    HW1 8138   6.691   2.678   6.720
 2413SOL    HW2 8139   6.834   2.661   6.644
 2414SOL     OW 8140   5.747   2.547   4.255
 2414SOL    HW1 8141   5.694   2.582   4.333
 2414SOL    HW2 8142   5.835   2.514   4.288
 2415SOL     OW 8143   2.597   6.400   0.745
 2415SOL    HW1 8144   2.549   6.463   0.807
 2415SOL    HW2 8145   2.532   6.359   0.681
 2416SOL     OW 8146   6.934   3.446   2.964
 2416SOL    HW1 8147   6.838   3.472   2.959
 2416SOL    HW2 8148   6.981   3.506   3.029
 2417SOL     OW 8149   4.028   2.392   0.307
 2417SOL    HW1 8150   4.097   2.452   0.347
 2417SOL    HW2 8151   4.066   2.301   0.295
 2418SOL     OW 8152   4.761   4.405   5.908
 2418SOL    HW1 8153   4.794   4.414   6.002
 2418SOL    HW2 8154   4.776   4.312   5.876
 2419SOL     OW 8155   2.058   6.701   4.436
 2419SOL    HW1 8156   2.072   6.799   4.453
 2419SOL    HW2 8157   1.960   6.681   4.436
 2420SOL     OW 8158   3.516   5.269   2.333
 2420SOL    HW1 8159   3.485   5.336   2.401
 2420SOL    HW2 8160   3.439   5.213   2.303
 2421SOL     OW 8161   3.229   0.016   4.433
 2421SOL    HW1 8162   3.285   7.013   4.511
 2421SOL    HW2 8163   3.155   0.075   4.465
 2422SOL     OW 8164   3.989   6.555   2.142
 2422SOL    HW1 8165   3.900   6.515   2.163
 2422SOL    HW2 8166   4.037   6.499   2.075
 2423SOL     OW 8167   1.698   5.774   2.162
 2423SOL    HW1 8168   1.612   5.753   2.209
 2423SOL    HW2 8169   1.681   5.843   2.091
 2424SOL     OW 8170   5.287   0.419   6.610
 2424SOL    HW1 8171   5.372   0.387   6.569
 2424SOL    HW2 8172   5.307   0.485   6.683
 2425SOL     OW 8173   4.391   5.261   5.412
 2425SOL    HW1 8174   4.299   5.261   5.452
 2425SOL    HW2 8175   4.420   5.355   5.396
 2426SOL     OW 8176   1.191   5.240   5.526
 2426SOL    HW1 8177   1.168   5.292   5.608
 2426SOL    HW2 8178   1.121   5.171   5.510
 2427SOL     OW 8179   4.808   6.719   6.439
 2427SOL    HW1 8180   4.736   6.787   6.424
 2427SOL    HW2 8181   4.785   6.635   6.391
 2428SOL     OW 8182   0.244   1.742   3.974
 2428SOL    HW1 8183   0.197   1.828   3.953
 2428SOL    HW2 8184   0.184   1.665   3.951
 2429SOL     OW 8185   5.399   5.137   2.437
 2429SOL    HW1 8186   5.371   5.062   2.378
 2429SOL    HW2 8187   5.468   5.193   2.391
 2430SOL     OW 8188   5.849   2.576   0.184
 2430SOL    HW1 8189   5.880   2.587   0.278
 2430SOL    HW2 8190   5.929   2.573   0.123
 2431SOL     OW 8191   6.404   2.047   1.855
 2431SOL    HW1 8192   6.361   2.131   1.822
 2431SOL    HW2 8193   6.406   2.048   1.955
 2432SOL     OW 8194   3.313   5.522   2.042
 2432SOL    HW1 8195   3.220   5.525   2.005
 2432SOL    HW2 8196   3.345   5.428   2.045
 2433SOL     OW 8197   6.743   5.582   0.410
 2433SOL    HW1 8198   6.788   5.666   0.380
 2433SOL    HW2 8199   6.652   5.576   0.370
 2434SOL     OW 8200   3.710   2.125   3.022
 2434SOL    HW1 8201   3.731   2.055   2.954
 2434SOL    HW2 8202   3.627   2.174   2.995
 2435SOL     OW 8203   5.570   6.976   6.556
 2435SOL    HW1 8204   5.503   0.007   6.605
 2435SOL    HW2 8205   5.525   6.933   6.477
 2436SOL     OW 8206   1.001   1.153   1.264
 2436SOL    HW1 8207   0.926   1.211   1.297
 2436SOL    HW2 8208   1.046   1.110   1.343
 2437SOL     OW 8209   6.421   6.142   2.370
 2437SOL    HW1 8210   6.506   6.129   2.321
 2437SOL    HW2 8211   6.433   6.116   2.466
 2438SOL     OW 8212   3.135   2.045   4.454
 2438SOL    HW1 8213   3.159   2.093   4.370
 2438SOL    HW2 8214   3.195   2.076   4.528
 2439SOL     OW 8215   0.166   5.225   6.355
 2439SOL    HW1 8216   0.145   5.200   6.449
 2439SOL    HW2 8217   0.133   5.318   6.337
 2440SOL     OW 8218   4.004   0.970   4.677
 2440SOL    HW1 8219   4.086   0.956   4.622
 2440SOL    HW2 8220   3.925   0.929   4.630
 2441SOL     OW 8221   5.653   0.239   6.742
 2441SOL    HW1 8222   5.749   0.216   6.732
 2441SOL    HW2 8223   5.611   0.179   6.811
 2442SOL     OW 8224   5.150   3.667   1.934
 2442SOL    HW1 8225   5.185   3.598   1.871
 2442SOL    HW2 8226   5.050   3.667   1.931
 2443SOL     OW 8227   2.317   0.862   0.028
 2443SOL    HW1 8228   2.329   0.899   6.961
 2443SOL    HW2 8229   2.401   0.874   0.081
 2444SOL     OW 8230   4.748   5.176   0.629
 2444SOL    HW1 8231   4.673   5.241   0.623
 2444SOL    HW2 8232   4.815   5.210   0.696
 2445SOL     OW 8233   6.972   1.784   1.751
 2445SOL    HW1 8234   6.886   1.758   1.794
 2445SOL    HW2 8235   0.001   1.838   1.814
 2446SOL     OW 8236   1.235   3.001   1.765
 2446SOL    HW1 8237   1.166   2.932   1.788
 2446SOL    HW2 8238   1.248   3.061   1.844
 2447SOL     OW 8239   1.944   1.049   0.536
 2447SOL    HW1 8240   1.994   1.044   0.450
 2447SOL    HW2 8241   2.006   1.030   0.612
 2448SOL     OW 8242   5.931   1.985   4.379
 2448SOL    HW1 8243   5.935   2.002   4.477
 2448SOL    HW2 8244   6.024   1.974   4.344
 2449SOL     OW 8245   1.778   4.507   2.095
 2449SOL    HW1 8246   1.848   4.446   2.057
 2449SOL    HW2 8247   1.704   4.453   2.134
 2450SOL     OW 8248   2.639   5.206   6.738
 2450SOL    HW1 8249   2.567   5.260   6.781
 2450SOL    HW2 8250   2.717   5.265   6.717
 2451SOL     OW 8251   0.662   0.153   4.182
 2451SOL    HW1 8252   0.574   0.200   4.192
 2451SOL    HW2 8253   0.716   0.199   4.111
 2452SOL     OW 8254   2.195   2.584   3.194
 2452SOL    HW1 8255   2.195   2.633   3.107
 2452SOL    HW2 8256   2.199   2.485   3.177
 2453SOL     OW 8257   6.573   2.007   0.756
 2453SOL    HW1 8258   6.642   1.942   0.788
 2453SOL    HW2 8259   6.483   1.962   0.755
 2454SOL     OW 8260   3.275   5.598   0.634
 2454SOL    HW1 8261   3.272   5.692   0.667
 2454SOL    HW2 8262   3.253   5.536   0.709
 2455SOL     OW 8263   2.837   1.329   0.106
 2455SOL    HW1 8264   2.919   1.351   0.054
 2455SOL    HW2 8265   2.848   1.362   0.200
 2456SOL     OW 8266   0.869   3.719   6.876
 2456SOL    HW1 8267   0.773   3.733   6.850
 2456SOL    HW2 8268   0.876   3.640   6.937
 2457SOL     OW 8269   5.603   1.397   5.713
 2457SOL    HW1 8270   5.522   1.453   5.693
 2457SOL    HW2 8271   5.638   1.421   5.804
 2458SOL     OW 8272   0.677   0.614   3.023
 2458SOL    HW1 8273   0.628   0.668   3.092
 2458SOL    HW2 8274   0.776   0.621   3.040
 2459SOL     OW 8275   2.758   5.564   6.302
 2459SOL    HW1 8276   2.802   5.572   6.213
 2459SOL    HW2 8277   2.817   5.512   6.364
 2460SOL     OW 8278   0.890   1.059   6.895
 2460SOL    HW1 8279   0.850   1.041   6.984
 2460SOL    HW2 8280   0.912   1.157   6.888
 2461SOL     OW 8281   4.326   0.112   4.443
 2461SOL    HW1 8282   4.244   0.059   4.460
 2461SOL    HW2 8283   4.314   0.167   4.360
 2462SOL     OW 8284   0.872   4.695   0.601
 2462SOL    HW1 8285   0.946   4.630   0.619
 2462SOL    HW2 8286   0.786   4.646   0.589
 2463SOL     OW 8287   6.715   1.530   0.491
 2463SOL    HW1 8288   6.673   1.621   0.500
 2463SOL    HW2 8289   6.718   1.505   0.394
 2464SOL     OW 8290   0.444   2.544   3.056
 2464SOL    HW1 8291   0.508   2.552   2.979
 2464SOL    HW2 8292   0.432   2.633   3.099
 2465SOL     OW 8293   6.837   5.656   6.062
 2465SOL    HW1 8294   6.746   5.684   6.032
 2465SOL    HW2 8295   6.904   5.724   6.033
 2466SOL     OW 8296   1.698   1.717   1.960
 2466SOL    HW1 8297   1.639   1.798   1.967
 2466SOL    HW2 8298   1.771   1.733   1.894
 2467SOL     OW 8299   4.220   1.872   6.118
 2467SOL    HW1 8300   4.210   1.867   6.019
 2467SOL    HW2 8301   4.149   1.818   6.162
 2468SOL     OW 8302   3.976   0.483   6.527
 2468SOL    HW1 8303   4.067   0.490   6.566
 2468SOL    HW2 8304   3.929   0.403   6.565
 2469SOL     OW 8305   4.338   3.127   5.662
 2469SOL    HW1 8306   4.275   3.066   5.711
 2469SOL    HW2 8307   4.306   3.221   5.671
 2470SOL     OW 8308   4.225   4.419   5.984
 2470SOL    HW1 8309   4.182   4.500   5.944
 2470SOL    HW2 8310   4.292   4.448   6.052
 2471SOL     OW 8311   3.586   0.276   0.784
 2471SOL    HW1 8312   3.524   0.353   0.793
 2471SOL    HW2 8313   3.627   0.276   0.692
 2472SOL     OW 8314   4.508   2.377   3.507
 2472SOL    HW1 8315   4.499   2.347   3.602
 2472SOL    HW2 8316   4.417   2.388   3.467
 2473SOL     OW 8317   1.238   4.640   5.251
 2473SOL    HW1 8318   1.235   4.734   5.216
 2473SOL    HW2 8319   1.157   4.591   5.220
 2474SOL     OW 8320   1.366   5.518   0.464
 2474SOL    HW1 8321   1.463   5.498   0.479
 2474SOL    HW2 8322   1.328   5.453   0.398
 2475SOL     OW 8323   4.647   0.692   0.857
 2475SOL    HW1 8324   4.630   0.786   0.828
 2475SOL    HW2 8325   4.586   0.668   0.932
 2476SOL     OW 8326   5.661   0.619   2.636
 2476SOL    HW1 8327   5.642   0.683   2.711
 2476SOL    HW2 8328   5.598   0.542   2.641
 2477SOL     OW 8329   3.859   0.803   3.332
 2477SOL    HW1 8330   3.942   0.849   3.300
 2477SOL    HW2 8331   3.870   0.775   3.427
 2478SOL     OW 8332   4.683   0.780   2.097
 2478SOL    HW1 8333   4.678   0.715   2.174
 2478SOL    HW2 8334   4.709   0.870   2.132
 2479SOL     OW 8335   1.562   2.403   1.334
 2479SOL    HW1 8336   1.505   2.485   1.328
 2479SOL    HW2 8337   1.539   2.353   1.418
 2480SOL     OW 8338   3.936   2.554   1.419
 2480SOL    HW1 8339   3.887   2.640   1.402
 2480SOL    HW2 8340   3.958   2.546   1.516
 2481SOL     OW 8341   2.629   0.060   1.542
 2481SOL    HW1 8342   2.702   0.088   1.605
 2481SOL    HW2 8343   2.654   0.086   1.449
 2482SOL     OW 8344   5.541   3.676   0.095
 2482SOL    HW1 8345   5.571   3.772   0.094
 2482SOL    HW2 8346   5.588   3.628   0.169
 2483SOL     OW 8347   1.633   1.812   0.223
 2483SOL    HW1 8348   1.554   1.815   0.284
 2483SOL    HW2 8349   1.603   1.788   0.131
 2484SOL     OW 8350   3.364   0.748   0.138
 2484SOL    HW1 8351   3.317   0.660   0.145
 2484SOL    HW2 8352   3.297   0.822   0.138
 2485SOL     OW 8353   5.050   3.141   0.402
 2485SOL    HW1 8354   5.149   3.145   0.418
 2485SOL    HW2 8355   5.034   3.135   0.303
 2486SOL     OW 8356   0.628   5.486   5.804
 2486SOL    HW1 8357   0.621   5.440   5.716
 2486SOL    HW2 8358   0.712   5.541   5.805
 2487SOL     OW 8359   3.943   6.088   0.290
 2487SOL    HW1 8360   4.020   6.151   0.303
 2487SOL    HW2 8361   3.862   6.139   0.263
 2488SOL     OW 8362   0.528   3.145   1.782
 2488SOL    HW1 8363   0.586   3.141   1.700
 2488SOL    HW2 8364   0.585   3.158   1.863
 2489SOL     OW 8365   0.991   6.148   3.234
 2489SOL    HW1 8366   1.019   6.238   3.268
 2489SOL    HW2 8367   1.025   6.077   3.296
 2490SOL     OW 8368   0.860   5.847   1.068
 2490SOL    HW1 8369   0.922   5.870   1.143
 2490SOL    HW2 8370   0.778   5.904   1.074
 2491SOL     OW 8371   3.592   4.559   1.165
 2491SOL    HW1 8372   3.594   4.498   1.086
 2491SOL    HW2 8373   3.539   4.517   1.239
 2492SOL     OW 8374   4.661   3.238   1.161
 2492SOL    HW1 8375   4.602   3.162   1.184
 2492SOL    HW2 8376   4.696   3.281   1.244
 2493SOL     OW 8377   6.681   6.837   1.230
 2493SOL    HW1 8378   6.655   6.861   1.324
 2493SOL    HW2 8379   6.696   6.921   1.178
 2494SOL     OW 8380   5.810   3.829   2.101
 2494SOL    HW1 8381   5.870   3.888   2.155
 2494SOL    HW2 8382   5.760   3.885   2.035
 2495SOL     OW 8383   5.698   5.549   3.378
 2495SOL    HW1 8384   5.788   5.554   3.422
 2495SOL    HW2 8385   5.659   5.640   3.373
 2496SOL     OW 8386   0.398   3.214   6.624
 2496SOL    HW1 8387   0.459   3.152   6.575
 2496SOL    HW2 8388   0.303   3.194   6.600
 2497SOL     OW 8389   0.569   0.306   1.208
 2497SOL    HW1 8390   0.606   0.215   1.222
 2497SOL    HW2 8391   0.513   0.332   1.286
 2498SOL     OW 8392   3.336   2.152   5.460
 2498SOL    HW1 8393   3.390   2.174   5.379
 2498SOL    HW2 8394   3.277   2.229   5.484
 2499SOL     OW 8395   6.043   3.188   2.108
 2499SOL    HW1 8396   5.996   3.112   2.062
 2499SOL    HW2 8397   6.050   3.265   2.045
 2500SOL     OW 8398   3.660   4.097   6.572
 2500SOL    HW1 8399   3.575   4.139   6.602
 2500SOL    HW2 8400   3.669   4.108   6.473
 2501SOL     OW 8401   5.223   5.685   7.021
 2501SOL    HW1 8402   5.260   5.629   0.070
 2501SOL    HW2 8403   5.276   5.671   6.938
 2502SOL     OW 8404   1.659   0.654   4.751
 2502SOL    HW1 8405   1.730   0.724   4.746
 2502SOL    HW2 8406   1.607   0.665   4.836
 2503SOL     OW 8407   2.736   6.510   4.905
 2503SOL    HW1 8408   2.669   6.438   4.889
 2503SOL    HW2 8409   2.704   6.595   4.864
 2504SOL     OW 8410   3.835   5.704   3.433
 2504SOL    HW1 8411   3.764   5.761   3.393
 2504SOL    HW2 8412   3.851   5.733   3.528
 2505SOL     OW 8413   0.476   6.727   2.682
 2505SOL    HW1 8414   0.385   6.736   2.640
 2505SOL    HW2 8415   0.530   6.808   2.662
 2506SOL     OW 8416   6.843   2.912   6.479
 2506SOL    HW1 8417   6.870   2.882   6.387
 2506SOL    HW2 8418   6.806   2.834   6.529
 2507SOL     OW 8419   6.578   3.487   0.078
 2507SOL    HW1 8420   6.546   3.520   0.167
 2507SOL    HW2 8421   6.619   3.397   0.089
 2508SOL     OW 8422   2.720   1.688   3.623
 2508SOL    HW1 8423   2.796   1.624   3.634
 2508SOL    HW2 8424   2.755   1.781   3.622
 2509SOL     OW 8425   6.956   4.717   1.152
 2509SOL    HW1 8426   6.870   4.694   1.199
 2509SOL    HW2 8427   6.942   4.799   1.097
 2510SOL     OW 8428   2.763   4.542   0.900
 2510SOL    HW1 8429   2.825   4.512   0.973
 2510SOL    HW2 8430   2.774   4.483   0.820
 2511SOL     OW 8431   2.761   1.703   3.901
 2511SOL    HW1 8432   2.749   1.696   3.802
 2511SOL    HW2 8433   2.836   1.766   3.921
 2512SOL     OW 8434   4.490   3.816   5.443
 2512SOL    HW1 8435   4.509   3.744   5.376
 2512SOL    HW2 8436   4.539   3.797   5.527
 2513SOL     OW 8437   1.813   5.125   4.850
 2513SOL    HW1 8438   1.742   5.162   4.910
 2513SOL    HW2 8439   1.900   5.169   4.871
 2514SOL     OW 8440   0.636   3.577   5.266
 2514SOL    HW1 8441   0.580   3.651   5.229
 2514SOL    HW2 8442   0.579   3.516   5.321
 2515SOL     OW 8443   1.847   6.405   0.344
 2515SOL    HW1 8444   1.820   6.493   0.303
 2515SOL    HW2 8445   1.930   6.372   0.299
 2516SOL     OW 8446   4.858   1.608   2.564
 2516SOL    HW1 8447   4.765   1.607   2.528
 2516SOL    HW2 8448   4.916   1.666   2.507
 2517SOL     OW 8449   1.395   0.560   6.414
 2517SOL    HW1 8450   1.462   0.634   6.420
 2517SOL    HW2 8451   1.325   0.584   6.347
 2518SOL     OW 8452   1.385   5.540   1.142
 2518SOL    HW1 8453   1.338   5.460   1.104
 2518SOL    HW2 8454   1.481   5.517   1.159
 2519SOL     OW 8455   4.167   0.437   1.758
 2519SOL    HW1 8456   4.193   0.384   1.839
 2519SOL    HW2 8457   4.074   0.472   1.770
 2520SOL     OW 8458   3.328   1.756   1.092
 2520SOL    HW1 8459   3.344   1.787   0.998
 2520SOL    HW2 8460   3.320   1.657   1.094
 2521SOL     OW 8461   3.124   0.472   5.256
 2521SOL    HW1 8462   3.090   0.389   5.212
 2521SOL    HW2 8463   3.166   0.449   5.344
 2522SOL     OW 8464   0.841   1.662   5.451
 2522SOL    HW1 8465   0.744   1.677   5.436
 2522SOL    HW2 8466   0.892   1.687   5.368
 2523SOL     OW 8467   1.325   2.571   0.970
 2523SOL    HW1 8468   1.265   2.510   0.920
 2523SOL    HW2 8469   1.407   2.591   0.915
 2524SOL     OW 8470   0.103   6.482   5.103
 2524SOL    HW1 8471   0.143   6.533   5.179
 2524SOL    HW2 8472   0.160   6.494   5.021
 2525SOL     OW 8473   0.788   2.343   5.472
 2525SOL    HW1 8474   0.804   2.252   5.510
 2525SOL    HW2 8475   0.875   2.386   5.449
 2526SOL     OW 8476   1.661   4.543   6.805
 2526SOL    HW1 8477   1.758   4.522   6.808
 2526SOL    HW2 8478   1.609   4.462   6.778
 2527SOL     OW 8479   6.136   6.414   5.766
 2527SOL    HW1 8480   6.086   6.378   5.687
 2527SOL    HW2 8481   6.207   6.478   5.734
 2528SOL     OW 8482   5.657   5.033   6.413
 2528SOL    HW1 8483   5.701   5.121   6.392
 2528SOL    HW2 8484   5.710   4.986   6.484
 2529SOL     OW 8485   6.587   6.228   6.715
 2529SOL    HW1 8486   6.608   6.134   6.741
 2529SOL    HW2 8487   6.493   6.250   6.743
 2530SOL     OW 8488   2.343   6.166   4.934
 2530SOL    HW1 8489   2.257   6.133   4.897
 2530SOL    HW2 8490   2.366   6.254   4.893
 2531SOL     OW 8491   5.505   5.841   4.703
 2531SOL    HW1 8492   5.496   5.937   4.677
 2531SOL    HW2 8493   5.531   5.835   4.799
 2532SOL     OW 8494   0.163   6.151   0.587
 2532SOL    HW1 8495   0.221   6.224   0.551
 2532SOL    HW2 8496   0.130   6.094   0.512
 2533SOL     OW 8497   4.134   0.215   3.684
 2533SOL    HW1 8498   4.218   0.174   3.721
 2533SOL    HW2 8499   4.132   0.202   3.585
 2534SOL     OW 8500   3.673   1.563   1.859
 2534SOL    HW1 8501   3.720   1.481   1.893
 2534SOL    HW2 8502   3.701   1.642   1.914
 2535SOL     OW 8503   3.536   3.674   6.034
 2535SOL    HW1 8504   3.633   3.685   6.057
 2535SOL    HW2 8505   3.527   3.637   5.942
 2536SOL     OW 8506   1.394   1.419   6.017
 2536SOL    HW1 8507   1.399   1.345   6.085
 2536SOL    HW2 8508   1.486   1.436   5.981
 2537SOL     OW 8509   3.676   0.154   6.362
 2537SOL    HW1 8510   3.679   0.170   6.461
 2537SOL    HW2 8511   3.582   0.158   6.330
 2538SOL     OW 8512   0.654   4.308   3.718
 2538SOL    HW1 8513   0.735   4.276   3.668
 2538SOL    HW2 8514   0.580   4.327   3.653
 2539SOL     OW 8515   5.618   1.049   4.552
 2539SOL    HW1 8516   5.718   1.059   4.546
 2539SOL    HW2 8517   5.588   0.979   4.488
 2540SOL     OW 8518   3.896   2.139   2.694
 2540SOL    HW1 8519   3.931   2.199   2.766
 2540SOL    HW2 8520   3.821   2.084   2.732
 2541SOL     OW 8521   3.631   1.059   4.466
 2541SOL    HW1 8522   3.570   0.983   4.489
 2541SOL    HW2 8523   3.577   1.143   4.458
 2542SOL     OW 8524   3.689   3.252   6.197
 2542SOL    HW1 8525   3.613   3.303   6.157
 2542SOL    HW2 8526   3.770   3.261   6.139
 2543SOL     OW 8527   0.415   0.734   3.761
 2543SOL    HW1 8528   0.366   0.666   3.706
 2543SOL    HW2 8529   0.368   0.744   3.849
 2544SOL     OW 8530   0.639   6.225   0.746
 2544SOL    HW1 8531   0.621   6.164   0.670
 2544SOL    HW2 8532   0.556   6.235   0.801
 2545SOL     OW 8533   1.623   0.012   1.829
 2545SOL    HW1 8534   1.707   0.011   1.775
 2545SOL    HW2 8535   1.561   6.966   1.796
 2546SOL     OW 8536   6.546   1.697   2.155
 2546SOL    HW1 8537   6.586   1.738   2.073
 2546SOL    HW2 8538   6.464   1.747   2.181
 2547SOL     OW 8539   0.027   4.057   0.225
 2547SOL    HW1 8540   0.018   4.142   0.173
 2547SOL    HW2 8541   0.049   4.077   0.320
 2548SOL     OW 8542   1.117   6.768   4.741
 2548SOL    HW1 8543   1.078   6.860   4.734
 2548SOL    HW2 8544   1.098   6.732   4.832
 2549SOL     OW 8545   0.898   0.404   0.974
 2549SOL    HW1 8546   0.820   0.462   0.998
 2549SOL    HW2 8547   0.907   0.331   1.041
 2550SOL     OW 8548   7.016   0.342   6.943
 2550SOL    HW1 8549   0.020   0.350   6.847
 2550SOL    HW2 8550   6.941   0.276   6.949
 2551SOL     OW 8551   3.330   4.709   0.467
 2551SOL    HW1 8552   3.380   4.779   0.415
 2551SOL    HW2 8553   3.376   4.621   0.458
 2552SOL     OW 8554   1.607   6.007   4.430
 2552SOL    HW1 8555   1.648   6.005   4.338
 2552SOL    HW2 8556   1.673   6.043   4.495
 2553SOL     OW 8557   4.112   3.625   5.814
 2553SOL    HW1 8558   4.127   3.662   5.722
 2553SOL    HW2 8559   4.129   3.697   5.882
 2554SOL     OW 8560   2.800   0.497   0.370
 2554SOL    HW1 8561   2.811   0.490   0.271
 2554SOL    HW2 8562   2.744   0.421   0.403
 2555SOL     OW 8563   6.012   0.743   5.061
 2555SOL    HW1 8564   6.028   0.737   4.962
 2555SOL    HW2 8565   6.049   0.662   5.106
 2556SOL     OW 8566   4.082   6.338   0.328
 2556SOL    HW1 8567   4.153   6.408   0.319
 2556SOL    HW2 8568   4.024   6.360   0.407
 2557SOL     OW 8569   2.303   4.170   0.250
 2557SOL    HW1 8570   2.323   4.188   0.347
 2557SOL    HW2 8571   2.262   4.080   0.241
 2558SOL     OW 8572   4.953   1.568   5.128
 2558SOL    HW1 8573   4.983   1.602   5.039
 2558SOL    HW2 8574   5.033   1.560   5.188
 2559SOL     OW 8575   0.818   4.207   5.396
 2559SOL    HW1 8576   0.913   4.177   5.409
 2559SOL    HW2 8577   0.756   4.138   5.431
 2560SOL     OW 8578   5.890   2.631   5.334
 2560SOL    HW1 8579   5.984   2.640   5.366
 2560SOL    HW2 8580   5.863   2.535   5.334
 2561SOL     OW 8581   2.908   5.577   5.472
 2561SOL    HW1 8582   2.913   5.494   5.417
 2561SOL    HW2 8583   2.926   5.657   5.415
 2562SOL     OW 8584   2.414   5.397   1.506
 2562SOL    HW1 8585   2.442   5.451   1.426
 2562SOL    HW2 8586   2.474   5.318   1.515
 2563SOL     OW 8587   3.310   1.732   0.812
 2563SOL    HW1 8588   3.364   1.651   0.790
 2563SOL    HW2 8589   3.213   1.712   0.796
 2564SOL     OW 8590   2.250   5.629   6.882
 2564SOL    HW1 8591   2.179   5.628   6.952
 2564SOL    HW2 8592   2.210   5.606   6.793
 2565SOL     OW 8593   1.058   0.058   6.499
 2565SOL    HW1 8594   1.077   6.989   6.469
 2565SOL    HW2 8595   1.143   0.099   6.533
 2566SOL     OW 8596   2.263   0.237   0.886
 2566SOL    HW1 8597   2.264   0.150   0.934
 2566SOL    HW2 8598   2.340   0.242   0.823
 2567SOL     OW 8599   1.342   0.492   0.838
 2567SOL    HW1 8600   1.329   0.461   0.933
 2567SOL    HW2 8601   1.434   0.530   0.828
 2568SOL     OW 8602   4.005   1.488   6.924
 2568SOL    HW1 8603   3.919   1.539   6.935
 2568SOL    HW2 8604   3.999   1.429   6.844
 2569SOL     OW 8605   3.166   0.284   2.155
 2569SOL    HW1 8606   3.226   0.220   2.106
 2569SOL    HW2 8607   3.167   0.262   2.253
 2570SOL     OW 8608   5.821   0.005   6.156
 2570SOL    HW1 8609   5.778   0.088   6.118
 2570SOL    HW2 8610   5.830   0.016   6.255
 2571SOL     OW 8611   2.176   4.668   4.773
 2571SOL    HW1 8612   2.256   4.613   4.797
 2571SOL    HW2 8613   2.102   4.649   4.837
 2572SOL     OW 8614   2.900   6.050   1.249
 2572SOL    HW1 8615   2.855   5.986   1.312
 2572SOL    HW2 8616   2.835   6.121   1.222
 2573SOL     OW 8617   0.204   1.699   1.665
 2573SOL    HW1 8618   0.142   1.749   1.726
 2573SOL    HW2 8619   0.272   1.761   1.628
 2574SOL     OW 8620   5.933   4.094   0.694
 2574SOL    HW1 8621   5.877   4.035   0.751
 2574SOL    HW2 8622   5.884   4.116   0.609
 2575SOL     OW 8623   5.051   6.162   0.583
 2575SOL    HW1 8624   4.996   6.080   0.602
 2575SOL    HW2 8625   5.052   6.178   0.484
 2576SOL     OW 8626   4.405   6.814   4.756
 2576SOL    HW1 8627   4.355   6.741   4.710
 2576SOL    HW2 8628   4.478   6.848   4.695
 2577SOL     OW 8629   4.075   6.586   2.401
 2577SOL    HW1 8630   4.024   6.569   2.485
 2577SOL    HW2 8631   4.011   6.596   2.325
 2578SOL     OW 8632   4.497   1.701   4.273
 2578SOL    HW1 8633   4.509   1.705   4.174
 2578SOL    HW2 8634   4.543   1.780   4.315
 2579SOL     OW 8635   1.355   6.948   3.544
 2579SOL    HW1 8636   1.431   6.883   3.544
 2579SOL    HW2 8637   1.290   6.923   3.616
 2580SOL     OW 8638   2.872   4.507   6.226
 2580SOL    HW1 8639   2.874   4.501   6.126
 2580SOL    HW2 8640   2.777   4.498   6.258
 2581SOL     OW 8641   2.245   5.068   2.209
 2581SOL    HW1 8642   2.166   5.060   2.147
 2581SOL    HW2 8643   2.253   4.985   2.264
 2582SOL     OW 8644   0.252   4.150   1.141
 2582SOL    HW1 8645   0.253   4.142   1.041
 2582SOL    HW2 8646   0.346   4.155   1.175
 2583SOL     OW 8647   0.924   1.656   6.626
 2583SOL    HW1 8648   0.872   1.732   6.588
 2583SOL    HW2 8649   0.862   1.578   6.642
 2584SOL     OW 8650   5.032   5.527   6.085
 2584SOL    HW1 8651   4.975   5.448   6.060
 2584SOL    HW2 8652   5.110   5.533   6.023
 2585SOL     OW 8653   3.532   3.233   0.933
 2585SOL    HW1 8654   3.477   3.197   1.009
 2585SOL    HW2 8655   3.625   3.197   0.940
 2586SOL     OW 8656   3.190   0.500   4.961
 2586SOL    HW1 8657   3.098   0.513   4.998
 2586SOL    HW2 8658   3.250   0.571   4.998
 2587SOL     OW 8659   5.746   1.230   3.514
 2587SOL    HW1 8660   5.817   1.229   3.584
 2587SOL    HW2 8661   5.769   1.298   3.444
 2588SOL     OW 8662   4.518   1.748   5.834
 2588SOL    HW1 8663   4.464   1.693   5.896
 2588SOL    HW2 8664   4.521   1.705   5.744
 2589SOL     OW 8665   1.460   6.591   5.959
 2589SOL    HW1 8666   1.373   6.638   5.976
 2589SOL    HW2 8667   1.449   6.493   5.973
 2590SOL     OW 8668   3.975   5.062   0.552
 2590SOL    HW1 8669   4.048   5.049   0.619
 2590SOL    HW2 8670   4.010   5.041   0.461
 2591SOL     OW 8671   6.909   4.549   3.493
 2591SOL    HW1 8672   6.977   4.562   3.421
 2591SOL    HW2 8673   6.920   4.621   3.562
 2592SOL     OW 8674   3.539   4.672   6.830
 2592SOL    HW1 8675   3.585   4.648   6.915
 2592SOL    HW2 8676   3.471   4.603   6.808
 2593SOL     OW 8677   3.784   5.711   0.410
 2593SOL    HW1 8678   3.735   5.625   0.401
 2593SOL    HW2 8679   3.830   5.734   0.324
 2594SOL     OW 8680   2.229   3.679   6.092
 2594SOL    HW1 8681   2.243   3.745   6.019
 2594SOL    HW2 8682   2.305   3.683   6.157
 2595SOL     OW 8683   0.017   0.707   3.959
 2595SOL    HW1 8684   6.998   0.733   4.044
 2595SOL    HW2 8685   0.114   0.730   3.963
 2596SOL     OW 8686   2.978   2.129   1.782
 2596SOL    HW1 8687   2.978   2.206   1.847
 2596SOL    HW2 8688   2.915   2.150   1.707
 2597SOL     OW 8689   0.410   5.141   6.244
 2597SOL    HW1 8690   0.327   5.157   6.297
 2597SOL    HW2 8691   0.425   5.217   6.181
 2598SOL     OW 8692   6.736   1.598   2.316
 2598SOL    HW1 8693   6.662   1.645   2.267
 2598SOL    HW2 8694   6.718   1.601   2.414
 2599SOL     OW 8695   1.607   5.697   0.623
 2599SOL    HW1 8696   1.622   5.613   0.571
 2599SOL    HW2 8697   1.577   5.770   0.562
 2600SOL     OW 8698   5.705   2.866   5.106
 2600SOL    HW1 8699   5.627   2.834   5.052
 2600SOL    HW2 8700   5.706   2.966   5.107
 2601SOL     OW 8701   1.243   1.475   1.038
 2601SOL    HW1 8702   1.248   1.408   1.112
 2601SOL    HW2 8703   1.265   1.566   1.074
 2602SOL     OW 8704   1.515   4.736   5.189
 2602SOL    HW1 8705   1.429   4.714   5.236
 2602SOL    HW2 8706   1.500   4.734   5.091
 2603SOL     OW 8707   3.172   1.092   2.849
 2603SOL    HW1 8708   3.171   1.016   2.784
 2603SOL    HW2 8709   3.217   1.062   2.934
 2604SOL     OW 8710   4.885   2.086   2.712
 2604SOL    HW1 8711   4.854   2.132   2.629
 2604SOL    HW2 8712   4.941   2.149   2.766
 2605SOL     OW 8713   1.501   3.241   2.370
 2605SOL    HW1 8714   1.559   3.291   2.435
 2605SOL    HW2 8715   1.508   3.284   2.280
 2606SOL     OW 8716   5.811   5.018   2.015
 2606SOL    HW1 8717   5.896   5.060   1.981
 2606SOL    HW2 8718   5.792   4.935   1.964
 2607SOL     OW 8719   0.645   1.255   1.136
 2607SOL    HW1 8720   0.725   1.218   1.088
 2607SOL    HW2 8721   0.599   1.182   1.187
 2608SOL     OW 8722   4.168   5.437   0.549
 2608SOL    HW1 8723   4.216   5.350   0.552
 2608SOL    HW2 8724   4.075   5.423   0.514
 2609SOL     OW 8725   5.973   1.520   1.988
 2609SOL    HW1 8726   6.010   1.559   2.072
 2609SOL    HW2 8727   5.888   1.568   1.964
 2610SOL     OW 8728   0.647   4.629   4.158
 2610SOL    HW1 8729   0.647   4.579   4.072
 2610SOL    HW2 8730   0.561   4.679   4.168
 2611SOL     OW 8731   4.587   6.510   6.886
 2611SOL    HW1 8732   4.562   6.413   6.888
 2611SOL    HW2 8733   4.678   6.520   6.846
 2612SOL     OW 8734   5.993   6.602   4.526
 2612SOL    HW1 8735   5.967   6.597   4.623
 2612SOL    HW2 8736   5.913   6.621   4.470
 2613SOL     OW 8737   2.216   5.204   6.470
 2613SOL    HW1 8738   2.303   5.200   6.421
 2613SOL    HW2 8739   2.166   5.119   6.456
 2614SOL     OW 8740   6.155   1.488   6.848
 2614SOL    HW1 8741   6.117   1.448   6.764
 2614SOL    HW2 8742   6.112   1.576   6.866
 2615SOL     OW 8743   0.988   3.326   0.840
 2615SOL    HW1 8744   1.024   3.365   0.925
 2615SOL    HW2 8745   1.063   3.313   0.776
 2616SOL     OW 8746   1.301   1.824   6.026
 2616SOL    HW1 8747   1.324   1.917   6.056
 2616SOL    HW2 8748   1.209   1.801   6.059
 2617SOL     OW 8749   4.811   0.885   0.566
 2617SOL    HW1 8750   4.722   0.913   0.529
 2617SOL    HW2 8751   4.806   0.882   0.666
 2618SOL     OW 8752   0.749   6.352   4.658
 2618SOL    HW1 8753   0.760   6.444   4.694
 2618SOL    HW2 8754   0.835   6.323   4.615
 2619SOL     OW 8755   4.560   1.764   1.707
 2619SOL    HW1 8756   4.470   1.740   1.670
 2619SOL    HW2 8757   4.626   1.693   1.684
 2620SOL     OW 8758   6.476   0.542   2.571
 2620SOL    HW1 8759   6.415   0.489   2.512
 2620SOL    HW2 8760   6.423   0.612   2.619
 2621SOL     OW 8761   1.285   4.785   2.552
 2621SOL    HW1 8762   1.223   4.852   2.593
 2621SOL    HW2 8763   1.347   4.832   2.489
 2622SOL     OW 8764   3.080   3.411   5.694
 2622SOL    HW1 8765   3.099   3.317   5.724
 2622SOL    HW2 8766   3.038   3.462   5.769
 2623SOL     OW 8767   0.572   0.795   5.002
 2623SOL    HW1 8768   0.619   0.707   5.005
 2623SOL    HW2 8769   0.639   0.869   5.001
 2624SOL     OW 8770   6.480   2.398   4.522
 2624SOL    HW1 8771   6.400   2.349   4.557
 2624SOL    HW2 8772   6.557   2.335   4.515
 2625SOL     OW 8773   2.055   4.328   5.632
 2625SOL    HW1 8774   1.987   4.360   5.699
 2625SOL    HW2 8775   2.110   4.406   5.601
 2626SOL     OW 8776   6.658   7.022   6.069
 2626SOL    HW1 8777   6.647   6.923   6.059
 2626SOL    HW2 8778   6.719   0.032   5.997
 2627SOL     OW 8779   0.760   0.849   6.180
 2627SOL    HW1 8780   0.663   0.854   6.156
 2627SOL    HW2 8781   0.812   0.911   6.120
 2628SOL     OW 8782   1.897   3.779   4.802
 2628SOL    HW1 8783   1.906   3.793   4.901
 2628SOL    HW2 8784   1.887   3.681   4.784
 2629SOL     OW 8785   4.103   3.429   2.823
 2629SOL    HW1 8786   4.123   3.333   2.802
 2629SOL    HW2 8787   4.004   3.443   2.824
 2630SOL     OW 8788   3.677   1.735   3.888
 2630SOL    HW1 8789   3.635   1.755   3.976
 2630SOL    HW2 8790   3.632   1.791   3.817
 2631SOL     OW 8791   5.616   0.715   6.582
 2631SOL    HW1 8792   5.663   0.737   6.497
 2631SOL    HW2 8793   5.664   0.641   6.628
 2632SOL     OW 8794   6.329   3.505   1.309
 2632SOL    HW1 8795   6.414   3.496   1.255
 2632SOL    HW2 8796   6.322   3.598   1.345
 2633SOL     OW 8797   6.680   2.083   5.435
 2633SOL    HW1 8798   6.590   2.058   5.398
 2633SOL    HW2 8799   6.707   2.173   5.399
 2634SOL     OW 8800   0.716   5.894   3.592
 2634SOL    HW1 8801   0.617   5.889   3.599
 2634SOL    HW2 8802   0.756   5.893   3.684
 2635SOL     OW 8803   6.375   5.611   4.046
 2635SOL    HW1 8804   6.388   5.518   4.080
 2635SOL    HW2 8805   6.370   5.675   4.123
 2636SOL     OW 8806   4.001   0.711   0.104
 2636SOL    HW1 8807   3.908   0.730   0.135
 2636SOL    HW2 8808   4.000   0.637   0.036
 2637SOL     OW 8809   6.416   1.601   3.943
 2637SOL    HW1 8810   6.316   1.593   3.938
 2637SOL    HW2 8811   6.453   1.612   3.850
 2638SOL     OW 8812   0.294   0.126   4.643
 2638SOL    HW1 8813   0.248   0.184   4.575
 2638SOL    HW2 8814   0.377   0.087   4.603
 2639SOL     OW 8815   5.008   5.200   5.410
 2639SOL    HW1 8816   4.946   5.268   5.447
 2639SOL    HW2 8817   4.955   5.125   5.370
 2640SOL     OW 8818   6.924   0.122   5.079
 2640SOL    HW1 8819   6.978   0.206   5.078
 2640SOL    HW2 8820   6.965   0.056   5.143
 2641SOL     OW 8821   4.680   2.218   1.163
 2641SOL    HW1 8822   4.715   2.311   1.175
 2641SOL    HW2 8823   4.588   2.212   1.201
 2642SOL     OW 8824   5.932   0.729   3.583
 2642SOL    HW1 8825   5.966   0.683   3.665
 2642SOL    HW2 8826   5.916   0.826   3.604
 2643SOL     OW 8827   1.771   3.211   4.058
 2643SOL    HW1 8828   1.752   3.266   4.140
 2643SOL    HW2 8829   1.864   3.229   4.027
 2644SOL     OW 8830   4.852   5.417   5.048
 2644SOL    HW1 8831   4.909   5.343   5.013
 2644SOL    HW2 8832   4.763   5.416   5.002
 2645SOL     OW 8833   5.559   4.681   3.815
 2645SOL    HW1 8834   5.605   4.636   3.892
 2645SOL    HW2 8835   5.531   4.612   3.748
 2646SOL     OW 8836   0.570   3.724   6.832
 2646SOL    HW1 8837   0.552   3.809   6.882
 2646SOL    HW2 8838   0.500   3.713   6.761
 2647SOL     OW 8839   5.669   6.670   1.988
 2647SOL    HW1 8840   5.594   6.697   2.048
 2647SOL    HW2 8841   5.645   6.586   1.940
 2648SOL     OW 8842   0.488   6.573   4.070
 2648SOL    HW1 8843   0.391   6.570   4.091
 2648SOL    HW2 8844   0.516   6.668   4.053
 2649SOL     OW 8845   5.273   3.235   1.865
 2649SOL    HW1 8846   5.344   3.168   1.844
 2649SOL    HW2 8847   5.211   3.198   1.934
 2650SOL     OW 8848   2.572   5.617   4.792
 2650SOL    HW1 8849   2.514   5.591   4.869
 2650SOL    HW2 8850   2.612   5.535   4.750
 2651SOL     OW 8851   3.420   1.287   6.895
 2651SOL    HW1 8852   3.388   1.200   6.859
 2651SOL    HW2 8853   3.366   1.312   6.975
 2652SOL     OW 8854   5.044   3.612   5.551
 2652SOL    HW1 8855   4.998   3.684   5.604
 2652SOL    HW2 8856   5.036   3.525   5.598
 2653SOL     OW 8857   3.714   6.216   5.808
 2653SOL    HW1 8858   3.761   6.240   5.892
 2653SOL    HW2 8859   3.623   6.179   5.829
 2654SOL     OW 8860   5.573   6.594   0.942
 2654SOL    HW1 8861   5.647   6.654   0.972
 2654SOL    HW2 8862   5.568   6.593   0.842
 2655SOL     OW 8863   4.734   5.820   3.532
 2655SOL    HW1 8864   4.687   5.887   3.475
 2655SOL    HW2 8865   4.821   5.859   3.563
 2656SOL     OW 8866   3.339   5.262   3.902
 2656SOL    HW1 8867   3.406   5.239   3.973
 2656SOL    HW2 8868   3.255   5.211   3.919
 2657SOL     OW 8869   2.087   3.207   0.624
 2657SOL    HW1 8870   2.140   3.241   0.547
 2657SOL    HW2 8871   2.143   3.146   0.679
 2658SOL     OW 8872   4.715   4.397   0.349
 2658SOL    HW1 8873   4.665   4.449   0.280
 2658SOL    HW2 8874   4.713   4.300   0.324
 2659SOL     OW 8875   4.771   2.901   4.893
 2659SOL    HW1 8876   4.726   2.814   4.875
 2659SOL    HW2 8877   4.787   2.949   4.806
 2660SOL     OW 8878   0.549   1.001   1.003
 2660SOL    HW1 8879   0.506   1.086   0.975
 2660SOL    HW2 8880   0.648   1.007   0.989
 2661SOL     OW 8881   1.778   0.528   1.893
 2661SOL    HW1 8882   1.805   0.607   1.838
 2661SOL    HW2 8883   1.822   0.446   1.857
 2662SOL     OW 8884   2.572   0.667   3.529
 2662SOL    HW1 8885   2.497   0.733   3.517
 2662SOL    HW2 8886   2.615   0.650   3.440
 2663SOL     OW 8887   3.937   6.016   5.705
 2663SOL    HW1 8888   3.938   5.944   5.775
 2663SOL    HW2 8889   3.858   6.075   5.719
 2664SOL     OW 8890   3.618   3.107   5.946
 2664SOL    HW1 8891   3.638   3.029   5.887
 2664SOL    HW2 8892   3.583   3.075   6.034
 2665SOL     OW 8893   2.428   3.498   5.351
 2665SOL    HW1 8894   2.426   3.398   5.346
 2665SOL    HW2 8895   2.520   3.531   5.331
 2666SOL     OW 8896   1.563   3.439   1.875
 2666SOL    HW1 8897   1.535   3.493   1.795
 2666SOL    HW2 8898   1.623   3.365   1.845
 2667SOL     OW 8899   0.878   5.434   3.774
 2667SOL    HW1 8900   0.841   5.469   3.688
 2667SOL    HW2 8901   0.937   5.502   3.815
 2668SOL     OW 8902   5.613   2.761   4.075
 2668SOL    HW1 8903   5.697   2.748   4.022
 2668SOL    HW2 8904   5.608   2.689   4.145
 2669SOL     OW 8905   2.988   5.802   6.593
 2669SOL    HW1 8906   3.081   5.836   6.610
 2669SOL    HW2 8907   2.934   5.810   6.676
 2670SOL     OW 8908   6.101   2.090   5.405
 2670SOL    HW1 8909   6.075   2.014   5.345
 2670SOL    HW2 8910   6.027   2.108   5.469
 2671SOL     OW 8911   4.098   6.100   6.270
 2671SOL    HW1 8912   4.045   6.103   6.185
 2671SOL    HW2 8913   4.087   6.011   6.313
 2672SOL     OW 8914   3.223   0.394   1.704
 2672SOL    HW1 8915   3.266   0.447   1.631
 2672SOL    HW2 8916   3.259   0.300   1.703
 2673SOL     OW 8917   5.439   1.301   2.475
 2673SOL    HW1 8918   5.343   1.323   2.491
 2673SOL    HW2 8919   5.497   1.353   2.538
 2674SOL     OW 8920   1.697   4.869   3.775
 2674SOL    HW1 8921   1.771   4.830   3.719
 2674SOL    HW2 8922   1.704   4.969   3.774
 2675SOL     OW 8923   0.147   6.956   3.732
 2675SOL    HW1 8924   0.072   7.021   3.732
 2675SOL    HW2 8925   0.191   6.956   3.822
 2676SOL     OW 8926   3.279   3.665   2.442
 2676SOL    HW1 8927   3.189   3.678   2.400
 2676SOL    HW2 8928   3.332   3.749   2.432
 2677SOL     OW 8929   3.253   4.508   0.917
 2677SOL    HW1 8930   3.223   4.439   0.851
 2677SOL    HW2 8931   3.318   4.570   0.873
 2678SOL     OW 8932   0.021   2.924   2.017
 2678SOL    HW1 8933   6.995   2.948   2.099
 2678SOL    HW2 8934   6.991   2.946   1.936
 2679SOL     OW 8935   2.186   5.289   2.755
 2679SOL    HW1 8936   2.110   5.316   2.815
 2679SOL    HW2 8937   2.153   5.220   2.690
 2680SOL     OW 8938   1.168   2.734   0.230
 2680SOL    HW1 8939   1.233   2.799   0.192
 2680SOL    HW2 8940   1.191   2.714   0.325
 2681SOL     OW 8941   1.430   2.921   5.040
 2681SOL    HW1 8942   1.420   3.015   5.007
 2681SOL    HW2 8943   1.514   2.913   5.093
 2682SOL     OW 8944   5.124   4.272   2.620
 2682SOL    HW1 8945   5.072   4.190   2.648
 2682SOL    HW2 8946   5.174   4.252   2.535
 2683SOL     OW 8947   1.905   4.331   2.507
 2683SOL    HW1 8948   1.920   4.258   2.574
 2683SOL    HW2 8949   1.915   4.419   2.553
 2684SOL     OW 8950   5.346   6.460   1.600
 2684SOL    HW1 8951   5.344   6.517   1.682
 2684SOL    HW2 8952   5.253   6.446   1.566
 2685SOL     OW 8953   6.758   4.803   4.656
 2685SOL    HW1 8954   6.824   4.729   4.642
 2685SOL    HW2 8955   6.699   4.812   4.576
 2686SOL     OW 8956   1.209   1.506   5.272
 2686SOL    HW1 8957   1.154   1.582   5.236
 2686SOL    HW2 8958   1.204   1.506   5.372
 2687SOL     OW 8959   4.021   6.629   1.268
 2687SOL    HW1 8960   4.120   6.612   1.270
 2687SOL    HW2 8961   4.001   6.714   1.318
 2688SOL     OW 8962   3.176   2.152   0.761
 2688SOL    HW1 8963   3.185   2.244   0.724
 2688SOL    HW2 8964   3.260   2.100   0.741
 2689SOL     OW 8965   0.354   3.921   2.316
 2689SOL    HW1 8966   0.436   3.939   2.369
 2689SOL    HW2 8967   0.369   3.842   2.256
 2690SOL     OW 8968   2.919   3.264   6.766
 2690SOL    HW1 8969   2.859   3.343   6.777
 2690SOL    HW2 8970   2.909   3.203   6.845
 2691SOL     OW 8971   0.295   4.881   4.128
 2691SOL    HW1 8972   0.349   4.855   4.048
 2691SOL    HW2 8973   0.295   4.981   4.137
 2692SOL     OW 8974   2.490   6.067   3.096
 2692SOL    HW1 8975   2.456   6.059   3.190
 2692SOL    HW2 8976   2.565   6.133   3.094
 2693SOL     OW 8977   1.896   5.071   4.201
 2693SOL    HW1 8978   1.905   5.171   4.210
 2693SOL    HW2 8979   1.975   5.036   4.151
 2694SOL     OW 8980   3.761   6.297   3.179
 2694SOL    HW1 8981   3.825   6.342   3.241
 2694SOL    HW2 8982   3.798   6.298   3.086
 2695SOL     OW 8983   6.050   0.235   3.176
 2695SOL    HW1 8984   6.017   0.282   3.258
 2695SOL    HW2 8985   6.003   0.271   3.095
 2696SOL     OW 8986   4.685   4.011   6.344
 2696SOL    HW1 8987   4.784   4.017   6.335
 2696SOL    HW2 8988   4.656   4.053   6.429
 2697SOL     OW 8989   4.524   1.220   1.668
 2697SOL    HW1 8990   4.435   1.262   1.683
 2697SOL    HW2 8991   4.515   1.120   1.666
 2698SOL     OW 8992   1.809   4.890   6.747
 2698SOL    HW1 8993   1.865   4.969   6.771
 2698SOL    HW2 8994   1.766   4.853   6.829
 2699SOL     OW 8995   2.754   5.881   1.416
 2699SOL    HW1 8996   2.678   5.946   1.423
 2699SOL    HW2 8997   2.777   5.847   1.507
 2700SOL     OW 8998   2.433   1.645   0.865
 2700SOL    HW1 8999   2.374   1.676   0.791
 2700SOL    HW2 9000   2.378   1.591   0.930
 2701SOL     OW 9001   5.372   2.574   5.685
 2701SOL    HW1 9002   5.448   2.635   5.711
 2701SOL    HW2 9003   5.286   2.613   5.716
 2702SOL     OW 9004   1.320   1.998   3.896
 2702SOL    HW1 9005   1.229   2.007   3.935
 2702SOL    HW2 9006   1.367   2.087   3.898
 2703SOL     OW 9007   1.561   5.816   1.076
 2703SOL    HW1 9008   1.589   5.779   1.164
 2703SOL    HW2 9009   1.502   5.750   1.029
 2704SOL     OW 9010   6.697   5.626   2.647
 2704SOL    HW1 9011   6.728   5.531   2.646
 2704SOL    HW2 9012   6.739   5.674   2.724
 2705SOL     OW 9013   6.583   1.150   5.745
 2705SOL    HW1 9014   6.559   1.087   5.819
 2705SOL    HW2 9015   6.677   1.133   5.716
 2706SOL     OW 9016   6.269   4.582   4.562
 2706SOL    HW1 9017   6.194   4.647   4.548
 2706SOL    HW2 9018   6.278   4.524   4.481
 2707SOL     OW 9019   3.915   6.173   3.746
 2707SOL    HW1 9020   3.893   6.268   3.725
 2707SOL    HW2 9021   3.933   6.164   3.844
 2708SOL     OW 9022   6.582   2.723   0.270
 2708SOL    HW1 9023   6.651   2.749   0.337
 2708SOL    HW2 9024   6.627   2.685   0.189
 2709SOL     OW 9025   4.781   6.509   6.068
 2709SOL    HW1 9026   4.784   6.483   6.164
 2709SOL    HW2 9027   4.829   6.595   6.055
 2710SOL     OW 9028   1.878   2.877   3.719
 2710SOL    HW1 9029   1.790   2.897   3.763
 2710SOL    HW2 9030   1.865   2.875   3.619
 2711SOL     OW 9031   2.925   1.527   3.659
 2711SOL    HW1 9032   2.983   1.539   3.578
 2711SOL    HW2 9033   2.973   1.561   3.740
 2712SOL     OW 9034   3.044   5.488   1.948
 2712SOL    HW1 9035   3.091   5.416   1.898
 2712SOL    HW2 9036   2.962   5.517   1.897
 2713SOL     OW 9037   4.122   4.385   6.301
 2713SOL    HW1 9038   4.053   4.353   6.236
 2713SOL    HW2 9039   4.119   4.328   6.384
 2714SOL     OW 9040   4.217   3.811   6.770
 2714SOL    HW1 9041   4.251   3.726   6.731
 2714SOL    HW2 9042   4.202   3.799   6.869
 2715SOL     OW 9043   5.231   1.892   1.067
 2715SOL    HW1 9044   5.173   1.859   1.142
 2715SOL    HW2 9045   5.197   1.855   0.981
 2716SOL     OW 9046   4.673   2.800   2.886
 2716SOL    HW1 9047   4.625   2.797   2.974
 2716SOL    HW2 9048   4.768   2.827   2.901
 2717SOL     OW 9049   0.411   6.700   2.275
 2717SOL    HW1 9050   0.374   6.673   2.364
 2717SOL    HW2 9051   0.437   6.618   2.224
 2718SOL     OW 9052   6.886   1.004   5.214
 2718SOL    HW1 9053   6.910   1.090   5.259
 2718SOL    HW2 9054   6.837   0.945   5.279
 2719SOL     OW 9055   1.356   4.124   2.266
 2719SOL    HW1 9056   1.357   4.218   2.300
 2719SOL    HW2 9057   1.418   4.068   2.322
 2720SOL     OW 9058   1.361   6.982   4.555
 2720SOL    HW1 9059   1.373   6.957   4.651
 2720SOL    HW2 9060   1.381   6.903   4.498
 2721SOL     OW 9061   3.313   6.565   1.775
 2721SOL    HW1 9062   3.332   6.658   1.808
 2721SOL    HW2 9063   3.371   6.500   1.824
 2722SOL     OW 9064   5.117   5.588   6.589
 2722SOL    HW1 9065   5.055   5.543   6.525
 2722SOL    HW2 9066   5.119   5.538   6.676
 2723SOL     OW 9067   3.057   6.431   0.068
 2723SOL    HW1 9068   3.114   6.382   0.134
 2723SOL    HW2 9069   3.065   6.388   7.003
 2724SOL     OW 9070   1.289   5.685   6.715
 2724SOL    HW1 9071   1.224   5.757   6.739
 2724SOL    HW2 9072   1.296   5.678   6.615
 2725SOL     OW 9073   5.541   4.177   4.614
 2725SOL    HW1 9074   5.562   4.080   4.606
 2725SOL    HW2 9075   5.594   4.216   4.689
 2726SOL     OW 9076   0.928   2.174   1.614
 2726SOL    HW1 9077   0.878   2.222   1.687
 2726SOL    HW2 9078   0.869   2.166   1.533
 2727SOL     OW 9079   1.970   4.230   3.894
 2727SOL    HW1 9080   2.060   4.227   3.851
 2727SOL    HW2 9081   1.899   4.231   3.824
 2728SOL     OW 9082   5.366   5.698   6.513
 2728SOL    HW1 9083   5.419   5.713   6.597
 2728SOL    HW2 9084   5.280   5.652   6.536
 2729SOL     OW 9085   6.363   6.364   6.813
 2729SOL    HW1 9086   6.376   6.408   6.724
 2729SOL    HW2 9087   6.273   6.321   6.816
 2730SOL     OW 9088   0.952   5.551   1.112
 2730SOL    HW1 9089   0.966   5.532   1.015
 2730SOL    HW2 9090   0.903   5.638   1.122
 2731SOL     OW 9091   3.096   3.627   3.172
 2731SOL    HW1 9092   3.105   3.624   3.072
 2731SOL    HW2 9093   3.040   3.706   3.198
 2732SOL     OW 9094   5.128   2.194   1.494
 2732SOL    HW1 9095   5.092   2.280   1.459
 2732SOL    HW2 9096   5.054   2.139   1.531
 2733SOL     OW 9097   6.740   0.994   5.001
 2733SOL    HW1 9098   6.644   0.972   5.019
 2733SOL    HW2 9099   6.793   0.983   5.085
 2734SOL     OW 9100   3.454   6.216   1.198
 2734SOL    HW1 9101   3.420   6.129   1.161
 2734SOL    HW2 9102   3.494   6.270   1.124
 2735SOL     OW 9103   1.958   2.413   0.423
 2735SOL    HW1 9104   1.885   2.360   0.467
 2735SOL    HW2 9105   1.941   2.417   0.325
 2736SOL     OW 9106   5.709   6.257   4.202
 2736SOL    HW1 9107   5.696   6.266   4.301
 2736SOL    HW2 9108   5.673   6.169   4.172
 2737SOL     OW 9109   3.120   2.809   5.814
 2737SOL    HW1 9110   3.200   2.834   5.868
 2737SOL    HW2 9111   3.109   2.710   5.815
 2738SOL     OW 9112   6.239   6.881   1.926
 2738SOL    HW1 9113   6.151   6.925   1.911
 2738SOL    HW2 9114   6.285   6.866   1.838
 2739SOL     OW 9115   0.902   5.258   0.955
 2739SOL    HW1 9116   0.847   5.303   1.026
 2739SOL    HW2 9117   0.954   5.327   0.905
 2740SOL     OW 9118   0.433   5.217   2.391
 2740SOL    HW1 9119   0.411   5.127   2.353
 2740SOL    HW2 9120   0.426   5.286   2.319
 2741SOL     OW 9121   0.567   1.553   4.721
 2741SOL    HW1 9122   0.478   1.536   4.763
 2741SOL    HW2 9123   0.560   1.629   4.656
 2742SOL     OW 9124   2.663   5.277   1.875
 2742SOL    HW1 9125   2.688   5.220   1.797
 2742SOL    HW2 9126   2.564   5.284   1.881
 2743SOL     OW 9127   6.811   4.827   2.580
 2743SOL    HW1 9128   6.749   4.773   2.523
 2743SOL    HW2 9129   6.905   4.800   2.562
 2744SOL     OW 9130   3.818   3.511   2.292
 2744SOL    HW1 9131   3.730   3.506   2.339
 2744SOL    HW2 9132   3.806   3.487   2.196
 2745SOL     OW 9133   6.652   1.318   5.152
 2745SOL    HW1 9134   6.677   1.408   5.188
 2745SOL    HW2 9135   6.638   1.324   5.053
 2746SOL     OW 9136   0.587   1.400   4.296
 2746SOL    HW1 9137   0.520   1.403   4.371
 2746SOL    HW2 9138   0.629   1.490   4.286
 2747SOL     OW 9139   4.743   5.362   7.019
 2747SOL    HW1 9140   4.671   5.419   0.034
 2747SOL    HW2 9141   4.722   5.346   6.922
 2748SOL     OW 9142   4.696   0.403   1.549
 2748SOL    HW1 9143   4.673   0.435   1.457
 2748SOL    HW2 9144   4.616   0.358   1.589
 2749SOL     OW 9145   1.328   4.338   0.437
 2749SOL    HW1 9146   1.275   4.277   0.496
 2749SOL    HW2 9147   1.295   4.431   0.448
 2750SOL     OW 9148   2.643   5.010   1.708
 2750SOL    HW1 9149   2.730   4.973   1.741
 2750SOL    HW2 9150   2.567   4.956   1.744
 2751SOL     OW 9151   1.599   1.872   1.201
 2751SOL    HW1 9152   1.651   1.953   1.175
 2751SOL    HW2 9153   1.655   1.814   1.261
 2752SOL     OW 9154   3.968   4.625   6.376
 2752SOL    HW1 9155   3.952   4.614   6.474
 2752SOL    HW2 9156   4.008   4.542   6.339
 2753SOL     OW 9157   6.620   6.017   5.133
 2753SOL    HW1 9158   6.533   6.021   5.181
 2753SOL    HW2 9159   6.623   5.937   5.073
 2754SOL     OW 9160   0.602   0.023   6.947
 2754SOL    HW1 9161   0.659   0.103   6.967
 2754SOL    HW2 9162   0.632   7.006   6.861
 2755SOL     OW 9163   3.458   6.923   3.085
 2755SOL    HW1 9164   3.481   6.972   3.170
 2755SOL    HW2 9165   3.435   6.990   3.014
 2756SOL     OW 9166   4.312   6.498   0.398
 2756SOL    HW1 9167   4.255   6.564   0.447
 2756SOL    HW2 9168   4.400   6.488   0.444
 2757SOL     OW 9169   1.962   5.558   0.479
 2757SOL    HW1 9170   1.928   5.571   0.385
 2757SOL    HW2 9171   1.902   5.494   0.527
 2758SOL     OW 9172   5.028   0.315   4.683
 2758SOL    HW1 9173   4.942   0.365   4.686
 2758SOL    HW2 9174   5.026   0.250   4.607
 2759SOL     OW 9175   5.018   6.215   4.202
 2759SOL    HW1 9176   5.004   6.172   4.292
 2759SOL    HW2 9177   4.930   6.247   4.167
 2760SOL     OW 9178   1.138   5.442   1.474
 2760SOL    HW1 9179   1.152   5.502   1.395
 2760SOL    HW2 9180   1.223   5.434   1.525
 2761SOL     OW 9181   1.774   4.789   4.110
 2761SOL    HW1 9182   1.800   4.885   4.100
 2761SOL    HW2 9183   1.810   4.737   4.033
 2762SOL     OW 9184   0.973   0.805   5.139
 2762SOL    HW1 9185   0.939   0.806   5.045
 2762SOL    HW2 9186   0.900   0.834   5.201
 2763SOL     OW 9187   5.784   1.908   3.692
 2763SOL    HW1 9188   5.798   1.967   3.772
 2763SOL    HW2 9189   5.807   1.813   3.716
 2764SOL     OW 9190   6.383   0.591   1.256
 2764SOL    HW1 9191   6.400   0.503   1.301
 2764SOL    HW2 9192   6.369   0.661   1.326
 2765SOL     OW 9193   5.344   0.558   0.685
 2765SOL    HW1 9194   5.340   0.589   0.781
 2765SOL    HW2 9195   5.315   0.463   0.680
 2766SOL     OW 9196   5.181   1.630   0.563
 2766SOL    HW1 9197   5.159   1.679   0.647
 2766SOL    HW2 9198   5.127   1.667   0.487
 2767SOL     OW 9199   6.946   5.337   6.705
 2767SOL    HW1 9200   7.002   5.274   6.652
 2767SOL    HW2 9201   7.000   5.416   6.732
 2768SOL     OW 9202   5.103   0.699   0.051
 2768SOL    HW1 9203   5.203   0.710   0.054
 2768SOL    HW2 9204   5.080   0.604   0.029
 2769SOL     OW 9205   0.051   4.474   3.844
 2769SOL    HW1 9206   7.022   4.551   3.809
 2769SOL    HW2 9207   0.044   4.397   3.781
 2770SOL     OW 9208   2.025   5.460   6.108
 2770SOL    HW1 9209   1.964   5.382   6.117
 2770SOL    HW2 9210   2.118   5.434   6.132
 2771SOL     OW 9211   5.546   1.255   2.192
 2771SOL    HW1 9212   5.472   1.310   2.232
 2771SOL    HW2 9213   5.571   1.182   2.255
 2772SOL     OW 9214   4.485   1.943   1.029
 2772SOL    HW1 9215   4.470   2.005   1.106
 2772SOL    HW2 9216   4.492   1.997   0.945
 2773SOL     OW 9217   5.009   3.097   6.002
 2773SOL    HW1 9218   4.958   3.054   6.077
 2773SOL    HW2 9219   5.001   3.197   6.010
 2774SOL     OW 9220   0.062   3.231   2.926
 2774SOL    HW1 9221   0.007   3.175   2.864
 2774SOL    HW2 9222   0.010   3.312   2.952
 2775SOL     OW 9223   6.918   5.417   0.545
 2775SOL    HW1 9224   6.848   5.483   0.516
 2775SOL    HW2 9225   6.914   5.337   0.485
 2776SOL     OW 9226   4.739   5.600   5.426
 2776SOL    HW1 9227   4.761   5.645   5.340
 2776SOL    HW2 9228   4.813   5.616   5.492
 2777SOL     OW 9229   3.007   1.423   1.949
 2777SOL    HW1 9230   3.091   1.403   1.898
 2777SOL    HW2 9231   3.030   1.462   2.038
 2778SOL     OW 9232   1.826   1.106   5.188
 2778SOL    HW1 9233   1.842   1.079   5.283
 2778SOL    HW2 9234   1.880   1.047   5.128
 2779SOL     OW 9235   4.500   0.281   0.780
 2779SOL    HW1 9236   4.416   0.336   0.779
 2779SOL    HW2 9237   4.508   0.232   0.693
 2780SOL     OW 9238   6.483   5.297   5.659
 2780SOL    HW1 9239   6.487   5.396   5.666
 2780SOL    HW2 9240   6.508   5.269   5.566
 2781SOL     OW 9241   5.986   5.520   2.213
 2781SOL    HW1 9242   5.979   5.611   2.254
 2781SOL    HW2 9243   5.944   5.522   2.122
 2782SOL     OW 9244   2.853   2.610   5.930
 2782SOL    HW1 9245   2.935   2.597   5.876
 2782SOL    HW2 9246   2.832   2.527   5.981
 2783SOL     OW 9247   5.949   3.163   4.693
 2783SOL    HW1 9248   5.959   3.109   4.776
 2783SOL    HW2 9249   5.976   3.108   4.614
 2784SOL     OW 9250   2.811   1.726   1.501
 2784SOL    HW1 9251   2.766   1.653   1.448
 2784SOL    HW2 9252   2.779   1.815   1.469
 2785SOL     OW 9253   5.907   1.371   0.184
 2785SOL    HW1 9254   5.908   1.274   0.211
 2785SOL    HW2 9255   5.995   1.396   0.144
 2786SOL     OW 9256   4.226   6.351   1.563
 2786SOL    HW1 9257   4.287   6.314   1.493
 2786SOL    HW2 9258   4.274   6.422   1.615
 2787SOL     OW 9259   2.117   2.803   6.416
 2787SOL    HW1 9260   2.193   2.859   6.382
 2787SOL    HW2 9261   2.046   2.861   6.454
 2788SOL     OW 9262   1.909   4.207   7.010
 2788SOL    HW1 9263   1.960   4.234   0.067
 2788SOL    HW2 9264   1.837   4.142   0.010
 2789SOL     OW 9265   1.841   2.910   3.462
 2789SOL    HW1 9266   1.764   2.929   3.401
 2789SOL    HW2 9267   1.926   2.908   3.410
 2790SOL     OW 9268   3.159   5.275   2.922
 2790SOL    HW1 9269   3.097   5.208   2.883
 2790SOL    HW2 9270   3.152   5.273   3.022
 2791SOL     OW 9271   1.230   4.568   4.541
 2791SOL    HW1 9272   1.169   4.489   4.543
 2791SOL    HW2 9273   1.185   4.642   4.490
 2792SOL     OW 9274   1.067   6.947   5.158
 2792SOL    HW1 9275   0.969   6.927   5.156
 2792SOL    HW2 9276   1.093   6.991   5.072
 2793SOL     OW 9277   5.103   2.798   2.783
 2793SOL    HW1 9278   5.117   2.714   2.834
 2793SOL    HW2 9279   5.016   2.840   2.810
 2794SOL     OW 9280   0.019   2.489   0.696
 2794SOL    HW1 9281   0.053   2.568   0.747
 2794SOL    HW2 9282   0.087   2.462   0.628
 2795SOL     OW 9283   2.692   3.556   0.813
 2795SOL    HW1 9284   2.723   3.517   0.899
 2795SOL    HW2 9285   2.616   3.619   0.831
 2796SOL     OW 9286   6.947   4.415   2.707
 2796SOL    HW1 9287   7.022   4.472   2.740
 2796SOL    HW2 9288   6.860   4.459   2.729
 2797SOL     OW 9289   4.586   5.366   4.509
 2797SOL    HW1 9290   4.583   5.313   4.594
 2797SOL    HW2 9291   4.524   5.325   4.442
 2798SOL     OW 9292   1.465   4.382   1.815
 2798SOL    HW1 9293   1.483   4.470   1.858
 2798SOL    HW2 9294   1.480   4.309   1.882
 2799SOL     OW 9295   0.392   5.658   0.244
 2799SOL    HW1 9296   0.378   5.563   0.214
 2799SOL    HW2 9297   0.323   5.681   0.313
 2800SOL     OW 9298   4.298   4.394   6.633
 2800SOL    HW1 9299   4.387   4.419   6.595
 2800SOL    HW2 9300   4.275   4.301   6.605
 2801SOL     OW 9301   4.565   5.623   4.600
 2801SOL    HW1 9302   4.495   5.612   4.671
 2801SOL    HW2 9303   4.577   5.537   4.551
 2802SOL     OW 9304   4.886   3.288   6.595
 2802SOL    HW1 9305   4.893   3.384   6.565
 2802SOL    HW2 9306   4.937   3.230   6.532
 2803SOL     OW 9307   2.812   5.947   6.425
 2803SOL    HW1 9308   2.724   5.902   6.440
 2803SOL    HW2 9309   2.884   5.894   6.471
 2804SOL     OW 9310   0.119   4.284   4.474
 2804SOL    HW1 9311   0.079   4.193   4.465
 2804SOL    HW2 9312   0.053   4.352   4.441
 2805SOL     OW 9313   4.968   3.205   1.210
 2805SOL    HW1 9314   5.032   3.245   1.145
 2805SOL    HW2 9315   4.923   3.126   1.169
 2806SOL     OW 9316   6.117   5.132   3.755
 2806SOL    HW1 9317   6.029   5.180   3.759
 2806SOL    HW2 9318   6.188   5.195   3.724
 2807SOL     OW 9319   5.678   5.072   3.859
 2807SOL    HW1 9320   5.604   5.139   3.861
 2807SOL    HW2 9321   5.664   5.010   3.781
 2808SOL     OW 9322   4.482   2.384   2.305
 2808SOL    HW1 9323   4.455   2.391   2.401
 2808SOL    HW2 9324   4.530   2.468   2.278
 2809SOL     OW 9325   6.674   2.680   1.697
 2809SOL    HW1 9326   6.724   2.596   1.718
 2809SOL    HW2 9327   6.738   2.757   1.693
 2810SOL     OW 9328   3.109   6.308   4.522
 2810SOL    HW1 9329   3.123   6.249   4.601
 2810SOL    HW2 9330   3.026   6.282   4.474
 2811SOL     OW 9331   0.774   0.684   3.525
 2811SOL    HW1 9332   0.809   0.654   3.614
 2811SOL    HW2 9333   0.675   0.702   3.533
 2812SOL     OW 9334   6.160   3.798   0.877
 2812SOL    HW1 9335   6.236   3.791   0.942
 2812SOL    HW2 9336   6.074   3.804   0.927
 2813SOL     OW 9337   6.415   7.000   5.859
 2813SOL    HW1 9338   6.335   0.009   5.810
 2813SOL    HW2 9339   6.459   0.051   5.908
 2814SOL     OW 9340   4.418   3.096   0.126
 2814SOL    HW1 9341   4.407   3.050   0.038
 2814SOL    HW2 9342   4.363   3.049   0.196
 2815SOL     OW 9343   0.115   1.717   4.952
 2815SOL    HW1 9344   0.209   1.684   4.963
 2815SOL    HW2 9345   0.107   1.808   4.994
 2816SOL     OW 9346   6.774   6.075   4.157
 2816SOL    HW1 9347   6.776   6.088   4.256
 2816SOL    HW2 9348   6.680   6.074   4.125
 2817SOL     OW 9349   2.303   0.201   1.204
 2817SOL    HW1 9350   2.284   0.261   1.282
 2817SOL    HW2 9351   2.230   0.209   1.137
 2818SOL     OW 9352   6.832   5.731   6.341
 2818SOL    HW1 9353   6.813   5.687   6.253
 2818SOL    HW2 9354   6.819   5.666   6.415
 2819SOL     OW 9355   0.003   1.585   1.162
 2819SOL    HW1 9356   0.071   1.600   1.234
 2819SOL    HW2 9357   6.954   1.653   1.171
 2820SOL     OW 9358   1.106   1.914   2.574
 2820SOL    HW1 9359   1.167   1.837   2.590
 2820SOL    HW2 9360   1.118   1.982   2.646
 2821SOL     OW 9361   3.980   3.957   6.896
 2821SOL    HW1 9362   3.935   3.971   6.808
 2821SOL    HW2 9363   4.010   3.862   6.904
 2822SOL     OW 9364   4.269   2.590   0.057
 2822SOL    HW1 9365   4.178   2.551   0.044
 2822SOL    HW2 9366   4.335   2.537   0.004
 2823SOL     OW 9367   2.660   6.441   1.214
 2823SOL    HW1 9368   2.626   6.534   1.198
 2823SOL    HW2 9369   2.760   6.442   1.216
 2824SOL     OW 9370   2.261   1.523   4.402
 2824SOL    HW1 9371   2.209   1.581   4.339
 2824SOL    HW2 9372   2.257   1.428   4.372
 2825SOL     OW 9373   7.007   0.037   0.155
 2825SOL    HW1 9374   7.001   7.007   0.239
 2825SOL    HW2 9375   7.017   0.134   0.180
 2826SOL     OW 9376   5.241   2.070   6.566
 2826SOL    HW1 9377   5.200   2.126   6.494
 2826SOL    HW2 9378   5.175   2.056   6.639
 2827SOL     OW 9379   5.762   1.077   5.387
 2827SOL    HW1 9380   5.749   1.046   5.293
 2827SOL    HW2 9381   5.726   1.009   5.450
 2828SOL     OW 9382   3.360   1.036   6.815
 2828SOL    HW1 9383   3.324   0.945   6.796
 2828SOL    HW2 9384   3.423   1.063   6.742
 2829SOL     OW 9385   3.235   4.207   6.035
 2829SOL    HW1 9386   3.271   4.113   6.035
 2829SOL    HW2 9387   3.223   4.237   6.130
 2830SOL     OW 9388   0.523   3.492   6.595
 2830SOL    HW1 9389   0.609   3.481   6.645
 2830SOL    HW2 9390   0.462   3.415   6.617
 2831SOL     OW 9391   0.032   6.278   3.853
 2831SOL    HW1 9392   0.079   6.261   3.767
 2831SOL    HW2 9393   0.076   6.354   3.901
 2832SOL     OW 9394   0.265   1.237   1.753
 2832SOL    HW1 9395   0.299   1.206   1.842
 2832SOL    HW2 9396   0.335   1.223   1.684
 2833SOL     OW 9397   5.247   2.431   2.117
 2833SOL    HW1 9398   5.169   2.482   2.079
 2833SOL    HW2 9399   5.328   2.490   2.119
 2834SOL     OW 9400   2.855   6.979   6.011
 2834SOL    HW1 9401   2.954   6.990   6.023
 2834SOL    HW2 9402   2.837   6.905   5.947
 2835SOL     OW 9403   6.888   0.587   2.129
 2835SOL    HW1 9404   6.847   0.505   2.089
 2835SOL    HW2 9405   6.874   0.586   2.228
 2836SOL     OW 9406   6.815   0.001   1.712
 2836SOL    HW1 9407   6.888   0.041   1.767
 2836SOL    HW2 9408   6.822   0.035   1.618
 2837SOL     OW 9409   5.894   3.632   3.046
 2837SOL    HW1 9410   5.979   3.627   3.099
 2837SOL    HW2 9411   5.893   3.557   2.979
 2838SOL     OW 9412   1.559   4.085   1.721
 2838SOL    HW1 9413   1.511   4.005   1.684
 2838SOL    HW2 9414   1.506   4.124   1.797
 2839SOL     OW 9415   5.419   1.013   1.920
 2839SOL    HW1 9416   5.420   0.914   1.909
 2839SOL    HW2 9417   5.367   1.037   2.001
 2840SOL     OW 9418   0.748   0.989   4.040
 2840SOL    HW1 9419   0.793   0.944   3.962
 2840SOL    HW2 9420   0.696   1.067   4.006
 2841SOL     OW 9421   6.801   0.791   5.377
 2841SOL    HW1 9422   6.894   0.760   5.395
 2841SOL    HW2 9423   6.756   0.813   5.463
 2842SOL     OW 9424   0.088   2.235   4.348
 2842SOL    HW1 9425   0.127   2.323   4.317
 2842SOL    HW2 9426   0.162   2.176   4.381
 2843SOL     OW 9427   2.945   1.754   3.338
 2843SOL    HW1 9428   2.944   1.849   3.306
 2843SOL    HW2 9429   2.880   1.700   3.284
 2844SOL     OW 9430   1.663   4.819   0.488
 2844SOL    HW1 9431   1.763   4.820   0.488
 2844SOL    HW2 9432   1.630   4.744   0.546
 2845SOL     OW 9433   1.048   2.810   0.691
 2845SOL    HW1 9434   1.007   2.901   0.681
 2845SOL    HW2 9435   1.091   2.802   0.781
 2846SOL     OW 9436   4.692   1.589   6.612
 2846SOL    HW1 9437   4.683   1.688   6.598
 2846SOL    HW2 9438   4.603   1.550   6.632
 2847SOL     OW 9439   5.427   3.516   3.050
 2847SOL    HW1 9440   5.508   3.575   3.053
 2847SOL    HW2 9441   5.454   3.422   3.033
 2848SOL     OW 9442   0.721   4.426   6.458
 2848SOL    HW1 9443   0.687   4.332   6.455
 2848SOL    HW2 9444   0.763   4.450   6.371
 2849SOL     OW 9445   3.753   6.836   1.777
 2849SOL    HW1 9446   3.812   6.811   1.855
 2849SOL    HW2 9447   3.794   6.914   1.730
 2850SOL     OW 9448   3.447   6.773   2.323
 2850SOL    HW1 9449   3.415   6.716   2.248
 2850SOL    HW2 9450   3.387   6.853   2.332
 2851SOL     OW 9451   0.309   3.721   5.991
 2851SOL    HW1 9452   0.325   3.737   6.088
 2851SOL    HW2 9453   0.213   3.739   5.968
 2852SOL     OW 9454   5.590   4.587   0.364
 2852SOL    HW1 9455   5.515   4.539   0.408
 2852SOL    HW2 9456   5.582   4.685   0.382
 2853SOL     OW 9457   2.451   2.031   0.543
 2853SOL    HW1 9458   2.517   1.984   0.601
 2853SOL    HW2 9459   2.416   1.968   0.474
 2854SOL     OW 9460   3.298   1.815   4.380
 2854SOL    HW1 9461   3.302   1.748   4.455
 2854SOL    HW2 9462   3.259   1.901   4.414
 2855SOL     OW 9463   2.418   1.214   6.272
 2855SOL    HW1 9464   2.402   1.313   6.275
 2855SOL    HW2 9465   2.486   1.193   6.202
 2856SOL     OW 9466   2.256   2.770   6.005
 2856SOL    HW1 9467   2.205   2.709   6.066
 2856SOL    HW2 9468   2.315   2.829   6.060
 2857SOL     OW 9469   3.395   1.660   2.120
 2857SOL    HW1 9470   3.397   1.676   2.022
 2857SOL    HW2 9471   3.301   1.667   2.154
 2858SOL     OW 9472   6.336   3.544   1.637
 2858SOL    HW1 9473   6.246   3.550   1.680
 2858SOL    HW2 9474   6.406   3.535   1.707
 2859SOL     OW 9475   5.056   2.229   0.638
 2859SOL    HW1 9476   4.957   2.233   0.625
 2859SOL    HW2 9477   5.093   2.322   0.644
 2860SOL     OW 9478   3.482   1.755   1.372
 2860SOL    HW1 9479   3.456   1.741   1.277
 2860SOL    HW2 9480   3.466   1.672   1.424
 2861SOL     OW 9481   4.615   5.411   5.822
 2861SOL    HW1 9482   4.521   5.381   5.805
 2861SOL    HW2 9483   4.618   5.511   5.824
 2862SOL     OW 9484   5.033   1.965   3.055
 2862SOL    HW1 9485   4.976   2.046   3.044
 2862SOL    HW2 9486   5.120   1.978   3.008
 2863SOL     OW 9487   5.599   1.202   6.645
 2863SOL    HW1 9488   5.619   1.232   6.738
 2863SOL    HW2 9489   5.563   1.279   6.592
 2864SOL     OW 9490   3.910   0.718   1.494
 2864SOL    HW1 9491   3.999   0.672   1.495
 2864SOL    HW2 9492   3.844   0.665   1.547
 2865SOL     OW 9493   5.016   3.961   5.872
 2865SOL    HW1 9494   5.091   3.916   5.824
 2865SOL    HW2 9495   4.954   3.891   5.909
 2866SOL     OW 9496   6.371   6.058   0.183
 2866SOL    HW1 9497   6.323   6.105   0.257
 2866SOL    HW2 9498   6.469   6.070   0.195
 2867SOL     OW 9499   6.064   4.004   2.255
 2867SOL    HW1 9500   6.116   4.069   2.310
 2867SOL    HW2 9501   5.982   4.049   2.220
 2868SOL     OW 9502   0.577   3.051   5.414
 2868SOL    HW1 9503   0.625   3.006   5.490
 2868SOL    HW2 9504   0.481   3.024   5.415
 2869SOL     OW 9505   6.158   1.230   3.232
 2869SOL    HW1 9506   6.079   1.277   3.193
 2869SOL    HW2 9507   6.226   1.297   3.262
 2870SOL     OW 9508   6.959   1.026   4.530
 2870SOL    HW1 9509   6.991   1.112   4.568
 2870SOL    HW2 9510   6.966   0.954   4.599
 2871SOL     OW 9511   1.839   1.353   7.014
 2871SOL    HW1 9512   1.901   1.339   6.937
 2871SOL    HW2 9513   1.841   1.449   0.017
 2872SOL     OW 9514   2.398   2.136   3.537
 2872SOL    HW1 9515   2.328   2.207   3.529
 2872SOL    HW2 9516   2.413   2.093   3.448
 2873SOL     OW 9517   1.209   5.210   3.141
 2873SOL    HW1 9518   1.135   5.278   3.141
 2873SOL    HW2 9519   1.226   5.180   3.235
 2874SOL     OW 9520   4.311   5.355   2.760
 2874SOL    HW1 9521   4.259   5.333   2.677
 2874SOL    HW2 9522   4.385   5.288   2.770
 2875SOL     OW 9523   4.901   6.155   6.903
 2875SOL    HW1 9524   4.813   6.120   6.871
 2875SOL    HW2 9525   4.974   6.126   6.841
 2876SOL     OW 9526   1.010   6.954   1.903
 2876SOL    HW1 9527   1.075   6.937   1.829
 2876SOL    HW2 9528   1.014   0.025   1.929
 2877SOL     OW 9529   3.656   2.809   5.161
 2877SOL    HW1 9530   3.573   2.836   5.110
 2877SOL    HW2 9531   3.630   2.750   5.237
 2878SOL     OW 9532   3.538   4.982   4.547
 2878SOL    HW1 9533   3.469   5.014   4.483
 2878SOL    HW2 9534   3.586   5.061   4.586
 2879SOL     OW 9535   5.395   5.252   0.047
 2879SOL    HW1 9536   5.431   5.195   0.120
 2879SOL    HW2 9537   5.470   5.281   7.012
 2880SOL     OW 9538   5.802   6.783   0.640
 2880SOL    HW1 9539   5.868   6.708   0.637
 2880SOL    HW2 9540   5.850   6.868   0.661
 2881SOL     OW 9541   5.994   6.217   1.314
 2881SOL    HW1 9542   6.050   6.137   1.334
 2881SOL    HW2 9543   6.020   6.254   1.224
 2882SOL     OW 9544   0.630   3.424   2.166
 2882SOL    HW1 9545   0.698   3.460   2.230
 2882SOL    HW2 9546   0.547   3.398   2.217
 2883SOL     OW 9547   5.507   6.700   4.088
 2883SOL    HW1 9548   5.466   6.648   4.013
 2883SOL    HW2 9549   5.544   6.786   4.053
 2884SOL     OW 9550   0.755   5.596   2.704
 2884SOL    HW1 9551   0.783   5.618   2.611
 2884SOL    HW2 9552   0.709   5.507   2.705
 2885SOL     OW 9553   0.255   2.992   2.126
 2885SOL    HW1 9554   0.183   2.930   2.095
 2885SOL    HW2 9555   0.312   2.945   2.193
 2886SOL     OW 9556   2.078   3.905   6.992
 2886SOL    HW1 9557   1.991   3.895   6.944
 2886SOL    HW2 9558   2.098   4.002   7.007
 2887SOL     OW 9559   1.637   7.023   4.878
 2887SOL    HW1 9560   1.710   0.023   4.814
 2887SOL    HW2 9561   1.657   6.934   4.918
 2888SOL     OW 9562   0.518   5.279   6.718
 2888SOL    HW1 9563   0.524   5.248   6.623
 2888SOL    HW2 9564   0.583   5.227   6.773
 2889SOL     OW 9565   1.748   0.570   2.731
 2889SOL    HW1 9566   1.791   0.576   2.640
 2889SOL    HW2 9567   1.744   0.474   2.759
 2890SOL     OW 9568   2.694   0.431   0.697
 2890SOL    HW1 9569   2.751   0.348   0.694
 2890SOL    HW2 9570   2.627   0.423   0.771
 2891SOL     OW 9571   2.407   4.478   3.723
 2891SOL    HW1 9572   2.429   4.574   3.704
 2891SOL    HW2 9573   2.349   4.442   3.650
 2892SOL     OW 9574   5.691   3.566   0.283
 2892SOL    HW1 9575   5.730   3.551   0.373
 2892SOL    HW2 9576   5.729   3.501   0.218
 2893SOL     OW 9577   0.711   6.610   4.810
 2893SOL    HW1 9578   0.715   6.693   4.865
 2893SOL    HW2 9579   0.616   6.587   4.791
 2894SOL     OW 9580   2.970   2.615   6.965
 2894SOL    HW1 9581   3.065   2.590   6.985
 2894SOL    HW2 9582   2.943   2.576   6.877
 2895SOL     OW 9583   4.192   3.161   6.555
 2895SOL    HW1 9584   4.177   3.234   6.488
 2895SOL    HW2 9585   4.215   3.076   6.508
 2896SOL     OW 9586   2.774   5.164   6.384
 2896SOL    HW1 9587   2.827   5.246   6.361
 2896SOL    HW2 9588   2.817   5.118   6.462
 2897SOL     OW 9589   2.921   5.943   3.437
 2897SOL    HW1 9590   3.013   5.912   3.460
 2897SOL    HW2 9591   2.915   5.957   3.338
 2898SOL     OW 9592   4.583   5.328   3.545
 2898SOL    HW1 9593   4.661   5.385   3.518
 2898SOL    HW2 9594   4.530   5.374   3.616
 2899SOL     OW 9595   0.310   2.112   0.399
 2899SOL    HW1 9596   0.318   2.062   0.485
 2899SOL    HW2 9597   0.383   2.179   0.393
 2900SOL     OW 9598   1.570   5.022   5.591
 2900SOL    HW1 9599   1.572   4.930   5.553
 2900SOL    HW2 9600   1.510   5.024   5.671
 2901SOL     OW 9601   1.402   0.468   2.621
 2901SOL    HW1 9602   1.436   0.543   2.677
 2901SOL    HW2 9603   1.427   0.381   2.664
 2902SOL     OW 9604   5.554   5.718   1.209
 2902SOL    HW1 9605   5.598   5.794   1.161
 2902SOL    HW2 9606   5.623   5.662   1.255
 2903SOL     OW 9607   3.113   0.092   1.601
 2903SOL    HW1 9608   3.184   0.109   1.532
 2903SOL    HW2 9609   3.154   0.090   1.692
 2904SOL     OW 9610   2.232   3.272   5.346
 2904SOL    HW1 9611   2.327   3.243   5.354
 2904SOL    HW2 9612   2.207   3.328   5.425
 2905SOL     OW 9613   0.909   2.360   3.616
 2905SOL    HW1 9614   0.923   2.378   3.519
 2905SOL    HW2 9615   0.997   2.365   3.664
 2906SOL     OW 9616   5.095   5.541   2.914
 2906SOL    HW1 9617   5.069   5.634   2.889
 2906SOL    HW2 9618   5.192   5.527   2.894
 2907SOL     OW 9619   0.201   1.093   4.220
 2907SOL    HW1 9620   0.285   1.053   4.185
 2907SOL    HW2 9621   0.199   1.191   4.199
 2908SOL     OW 9622   4.251   6.940   4.037
 2908SOL    HW1 9623   4.334   6.923   4.090
 2908SOL    HW2 9624   4.181   6.980   4.097
 2909SOL     OW 9625   0.380   6.292   3.220
 2909SOL    HW1 9626   0.311   6.250   3.162
 2909SOL    HW2 9627   0.398   6.232   3.299
 2910SOL     OW 9628   4.541   6.400   4.575
 2910SOL    HW1 9629   4.619   6.404   4.513
 2910SOL    HW2 9630   4.466   6.455   4.539
 2911SOL     OW 9631   2.057   5.276   3.600
 2911SOL    HW1 9632   1.969   5.323   3.602
 2911SOL    HW2 9633   2.131   5.344   3.604
 2912SOL     OW 9634   3.934   6.111   6.951
 2912SOL    HW1 9635   4.010   6.062   6.994
 2912SOL    HW2 9636   3.913   6.194   7.003
 2913SOL     OW 9637   1.765   5.098   2.300
 2913SOL    HW1 9638   1.805   5.037   2.369
 2913SOL    HW2 9639   1.825   5.178   2.287
 2914SOL     OW 9640   5.783   5.776   5.733
 2914SOL    HW1 9641   5.704   5.735   5.777
 2914SOL    HW2 9642   5.820   5.849   5.791
 2915SOL     OW 9643   4.667   1.560   5.149
 2915SOL    HW1 9644   4.765   1.564   5.128
 2915SOL    HW2 9645   4.633   1.468   5.133
 2916SOL     OW 9646   6.436   5.158   5.917
 2916SOL    HW1 9647   6.342   5.184   5.896
 2916SOL    HW2 9648   6.499   5.216   5.866
 2917SOL     OW 9649   4.368   0.484   2.035
 2917SOL    HW1 9650   4.322   0.552   2.092
 2917SOL    HW2 9651   4.309   0.403   2.026
 2918SOL     OW 9652   0.453   3.446   2.967
 2918SOL    HW1 9653   0.409   3.526   3.009
 2918SOL    HW2 9654   0.485   3.470   2.875
 2919SOL     OW 9655   6.339   0.916   0.062
 2919SOL    HW1 9656   6.431   0.938   0.031
 2919SOL    HW2 9657   6.340   0.903   0.161
 2920SOL     OW 9658   3.270   1.981   2.372
 2920SOL    HW1 9659   3.233   2.025   2.290
 2920SOL    HW2 9660   3.219   1.896   2.389
 2921SOL     OW 9661   0.553   0.436   3.213
 2921SOL    HW1 9662   0.586   0.450   3.120
 2921SOL    HW2 9663   0.630   0.443   3.277
 2922SOL     OW 9664   5.684   6.663   6.944
 2922SOL    HW1 9665   5.709   6.568   6.965
 2922SOL    HW2 9666   5.748   6.725   6.989
 2923SOL     OW 9667   0.129   4.751   1.856
 2923SOL    HW1 9668   0.120   4.652   1.867
 2923SOL    HW2 9669   0.128   4.774   1.759
 2924SOL     OW 9670   6.669   2.333   6.777
 2924SOL    HW1 9671   6.584   2.287   6.802
 2924SOL    HW2 9672   6.671   2.350   6.679
 2925SOL     OW 9673   5.093   0.975   3.490
 2925SOL    HW1 9674   5.178   0.962   3.541
 2925SOL    HW2 9675   5.105   1.046   3.421
 2926SOL     OW 9676   6.913   1.208   5.013
 2926SOL    HW1 9677   6.860   1.133   4.973
 2926SOL    HW2 9678   6.917   1.284   4.949
 2927SOL     OW 9679   2.299   1.849   2.130
 2927SOL    HW1 9680   2.394   1.834   2.103
 2927SOL    HW2 9681   2.278   1.946   2.121
 2928SOL     OW 9682   6.588   2.277   5.928
 2928SOL    HW1 9683   6.551   2.240   5.843
 2928SOL    HW2 9684   6.564   2.374   5.936
 2929SOL     OW 9685   0.666   1.071   5.752
 2929SOL    HW1 9686   0.617   1.157   5.768
 2929SOL    HW2 9687   0.619   0.996   5.798
 2930SOL     OW 9688   4.829   6.508   4.997
 2930SOL    HW1 9689   4.764   6.580   4.970
 2930SOL    HW2 9690   4.863   6.527   5.089
 2931SOL     OW 9691   5.963   6.375   6.780
 2931SOL    HW1 9692   6.024   6.329   6.716
 2931SOL    HW2 9693   5.978   6.474   6.776
 2932SOL     OW 9694   1.335   4.918   1.905
 2932SOL    HW1 9695   1.370   4.955   1.819
 2932SOL    HW2 9696   1.377   4.830   1.924
 2933SOL     OW 9697   5.506   3.137   2.693
 2933SOL    HW1 9698   5.522   3.080   2.612
 2933SOL    HW2 9699   5.587   3.137   2.751
 2934SOL     OW 9700   3.995   0.993   0.183
 2934SOL    HW1 9701   4.083   0.946   0.178
 2934SOL    HW2 9702   3.947   0.965   0.266
 2935SOL     OW 9703   5.943   3.122   1.533
 2935SOL    HW1 9704   5.935   3.095   1.629
 2935SOL    HW2 9705   6.019   3.073   1.491
 2936SOL     OW 9706   5.029   5.591   1.766
 2936SOL    HW1 9707   5.076   5.653   1.830
 2936SOL    HW2 9708   4.978   5.522   1.817
 2937SOL     OW 9709   3.850   4.609   0.815
 2937SOL    HW1 9710   3.895   4.568   0.895
 2937SOL    HW2 9711   3.877   4.705   0.808
 2938SOL     OW 9712   4.968   4.639   5.993
 2938SOL    HW1 9713   4.941   4.598   5.906
 2938SOL    HW2 9714   4.891   4.689   6.032
 2939SOL     OW 9715   0.596   6.941   4.307
 2939SOL    HW1 9716   0.613   0.008   4.271
 2939SOL    HW2 9717   0.679   6.886   4.297
 2940SOL     OW 9718   6.422   6.879   6.145
 2940SOL    HW1 9719   6.482   6.935   6.203
 2940SOL    HW2 9720   6.429   6.910   6.050
 2941SOL     OW 9721   2.155   2.300   5.147
 2941SOL    HW1 9722   2.191   2.307   5.054
 2941SOL    HW2 9723   2.056   2.288   5.144
 2942SOL     OW 9724   2.072   1.126   1.943
 2942SOL    HW1 9725   2.045   1.186   2.019
 2942SOL    HW2 9726   1.994   1.069   1.916
 2943SOL     OW 9727   5.789   3.992   2.953
 2943SOL    HW1 9728   5.774   3.912   3.011
 2943SOL    HW2 9729   5.712   4.004   2.891
 2944SOL     OW 9730   2.586   5.572   5.246
 2944SOL    HW1 9731   2.570   5.620   5.332
 2944SOL    HW2 9732   2.597   5.474   5.265
 2945SOL     OW 9733   3.921   3.096   3.316
 2945SOL    HW1 9734   3.965   3.170   3.367
 2945SOL    HW2 9735   3.924   3.116   3.218
 2946SOL     OW 9736   0.020   5.446   6.314
 2946SOL    HW1 9737   0.010   5.504   6.233
 2946SOL    HW2 9738   0.007   5.501   6.396
 2947SOL     OW 9739   1.262   4.624   0.450
 2947SOL    HW1 9740   1.279   4.643   0.353
 2947SOL    HW2 9741   1.261   4.710   0.501
 2948SOL     OW 9742   6.793   3.704   5.638
 2948SOL    HW1 9743   6.838   3.752   5.563
 2948SOL    HW2 9744   6.860   3.650   5.688
 2949SOL     OW 9745   2.055   6.311   1.045
 2949SOL    HW1 9746   1.970   6.263   1.067
 2949SOL    HW2 9747   2.037   6.378   0.973
 2950SOL     OW 9748   5.149   3.768   4.557
 2950SOL    HW1 9749   5.059   3.794   4.520
 2950SOL    HW2 9750   5.137   3.695   4.625
 2951SOL     OW 9751   6.829   2.298   0.464
 2951SOL    HW1 9752   6.750   2.236   0.461
 2951SOL    HW2 9753   6.867   2.298   0.556
 2952SOL     OW 9754   0.942   5.808   4.857
 2952SOL    HW1 9755   0.971   5.721   4.817
 2952SOL    HW2 9756   0.975   5.883   4.799
 2953SOL     OW 9757   4.667   2.591   2.240
 2953SOL    HW1 9758   4.666   2.619   2.144
 2953SOL    HW2 9759   4.732   2.647   2.291
 2954SOL     OW 9760   0.913   5.282   1.546
 2954SOL    HW1 9761   0.985   5.352   1.541
 2954SOL    HW2 9762   0.902   5.239   1.457
 2955SOL     OW 9763   0.799   3.722   0.762
 2955SOL    HW1 9764   0.767   3.722   0.857
 2955SOL    HW2 9765   0.739   3.781   0.707
 2956SOL     OW 9766   6.128   6.577   3.083
 2956SOL    HW1 9767   6.172   6.573   2.993
 2956SOL    HW2 9768   6.073   6.660   3.089
 2957SOL     OW 9769   6.529   3.331   1.558
 2957SOL    HW1 9770   6.593   3.343   1.482
 2957SOL    HW2 9771   6.507   3.421   1.597
 2958SOL     OW 9772   2.637   4.669   4.743
 2958SOL    HW1 9773   2.558   4.608   4.756
 2958SOL    HW2 9774   2.698   4.661   4.821
 2959SOL     OW 9775   4.312   4.264   0.274
 2959SOL    HW1 9776   4.324   4.286   0.371
 2959SOL    HW2 9777   4.401   4.238   0.235
 2960SOL     OW 9778   3.188   0.440   6.612
 2960SOL    HW1 9779   3.122   0.442   6.687
 2960SOL    HW2 9780   3.191   0.530   6.568
 2961SOL     OW 9781   5.249   2.687   4.083
 2961SOL    HW1 9782   5.161   2.719   4.119
 2961SOL    HW2 9783   5.267   2.731   3.995
 2962SOL     OW 9784   4.377   0.980   3.976
 2962SOL    HW1 9785   4.361   1.043   3.901
 2962SOL    HW2 9786   4.387   0.887   3.940
 2963SOL     OW 9787   1.693   1.414   6.002
 2963SOL    HW1 9788   1.699   1.460   6.091
 2963SOL    HW2 9789   1.762   1.451   5.941
 2964SOL     OW 9790   1.179   6.684   1.756
 2964SOL    HW1 9791   1.268   6.677   1.710
 2964SOL    HW2 9792   1.192   6.723   1.847
 2965SOL     OW 9793   0.015   0.831   4.999
 2965SOL    HW1 9794   6.975   0.888   5.049
 2965SOL    HW2 9795   0.009   0.737   5.032
 2966SOL     OW 9796   6.465   4.619   4.000
 2966SOL    HW1 9797   6.442   4.636   3.904
 2966SOL    HW2 9798   6.512   4.531   4.007
 2967SOL     OW 9799   6.085   2.242   4.460
 2967SOL    HW1 9800   6.179   2.231   4.493
 2967SOL    HW2 9801   6.033   2.159   4.479
 2968SOL     OW 9802   1.078   4.122   5.426
 2968SOL    HW1 9803   1.158   4.180   5.441
 2968SOL    HW2 9804   1.102   4.049   5.362
 2969SOL     OW 9805   6.051   1.262   4.411
 2969SOL    HW1 9806   6.065   1.170   4.375
 2969SOL    HW2 9807   5.967   1.301   4.373
 2970SOL     OW 9808   0.798   4.263   6.857
 2970SOL    HW1 9809   0.863   4.252   6.781
 2970SOL    HW2 9810   0.848   4.286   6.940
 2971SOL     OW 9811   4.933   2.712   5.121
 2971SOL    HW1 9812   4.912   2.790   5.062
 2971SOL    HW2 9813   4.848   2.677   5.161
 2972SOL     OW 9814   6.515   4.931   6.080
 2972SOL    HW1 9815   6.465   4.991   6.017
 2972SOL    HW2 9816   6.595   4.980   6.115
 2973SOL     OW 9817   5.277   1.290   4.312
 2973SOL    HW1 9818   5.201   1.345   4.276
 2973SOL    HW2 9819   5.325   1.342   4.383
 2974SOL     OW 9820   0.375   3.735   2.982
 2974SOL    HW1 9821   0.280   3.764   2.970
 2974SOL    HW2 9822   0.416   3.786   3.058
 2975SOL     OW 9823   0.782   1.931   5.240
 2975SOL    HW1 9824   0.687   1.937   5.210
 2975SOL    HW2 9825   0.829   1.860   5.187
 2976SOL     OW 9826   3.999   1.288   2.314
 2976SOL    HW1 9827   4.066   1.303   2.386
 2976SOL    HW2 9828   3.915   1.339   2.335
 2977SOL     OW 9829   1.764   0.138   4.030
 2977SOL    HW1 9830   1.672   0.102   4.042
 2977SOL    HW2 9831   1.822   0.108   4.107
 2978SOL     OW 9832   4.023   4.463   6.599
 2978SOL    HW1 9833   3.997   4.369   6.578
 2978SOL    HW2 9834   4.121   4.467   6.621
 2979SOL     OW 9835   4.488   6.871   4.156
 2979SOL    HW1 9836   4.518   6.850   4.248
 2979SOL    HW2 9837   4.501   6.792   4.097
 2980SOL     OW 9838   1.779   5.864   3.914
 2980SOL    HW1 9839   1.784   5.871   4.014
 2980SOL    HW2 9840   1.758   5.769   3.888
 2981SOL     OW 9841   0.919   0.231   5.820
 2981SOL    HW1 9842   0.940   0.328   5.810
 2981SOL    HW2 9843   0.938   0.183   5.734
 2982SOL     OW 9844   4.976   6.224   3.229
 2982SOL    HW1 9845   4.881   6.194   3.218
 2982SOL    HW2 9846   5.023   6.162   3.292
 2983SOL     OW 9847   0.690   1.141   4.297
 2983SOL    HW1 9848   0.705   1.102   4.206
 2983SOL    HW2 9849   0.644   1.230   4.288
 2984SOL     OW 9850   4.888   5.599   1.541
 2984SOL    HW1 9851   4.960   5.628   1.478
 2984SOL    HW2 9852   4.919   5.613   1.635
 2985SOL     OW 9853   0.626   2.331   5.254
 2985SOL    HW1 9854   0.679   2.304   5.335
 2985SOL    HW2 9855   0.685   2.326   5.173
 2986SOL     OW 9856   1.910   3.929   6.761
 2986SOL    HW1 9857   1.990   3.969   6.715
 2986SOL    HW2 9858   1.827   3.959   6.714
 2987SOL     OW 9859   4.618   0.791   3.539
 2987SOL    HW1 9860   4.679   0.846   3.595
 2987SOL    HW2 9861   4.647   0.695   3.541
 2988SOL     OW 9862   0.128   0.195   3.070
 2988SOL    HW1 9863   0.049   0.253   3.051
 2988SOL    HW2 9864   0.099   0.099   3.073
 2989SOL     OW 9865   6.595   5.946   0.862
 2989SOL    HW1 9866   6.522   5.915   0.923
 2989SOL    HW2 9867   6.628   5.869   0.808
 2990SOL     OW 9868   4.158   1.476   3.495
 2990SOL    HW1 9869   4.096   1.414   3.544
 2990SOL    HW2 9870   4.252   1.449   3.513
 2991SOL     OW 9871   6.773   4.045   0.256
 2991SOL    HW1 9872   6.873   4.045   0.245
 2991SOL    HW2 9873   6.743   4.134   0.290
 2992SOL     OW 9874   2.341   5.360   5.793
 2992SOL    HW1 9875   2.290   5.326   5.873
 2992SOL    HW2 9876   2.337   5.292   5.720
 2993SOL     OW 9877   1.074   4.872   1.894
 2993SOL    HW1 9878   1.064   4.822   1.808
 2993SOL    HW2 9879   1.163   4.916   1.897
 2994SOL     OW 9880   4.096   0.569   0.914
 2994SOL    HW1 9881   4.065   0.587   1.008
 2994SOL    HW2 9882   4.028   0.512   0.867
 2995SOL     OW 9883   0.662   3.109   6.995
 2995SOL    HW1 9884   0.720   3.031   7.018
 2995SOL    HW2 9885   0.718   3.185   6.962
 2996SOL     OW 9886   2.395   6.203   3.855
 2996SOL    HW1 9887   2.350   6.127   3.902
 2996SOL    HW2 9888   2.359   6.210   3.762
 2997SOL     OW 9889   4.880   6.645   2.234
 2997SOL    HW1 9890   4.884   6.545   2.239
 2997SOL    HW2 9891   4.792   6.673   2.198
 2998SOL     OW 9892   5.351   6.566   5.291
 2998SOL    HW1 9893   5.294   6.484   5.282
 2998SOL    HW2 9894   5.437   6.543   5.336
 2999SOL     OW 9895   3.449   5.484   3.790
 2999SOL    HW1 9896   3.438   5.419   3.865
 2999SOL    HW2 9897   3.514   5.446   3.723
 3000SOL     OW 9898   1.221   3.856   6.821
 3000SOL    HW1 9899   1.308   3.853   6.871
 3000SOL    HW2 9900   1.156   3.795   6.864
 3001SOL     OW 9901   5.318   0.050   6.677
 3001SOL    HW1 9902   5.253   0.120   6.649
 3001SOL    HW2 9903   5.280   6.984   6.656
 3002SOL     OW 9904   4.662   0.249   5.454
 3002SOL    HW1 9905   4.637   0.336   5.496
 3002SOL    HW2 9906   4.760   0.234   5.465
 3003SOL     OW 9907   2.529   6.608   6.625
 3003SOL    HW1 9908   2.432   6.592   6.605
 3003SOL    HW2 9909   2.573   6.648   6.546
 3004SOL     OW 9910   0.618   5.210   3.592
 3004SOL    HW1 9911   0.586   5.208   3.497
 3004SOL    HW2 9912   0.674   5.129   3.610
 3005SOL     OW 9913   3.539   2.506   0.518
 3005SOL    HW1 9914   3.627   2.503   0.469
 3005SOL    HW2 9915   3.489   2.588   0.492
 3006SOL     OW 9916   6.021   1.909   0.153
 3006SOL    HW1 9917   5.959   1.880   0.079
 3006SOL    HW2 9918   5.976   1.895   0.241
 3007SOL     OW 9919   6.094   5.110   2.251
 3007SOL    HW1 9920   6.071   5.144   2.160
 3007SOL    HW2 9921   6.048   5.022   2.267
 3008SOL     OW 9922   3.845   0.634   6.369
 3008SOL    HW1 9923   3.911   0.694   6.325
 3008SOL    HW2 9924   3.893   0.566   6.425
 3009SOL     OW 9925   0.424   6.465   2.792
 3009SOL    HW1 9926   0.433   6.552   2.744
 3009SOL    HW2 9927   0.342   6.467   2.850
 3010SOL     OW 9928   3.623   5.828   3.317
 3010SOL    HW1 9929   3.626   5.927   3.332
 3010SOL    HW2 9930   3.565   5.808   3.238
 3011SOL     OW 9931   5.504   1.071   0.026
 3011SOL    HW1 9932   5.438   1.049   6.979
 3011SOL    HW2 9933   5.505   0.999   0.095
 3012SOL     OW 9934   1.676   3.862   5.408
 3012SOL    HW1 9935   1.614   3.840   5.332
 3012SOL    HW2 9936   1.764   3.890   5.372
 3013SOL     OW 9937   5.582   5.798   4.188
 3013SOL    HW1 9938   5.494   5.788   4.141
 3013SOL    HW2 9939   5.635   5.714   4.178
 3014SOL     OW 9940   5.107   2.918   3.847
 3014SOL    HW1 9941   5.017   2.958   3.827
 3014SOL    HW2 9942   5.160   2.982   3.903
 3015SOL     OW 9943   3.359   1.992   0.428
 3015SOL    HW1 9944   3.325   2.081   0.396
 3015SOL    HW2 9945   3.356   1.989   0.527
 3016SOL     OW 9946   2.603   6.372   3.871
 3016SOL    HW1 9947   2.596   6.436   3.795
 3016SOL    HW2 9948   2.533   6.301   3.861
 3017SOL     OW 9949   0.751   5.208   1.775
 3017SOL    HW1 9950   0.740   5.306   1.792
 3017SOL    HW2 9951   0.808   5.195   1.694
 3018SOL     OW 9952   3.159   6.752   5.099
 3018SOL    HW1 9953   3.252   6.790   5.097
 3018SOL    HW2 9954   3.161   6.662   5.141
 3019SOL     OW 9955   1.952   6.773   0.743
 3019SOL    HW1 9956   1.864   6.818   0.763
 3019SOL    HW2 9957   2.027   6.836   0.765
 3020SOL     OW 9958   3.299   4.224   1.695
 3020SOL    HW1 9959   3.217   4.278   1.717
 3020SOL    HW2 9960   3.274   4.149   1.634
 3021SOL     OW 9961   2.353   1.376   0.048
 3021SOL    HW1 9962   2.358   1.470   0.082
 3021SOL    HW2 9963   2.257   1.348   0.042
 3022SOL     OW 9964   4.044   5.837   3.130
 3022SOL    HW1 9965   4.045   5.776   3.050
 3022SOL    HW2 9966   3.971   5.904   3.119
 3023SOL     OW 9967   3.887   6.547   2.588
 3023SOL    HW1 9968   3.802   6.590   2.556
 3023SOL    HW2 9969   3.868   6.490   2.668
 3024SOL     OW 9970   4.184   0.245   6.149
 3024SOL    HW1 9971   4.190   0.294   6.062
 3024SOL    HW2 9972   4.256   0.279   6.211
 3025SOL     OW 9973   3.655   2.495   0.108
 3025SOL    HW1 9974   3.617   2.420   0.053
 3025SOL    HW2 9975   3.624   2.583   0.071
 3026SOL     OW 9976   1.972   1.940   0.617
 3026SOL    HW1 9977   2.006   1.954   0.710
 3026SOL    HW2 9978   2.011   2.008   0.556
 3027SOL     OW 9979   4.422   0.664   1.822
 3027SOL    HW1 9980   4.352   0.731   1.846
 3027SOL    HW2 9981   4.403   0.578   1.869
 3028SOL     OW 9982   1.333   4.045   6.291
 3028SOL    HW1 9983   1.368   4.086   6.207
 3028SOL    HW2 9984   1.352   3.946   6.290
 3029SOL     OW 9985   0.537   4.669   5.048
 3029SOL    HW1 9986   0.580   4.655   5.138
 3029SOL    HW2 9987   0.438   4.655   5.056
 3030SOL     OW 9988   0.504   2.522   6.073
 3030SOL    HW1 9989   0.538   2.582   6.001
 3030SOL    HW2 9990   0.544   2.431   6.062
 3031SOL     OW 9991   0.155   3.571   0.746
 3031SOL    HW1 9992   0.133   3.490   0.801
 3031SOL    HW2 9993   0.163   3.545   0.650
 3032SOL     OW 9994   4.779   6.962   0.844
 3032SOL    HW1 9995   4.745   6.922   0.759
 3032SOL    HW2 9996   4.831   0.020   0.823
 3033SOL     OW 9997   0.853   2.549   1.287
 3033SOL    HW1 9998   0.838   2.460   1.244
 3033SOL    HW2 9999   0.942   2.549   1.332
 3034SOL     OW10000   2.047   6.050   3.940
 3034SOL    HW110001   2.062   6.142   3.902
 3034SOL    HW210002   1.953   6.044   3.975
 3035SOL     OW10003   6.812   2.773   0.391
 3035SOL    HW110004   6.795   2.801   0.485
 3035SOL    HW210005   6.880   2.834   0.349
 3036SOL     OW10006   1.375   3.149   6.620
 3036SOL    HW110007   1.371   3.237   6.572
 3036SOL    HW210008   1.436   3.158   6.699
 3037SOL     OW10009   6.233   5.799   4.289
 3037SOL    HW110010   6.241   5.890   4.248
 3037SOL    HW210011   6.188   5.807   4.378
 3038SOL     OW10012   6.006   6.858   6.352
 3038SOL    HW110013   6.076   6.927   6.371
 3038SOL    HW210014   5.956   6.885   6.269
 3039SOL     OW10015   6.643   3.766   2.618
 3039SOL    HW110016   6.658   3.684   2.562
 3039SOL    HW210017   6.553   3.804   2.596
 3040SOL     OW10018   4.970   3.666   6.144
 3040SOL    HW110019   5.015   3.752   6.168
 3040SOL    HW210020   4.911   3.636   6.219
 3041SOL     OW10021   2.178   2.710   5.478
 3041SOL    HW110022   2.252   2.746   5.421
 3041SOL    HW210023   2.180   2.755   5.568
 3042SOL     OW10024   5.874   6.990   1.643
 3042SOL    HW110025   5.827   6.903   1.626
 3042SOL    HW210026   5.824   0.039   1.598
 3043SOL     OW10027   0.528   5.276   1.043
 3043SOL    HW110028   0.601   5.303   1.106
 3043SOL    HW210029   0.548   5.185   1.006
 3044SOL     OW10030   2.874   4.770   6.012
 3044SOL    HW110031   2.870   4.857   5.963
 3044SOL    HW210032   2.900   4.787   6.107
 3045SOL     OW10033   4.923   0.593   2.831
 3045SOL    HW110034   4.924   0.494   2.818
 3045SOL    HW210035   4.928   0.639   2.742
 3046SOL     OW10036   2.433   2.236   5.919
 3046SOL    HW110037   2.384   2.173   5.858
 3046SOL    HW210038   2.504   2.186   5.968
 3047SOL     OW10039   5.251   6.030   2.719
 3047SOL    HW110040   5.253   5.999   2.814
 3047SOL    HW210041   5.177   6.096   2.707
 3048SOL     OW10042   3.787   2.941   1.522
 3048SOL    HW110043   3.771   2.846   1.494
 3048SOL    HW210044   3.706   2.996   1.501
 3049SOL     OW10045   1.652   5.998   1.407
 3049SOL    HW110046   1.632   5.901   1.390
 3049SOL    HW210047   1.733   6.025   1.357
 3050SOL     OW10048   3.452   0.949   3.561
 3050SOL    HW110049   3.502   0.937   3.475
 3050SOL    HW210050   3.420   1.043   3.568
 3051SOL     OW10051   2.675   3.393   6.877
 3051SOL    HW110052   2.662   3.487   6.846
 3051SOL    HW210053   2.652   3.387   6.974
 3052SOL     OW10054   4.027   0.567   2.353
 3052SOL    HW110055   3.970   0.607   2.425
 3052SOL    HW210056   4.042   0.470   2.373
 3053SOL     OW10057   6.681   0.490   6.820
 3053SOL    HW110058   6.766   0.493   6.768
 3053SOL    HW210059   6.613   0.436   6.770
 3054SOL     OW10060   0.595   2.718   1.205
 3054SOL    HW110061   0.622   2.751   1.115
 3054SOL    HW210062   0.664   2.655   1.241
 3055SOL     OW10063   4.727   6.761   3.779
 3055SOL    HW110064   4.775   6.704   3.713
 3055SOL    HW210065   4.700   6.847   3.736
 3056SOL     OW10066   6.892   0.633   6.151
 3056SOL    HW110067   6.860   0.566   6.083
 3056SOL    HW210068   6.891   0.590   6.241
 3057SOL     OW10069   4.406   5.620   2.741
 3057SOL    HW110070   4.487   5.636   2.799
 3057SOL    HW210071   4.358   5.539   2.774
 3058SOL     OW10072   0.029   5.316   1.242
 3058SOL    HW110073   0.121   5.323   1.280
 3058SOL    HW210074   7.014   5.407   1.233
 3059SOL     OW10075   2.091   2.269   5.483
 3059SOL    HW110076   2.139   2.255   5.396
 3059SOL    HW210077   2.075   2.180   5.527
 3060SOL     OW10078   0.642   6.064   0.515
 3060SOL    HW110079   0.655   5.965   0.518
 3060SOL    HW210080   0.713   6.106   0.458
 3061SOL     OW10081   6.465   0.870   5.102
 3061SOL    HW110082   6.408   0.856   5.020
 3061SOL    HW210083   6.465   0.967   5.126
 3062SOL     OW10084   1.468   0.195   0.030
 3062SOL    HW110085   1.484   0.222   6.960
 3062SOL    HW210086   1.373   0.213   0.054
 3063SOL     OW10087   3.104   5.345   1.532
 3063SOL    HW110088   3.124   5.317   1.626
 3063SOL    HW210089   3.074   5.265   1.479
 3064SOL     OW10090   6.071   3.533   3.980
 3064SOL    HW110091   6.005   3.585   3.926
 3064SOL    HW210092   6.151   3.512   3.924
 3065SOL     OW10093   1.745   0.875   6.566
 3065SOL    HW110094   1.718   0.885   6.662
 3065SOL    HW210095   1.838   0.839   6.561
 3066SOL     OW10096   5.433   4.593   0.690
 3066SOL    HW110097   5.524   4.555   0.706
 3066SOL    HW210098   5.383   4.597   0.776
 3067SOL     OW10099   3.593   1.821   4.489
 3067SOL    HW110100   3.654   1.743   4.505
 3067SOL    HW210101   3.499   1.788   4.478
 3068SOL     OW10102   5.455   6.009   0.716
 3068SOL    HW110103   5.531   6.049   0.665
 3068SOL    HW210104   5.375   6.068   0.710
 3069SOL     OW10105   6.551   6.157   2.118
 3069SOL    HW110106   6.544   6.109   2.031
 3069SOL    HW210107   6.491   6.236   2.118
 3070SOL     OW10108   1.774   1.210   2.798
 3070SOL    HW110109   1.764   1.216   2.897
 3070SOL    HW210110   1.853   1.152   2.776
 3071SOL     OW10111   5.801   6.433   3.352
 3071SOL    HW110112   5.768   6.492   3.278
 3071SOL    HW210113   5.765   6.466   3.439
 3072SOL     OW10114   0.663   6.474   0.613
 3072SOL    HW110115   0.662   6.379   0.645
 3072SOL    HW210116   0.754   6.512   0.628
 3073SOL     OW10117   0.895   3.272   5.320
 3073SOL    HW110118   0.925   3.189   5.367
 3073SOL    HW210119   0.825   3.249   5.253
 3074SOL     OW10120   5.927   2.775   0.860
 3074SOL    HW110121   5.844   2.731   0.827
 3074SOL    HW210122   6.005   2.744   0.806
 3075SOL     OW10123   1.942   6.369   1.361
 3075SOL    HW110124   1.949   6.275   1.328
 3075SOL    HW210125   1.992   6.429   1.299
 3076SOL     OW10126   6.572   1.429   4.520
 3076SOL    HW110127   6.617   1.399   4.436
 3076SOL    HW210128   6.496   1.366   4.541
 3077SOL     OW10129   4.969   5.169   2.737
 3077SOL    HW110130   4.886   5.165   2.681
 3077SOL    HW210131   5.049   5.162   2.678
 3078SOL     OW10132   2.048   3.548   1.168
 3078SOL    HW110133   2.064   3.608   1.246
 3078SOL    HW210134   1.961   3.572   1.125
 3079SOL     OW10135   2.075   2.636   4.573
 3079SOL    HW110136   2.116   2.716   4.616
 3079SOL    HW210137   2.014   2.590   4.639
 3080SOL     OW10138   5.361   4.487   3.167
 3080SOL    HW110139   5.394   4.410   3.221
 3080SOL    HW210140   5.301   4.544   3.223
 3081SOL     OW10141   0.456   4.042   6.186
 3081SOL    HW110142   0.399   3.967   6.221
 3081SOL    HW210143   0.508   4.010   6.106
 3082SOL     OW10144   3.659   6.091   3.326
 3082SOL    HW110145   3.703   6.150   3.258
 3082SOL    HW210146   3.655   6.139   3.413
 3083SOL     OW10147   3.833   6.409   3.641
 3083SOL    HW110148   3.922   6.453   3.637
 3083SOL    HW210149   3.764   6.476   3.671
 3084SOL     OW10150   4.704   4.802   4.496
 3084SOL    HW110151   4.732   4.798   4.592
 3084SOL    HW210152   4.623   4.745   4.482
 3085SOL     OW10153   0.596   4.775   2.317
 3085SOL    HW110154   0.606   4.682   2.282
 3085SOL    HW210155   0.687   4.815   2.330
 3086SOL     OW10156   4.354   1.534   1.730
 3086SOL    HW110157   4.352   1.561   1.826
 3086SOL    HW210158   4.320   1.440   1.721
 3087SOL     OW10159   0.706   5.034   4.021
 3087SOL    HW110160   0.778   5.029   3.951
 3087SOL    HW210161   0.715   5.119   4.072
 3088SOL     OW10162   2.620   5.200   5.541
 3088SOL    HW110163   2.628   5.224   5.638
 3088SOL    HW210164   2.686   5.127   5.520
 3089SOL     OW10165   0.817   2.632   0.685
 3089SOL    HW110166   0.783   2.617   0.778
 3089SOL    HW210167   0.904   2.681   0.688
 3090SOL     OW10168   2.130   2.106   1.817
 3090SOL    HW110169   2.062   2.141   1.753
 3090SOL    HW210170   2.118   2.149   1.906
 3091SOL     OW10171   2.298   6.205   0.174
 3091SOL    HW110172   2.308   6.295   0.131
 3091SOL    HW210173   2.209   6.199   0.219
 3092SOL     OW10174   4.625   0.245   6.884
 3092SOL    HW110175   4.724   0.253   6.895
 3092SOL    HW210176   4.590   0.173   6.944
 3093SOL     OW10177   5.015   4.905   5.961
 3093SOL    HW110178   4.987   4.924   5.867
 3093SOL    HW210179   5.025   4.806   5.974
 3094SOL     OW10180   3.623   6.630   4.684
 3094SOL    HW110181   3.565   6.653   4.606
 3094SOL    HW210182   3.573   6.571   4.747
 3095SOL     OW10183   2.817   5.022   3.934
 3095SOL    HW110184   2.809   5.119   3.960
 3095SOL    HW210185   2.837   4.968   4.015
 3096SOL     OW10186   0.731   0.242   4.441
 3096SOL    HW110187   0.700   0.336   4.429
 3096SOL    HW210188   0.749   0.201   4.351
 3097SOL     OW10189   0.771   2.321   1.153
 3097SOL    HW110190   0.681   2.276   1.158
 3097SOL    HW210191   0.803   2.321   1.058
 3098SOL     OW10192   2.422   3.655   0.840
 3098SOL    HW110193   2.348   3.594   0.867
 3098SOL    HW210194   2.446   3.715   0.916
 3099SOL     OW10195   0.154   5.583   5.000
 3099SOL    HW110196   0.193   5.642   4.930
 3099SOL    HW210197   0.217   5.576   5.077
 3100SOL     OW10198   6.534   0.214   4.505
 3100SOL    HW110199   6.498   0.120   4.501
 3100SOL    HW210200   6.624   0.216   4.461
 3101SOL     OW10201   5.090   6.159   5.442
 3101SOL    HW110202   5.085   6.252   5.404
 3101SOL    HW210203   5.094   6.093   5.368
 3102SOL     OW10204   0.741   4.954   2.713
 3102SOL    HW110205   0.643   4.946   2.732
 3102SOL    HW210206   0.759   5.038   2.663
 3103SOL     OW10207   3.136   1.329   1.458
 3103SOL    HW110208   3.082   1.302   1.378
 3103SOL    HW210209   3.075   1.337   1.538
 3104SOL     OW10210   6.102   6.964   4.634
 3104SOL    HW110211   6.051   6.958   4.720
 3104SOL    HW210212   6.132   6.872   4.607
 3105SOL     OW10213   6.733   4.981   2.785
 3105SOL    HW110214   6.633   4.988   2.782
 3105SOL    HW210215   6.764   4.921   2.711
 3106SOL     OW10216   6.826   1.390   3.048
 3106SOL    HW110217   6.912   1.353   3.012
 3106SOL    HW210218   6.815   1.361   3.143
 3107SOL     OW10219   3.667   0.588   4.062
 3107SOL    HW110220   3.591   0.644   4.030
 3107SOL    HW210221   3.633   0.517   4.124
 3108SOL     OW10222   1.540   0.315   4.157
 3108SOL    HW110223   1.578   0.234   4.203
 3108SOL    HW210224   1.611   0.385   4.150
 3109SOL     OW10225   5.657   5.930   2.711
 3109SOL    HW110226   5.662   6.023   2.749
 3109SOL    HW210227   5.659   5.863   2.785
 3110SOL     OW10228   0.772   1.974   3.818
 3110SOL    HW110229   0.793   2.070   3.835
 3110SOL    HW210230   0.805   1.948   3.727
 3111SOL     OW10231   6.533   6.042   4.036
 3111SOL    HW110232   6.444   6.048   4.081
 3111SOL    HW210233   6.522   6.057   3.938
 3112SOL     OW10234   5.040   2.854   6.326
 3112SOL    HW110235   5.085   2.791   6.389
 3112SOL    HW210236   5.021   2.806   6.240
 3113SOL     OW10237   1.887   0.035   4.301
 3113SOL    HW110238   1.944   7.020   4.372
 3113SOL    HW210239   1.801   0.068   4.340
 3114SOL     OW10240   4.744   3.036   6.895
 3114SOL    HW110241   4.668   3.016   6.957
 3114SOL    HW210242   4.711   3.087   6.816
 3115SOL     OW10243   4.949   3.530   0.183
 3115SOL    HW110244   4.906   3.457   0.235
 3115SOL    HW210245   5.048   3.517   0.183
 3116SOL     OW10246   0.120   3.802   0.202
 3116SOL    HW110247   0.110   3.786   0.300
 3116SOL    HW210248   0.085   3.893   0.178
 3117SOL     OW10249   4.541   3.506   5.317
 3117SOL    HW110250   4.587   3.453   5.389
 3117SOL    HW210251   4.601   3.511   5.237
 3118SOL     OW10252   0.447   4.938   6.808
 3118SOL    HW110253   0.538   4.936   6.767
 3118SOL    HW210254   0.418   5.033   6.819
 3119SOL     OW10255   1.687   3.885   6.087
 3119SOL    HW110256   1.771   3.900   6.034
 3119SOL    HW210257   1.680   3.956   6.157
 3120SOL     OW10258   2.315   6.626   4.470
 3120SOL    HW110259   2.221   6.647   4.445
 3120SOL    HW210260   2.338   6.534   4.438
 3121SOL     OW10261   0.569   1.879   2.455
 3121SOL    HW110262   0.664   1.867   2.482
 3121SOL    HW210263   0.556   1.971   2.420
 3122SOL     OW10264   3.052   5.618   5.950
 3122SOL    HW110265   3.123   5.584   5.889
 3122SOL    HW210266   3.073   5.711   5.978
 3123SOL     OW10267   3.142   6.480   3.643
 3123SOL    HW110268   3.188   6.537   3.711
 3123SOL    HW210269   3.073   6.535   3.595
 3124SOL     OW10270   4.141   6.987   4.680
 3124SOL    HW110271   4.133   6.928   4.760
 3124SOL    HW210272   4.137   0.058   4.708
 3125SOL     OW10273   6.063   1.972   6.212
 3125SOL    HW110274   6.049   1.923   6.298
 3125SOL    HW210275   6.041   2.068   6.225
 3126SOL     OW10276   4.751   4.261   6.742
 3126SOL    HW110277   4.814   4.243   6.817
 3126SOL    HW210278   4.735   4.177   6.691
 3127SOL     OW10279   0.776   2.419   3.148
 3127SOL    HW110280   0.777   2.456   3.054
 3127SOL    HW210281   0.724   2.334   3.150
 3128SOL     OW10282   2.206   6.862   6.703
 3128SOL    HW110283   2.217   6.872   6.604
 3128SOL    HW210284   2.290   6.891   6.749
 3129SOL     OW10285   1.314   4.450   6.580
 3129SOL    HW110286   1.348   4.408   6.664
 3129SOL    HW210287   1.364   4.412   6.502
 3130SOL     OW10288   2.301   4.263   2.453
 3130SOL    HW110289   2.221   4.306   2.412
 3130SOL    HW210290   2.278   4.170   2.482
 3131SOL     OW10291   0.756   2.925   1.398
 3131SOL    HW110292   0.801   2.859   1.340
 3131SOL    HW210293   0.700   2.878   1.466
 3132SOL     OW10294   4.966   5.624   5.677
 3132SOL    HW110295   4.999   5.623   5.771
 3132SOL    HW210296   4.968   5.718   5.642
 3133SOL     OW10297   2.617   2.508   3.828
 3133SOL    HW110298   2.577   2.418   3.812
 3133SOL    HW210299   2.680   2.504   3.905
 3134SOL     OW10300   5.475   4.139   1.713
 3134SOL    HW110301   5.416   4.067   1.752
 3134SOL    HW210302   5.446   4.228   1.747
 3135SOL     OW10303   4.408   1.680   5.060
 3135SOL    HW110304   4.360   1.639   4.982
 3135SOL    HW210305   4.493   1.631   5.076
 3136SOL     OW10306   6.333   6.601   5.951
 3136SOL    HW110307   6.255   6.663   5.943
 3136SOL    HW210308   6.344   6.574   6.047
 3137SOL     OW10309   5.251   0.521   3.747
 3137SOL    HW110310   5.273   0.618   3.735
 3137SOL    HW210311   5.191   0.509   3.825
 3138SOL     OW10312   6.558   1.978   4.161
 3138SOL    HW110313   6.626   1.977   4.088
 3138SOL    HW210314   6.593   1.930   4.241
 3139SOL     OW10315   4.542   6.825   6.300
 3139SOL    HW110316   4.524   6.817   6.202
 3139SOL    HW210317   4.514   6.916   6.332
 3140SOL     OW10318   6.413   6.472   6.204
 3140SOL    HW110319   6.361   6.536   6.261
 3140SOL    HW210320   6.505   6.509   6.189
 3141SOL     OW10321   0.707   6.991   6.213
 3141SOL    HW110322   0.761   6.915   6.179
 3141SOL    HW210323   0.693   0.033   6.140
 3142SOL     OW10324   4.915   6.091   1.067
 3142SOL    HW110325   4.894   5.994   1.051
 3142SOL    HW210326   4.900   6.142   0.982
 3143SOL     OW10327   6.804   2.593   0.072
 3143SOL    HW110328   6.842   2.523   0.011
 3143SOL    HW210329   6.821   2.567   0.167
 3144SOL     OW10330   2.774   3.800   0.989
 3144SOL    HW110331   2.832   3.720   0.974
 3144SOL    HW210332   2.825   3.869   1.040
 3145SOL     OW10333   2.287   5.534   2.758
 3145SOL    HW110334   2.255   5.440   2.744
 3145SOL    HW210335   2.386   5.535   2.770
 3146SOL     OW10336   1.242   6.846   3.117
 3146SOL    HW110337   1.149   6.873   3.143
 3146SOL    HW210338   1.243   6.818   3.021
 3147SOL     OW10339   4.173   5.361   6.331
 3147SOL    HW110340   4.267   5.390   6.345
 3147SOL    HW210341   4.170   5.261   6.323
 3148SOL     OW10342   4.307   5.271   4.387
 3148SOL    HW110343   4.391   5.248   4.339
 3148SOL    HW210344   4.250   5.189   4.396
 3149SOL     OW10345   3.274   0.180   5.224
 3149SOL    HW110346   3.196   0.205   5.167
 3149SOL    HW210347   3.322   0.263   5.253
 3150SOL     OW10348   5.278   5.503   4.223
 3150SOL    HW110349   5.201   5.490   4.285
 3150SOL    HW210350   5.318   5.415   4.198
 3151SOL     OW10351   4.478   1.480   6.725
 3151SOL    HW110352   4.513   1.388   6.740
 3151SOL    HW210353   4.458   1.523   6.813
 3152SOL     OW10354   1.466   5.207   1.747
 3152SOL    HW110355   1.430   5.240   1.834
 3152SOL    HW210356   1.529   5.130   1.763
 3153SOL     OW10357   6.528   4.440   2.135
 3153SOL    HW110358   6.605   4.484   2.089
 3153SOL    HW210359   6.548   4.431   2.233
 3154SOL     OW10360   6.185   1.776   0.471
 3154SOL    HW110361   6.148   1.696   0.424
 3154SOL    HW210362   6.134   1.858   0.443
 3155SOL     OW10363   0.077   5.110   1.449
 3155SOL    HW110364   0.124   5.041   1.393
 3155SOL    HW210365   0.050   5.187   1.391
 3156SOL     OW10366   3.861   3.400   3.771
 3156SOL    HW110367   3.781   3.340   3.778
 3156SOL    HW210368   3.891   3.427   3.862
 3157SOL     OW10369   2.006   3.026   4.870
 3157SOL    HW110370   2.048   3.106   4.828
 3157SOL    HW210371   2.039   3.016   4.964
 3158SOL     OW10372   4.601   0.444   1.280
 3158SOL    HW110373   4.593   0.401   1.190
 3158SOL    HW210374   4.651   0.530   1.272
 3159SOL     OW10375   5.102   6.976   6.862
 3159SOL    HW110376   5.040   6.934   6.795
 3159SOL    HW210377   5.146   6.903   6.916
 3160SOL     OW10378   6.108   5.635   5.878
 3160SOL    HW110379   6.154   5.581   5.947
 3160SOL    HW210380   6.015   5.656   5.908
 3161SOL     OW10381   1.324   1.235   2.258
 3161SOL    HW110382   1.347   1.253   2.354
 3161SOL    HW210383   1.401   1.191   2.213
 3162SOL     OW10384   0.348   5.182   0.088
 3162SOL    HW110385   0.301   5.113   0.143
 3162SOL    HW210386   0.392   5.249   0.149
 3163SOL     OW10387   3.538   2.702   6.369
 3163SOL    HW110388   3.481   2.773   6.328
 3163SOL    HW210389   3.479   2.634   6.414
 3164SOL     OW10390   4.594   3.799   1.591
 3164SOL    HW110391   4.554   3.830   1.505
 3164SOL    HW210392   4.551   3.847   1.668
 3165SOL     OW10393   1.644   6.394   1.713
 3165SOL    HW110394   1.710   6.392   1.638
 3165SOL    HW210395   1.572   6.327   1.696
 3166SOL     OW10396   4.465   2.560   6.341
 3166SOL    HW110397   4.561   2.533   6.346
 3166SOL    HW210398   4.449   2.640   6.398
 3167SOL     OW10399   6.768   4.944   2.054
 3167SOL    HW110400   6.695   4.889   2.013
 3167SOL    HW210401   6.763   4.936   2.153
 3168SOL     OW10402   5.097   2.607   0.348
 3168SOL    HW110403   5.113   2.662   0.266
 3168SOL    HW210404   5.010   2.558   0.338
 3169SOL     OW10405   0.715   3.342   6.043
 3169SOL    HW110406   0.808   3.372   6.063
 3169SOL    HW210407   0.694   3.358   5.947
 3170SOL     OW10408   3.902   0.009   0.339
 3170SOL    HW110409   3.828   7.002   0.281
 3170SOL    HW210410   3.879   0.098   0.377
 3171SOL     OW10411   6.492   6.455   1.431
 3171SOL    HW110412   6.529   6.367   1.461
 3171SOL    HW210413   6.522   6.527   1.493
 3172SOL     OW10414   6.993   6.239   4.927
 3172SOL    HW110415   0.008   6.228   5.018
 3172SOL    HW210416   0.026   6.300   4.872
 3173SOL     OW10417   2.799   0.734   1.516
 3173SOL    HW110418   2.773   0.651   1.566
 3173SOL    HW210419   2.848   0.709   1.433
 3174SOL     OW10420   2.412   2.735   6.488
 3174SOL    HW110421   2.407   2.811   6.423
 3174SOL    HW210422   2.425   2.771   6.580
 3175SOL     OW10423   0.384   6.527   6.598
 3175SOL    HW110424   0.343   6.483   6.678
 3175SOL    HW210425   0.474   6.563   6.623
 3176SOL     OW10426   1.996   4.729   5.565
 3176SOL    HW110427   2.033   4.821   5.582
 3176SOL    HW210428   1.938   4.731   5.484
 3177SOL     OW10429   5.768   5.493   5.424
 3177SOL    HW110430   5.808   5.477   5.514
 3177SOL    HW210431   5.755   5.592   5.411
 3178SOL     OW10432   6.830   3.565   1.708
 3178SOL    HW110433   6.832   3.664   1.722
 3178SOL    HW210434   6.865   3.543   1.617
 3179SOL     OW10435   2.050   2.208   2.063
 3179SOL    HW110436   2.128   2.208   2.126
 3179SOL    HW210437   1.967   2.187   2.114
 3180SOL     OW10438   4.010   0.773   6.222
 3180SOL    HW110439   3.992   0.743   6.128
 3180SOL    HW210440   4.043   0.867   6.222
 3181SOL     OW10441   0.527   0.465   3.585
 3181SOL    HW110442   0.468   0.433   3.659
 3181SOL    HW210443   0.548   0.389   3.524
 3182SOL     OW10444   0.900   0.482   5.462
 3182SOL    HW110445   0.829   0.413   5.481
 3182SOL    HW210446   0.984   0.436   5.434
 3183SOL     OW10447   4.033   4.415   1.488
 3183SOL    HW110448   3.943   4.434   1.449
 3183SOL    HW210449   4.104   4.442   1.423
 3184SOL     OW10450   2.603   1.887   2.260
 3184SOL    HW110451   2.583   1.910   2.165
 3184SOL    HW210452   2.675   1.946   2.295
 3185SOL     OW10453   6.490   0.544   5.648
 3185SOL    HW110454   6.535   0.480   5.711
 3185SOL    HW210455   6.500   0.511   5.554
 3186SOL     OW10456   3.026   1.141   3.490
 3186SOL    HW110457   3.105   1.198   3.514
 3186SOL    HW210458   2.952   1.158   3.554
 3187SOL     OW10459   3.718   4.278   6.828
 3187SOL    HW110460   3.653   4.226   6.774
 3187SOL    HW210461   3.748   4.358   6.777
 3188SOL     OW10462   3.817   5.982   3.117
 3188SOL    HW110463   3.753   6.029   3.056
 3188SOL    HW210464   3.768   5.915   3.173
 3189SOL     OW10465   2.278   1.612   3.385
 3189SOL    HW110466   2.335   1.598   3.466
 3189SOL    HW210467   2.331   1.658   3.314
 3190SOL     OW10468   1.172   6.420   1.087
 3190SOL    HW110469   1.165   6.385   0.993
 3190SOL    HW210470   1.099   6.380   1.143
 3191SOL     OW10471   3.592   0.456   1.257
 3191SOL    HW110472   3.646   0.540   1.251
 3191SOL    HW210473   3.496   0.479   1.275
 3192SOL     OW10474   0.765   2.057   1.004
 3192SOL    HW110475   0.701   2.083   1.076
 3192SOL    HW210476   0.854   2.036   1.046
 3193SOL     OW10477   4.675   2.517   5.862
 3193SOL    HW110478   4.586   2.551   5.831
 3193SOL    HW210479   4.663   2.466   5.947
 3194SOL     OW10480   1.154   2.975   6.617
 3194SOL    HW110481   1.179   2.881   6.593
 3194SOL    HW210482   1.235   3.033   6.613
 3195SOL     OW10483   1.711   2.383   3.478
 3195SOL    HW110484   1.765   2.466   3.463
 3195SOL    HW210485   1.618   2.397   3.444
 3196SOL     OW10486   6.627   0.097   5.028
 3196SOL    HW110487   6.617   0.134   5.120
 3196SOL    HW210488   6.542   0.052   5.001
 3197SOL     OW10489   1.394   5.784   2.595
 3197SOL    HW110490   1.362   5.879   2.603
 3197SOL    HW210491   1.468   5.779   2.528
 3198SOL     OW10492   6.694   1.788   6.760
 3198SOL    HW110493   6.618   1.842   6.722
 3198SOL    HW210494   6.757   1.850   6.808
 3199SOL     OW10495   4.817   2.301   1.697
 3199SOL    HW110496   4.865   2.311   1.784
 3199SOL    HW210497   4.816   2.389   1.649
 3200SOL     OW10498   0.069   2.959   1.018
 3200SOL    HW110499   0.132   3.001   0.952
 3200SOL    HW210500   0.117   2.943   1.104
 3201SOL     OW10501   5.170   3.514   3.928
 3201SOL    HW110502   5.163   3.501   3.829
 3201SOL    HW210503   5.079   3.525   3.967
 3202SOL     OW10504   1.658   4.329   2.313
 3202SOL    HW110505   1.734   4.340   2.377
 3202SOL    HW210506   1.616   4.239   2.325
 3203SOL     OW10507   6.060   0.920   0.915
 3203SOL    HW110508   6.089   1.007   0.875
 3203SOL    HW210509   6.090   0.915   1.010
 3204SOL     OW10510   5.754   5.436   1.487
 3204SOL    HW110511   5.658   5.446   1.512
 3204SOL    HW210512   5.803   5.391   1.562
 3205SOL     OW10513   0.001   4.576   6.833
 3205SOL    HW110514   0.029   4.657   6.782
 3205SOL    HW210515   0.082   4.521   6.853
 3206SOL     OW10516   0.264   0.124   5.396
 3206SOL    HW110517   0.230   0.170   5.479
 3206SOL    HW210518   0.317   0.189   5.342
 3207SOL     OW10519   0.727   1.328   5.400
 3207SOL    HW110520   0.634   1.298   5.380
 3207SOL    HW210521   0.725   1.394   5.475
 3208SOL     OW10522   4.246   5.944   5.056
 3208SOL    HW110523   4.279   5.946   5.151
 3208SOL    HW210524   4.323   5.958   4.994
 3209SOL     OW10525   3.312   6.542   3.850
 3209SOL    HW110526   3.401   6.515   3.813
 3209SOL    HW210527   3.321   6.629   3.899
 3210SOL     OW10528   0.458   3.443   2.633
 3210SOL    HW110529   0.400   3.371   2.672
 3210SOL    HW210530   0.440   3.529   2.680
 3211SOL     OW10531   2.386   4.088   0.783
 3211SOL    HW110532   2.323   4.034   0.840
 3211SOL    HW210533   2.374   4.185   0.804
 3212SOL     OW10534   4.323   1.802   6.480
 3212SOL    HW110535   4.241   1.775   6.431
 3212SOL    HW210536   4.328   1.753   6.567
 3213SOL     OW10537   6.313   5.262   2.923
 3213SOL    HW110538   6.279   5.353   2.897
 3213SOL    HW210539   6.238   5.196   2.921
 3214SOL     OW10540   4.705   6.202   0.190
 3214SOL    HW110541   4.632   6.209   0.122
 3214SOL    HW210542   4.787   6.247   0.156
 3215SOL     OW10543   6.496   2.966   0.883
 3215SOL    HW110544   6.563   3.027   0.925
 3215SOL    HW210545   6.500   2.876   0.928
 3216SOL     OW10546   5.746   6.076   2.983
 3216SOL    HW110547   5.719   6.155   2.928
 3216SOL    HW210548   5.801   6.013   2.928
 3217SOL     OW10549   1.529   4.708   3.362
 3217SOL    HW110550   1.608   4.647   3.367
 3217SOL    HW210551   1.459   4.667   3.303
 3218SOL     OW10552   4.057   6.937   3.214
 3218SOL    HW110553   4.089   6.950   3.120
 3218SOL    HW210554   4.021   7.023   3.249
 3219SOL     OW10555   6.932   0.559   3.223
 3219SOL    HW110556   6.868   0.561   3.299
 3219SOL    HW210557   6.895   0.613   3.147
 3220SOL     OW10558   6.988   4.443   5.088
 3220SOL    HW110559   6.905   4.496   5.101
 3220SOL    HW210560   0.022   4.452   5.169
 3221SOL     OW10561   2.625   5.795   2.839
 3221SOL    HW110562   2.593   5.701   2.832
 3221SOL    HW210563   2.722   5.800   2.814
 3222SOL     OW10564   4.896   1.741   2.993
 3222SOL    HW110565   4.820   1.731   3.058
 3222SOL    HW210566   4.948   1.823   3.015
 3223SOL     OW10567   3.109   5.127   6.781
 3223SOL    HW110568   3.172   5.196   6.817
 3223SOL    HW210569   3.160   5.047   6.751
 3224SOL     OW10570   4.564   5.297   6.434
 3224SOL    HW110571   4.507   5.251   6.502
 3224SOL    HW210572   4.628   5.233   6.394
 3225SOL     OW10573   4.545   3.141   6.538
 3225SOL    HW110574   4.539   3.218   6.601
 3225SOL    HW210575   4.468   3.143   6.475
 3226SOL     OW10576   2.228   0.827   4.250
 3226SOL    HW110577   2.268   0.886   4.179
 3226SOL    HW210578   2.292   0.820   4.327
 3227SOL     OW10579   3.145   2.210   6.813
 3227SOL    HW110580   3.196   2.295   6.806
 3227SOL    HW210581   3.118   2.179   6.721
 3228SOL     OW10582   5.823   3.098   3.987
 3228SOL    HW110583   5.809   3.014   3.935
 3228SOL    HW210584   5.862   3.168   3.927
 3229SOL     OW10585   3.418   2.269   5.787
 3229SOL    HW110586   3.515   2.261   5.808
 3229SOL    HW210587   3.404   2.344   5.723
 3230SOL     OW10588   0.426   1.678   3.363
 3230SOL    HW110589   0.470   1.698   3.275
 3230SOL    HW210590   0.377   1.759   3.395
 3231SOL     OW10591   4.743   5.876   1.413
 3231SOL    HW110592   4.759   5.820   1.332
 3231SOL    HW210593   4.692   5.823   1.481
 3232SOL     OW10594   4.156   4.923   5.017
 3232SOL    HW110595   4.198   4.981   5.087
 3232SOL    HW210596   4.086   4.976   4.969
 3233SOL     OW10597   0.814   4.229   1.221
 3233SOL    HW110598   0.886   4.161   1.233
 3233SOL    HW210599   0.827   4.276   1.134
 3234SOL     OW10600   0.136   2.558   0.311
 3234SOL    HW110601   0.048   2.520   0.284
 3234SOL    HW210602   0.123   2.628   0.381
 3235SOL     OW10603   5.777   6.628   2.684
 3235SOL    HW110604   5.683   6.662   2.685
 3235SOL    HW210605   5.789   6.560   2.756
 3236SOL     OW10606   1.784   3.016   1.928
 3236SOL    HW110607   1.866   3.016   1.986
 3236SOL    HW210608   1.705   3.045   1.982
 3237SOL     OW10609   5.046   6.905   4.720
 3237SOL    HW110610   5.035   6.835   4.790
 3237SOL    HW210611   4.959   6.953   4.706
 3238SOL     OW10612   0.550   5.943   0.032
 3238SOL    HW110613   0.497   5.859   0.044
 3238SOL    HW210614   0.586   5.946   6.964
 3239SOL     OW10615   6.122   0.781   6.741
 3239SOL    HW110616   6.183   0.783   6.662
 3239SOL    HW210617   6.040   0.836   6.722
 3240SOL     OW10618   0.422   6.796   4.704
 3240SOL    HW110619   0.452   6.706   4.672
 3240SOL    HW210620   0.333   6.788   4.749
 3241SOL     OW10621   4.739   1.127   4.288
 3241SOL    HW110622   4.738   1.226   4.303
 3241SOL    HW210623   4.810   1.085   4.344
 3242SOL     OW10624   3.773   5.336   0.175
 3242SOL    HW110625   3.705   5.269   0.144
 3242SOL    HW210626   3.865   5.299   0.162
 3243SOL     OW10627   5.063   5.062   6.932
 3243SOL    HW110628   4.998   5.014   6.991
 3243SOL    HW210629   5.151   5.015   6.933
 3244SOL     OW10630   4.752   5.989   5.896
 3244SOL    HW110631   4.828   5.931   5.922
 3244SOL    HW210632   4.765   6.081   5.935
 3245SOL     OW10633   4.160   3.328   6.314
 3245SOL    HW110634   4.086   3.279   6.268
 3245SOL    HW210635   4.184   3.409   6.261
 3246SOL     OW10636   5.298   0.297   2.457
 3246SOL    HW110637   5.389   0.319   2.421
 3246SOL    HW210638   5.299   0.303   2.556
 3247SOL     OW10639   0.310   3.745   3.527
 3247SOL    HW110640   0.294   3.652   3.495
 3247SOL    HW210641   0.392   3.747   3.584
 3248SOL     OW10642   6.347   3.776   2.230
 3248SOL    HW110643   6.319   3.721   2.152
 3248SOL    HW210644   6.350   3.872   2.204
 3249SOL     OW10645   3.531   4.561   5.313
 3249SOL    HW110646   3.619   4.607   5.317
 3249SOL    HW210647   3.458   4.626   5.334
 3250SOL     OW10648   5.205   6.855   2.594
 3250SOL    HW110649   5.286   6.913   2.607
 3250SOL    HW210650   5.155   6.885   2.512
 3251SOL     OW10651   3.684   1.569   3.041
 3251SOL    HW110652   3.656   1.510   3.117
 3251SOL    HW210653   3.782   1.588   3.049
 3252SOL     OW10654   3.501   1.173   2.809
 3252SOL    HW110655   3.495   1.248   2.743
 3252SOL    HW210656   3.435   1.187   2.882
 3253SOL     OW10657   4.750   2.931   1.435
 3253SOL    HW110658   4.702   2.853   1.394
 3253SOL    HW210659   4.688   2.981   1.494
 3254SOL     OW10660   3.688   4.880   4.018
 3254SOL    HW110661   3.726   4.970   3.998
 3254SOL    HW210662   3.758   4.823   4.061
 3255SOL     OW10663   4.795   5.472   0.527
 3255SOL    HW110664   4.839   5.414   0.459
 3255SOL    HW210665   4.840   5.461   0.615
 3256SOL     OW10666   5.641   6.598   5.903
 3256SOL    HW110667   5.623   6.679   5.960
 3256SOL    HW210668   5.738   6.594   5.881
 3257SOL     OW10669   1.690   1.937   0.546
 3257SOL    HW110670   1.789   1.940   0.562
 3257SOL    HW210671   1.660   1.842   0.538
 3258SOL     OW10672   5.103   6.691   1.734
 3258SOL    HW110673   5.112   6.629   1.812
 3258SOL    HW210674   5.176   6.758   1.736
 3259SOL     OW10675   4.240   5.891   4.347
 3259SOL    HW110676   4.143   5.914   4.338
 3259SOL    HW210677   4.274   5.925   4.435
 3260SOL     OW10678   1.695   1.232   0.505
 3260SOL    HW110679   1.699   1.265   0.599
 3260SOL    HW210680   1.779   1.182   0.483
 3261SOL     OW10681   3.986   0.309   0.725
 3261SOL    HW110682   3.964   0.212   0.735
 3261SOL    HW210683   4.070   0.319   0.671
 3262SOL     OW10684   3.309   1.702   3.594
 3262SOL    HW110685   3.264   1.790   3.608
 3262SOL    HW210686   3.397   1.716   3.550
 3263SOL     OW10687   4.488   6.742   3.240
 3263SOL    HW110688   4.483   6.825   3.185
 3263SOL    HW210689   4.464   6.763   3.335
 3264SOL     OW10690   6.841   5.564   0.143
 3264SOL    HW110691   6.825   5.524   0.233
 3264SOL    HW210692   6.853   5.663   0.152
 3265SOL     OW10693   3.899   2.314   6.516
 3265SOL    HW110694   3.937   2.223   6.525
 3265SOL    HW210695   3.827   2.327   6.585
 3266SOL     OW10696   6.631   3.003   0.112
 3266SOL    HW110697   6.683   2.937   0.058
 3266SOL    HW210698   6.629   3.091   0.065
 3267SOL     OW10699   3.360   2.196   1.343
 3267SOL    HW110700   3.267   2.171   1.369
 3267SOL    HW210701   3.361   2.288   1.305
 3268SOL     OW10702   1.605   4.319   0.510
 3268SOL    HW110703   1.659   4.306   0.426
 3268SOL    HW210704   1.508   4.324   0.486
 3269SOL     OW10705   4.691   4.688   1.604
 3269SOL    HW110706   4.760   4.655   1.668
 3269SOL    HW210707   4.630   4.613   1.579
 3270SOL     OW10708   0.462   5.457   3.615
 3270SOL    HW110709   0.527   5.407   3.557
 3270SOL    HW210710   0.484   5.440   3.711
 3271SOL     OW10711   5.601   2.185   2.270
 3271SOL    HW110712   5.539   2.230   2.335
 3271SOL    HW210713   5.619   2.248   2.194
 3272SOL     OW10714   3.743   0.286   0.116
 3272SOL    HW110715   3.780   0.204   0.072
 3272SOL    HW210716   3.689   0.338   0.050
 3273SOL     OW10717   1.296   6.225   2.067
 3273SOL    HW110718   1.395   6.242   2.069
 3273SOL    HW210719   1.275   6.143   2.120
 3274SOL     OW10720   3.045   2.058   5.704
 3274SOL    HW110721   3.002   2.147   5.717
 3274SOL    HW210722   3.031   2.027   5.610
 3275SOL     OW10723   2.076   0.356   6.743
 3275SOL    HW110724   2.021   0.275   6.724
 3275SOL    HW210725   2.065   0.382   6.839
 3276SOL     OW10726   3.293   5.332   6.881
 3276SOL    HW110727   3.386   5.311   6.850
 3276SOL    HW210728   3.297   5.360   6.977
 3277SOL     OW10729   6.925   6.707   6.171
 3277SOL    HW110730   6.926   6.607   6.174
 3277SOL    HW210731   6.857   6.737   6.105
 3278SOL     OW10732   0.798   0.934   5.307
 3278SOL    HW110733   0.711   0.972   5.338
 3278SOL    HW210734   0.854   1.008   5.269
 3279SOL     OW10735   0.266   6.968   0.955
 3279SOL    HW110736   0.366   6.977   0.954
 3279SOL    HW210737   0.233   6.957   0.861
 3280SOL     OW10738   2.856   5.010   6.702
 3280SOL    HW110739   2.780   5.072   6.719
 3280SOL    HW210740   2.942   5.060   6.710
 3281SOL     OW10741   2.077   5.165   0.669
 3281SOL    HW110742   2.031   5.136   0.753
 3281SOL    HW210743   2.168   5.201   0.692
 3282SOL     OW10744   2.505   5.874   4.723
 3282SOL    HW110745   2.412   5.858   4.689
 3282SOL    HW210746   2.541   5.789   4.762
 3283SOL     OW10747   3.170   1.656   3.359
 3283SOL    HW110748   3.214   1.681   3.445
 3283SOL    HW210749   3.084   1.706   3.350
 3284SOL     OW10750   0.537   6.147   6.578
 3284SOL    HW110751   0.485   6.232   6.583
 3284SOL    HW210752   0.632   6.167   6.557
 3285SOL     OW10753   0.033   2.838   2.692
 3285SOL    HW110754   6.978   2.893   2.717
 3285SOL    HW210755   0.075   2.800   2.774
 3286SOL     OW10756   3.723   3.366   4.199
 3286SOL    HW110757   3.771   3.278   4.195
 3286SOL    HW210758   3.782   3.438   4.164
 3287SOL     OW10759   1.855   5.549   7.013
 3287SOL    HW110760   1.942   5.507   6.989
 3287SOL    HW210761   1.801   5.564   6.930
 3288SOL     OW10762   0.997   6.298   6.755
 3288SOL    HW110763   1.033   6.381   6.797
 3288SOL    HW210764   0.940   6.249   6.821
 3289SOL     OW10765   0.885   5.821   5.328
 3289SOL    HW110766   0.889   5.738   5.273
 3289SOL    HW210767   0.876   5.797   5.424
 3290SOL     OW10768   0.248   6.111   1.452
 3290SOL    HW110769   0.191   6.069   1.523
 3290SOL    HW210770   0.190   6.144   1.378
 3291SOL     OW10771   1.718   6.470   6.301
 3291SOL    HW110772   1.729   6.415   6.385
 3291SOL    HW210773   1.808   6.499   6.269
 3292SOL     OW10774   0.380   0.522   6.543
 3292SOL    HW110775   0.428   0.607   6.519
 3292SOL    HW210776   0.387   0.506   6.641
 3293SOL     OW10777   0.182   1.425   3.205
 3293SOL    HW110778   0.099   1.460   3.249
 3293SOL    HW210779   0.256   1.422   3.272
 3294SOL     OW10780   6.551   0.535   6.386
 3294SOL    HW110781   6.647   0.508   6.384
 3294SOL    HW210782   6.515   0.524   6.478
 3295SOL     OW10783   2.412   2.098   0.901
 3295SOL    HW110784   2.447   2.084   0.994
 3295SOL    HW210785   2.461   2.039   0.837
 3296SOL     OW10786   2.200   0.476   2.351
 3296SOL    HW110787   2.232   0.420   2.275
 3296SOL    HW210788   2.186   0.570   2.320
 3297SOL     OW10789   3.028   2.358   5.392
 3297SOL    HW110790   3.098   2.379   5.325
 3297SOL    HW210791   2.989   2.268   5.373
 3298SOL     OW10792   6.564   3.407   3.196
 3298SOL    HW110793   6.613   3.460   3.265
 3298SOL    HW210794   6.597   3.431   3.105
 3299SOL     OW10795   1.405   0.235   4.581
 3299SOL    HW110796   1.416   0.286   4.666
 3299SOL    HW210797   1.371   0.143   4.601
 3300SOL     OW10798   6.320   6.808   5.118
 3300SOL    HW110799   6.344   6.769   5.207
 3300SOL    HW210800   6.222   6.800   5.104
 3301SOL     OW10801   0.833   4.066   3.886
 3301SOL    HW110802   0.747   4.019   3.869
 3301SOL    HW210803   0.840   4.089   3.983
 3302SOL     OW10804   1.397   5.254   4.157
 3302SOL    HW110805   1.319   5.309   4.129
 3302SOL    HW210806   1.423   5.277   4.251
 3303SOL     OW10807   3.322   2.899   3.057
 3303SOL    HW110808   3.247   2.951   3.017
 3303SOL    HW210809   3.324   2.914   3.156
 3304SOL     OW10810   1.253   5.613   3.788
 3304SOL    HW110811   1.353   5.605   3.780
 3304SOL    HW210812   1.212   5.605   3.698
 3305SOL     OW10813   1.626   0.860   1.967
 3305SOL    HW110814   1.676   0.851   2.053
 3305SOL    HW210815   1.581   0.773   1.945
 3306SOL     OW10816   2.261   4.166   3.377
 3306SOL    HW110817   2.279   4.245   3.436
 3306SOL    HW210818   2.227   4.090   3.433
 3307SOL     OW10819   6.909   5.796   0.343
 3307SOL    HW110820   7.008   5.781   0.350
 3307SOL    HW210821   6.882   5.867   0.408
 3308SOL     OW10822   4.367   6.193   0.531
 3308SOL    HW110823   4.337   6.240   0.614
 3308SOL    HW210824   4.467   6.183   0.533
 3309SOL     OW10825   1.391   5.342   3.455
 3309SOL    HW110826   1.482   5.300   3.450
 3309SOL    HW210827   1.398   5.439   3.430
 3310SOL     OW10828   0.460   3.911   3.167
 3310SOL    HW110829   0.458   4.007   3.138
 3310SOL    HW210830   0.374   3.889   3.215
 3311SOL     OW10831   3.826   5.915   1.304
 3311SOL    HW110832   3.846   5.979   1.231
 3311SOL    HW210833   3.769   5.840   1.269
 3312SOL     OW10834   2.908   4.285   5.997
 3312SOL    HW110835   2.859   4.362   5.955
 3312SOL    HW210836   2.998   4.276   5.955
 3313SOL     OW10837   1.131   5.625   3.535
 3313SOL    HW110838   1.073   5.543   3.534
 3313SOL    HW210839   1.081   5.702   3.496
 3314SOL     OW10840   1.765   3.281   5.193
 3314SOL    HW110841   1.816   3.214   5.248
 3314SOL    HW210842   1.667   3.269   5.207
 3315SOL     OW10843   6.868   2.702   4.083
 3315SOL    HW110844   6.812   2.705   4.167
 3315SOL    HW210845   6.810   2.721   4.004
 3316SOL     OW10846   4.368   2.218   6.042
 3316SOL    HW110847   4.381   2.188   5.948
 3316SOL    HW210848   4.335   2.141   6.097
 3317SOL     OW10849   4.511   2.936   1.645
 3317SOL    HW110850   4.533   2.972   1.735
 3317SOL    HW210851   4.438   2.990   1.604
 3318SOL     OW10852   2.530   5.954   6.101
 3318SOL    HW110853   2.621   5.911   6.098
 3318SOL    HW210854   2.476   5.913   6.175
 3319SOL     OW10855   0.602   6.497   4.326
 3319SOL    HW110856   0.557   6.488   4.237
 3319SOL    HW210857   0.675   6.430   4.334
 3320SOL     OW10858   5.744   1.588   5.587
 3320SOL    HW110859   5.711   1.511   5.642
 3320SOL    HW210860   5.790   1.554   5.505
 3321SOL     OW10861   3.371   3.225   2.550
 3321SOL    HW110862   3.310   3.150   2.576
 3321SOL    HW210863   3.378   3.290   2.626
 3322SOL     OW10864   4.264   1.726   0.369
 3322SOL    HW110865   4.337   1.664   0.399
 3322SOL    HW210866   4.298   1.785   0.296
 3323SOL     OW10867   2.181   4.330   6.537
 3323SOL    HW110868   2.190   4.417   6.488
 3323SOL    HW210869   2.130   4.345   6.622
 3324SOL     OW10870   1.029   3.976   0.650
 3324SOL    HW110871   1.005   3.973   0.553
 3324SOL    HW210872   1.072   3.889   0.676
 3325SOL     OW10873   1.429   2.882   0.271
 3325SOL    HW110874   1.438   2.901   0.369
 3325SOL    HW210875   1.513   2.842   0.236
 3326SOL     OW10876   5.864   1.790   1.424
 3326SOL    HW110877   5.932   1.737   1.474
 3326SOL    HW210878   5.910   1.857   1.365
 3327SOL     OW10879   2.358   6.504   2.295
 3327SOL    HW110880   2.426   6.577   2.298
 3327SOL    HW210881   2.292   6.521   2.222
 3328SOL     OW10882   4.689   0.717   1.835
 3328SOL    HW110883   4.692   0.763   1.924
 3328SOL    HW210884   4.595   0.693   1.813
 3329SOL     OW10885   3.871   1.008   5.268
 3329SOL    HW110886   3.786   1.022   5.319
 3329SOL    HW210887   3.946   0.994   5.333
 3330SOL     OW10888   5.620   0.011   2.304
 3330SOL    HW110889   5.602   0.053   2.215
 3330SOL    HW210890   5.660   6.945   2.290
 3331SOL     OW10891   1.868   3.560   3.016
 3331SOL    HW110892   1.943   3.498   2.992
 3331SOL    HW210893   1.854   3.626   2.943
 3332SOL     OW10894   4.894   4.908   0.059
 3332SOL    HW110895   4.813   4.872   0.014
 3332SOL    HW210896   4.936   4.837   0.115
 3333SOL     OW10897   3.377   3.162   1.161
 3333SOL    HW110898   3.444   3.186   1.232
 3333SOL    HW210899   3.344   3.069   1.177
 3334SOL     OW10900   1.837   2.698   2.632
 3334SOL    HW110901   1.903   2.627   2.609
 3334SOL    HW210902   1.763   2.697   2.565
 3335SOL     OW10903   3.439   4.272   5.624
 3335SOL    HW110904   3.431   4.320   5.711
 3335SOL    HW210905   3.382   4.317   5.556
 3336SOL     OW10906   3.060   6.824   3.909
 3336SOL    HW110907   3.017   6.761   3.974
 3336SOL    HW210908   3.147   6.857   3.947
 3337SOL     OW10909   3.536   3.837   2.674
 3337SOL    HW110910   3.590   3.909   2.718
 3337SOL    HW210911   3.480   3.790   2.742
 3338SOL     OW10912   1.429   1.529   1.363
 3338SOL    HW110913   1.452   1.433   1.343
 3338SOL    HW210914   1.384   1.569   1.284
 3339SOL     OW10915   2.240   0.215   5.411
 3339SOL    HW110916   2.312   0.222   5.341
 3339SOL    HW210917   2.266   0.268   5.491
 3340SOL     OW10918   4.744   1.170   3.857
 3340SOL    HW110919   4.835   1.185   3.895
 3340SOL    HW210920   4.675   1.176   3.929
 3341SOL     OW10921   2.542   4.641   2.266
 3341SOL    HW110922   2.627   4.671   2.222
 3341SOL    HW210923   2.465   4.664   2.208
 3342SOL     OW10924   5.878   0.434   3.371
 3342SOL    HW110925   5.939   0.511   3.386
 3342SOL    HW210926   5.783   0.465   3.372
 3343SOL     OW10927   5.284   5.434   6.747
 3343SOL    HW110928   5.275   5.372   6.669
 3343SOL    HW210929   5.276   5.381   6.832
 3344SOL     OW10930   7.023   2.446   1.769
 3344SOL    HW110931   0.036   2.354   1.780
 3344SOL    HW210932   6.963   2.449   1.690
 3345SOL     OW10933   0.542   4.370   1.000
 3345SOL    HW110934   0.637   4.339   1.001
 3345SOL    HW210935   0.519   4.403   0.908
 3346SOL     OW10936   2.874   0.783   6.735
 3346SOL    HW110937   2.795   0.844   6.741
 3346SOL    HW210938   2.923   0.800   6.649
 3347SOL     OW10939   0.997   3.063   6.166
 3347SOL    HW110940   0.971   3.158   6.154
 3347SOL    HW210941   0.994   3.039   6.264
 3348SOL     OW10942   3.633   3.613   6.671
 3348SOL    HW110943   3.575   3.538   6.701
 3348SOL    HW210944   3.729   3.587   6.681
 3349SOL     OW10945   2.529   4.877   4.122
 3349SOL    HW110946   2.570   4.794   4.160
 3349SOL    HW210947   2.478   4.925   4.193
 3350SOL     OW10948   0.431   4.062   5.321
 3350SOL    HW110949   0.465   4.137   5.264
 3350SOL    HW210950   0.337   4.082   5.350
 3351SOL     OW10951   5.416   0.409   0.965
 3351SOL    HW110952   5.405   0.497   1.010
 3351SOL    HW210953   5.327   0.364   0.956
 3352SOL     OW10954   5.144   2.299   0.212
 3352SOL    HW110955   5.161   2.201   0.212
 3352SOL    HW210956   5.160   2.335   0.304
 3353SOL     OW10957   2.332   0.845   1.479
 3353SOL    HW110958   2.379   0.873   1.563
 3353SOL    HW210959   2.326   0.745   1.476
 3354SOL     OW10960   3.989   3.240   5.729
 3354SOL    HW110961   4.088   3.253   5.734
 3354SOL    HW210962   3.952   3.295   5.655
 3355SOL     OW10963   2.169   1.412   5.342
 3355SOL    HW110964   2.182   1.328   5.289
 3355SOL    HW210965   2.083   1.406   5.393
 3356SOL     OW10966   1.090   6.491   6.216
 3356SOL    HW110967   1.134   6.561   6.160
 3356SOL    HW210968   1.083   6.523   6.310
 3357SOL     OW10969   2.870   3.407   2.196
 3357SOL    HW110970   2.935   3.370   2.129
 3357SOL    HW210971   2.777   3.396   2.160
 3358SOL     OW10972   5.689   1.356   2.690
 3358SOL    HW110973   5.779   1.401   2.687
 3358SOL    HW210974   5.699   1.267   2.735
 3359SOL     OW10975   0.132   5.834   4.101
 3359SOL    HW110976   0.067   5.910   4.088
 3359SOL    HW210977   0.086   5.748   4.082
 3360SOL     OW10978   7.024   2.571   5.625
 3360SOL    HW110979   0.031   2.659   5.661
 3360SOL    HW210980   6.927   2.559   5.647
 3361SOL     OW10981   0.105   0.694   4.527
 3361SOL    HW110982   0.195   0.736   4.539
 3361SOL    HW210983   0.060   0.734   4.448
 3362SOL     OW10984   3.712   2.001   4.016
 3362SOL    HW110985   3.683   1.920   4.067
 3362SOL    HW210986   3.754   2.066   4.078
 3363SOL     OW10987   6.340   2.756   1.067
 3363SOL    HW110988   6.304   2.842   1.103
 3363SOL    HW210989   6.310   2.680   1.124
 3364SOL     OW10990   1.894   4.527   3.012
 3364SOL    HW110991   1.949   4.468   2.952
 3364SOL    HW210992   1.920   4.511   3.107
 3365SOL     OW10993   2.165   3.273   4.887
 3365SOL    HW110994   2.132   3.299   4.977
 3365SOL    HW210995   2.259   3.239   4.895
 3366SOL     OW10996   6.996   3.261   4.740
 3366SOL    HW110997   7.017   3.346   4.690
 3366SOL    HW210998   6.997   3.279   4.838
 3367SOL     OW10999   3.453   3.414   4.269
 3367SOL    HW111000   3.550   3.408   4.245
 3367SOL    HW211001   3.415   3.500   4.234
 3368SOL     OW11002   1.681   6.379   6.565
 3368SOL    HW111003   1.642   6.298   6.607
 3368SOL    HW211004   1.780   6.379   6.577
 3369SOL     OW11005   4.362   1.630   1.485
 3369SOL    HW111006   4.342   1.604   1.579
 3369SOL    HW211007   4.383   1.549   1.431
 3370SOL     OW11008   6.960   5.545   1.712
 3370SOL    HW111009   6.988   5.575   1.621
 3370SOL    HW211010   0.013   5.502   1.758
 3371SOL     OW11011   2.076   3.416   2.935
 3371SOL    HW111012   2.092   3.383   2.842
 3371SOL    HW211013   2.151   3.385   2.995
 3372SOL     OW11014   6.690   2.999   1.202
 3372SOL    HW111015   6.684   3.022   1.299
 3372SOL    HW211016   6.715   2.903   1.191
 3373SOL     OW11017   6.915   1.294   1.716
 3373SOL    HW111018   6.990   1.339   1.764
 3373SOL    HW211019   6.901   1.203   1.755
 3374SOL     OW11020   0.800   6.802   3.329
 3374SOL    HW111021   0.760   6.741   3.261
 3374SOL    HW211022   0.811   6.893   3.289
 3375SOL     OW11023   6.726   5.246   6.859
 3375SOL    HW111024   6.819   5.274   6.833
 3375SOL    HW211025   6.678   5.324   6.900
 3376SOL     OW11026   2.401   3.590   5.605
 3376SOL    HW111027   2.380   3.682   5.570
 3376SOL    HW211028   2.438   3.534   5.531
 3377SOL     OW11029   6.247   4.892   3.598
 3377SOL    HW111030   6.247   4.990   3.617
 3377SOL    HW211031   6.276   4.877   3.503
 3378SOL     OW11032   1.344   6.829   6.874
 3378SOL    HW111033   1.382   6.901   6.816
 3378SOL    HW211034   1.418   6.768   6.903
 3379SOL     OW11035   1.137   3.524   4.466
 3379SOL    HW111036   1.063   3.486   4.411
 3379SOL    HW211037   1.223   3.517   4.415
 3380SOL     OW11038   3.755   4.485   5.862
 3380SOL    HW111039   3.693   4.415   5.897
 3380SOL    HW211040   3.703   4.562   5.825
 3381SOL     OW11041   1.166   2.951   1.252
 3381SOL    HW111042   1.089   2.892   1.226
 3381SOL    HW211043   1.194   2.929   1.345
 3382SOL     OW11044   7.008   2.382   1.097
 3382SOL    HW111045   6.937   2.419   1.037
 3382SOL    HW211046   6.980   2.291   1.128
 3383SOL     OW11047   3.727   4.941   0.327
 3383SOL    HW111048   3.756   5.032   0.357
 3383SOL    HW211049   3.627   4.937   0.324
 3384SOL     OW11050   3.144   4.176   0.454
 3384SOL    HW111051   3.234   4.154   0.417
 3384SOL    HW211052   3.112   4.101   0.511
 3385SOL     OW11053   0.092   2.424   3.771
 3385SOL    HW111054   0.071   2.521   3.761
 3385SOL    HW211055   0.151   2.410   3.850
 3386SOL     OW11056   6.722   4.804   6.699
 3386SOL    HW111057   6.692   4.710   6.688
 3386SOL    HW211058   6.755   4.839   6.611
 3387SOL     OW11059   5.659   0.700   3.121
 3387SOL    HW111060   5.739   0.648   3.090
 3387SOL    HW211061   5.690   0.785   3.164
 3388SOL     OW11062   5.078   4.183   1.374
 3388SOL    HW111063   5.169   4.204   1.336
 3388SOL    HW211064   5.008   4.207   1.306
 3389SOL     OW11065   5.858   6.432   0.388
 3389SOL    HW111066   5.779   6.377   0.413
 3389SOL    HW211067   5.919   6.377   0.331
 3390SOL     OW11068   3.955   7.022   5.891
 3390SOL    HW111069   3.936   6.925   5.899
 3390SOL    HW211070   3.871   0.047   5.869
 3391SOL     OW11071   5.687   3.012   3.526
 3391SOL    HW111072   5.753   3.060   3.584
 3391SOL    HW211073   5.595   3.027   3.562
 3392SOL     OW11074   4.260   6.970   4.961
 3392SOL    HW111075   4.308   6.896   4.914
 3392SOL    HW211076   4.303   0.032   4.940
 3393SOL     OW11077   4.882   0.217   0.832
 3393SOL    HW111078   4.841   0.293   0.782
 3393SOL    HW211079   4.948   0.170   0.773
 3394SOL     OW11080   3.561   5.435   0.968
 3394SOL    HW111081   3.647   5.484   0.952
 3394SOL    HW211082   3.521   5.409   0.880
 3395SOL     OW11083   4.185   0.473   3.330
 3395SOL    HW111084   4.251   0.541   3.363
 3395SOL    HW211085   4.174   0.484   3.231
 3396SOL     OW11086   5.722   1.615   3.696
 3396SOL    HW111087   5.736   1.530   3.645
 3396SOL    HW211088   5.637   1.608   3.749
 3397SOL     OW11089   2.591   5.723   6.436
 3397SOL    HW111090   2.518   5.662   6.465
 3397SOL    HW211091   2.663   5.670   6.390
 3398SOL     OW11092   0.367   1.787   5.454
 3398SOL    HW111093   0.328   1.831   5.535
 3398SOL    HW211094   0.310   1.709   5.427
 3399SOL     OW11095   0.563   4.672   3.169
 3399SOL    HW111096   0.536   4.657   3.074
 3399SOL    HW211097   0.582   4.585   3.213
 3400SOL     OW11098   5.663   2.746   5.429
 3400SOL    HW111099   5.748   2.701   5.401
 3400SOL    HW211100   5.588   2.711   5.373
 3401SOL     OW11101   6.502   3.873   6.277
 3401SOL    HW111102   6.463   3.812   6.346
 3401SOL    HW211103   6.496   3.828   6.187
 3402SOL     OW11104   6.328   5.030   1.217
 3402SOL    HW111105   6.384   5.109   1.240
 3402SOL    HW211106   6.319   5.023   1.118
 3403SOL     OW11107   4.672   6.478   5.744
 3403SOL    HW111108   4.716   6.531   5.817
 3403SOL    HW211109   4.601   6.534   5.701
 3404SOL     OW11110   4.990   2.972   5.747
 3404SOL    HW111111   5.010   3.015   5.835
 3404SOL    HW211112   4.950   2.882   5.763
 3405SOL     OW11113   4.827   6.288   5.603
 3405SOL    HW111114   4.781   6.345   5.671
 3405SOL    HW211115   4.923   6.278   5.628
 3406SOL     OW11116   2.157   3.839   2.279
 3406SOL    HW111117   2.164   3.872   2.185
 3406SOL    HW211118   2.174   3.740   2.281
 3407SOL     OW11119   2.075   3.778   0.953
 3407SOL    HW111120   2.035   3.686   0.950
 3407SOL    HW211121   2.057   3.819   1.042
 3408SOL     OW11122   4.664   2.424   3.791
 3408SOL    HW111123   4.566   2.408   3.797
 3408SOL    HW211124   4.702   2.436   3.883
 3409SOL     OW11125   4.347   0.532   0.754
 3409SOL    HW111126   4.294   0.592   0.813
 3409SOL    HW211127   4.399   0.586   0.688
 3410SOL     OW11128   5.435   0.007   2.506
 3410SOL    HW111129   5.491   0.007   2.424
 3410SOL    HW211130   5.436   0.098   2.547
 3411SOL     OW11131   6.653   1.324   0.999
 3411SOL    HW111132   6.662   1.416   1.037
 3411SOL    HW211133   6.644   1.330   0.900
 3412SOL     OW11134   5.205   3.480   1.752
 3412SOL    HW111135   5.166   3.487   1.660
 3412SOL    HW211136   5.272   3.406   1.754
 3413SOL     OW11137   6.784   2.048   6.864
 3413SOL    HW111138   6.743   2.080   6.949
 3413SOL    HW211139   6.792   2.125   6.800
 3414SOL     OW11140   4.257   2.753   0.637
 3414SOL    HW111141   4.185   2.683   0.643
 3414SOL    HW211142   4.316   2.733   0.559
 3415SOL     OW11143   2.399   2.663   4.306
 3415SOL    HW111144   2.372   2.758   4.322
 3415SOL    HW211145   2.476   2.640   4.365
 3416SOL     OW11146   6.227   7.000   0.160
 3416SOL    HW111147   6.247   6.972   0.254
 3416SOL    HW211148   6.180   0.064   0.161
 3417SOL     OW11149   0.304   0.328   3.276
 3417SOL    HW111150   0.394   0.357   3.243
 3417SOL    HW211151   0.249   0.294   3.199
 3418SOL     OW11152   4.521   4.834   2.418
 3418SOL    HW111153   4.600   4.846   2.479
 3418SOL    HW211154   4.509   4.917   2.363
 3419SOL     OW11155   3.215   5.378   6.303
 3419SOL    HW111156   3.268   5.327   6.236
 3419SOL    HW211157   3.275   5.438   6.356
 3420SOL     OW11158   4.732   2.804   3.860
 3420SOL    HW111159   4.695   2.756   3.780
 3420SOL    HW211160   4.784   2.883   3.830
 3421SOL     OW11161   5.668   1.877   3.349
 3421SOL    HW111162   5.679   1.976   3.342
 3421SOL    HW211163   5.587   1.849   3.296
 3422SOL     OW11164   2.011   0.036   0.622
 3422SOL    HW111165   1.918   0.055   0.652
 3422SOL    HW211166   2.025   0.072   0.530
 3423SOL     OW11167   0.981   4.025   5.674
 3423SOL    HW111168   1.028   4.033   5.586
 3423SOL    HW211169   0.992   3.931   5.709
 3424SOL     OW11170   4.765   6.754   1.455
 3424SOL    HW111171   4.762   6.854   1.444
 3424SOL    HW211172   4.814   6.714   1.377
 3425SOL     OW11173   5.783   3.999   1.108
 3425SOL    HW111174   5.820   3.916   1.068
 3425SOL    HW211175   5.851   4.039   1.170
 3426SOL     OW11176   5.776   3.606   0.577
 3426SOL    HW111177   5.781   3.507   0.589
 3426SOL    HW211178   5.869   3.644   0.575
 3427SOL     OW11179   1.355   2.180   1.055
 3427SOL    HW111180   1.412   2.216   1.129
 3427SOL    HW211181   1.399   2.098   1.016
 3428SOL     OW11182   4.977   5.868   5.601
 3428SOL    HW111183   5.017   5.885   5.511
 3428SOL    HW211184   4.885   5.907   5.605
 3429SOL     OW11185   0.344   0.589   0.953
 3429SOL    HW111186   0.331   0.630   1.043
 3429SOL    HW211187   0.418   0.522   0.957
 3430SOL     OW11188   2.781   4.984   5.457
 3430SOL    HW111189   2.879   5.000   5.467
 3430SOL    HW211190   2.765   4.900   5.406
 3431SOL     OW11191   2.754   6.039   2.859
 3431SOL    HW111192   2.689   5.964   2.873
 3431SOL    HW211193   2.822   6.013   2.791
 3432SOL     OW11194   2.343   4.618   0.305
 3432SOL    HW111195   2.408   4.625   0.229
 3432SOL    HW211196   2.375   4.548   0.369
 3433SOL     OW11197   2.382   1.098   6.520
 3433SOL    HW111198   2.301   1.040   6.521
 3433SOL    HW211199   2.398   1.131   6.427
 3434SOL     OW11200   3.066   1.878   1.839
 3434SOL    HW111201   2.999   1.946   1.807
 3434SOL    HW211202   3.141   1.925   1.885
 3435SOL     OW11203   2.191   0.465   0.162
 3435SOL    HW111204   2.120   0.478   0.231
 3435SOL    HW211205   2.175   0.527   0.086
 3436SOL     OW11206   4.446   5.301   0.269
 3436SOL    HW111207   4.433   5.204   0.251
 3436SOL    HW211208   4.474   5.314   0.364
 3437SOL     OW11209   1.275   6.328   6.037
 3437SOL    HW111210   1.236   6.333   6.129
 3437SOL    HW211211   1.369   6.294   6.043
 3438SOL     OW11212   0.953   3.986   1.195
 3438SOL    HW111213   1.052   3.970   1.188
 3438SOL    HW211214   0.909   3.966   1.108
 3439SOL     OW11215   2.297   5.780   2.444
 3439SOL    HW111216   2.392   5.755   2.423
 3439SOL    HW211217   2.255   5.708   2.500
 3440SOL     OW11218   3.898   3.100   4.763
 3440SOL    HW111219   3.801   3.120   4.772
 3440SOL    HW211220   3.932   3.058   4.847
 3441SOL     OW11221   5.062   5.325   5.799
 3441SOL    HW111222   5.054   5.339   5.898
 3441SOL    HW211223   4.988   5.266   5.768
 3442SOL     OW11224   3.166   3.404   1.735
 3442SOL    HW111225   3.195   3.491   1.696
 3442SOL    HW211226   3.068   3.391   1.719
 3443SOL     OW11227   2.980   6.070   2.514
 3443SOL    HW111228   3.017   6.075   2.421
 3443SOL    HW211229   3.039   6.123   2.576
 3444SOL     OW11230   5.585   4.485   1.637
 3444SOL    HW111231   5.567   4.491   1.539
 3444SOL    HW211232   5.498   4.491   1.687
 3445SOL     OW11233   6.669   4.858   3.766
 3445SOL    HW111234   6.689   4.951   3.797
 3445SOL    HW211235   6.570   4.842   3.772
 3446SOL     OW11236   5.759   0.194   1.540
 3446SOL    HW111237   5.689   0.250   1.584
 3446SOL    HW211238   5.839   0.251   1.519
 3447SOL     OW11239   5.171   0.271   0.229
 3447SOL    HW111240   5.182   0.334   0.306
 3447SOL    HW211241   5.093   0.300   0.173
 3448SOL     OW11242   1.189   6.419   5.104
 3448SOL    HW111243   1.115   6.435   5.170
 3448SOL    HW211244   1.250   6.349   5.140
 3449SOL     OW11245   6.308   5.149   5.170
 3449SOL    HW111246   6.300   5.248   5.154
 3449SOL    HW211247   6.404   5.121   5.158
 3450SOL     OW11248   1.290   0.356   6.769
 3450SOL    HW111249   1.275   0.304   6.685
 3450SOL    HW211250   1.388   0.364   6.787
 3451SOL     OW11251   1.728   6.170   0.445
 3451SOL    HW111252   1.801   6.103   0.431
 3451SOL    HW211253   1.758   6.259   0.412
 3452SOL     OW11254   5.369   0.588   5.259
 3452SOL    HW111255   5.331   0.559   5.172
 3452SOL    HW211256   5.311   0.659   5.299
 3453SOL     OW11257   5.055   6.231   5.804
 3453SOL    HW111258   5.101   6.254   5.890
 3453SOL    HW211259   5.093   6.147   5.766
 3454SOL     OW11260   1.427   2.165   3.035
 3454SOL    HW111261   1.396   2.184   3.128
 3454SOL    HW211262   1.421   2.248   2.980
 3455SOL     OW11263   1.987   3.153   5.342
 3455SOL    HW111264   2.084   3.156   5.319
 3455SOL    HW211265   1.965   3.228   5.404
 3456SOL     OW11266   4.830   4.609   2.081
 3456SOL    HW111267   4.805   4.543   2.010
 3456SOL    HW211268   4.899   4.568   2.141
 3457SOL     OW11269   3.881   5.380   4.855
 3457SOL    HW111270   3.965   5.328   4.838
 3457SOL    HW211271   3.842   5.408   4.768
 3458SOL     OW11272   4.575   1.545   2.522
 3458SOL    HW111273   4.535   1.601   2.595
 3458SOL    HW211274   4.612   1.461   2.562
 3459SOL     OW11275   3.766   1.038   2.512
 3459SOL    HW111276   3.747   1.133   2.486
 3459SOL    HW211277   3.860   1.031   2.545
 3460SOL     OW11278   3.651   1.406   5.912
 3460SOL    HW111279   3.593   1.487   5.916
 3460SOL    HW211280   3.734   1.427   5.860
 3461SOL     OW11281   5.432   4.777   0.077
 3461SOL    HW111282   5.377   4.723   0.140
 3461SOL    HW211283   5.514   4.810   0.125
 3462SOL     OW11284   2.295   3.166   6.557
 3462SOL    HW111285   2.252   3.253   6.535
 3462SOL    HW211286   2.387   3.182   6.591
 3463SOL     OW11287   6.899   3.842   1.739
 3463SOL    HW111288   6.991   3.853   1.777
 3463SOL    HW211289   6.852   3.931   1.738
 3464SOL     OW11290   0.041   4.834   6.012
 3464SOL    HW111291   0.005   4.920   6.047
 3464SOL    HW211292   0.101   4.792   6.080
 3465SOL     OW11293   1.881   0.716   1.762
 3465SOL    HW111294   1.895   0.803   1.808
 3465SOL    HW211295   1.961   0.695   1.705
 3466SOL     OW11296   6.951   4.523   5.525
 3466SOL    HW111297   6.916   4.500   5.616
 3466SOL    HW211298   6.880   4.573   5.474
 3467SOL     OW11299   2.362   2.199   6.391
 3467SOL    HW111300   2.310   2.222   6.309
 3467SOL    HW211301   2.312   2.131   6.444
 3468SOL     OW11302   2.835   6.021   3.683
 3468SOL    HW111303   2.918   6.040   3.735
 3468SOL    HW211304   2.859   5.984   3.593
 3469SOL     OW11305   6.704   2.399   3.662
 3469SOL    HW111306   6.779   2.450   3.621
 3469SOL    HW211307   6.723   2.301   3.654
 3470SOL     OW11308   0.365   5.564   1.528
 3470SOL    HW111309   0.385   5.531   1.620
 3470SOL    HW211310   0.378   5.664   1.525
 3471SOL     OW11311   4.132   5.875   4.771
 3471SOL    HW111312   4.136   5.869   4.871
 3471SOL    HW211313   4.074   5.802   4.735
 3472SOL     OW11314   2.592   0.487   4.445
 3472SOL    HW111315   2.663   0.557   4.446
 3472SOL    HW211316   2.524   0.509   4.376
 3473SOL     OW11317   6.286   1.212   5.907
 3473SOL    HW111318   6.289   1.118   5.873
 3473SOL    HW211319   6.342   1.270   5.849
 3474SOL     OW11320   3.546   5.137   1.836
 3474SOL    HW111321   3.564   5.111   1.741
 3474SOL    HW211322   3.554   5.056   1.895
 3475SOL     OW11323   1.166   6.146   3.888
 3475SOL    HW111324   1.178   6.064   3.943
 3475SOL    HW211325   1.069   6.162   3.871
 3476SOL     OW11326   4.689   0.792   4.480
 3476SOL    HW111327   4.776   0.763   4.520
 3476SOL    HW211328   4.627   0.714   4.474
 3477SOL     OW11329   4.150   5.829   1.145
 3477SOL    HW111330   4.151   5.851   1.243
 3477SOL    HW211331   4.065   5.863   1.105
 3478SOL     OW11332   3.324   5.662   6.204
 3478SOL    HW111333   3.236   5.621   6.180
 3478SOL    HW211334   3.390   5.645   6.131
 3479SOL     OW11335   0.551   0.237   1.955
 3479SOL    HW111336   0.507   0.315   1.998
 3479SOL    HW211337   0.633   0.212   2.007
 3480SOL     OW11338   6.681   1.481   3.630
 3480SOL    HW111339   6.632   1.556   3.673
 3480SOL    HW211340   6.750   1.445   3.693
 3481SOL     OW11341   2.737   6.909   6.268
 3481SOL    HW111342   2.694   6.973   6.333
 3481SOL    HW211343   2.802   6.959   6.211
 3482SOL     OW11344   6.332   2.137   1.311
 3482SOL    HW111345   6.335   2.039   1.290
 3482SOL    HW211346   6.372   2.189   1.236
 3483SOL     OW11347   2.330   0.671   1.232
 3483SOL    HW111348   2.374   0.678   1.143
 3483SOL    HW211349   2.276   0.753   1.249
 3484SOL     OW11350   2.937   3.413   3.676
 3484SOL    HW111351   3.026   3.457   3.665
 3484SOL    HW211352   2.933   3.366   3.763
 3485SOL     OW11353   1.660   2.484   5.116
 3485SOL    HW111354   1.565   2.478   5.147
 3485SOL    HW211355   1.708   2.555   5.168
 3486SOL     OW11356   4.677   1.438   1.477
 3486SOL    HW111357   4.630   1.508   1.423
 3486SOL    HW211358   4.638   1.348   1.457
 3487SOL     OW11359   6.227   1.942   5.969
 3487SOL    HW111360   6.189   1.969   6.058
 3487SOL    HW211361   6.206   1.846   5.951
 3488SOL     OW11362   6.241   3.606   4.205
 3488SOL    HW111363   6.236   3.527   4.266
 3488SOL    HW211364   6.193   3.585   4.120
 3489SOL     OW11365   3.701   0.002   1.197
 3489SOL    HW111366   3.617   0.054   1.215
 3489SOL    HW211367   3.767   0.061   1.150
 3490SOL     OW11368   5.512   3.921   0.335
 3490SOL    HW111369   5.609   3.934   0.352
 3490SOL    HW211370   5.468   4.011   0.325
 3491SOL     OW11371   0.212   2.840   5.554
 3491SOL    HW111372   0.294   2.870   5.602
 3491SOL    HW211373   0.135   2.900   5.576
 3492SOL     OW11374   0.426   5.652   6.948
 3492SOL    HW111375   0.345   5.614   6.992
 3492SOL    HW211376   0.399   5.715   6.875
 3493SOL     OW11377   5.904   5.195   1.341
 3493SOL    HW111378   5.934   5.286   1.370
 3493SOL    HW211379   5.961   5.165   1.264
 3494SOL     OW11380   3.508   6.970   1.701
 3494SOL    HW111381   3.588   6.936   1.750
 3494SOL    HW211382   3.510   6.939   1.606
 3495SOL     OW11383   4.447   5.099   1.726
 3495SOL    HW111384   4.438   5.168   1.655
 3495SOL    HW211385   4.452   5.008   1.685
 3496SOL     OW11386   1.799   3.133   0.716
 3496SOL    HW111387   1.823   3.212   0.773
 3496SOL    HW211388   1.863   3.126   0.640
 3497SOL     OW11389   3.953   1.332   3.113
 3497SOL    HW111390   4.041   1.373   3.089
 3497SOL    HW211391   3.914   1.381   3.191
 3498SOL     OW11392   2.498   1.170   0.978
 3498SOL    HW111393   2.572   1.135   0.920
 3498SOL    HW211394   2.488   1.268   0.962
 3499SOL     OW11395   0.384   3.432   4.383
 3499SOL    HW111396   0.380   3.342   4.426
 3499SOL    HW211397   0.405   3.421   4.286
 3500SOL     OW11398   6.278   4.240   6.485
 3500SOL    HW111399   6.362   4.295   6.489
 3500SOL    HW211400   6.280   4.184   6.402
 3501SOL     OW11401   1.982   4.665   4.980
 3501SOL    HW111402   1.890   4.690   4.950
 3501SOL    HW211403   2.021   4.741   5.033
 3502SOL     OW11404   0.347   1.870   1.490
 3502SOL    HW111405   0.417   1.799   1.487
 3502SOL    HW211406   0.380   1.951   1.441
 3503SOL     OW11407   4.461   5.509   5.340
 3503SOL    HW111408   4.413   5.569   5.403
 3503SOL    HW211409   4.542   5.556   5.304
 3504SOL     OW11410   2.776   3.382   1.081
 3504SOL    HW111411   2.766   3.335   1.169
 3504SOL    HW211412   2.821   3.471   1.095
 3505SOL     OW11413   5.342   5.900   5.451
 3505SOL    HW111414   5.434   5.934   5.473
 3505SOL    HW211415   5.339   5.801   5.462
 3506SOL     OW11416   3.976   5.202   3.762
 3506SOL    HW111417   3.966   5.112   3.720
 3506SOL    HW211418   3.906   5.214   3.833
 3507SOL     OW11419   1.126   0.597   6.617
 3507SOL    HW111420   1.049   0.541   6.647
 3507SOL    HW211421   1.211   0.545   6.628
 3508SOL     OW11422   5.619   3.190   0.289
 3508SOL    HW111423   5.667   3.220   0.206
 3508SOL    HW211424   5.541   3.251   0.306
 3509SOL     OW11425   6.436   5.916   6.610
 3509SOL    HW111426   6.369   5.954   6.546
 3509SOL    HW211427   6.526   5.914   6.567
 3510SOL     OW11428   2.466   2.317   1.772
 3510SOL    HW111429   2.492   2.363   1.688
 3510SOL    HW211430   2.544   2.314   1.835
 3511SOL     OW11431   0.062   2.644   6.855
 3511SOL    HW111432   7.010   2.606   6.905
 3511SOL    HW211433   0.141   2.583   6.863
 3512SOL     OW11434   2.413   3.553   0.263
 3512SOL    HW111435   2.400   3.629   0.199
 3512SOL    HW211436   2.470   3.582   0.339
 3513SOL     OW11437   6.760   4.369   1.243
 3513SOL    HW111438   6.800   4.369   1.152
 3513SOL    HW211439   6.751   4.463   1.275
 3514SOL     OW11440   0.966   6.293   1.234
 3514SOL    HW111441   0.994   6.235   1.311
 3514SOL    HW211442   0.927   6.237   1.162
 3515SOL     OW11443   3.167   6.181   2.723
 3515SOL    HW111444   3.152   6.280   2.730
 3515SOL    HW211445   3.265   6.161   2.730
 3516SOL     OW11446   3.345   1.198   0.415
 3516SOL    HW111447   3.427   1.211   0.360
 3516SOL    HW211448   3.283   1.276   0.401
 3517SOL     OW11449   0.832   1.324   6.717
 3517SOL    HW111450   0.780   1.345   6.634
 3517SOL    HW211451   0.910   1.266   6.694
 3518SOL     OW11452   4.937   3.526   6.452
 3518SOL    HW111453   4.899   3.484   6.369
 3518SOL    HW211454   4.905   3.621   6.458
 3519SOL     OW11455   1.623   6.852   6.487
 3519SOL    HW111456   1.550   6.882   6.426
 3519SOL    HW211457   1.633   6.753   6.481
 3520SOL     OW11458   4.122   4.864   1.093
 3520SOL    HW111459   4.179   4.874   1.012
 3520SOL    HW211460   4.154   4.785   1.147
 3521SOL     OW11461   5.539   2.138   1.803
 3521SOL    HW111462   5.599   2.110   1.729
 3521SOL    HW211463   5.457   2.181   1.765
 3522SOL     OW11464   3.388   5.262   1.995
 3522SOL    HW111465   3.400   5.211   2.080
 3522SOL    HW211466   3.454   5.229   1.927
 3523SOL     OW11467   2.879   4.825   4.665
 3523SOL    HW111468   2.806   4.769   4.705
 3523SOL    HW211469   2.968   4.792   4.696
 3524SOL     OW11470   2.500   0.180   0.741
 3524SOL    HW111471   2.517   0.196   0.644
 3524SOL    HW211472   2.558   0.105   0.774
 3525SOL     OW11473   0.716   2.839   2.025
 3525SOL    HW111474   0.662   2.894   2.089
 3525SOL    HW211475   0.798   2.890   1.998
 3526SOL     OW11476   0.964   0.553   2.967
 3526SOL    HW111477   1.013   0.541   2.880
 3526SOL    HW211478   0.944   0.464   3.007
 3527SOL     OW11479   5.562   3.123   6.368
 3527SOL    HW111480   5.543   3.161   6.459
 3527SOL    HW211481   5.477   3.113   6.317
 3528SOL     OW11482   0.192   6.529   3.398
 3528SOL    HW111483   0.111   6.475   3.373
 3528SOL    HW211484   0.227   6.576   3.317
 3529SOL     OW11485   4.463   6.982   5.203
 3529SOL    HW111486   4.526   6.930   5.147
 3529SOL    HW211487   4.493   0.052   5.209
 3530SOL     OW11488   2.951   5.601   2.539
 3530SOL    HW111489   2.918   5.556   2.456
 3530SOL    HW211490   2.961   5.533   2.612
 3531SOL     OW11491   5.835   4.763   0.859
 3531SOL    HW111492   5.882   4.688   0.906
 3531SOL    HW211493   5.774   4.809   0.924
 3532SOL     OW11494   2.707   0.546   6.647
 3532SOL    HW111495   2.694   0.511   6.554
 3532SOL    HW211496   2.740   0.640   6.643
 3533SOL     OW11497   1.153   1.731   3.230
 3533SOL    HW111498   1.077   1.727   3.165
 3533SOL    HW211499   1.142   1.812   3.289
 3534SOL     OW11500   5.376   1.718   4.872
 3534SOL    HW111501   5.424   1.638   4.907
 3534SOL    HW211502   5.396   1.730   4.775
 3535SOL     OW11503   5.739   5.187   6.108
 3535SOL    HW111504   5.667   5.223   6.166
 3535SOL    HW211505   5.828   5.218   6.141
 3536SOL     OW11506   2.159   3.304   3.184
 3536SOL    HW111507   2.103   3.342   3.258
 3536SOL    HW211508   2.255   3.327   3.199
 3537SOL     OW11509   2.503   5.605   0.462
 3537SOL    HW111510   2.419   5.606   0.516
 3537SOL    HW211511   2.519   5.697   0.424
 3538SOL     OW11512   2.546   0.198   3.104
 3538SOL    HW111513   2.620   0.165   3.045
 3538SOL    HW211514   2.586   0.240   3.186
 3539SOL     OW11515   5.502   5.049   6.728
 3539SOL    HW111516   5.531   5.104   6.807
 3539SOL    HW211517   5.456   5.108   6.662
 3540SOL     OW11518   2.657   3.309   6.424
 3540SOL    HW111519   2.731   3.373   6.447
 3540SOL    HW211520   2.605   3.345   6.346
 3541SOL     OW11521   2.722   2.283   0.882
 3541SOL    HW111522   2.794   2.252   0.820
 3541SOL    HW211523   2.716   2.220   0.960
 3542SOL     OW11524   5.525   2.330   6.387
 3542SOL    HW111525   5.550   2.425   6.370
 3542SOL    HW211526   5.441   2.326   6.439
 3543SOL     OW11527   2.180   2.695   2.953
 3543SOL    HW111528   2.265   2.720   2.907
 3543SOL    HW211529   2.102   2.740   2.908
 3544SOL     OW11530   2.558   4.739   5.959
 3544SOL    HW111531   2.642   4.792   5.972
 3544SOL    HW211532   2.493   4.792   5.905
 3545SOL     OW11533   3.624   6.875   0.972
 3545SOL    HW111534   3.596   6.951   0.912
 3545SOL    HW211535   3.639   6.910   1.065
 3546SOL     OW11536   6.557   3.856   3.465
 3546SOL    HW111537   6.567   3.817   3.373
 3546SOL    HW211538   6.460   3.869   3.484
 3547SOL     OW11539   0.326   3.723   5.460
 3547SOL    HW111540   0.334   3.795   5.529
 3547SOL    HW211541   0.375   3.641   5.491
 3548SOL     OW11542   5.385   1.253   5.637
 3548SOL    HW111543   5.469   1.302   5.661
 3548SOL    HW211544   5.329   1.310   5.577
 3549SOL     OW11545   3.096   5.479   0.271
 3549SOL    HW111546   3.140   5.389   0.262
 3549SOL    HW211547   3.090   5.522   0.182
 3550SOL     OW11548   5.072   1.834   5.280
 3550SOL    HW111549   5.095   1.813   5.185
 3550SOL    HW211550   5.050   1.931   5.289
 3551SOL     OW11551   3.926   2.327   5.515
 3551SOL    HW111552   3.939   2.284   5.425
 3551SOL    HW211553   3.844   2.385   5.513
 3552SOL     OW11554   6.898   6.074   2.637
 3552SOL    HW111555   6.831   6.012   2.598
 3552SOL    HW211556   6.852   6.145   2.691
 3553SOL     OW11557   3.602   5.351   6.326
 3553SOL    HW111558   3.611   5.266   6.379
 3553SOL    HW211559   3.693   5.382   6.298
 3554SOL     OW11560   4.232   3.494   1.708
 3554SOL    HW111561   4.190   3.429   1.773
 3554SOL    HW211562   4.172   3.504   1.629
 3555SOL     OW11563   1.863   2.591   4.047
 3555SOL    HW111564   1.935   2.603   3.979
 3555SOL    HW211565   1.888   2.516   4.109
 3556SOL     OW11566   4.194   0.788   5.260
 3556SOL    HW111567   4.171   0.692   5.279
 3556SOL    HW211568   4.226   0.796   5.165
 3557SOL     OW11569   6.994   1.371   2.197
 3557SOL    HW111570   0.052   1.412   2.157
 3557SOL    HW211571   6.988   1.275   2.170
 3558SOL     OW11572   3.504   0.013   0.790
 3558SOL    HW111573   3.516   0.111   0.800
 3558SOL    HW211574   3.541   7.008   0.701
 3559SOL     OW11575   4.022   6.526   4.356
 3559SOL    HW111576   3.952   6.479   4.409
 3559SOL    HW211577   3.980   6.567   4.274
 3560SOL     OW11578   1.103   5.486   5.301
 3560SOL    HW111579   1.151   5.544   5.235
 3560SOL    HW211580   1.169   5.444   5.363
 3561SOL     OW11581   4.949   4.549   5.418
 3561SOL    HW111582   4.931   4.545   5.516
 3561SOL    HW211583   5.045   4.529   5.401
 3562SOL     OW11584   2.638   1.198   4.927
 3562SOL    HW111585   2.574   1.266   4.963
 3562SOL    HW211586   2.638   1.118   4.988
 3563SOL     OW11587   5.749   2.117   5.201
 3563SOL    HW111588   5.741   2.032   5.252
 3563SOL    HW211589   5.666   2.172   5.214
 3564SOL     OW11590   0.376   4.488   3.031
 3564SOL    HW111591   0.362   4.421   2.959
 3564SOL    HW211592   0.404   4.575   2.990
 3565SOL     OW11593   3.202   5.575   3.396
 3565SOL    HW111594   3.236   5.482   3.380
 3565SOL    HW211595   3.181   5.618   3.308
 3566SOL     OW11596   6.100   1.026   5.633
 3566SOL    HW111597   6.076   0.938   5.593
 3566SOL    HW211598   6.200   1.037   5.632
 3567SOL     OW11599   0.356   4.370   6.700
 3567SOL    HW111600   0.422   4.294   6.697
 3567SOL    HW211601   0.398   4.452   6.662
 3568SOL     OW11602   6.476   3.586   6.151
 3568SOL    HW111603   6.403   3.596   6.218
 3568SOL    HW211604   6.547   3.525   6.187
 3569SOL     OW11605   2.720   2.307   5.399
 3569SOL    HW111606   2.695   2.378   5.333
 3569SOL    HW211607   2.780   2.240   5.355
 3570SOL     OW11608   5.804   1.184   3.986
 3570SOL    HW111609   5.735   1.196   3.915
 3570SOL    HW211610   5.873   1.118   3.956
 3571SOL     OW11611   6.263   5.749   6.336
 3571SOL    HW111612   6.259   5.816   6.410
 3571SOL    HW211613   6.330   5.678   6.359
 3572SOL     OW11614   5.840   3.286   3.751
 3572SOL    HW111615   5.811   3.379   3.727
 3572SOL    HW211616   5.899   3.250   3.679
 3573SOL     OW11617   1.348   4.341   3.636
 3573SOL    HW111618   1.294   4.259   3.651
 3573SOL    HW211619   1.295   4.407   3.583
 3574SOL     OW11620   0.361   5.022   0.441
 3574SOL    HW111621   0.300   5.019   0.361
 3574SOL    HW211622   0.327   4.959   0.511
 3575SOL     OW11623   6.386   5.426   3.576
 3575SOL    HW111624   6.466   5.377   3.611
 3575SOL    HW211625   6.415   5.490   3.504
 3576SOL     OW11626   0.463   1.518   6.329
 3576SOL    HW111627   0.432   1.440   6.273
 3576SOL    HW211628   0.390   1.546   6.391
 3577SOL     OW11629   0.461   2.328   6.719
 3577SOL    HW111630   0.522   2.250   6.706
 3577SOL    HW211631   0.488   2.402   6.656
 3578SOL     OW11632   3.307   4.013   6.578
 3578SOL    HW111633   3.370   4.059   6.642
 3578SOL    HW211634   3.316   4.054   6.488
 3579SOL     OW11635   6.884   3.460   5.388
 3579SOL    HW111636   6.860   3.476   5.292
 3579SOL    HW211637   6.979   3.486   5.404
 3580SOL     OW11638   5.732   1.758   1.679
 3580SOL    HW111639   5.820   1.739   1.637
 3580SOL    HW211640   5.668   1.684   1.660
 3581SOL     OW11641   6.692   0.359   2.168
 3581SOL    HW111642   6.741   0.306   2.099
 3581SOL    HW211643   6.638   0.297   2.225
 3582SOL     OW11644   0.875   0.974   5.943
 3582SOL    HW111645   0.940   0.947   5.871
 3582SOL    HW211646   0.786   0.993   5.902
 3583SOL     OW11647   0.852   4.554   0.001
 3583SOL    HW111648   0.932   4.499   7.005
 3583SOL    HW211649   0.776   4.527   6.966
 3584SOL     OW11650   5.863   6.246   6.141
 3584SOL    HW111651   5.939   6.219   6.081
 3584SOL    HW211652   5.856   6.345   6.142
 3585SOL     OW11653   3.468   4.997   4.848
 3585SOL    HW111654   3.455   5.096   4.840
 3585SOL    HW211655   3.457   4.956   4.757
 3586SOL     OW11656   6.395   3.063   5.633
 3586SOL    HW111657   6.347   3.118   5.702
 3586SOL    HW211658   6.330   3.001   5.589
 3587SOL     OW11659   2.901   6.925   0.552
 3587SOL    HW111660   2.862   6.908   0.643
 3587SOL    HW211661   2.933   6.839   0.513
 3588SOL     OW11662   1.818   2.184   5.636
 3588SOL    HW111663   1.821   2.246   5.557
 3588SOL    HW211664   1.847   2.233   5.718
 3589SOL     OW11665   3.475   0.847   4.477
 3589SOL    HW111666   3.446   0.857   4.382
 3589SOL    HW211667   3.463   0.752   4.506
 3590SOL     OW11668   1.494   4.752   6.104
 3590SOL    HW111669   1.470   4.848   6.113
 3590SOL    HW211670   1.411   4.696   6.108
 3591SOL     OW11671   5.473   3.204   5.980
 3591SOL    HW111672   5.533   3.135   5.938
 3591SOL    HW211673   5.452   3.274   5.912
 3592SOL     OW11674   5.317   3.323   2.753
 3592SOL    HW111675   5.264   3.282   2.827
 3592SOL    HW211676   5.377   3.254   2.712
 3593SOL     OW11677   1.956   6.677   4.133
 3593SOL    HW111678   1.905   6.755   4.096
 3593SOL    HW211679   2.051   6.704   4.147
 3594SOL     OW11680   2.300   1.170   3.749
 3594SOL    HW111681   2.247   1.089   3.725
 3594SOL    HW211682   2.285   1.242   3.681
 3595SOL     OW11683   2.355   6.517   5.228
 3595SOL    HW111684   2.312   6.581   5.292
 3595SOL    HW211685   2.287   6.450   5.198
 3596SOL     OW11686   6.504   0.974   2.878
 3596SOL    HW111687   6.566   0.932   2.944
 3596SOL    HW211688   6.525   0.940   2.786
 3597SOL     OW11689   3.736   6.218   4.494
 3597SOL    HW111690   3.827   6.178   4.480
 3597SOL    HW211691   3.674   6.183   4.424
 3598SOL     OW11692   0.992   0.128   5.583
 3598SOL    HW111693   1.015   0.203   5.520
 3598SOL    HW211694   1.063   0.057   5.576
 3599SOL     OW11695   0.260   2.003   5.653
 3599SOL    HW111696   0.286   2.068   5.581
 3599SOL    HW211697   0.305   2.028   5.739
 3600SOL     OW11698   6.382   3.241   1.305
 3600SOL    HW111699   6.333   3.329   1.306
 3600SOL    HW211700   6.412   3.219   1.398
 3601SOL     OW11701   0.229   3.928   0.572
 3601SOL    HW111702   0.288   3.903   0.649
 3601SOL    HW211703   0.164   3.854   0.555
 3602SOL     OW11704   1.733   0.825   0.394
 3602SOL    HW111705   1.705   0.872   0.311
 3602SOL    HW211706   1.832   0.816   0.397
 3603SOL     OW11707   3.948   4.821   4.138
 3603SOL    HW111708   3.928   4.852   4.231
 3603SOL    HW211709   4.020   4.878   4.099
 3604SOL     OW11710   0.082   2.754   2.955
 3604SOL    HW111711   0.056   2.684   3.021
 3604SOL    HW211712   0.021   2.833   2.965
 3605SOL     OW11713   6.282   4.508   6.234
 3605SOL    HW111714   6.192   4.467   6.219
 3605SOL    HW211715   6.296   4.582   6.169
 3606SOL     OW11716   6.737   4.750   6.172
 3606SOL    HW111717   6.708   4.846   6.176
 3606SOL    HW211718   6.694   4.705   6.093
 3607SOL     OW11719   5.388   0.623   0.301
 3607SOL    HW111720   5.333   0.546   0.335
 3607SOL    HW211721   5.465   0.638   0.364
 3608SOL     OW11722   0.113   1.461   1.802
 3608SOL    HW111723   0.161   1.379   1.768
 3608SOL    HW211724   0.148   1.542   1.754
 3609SOL     OW11725   6.649   1.010   4.084
 3609SOL    HW111726   6.658   1.106   4.057
 3609SOL    HW211727   6.628   0.955   4.003
 3610SOL     OW11728   0.781   6.793   4.599
 3610SOL    HW111729   0.711   6.749   4.655
 3610SOL    HW211730   0.861   6.813   4.655
 3611SOL     OW11731   3.616   5.313   5.346
 3611SOL    HW111732   3.688   5.248   5.371
 3611SOL    HW211733   3.620   5.331   5.248
 3612SOL     OW11734   1.072   6.341   6.481
 3612SOL    HW111735   1.068   6.296   6.571
 3612SOL    HW211736   1.066   6.272   6.409
 3613SOL     OW11737   4.896   5.045   0.931
 3613SOL    HW111738   4.964   5.105   0.888
 3613SOL    HW211739   4.939   4.993   1.005
 3614SOL     OW11740   3.554   3.276   3.046
 3614SOL    HW111741   3.533   3.230   2.959
 3614SOL    HW211742   3.590   3.210   3.111
 3615SOL     OW11743   5.926   5.026   5.985
 3615SOL    HW111744   5.836   5.051   6.022
 3615SOL    HW211745   5.964   4.952   6.040
 3616SOL     OW11746   6.453   2.140   6.808
 3616SOL    HW111747   6.478   2.054   6.764
 3616SOL    HW211748   6.382   2.186   6.756
 3617SOL     OW11749   5.577   1.808   6.396
 3617SOL    HW111750   5.483   1.796   6.364
 3617SOL    HW211751   5.577   1.815   6.495
 3618SOL     OW11752   1.451   1.989   5.833
 3618SOL    HW111753   1.371   1.948   5.876
 3618SOL    HW211754   1.534   1.961   5.882
 3619SOL     OW11755   5.854   2.049   3.938
 3619SOL    HW111756   5.769   2.063   3.990
 3619SOL    HW211757   5.931   2.045   4.001
 3620SOL     OW11758   5.447   6.835   5.650
 3620SOL    HW111759   5.459   6.741   5.684
 3620SOL    HW211760   5.351   6.862   5.662
 3621SOL     OW11761   3.097   3.181   5.832
 3621SOL    HW111762   3.145   3.168   5.918
 3621SOL    HW211763   3.123   3.109   5.767
 3622SOL     OW11764   0.740   1.441   3.131
 3622SOL    HW111765   0.665   1.387   3.168
 3622SOL    HW211766   0.708   1.493   3.051
 3623SOL     OW11767   6.388   5.345   4.098
 3623SOL    HW111768   6.354   5.363   4.190
 3623SOL    HW211769   6.331   5.276   4.054
 3624SOL     OW11770   2.235   6.243   2.929
 3624SOL    HW111771   2.188   6.291   2.855
 3624SOL    HW211772   2.329   6.277   2.937
 3625SOL     OW11773   6.358   3.196   6.170
 3625SOL    HW111774   6.317   3.105   6.160
 3625SOL    HW211775   6.302   3.251   6.232
 3626SOL     OW11776   2.348   3.753   5.372
 3626SOL    HW111777   2.392   3.817   5.309
 3626SOL    HW211778   2.368   3.660   5.343
 3627SOL     OW11779   3.926   3.559   3.463
 3627SOL    HW111780   3.951   3.652   3.436
 3627SOL    HW211781   3.874   3.562   3.549
 3628SOL     OW11782   2.042   6.469   2.014
 3628SOL    HW111783   1.991   6.406   2.072
 3628SOL    HW211784   2.054   6.556   2.062
 3629SOL     OW11785   6.888   1.926   5.160
 3629SOL    HW111786   6.821   1.947   5.089
 3629SOL    HW211787   6.980   1.942   5.125
 3630SOL     OW11788   5.974   2.477   4.354
 3630SOL    HW111789   6.028   2.555   4.383
 3630SOL    HW211790   5.997   2.397   4.410
 3631SOL     OW11791   2.258   0.317   4.657
 3631SOL    HW111792   2.234   0.223   4.680
 3631SOL    HW211793   2.224   0.379   4.727
 3632SOL     OW11794   5.142   1.224   0.872
 3632SOL    HW111795   5.153   1.317   0.905
 3632SOL    HW211796   5.091   1.224   0.786
 3633SOL     OW11797   3.068   2.513   5.801
 3633SOL    HW111798   3.132   2.460   5.856
 3633SOL    HW211799   3.002   2.451   5.758
 3634SOL     OW11800   0.746   6.207   4.328
 3634SOL    HW111801   0.784   6.115   4.339
 3634SOL    HW211802   0.817   6.274   4.348
 3635SOL     OW11803   3.594   0.729   5.123
 3635SOL    HW111804   3.676   0.676   5.140
 3635SOL    HW211805   3.610   0.824   5.149
 3636SOL     OW11806   0.322   5.937   5.989
 3636SOL    HW111807   0.383   5.930   5.910
 3636SOL    HW211808   0.366   5.995   6.059
 3637SOL     OW11809   5.903   1.924   1.008
 3637SOL    HW111810   5.834   1.859   1.040
 3637SOL    HW211811   5.942   1.891   0.922
 3638SOL     OW11812   6.616   4.775   4.236
 3638SOL    HW111813   6.557   4.782   4.316
 3638SOL    HW211814   6.563   4.743   4.158
 3639SOL     OW11815   3.679   3.839   1.044
 3639SOL    HW111816   3.720   3.896   1.115
 3639SOL    HW211817   3.643   3.897   0.971
 3640SOL     OW11818   3.269   6.172   6.688
 3640SOL    HW111819   3.333   6.241   6.655
 3640SOL    HW211820   3.215   6.137   6.611
 3641SOL     OW11821   3.853   2.072   4.762
 3641SOL    HW111822   3.897   2.133   4.828
 3641SOL    HW211823   3.830   1.986   4.807
 3642SOL     OW11824   5.102   1.377   5.609
 3642SOL    HW111825   5.078   1.450   5.673
 3642SOL    HW211826   5.040   1.379   5.531
 3643SOL     OW11827   2.891   5.689   4.683
 3643SOL    HW111828   2.815   5.626   4.699
 3643SOL    HW211829   2.894   5.757   4.757
 3644SOL     OW11830   6.576   1.137   1.536
 3644SOL    HW111831   6.598   1.195   1.615
 3644SOL    HW211832   6.622   1.172   1.455
 3645SOL     OW11833   5.517   1.645   4.365
 3645SOL    HW111834   5.568   1.575   4.414
 3645SOL    HW211835   5.509   1.727   4.423
 3646SOL     OW11836   6.874   4.727   5.776
 3646SOL    HW111837   6.802   4.732   5.845
 3646SOL    HW211838   6.928   4.643   5.790
 3647SOL     OW11839   1.478   3.433   0.461
 3647SOL    HW111840   1.502   3.362   0.528
 3647SOL    HW211841   1.560   3.483   0.435
 3648SOL     OW11842   3.698   5.092   2.846
 3648SOL    HW111843   3.629   5.101   2.918
 3648SOL    HW211844   3.657   5.115   2.758
 3649SOL     OW11845   4.479   3.035   1.277
 3649SOL    HW111846   4.477   2.939   1.306
 3649SOL    HW211847   4.422   3.089   1.339
 3650SOL     OW11848   6.585   5.556   0.789
 3650SOL    HW111849   6.664   5.510   0.830
 3650SOL    HW211850   6.617   5.623   0.722
 3651SOL     OW11851   1.316   6.009   2.738
 3651SOL    HW111852   1.327   6.062   2.654
 3651SOL    HW211853   1.221   6.018   2.771
 3652SOL     OW11854   4.804   6.279   3.588
 3652SOL    HW111855   4.757   6.236   3.665
 3652SOL    HW211856   4.745   6.278   3.508
 3653SOL     OW11857   6.327   0.893   3.074
 3653SOL    HW111858   6.391   0.928   3.006
 3653SOL    HW211859   6.260   0.834   3.030
 3654SOL     OW11860   2.138   6.186   6.935
 3654SOL    HW111861   2.154   6.107   6.876
 3654SOL    HW211862   2.126   6.155   0.005
 3655SOL     OW11863   1.222   6.877   3.763
 3655SOL    HW111864   1.148   6.899   3.700
 3655SOL    HW211865   1.190   6.810   3.830
 3656SOL     OW11866   1.542   2.789   1.372
 3656SOL    HW111867   1.520   2.874   1.323
 3656SOL    HW211868   1.482   2.716   1.340
 3657SOL     OW11869   4.459   5.707   6.146
 3657SOL    HW111870   4.363   5.738   6.149
 3657SOL    HW211871   4.485   5.688   6.051
 3658SOL     OW11872   1.470   5.785   4.545
 3658SOL    HW111873   1.501   5.863   4.491
 3658SOL    HW211874   1.474   5.702   4.490
 3659SOL     OW11875   2.921   4.084   6.196
 3659SOL    HW111876   2.934   3.985   6.184
 3659SOL    HW211877   2.925   4.129   6.107
 3660SOL     OW11878   5.331   6.025   2.118
 3660SOL    HW111879   5.377   5.979   2.042
 3660SOL    HW211880   5.242   5.982   2.135
 3661SOL     OW11881   4.808   2.224   6.597
 3661SOL    HW111882   4.733   2.256   6.540
 3661SOL    HW211883   4.894   2.264   6.567
 3662SOL     OW11884   3.339   0.450   4.049
 3662SOL    HW111885   3.370   0.543   4.030
 3662SOL    HW211886   3.241   0.450   4.067
 3663SOL     OW11887   1.452   1.241   0.677
 3663SOL    HW111888   1.418   1.283   0.593
 3663SOL    HW211889   1.431   1.143   0.675
 3664SOL     OW11890   5.071   1.638   1.165
 3664SOL    HW111891   5.121   1.621   1.250
 3664SOL    HW211892   5.102   1.575   1.094
 3665SOL     OW11893   0.635   5.952   5.908
 3665SOL    HW111894   0.615   6.015   5.982
 3665SOL    HW211895   0.551   5.933   5.857
 3666SOL     OW11896   1.953   4.433   3.533
 3666SOL    HW111897   1.874   4.494   3.536
 3666SOL    HW211898   1.945   4.364   3.604
 3667SOL     OW11899   6.193   6.991   0.664
 3667SOL    HW111900   6.102   6.956   0.646
 3667SOL    HW211901   6.189   0.037   0.735
 3668SOL     OW11902   1.814   0.364   1.589
 3668SOL    HW111903   1.872   0.330   1.664
 3668SOL    HW211904   1.850   0.329   1.502
 3669SOL     OW11905   5.839   1.443   4.412
 3669SOL    HW111906   5.754   1.398   4.437
 3669SOL    HW211907   5.845   1.532   4.459
 3670SOL     OW11908   2.401   5.372   0.650
 3670SOL    HW111909   2.451   5.383   0.736
 3670SOL    HW211910   2.463   5.337   0.580
 3671SOL     OW11911   5.971   0.736   3.311
 3671SOL    HW111912   5.961   0.745   3.410
 3671SOL    HW211913   6.039   0.802   3.278
 3672SOL     OW11914   5.725   1.541   0.916
 3672SOL    HW111915   5.713   1.603   0.994
 3672SOL    HW211916   5.660   1.465   0.923
 3673SOL     OW11917   3.819   0.880   5.979
 3673SOL    HW111918   3.730   0.854   6.017
 3673SOL    HW211919   3.847   0.813   5.911
 3674SOL     OW11920   0.652   0.308   5.531
 3674SOL    HW111921   0.594   0.383   5.560
 3674SOL    HW211922   0.642   0.231   5.595
 3675SOL     OW11923   1.771   2.660   5.322
 3675SOL    HW111924   1.742   2.738   5.378
 3675SOL    HW211925   1.866   2.637   5.344
 3676SOL     OW11926   4.201   5.004   4.389
 3676SOL    HW111927   4.162   4.917   4.420
 3676SOL    HW211928   4.261   4.988   4.312
 3677SOL     OW11929   0.783   6.081   2.791
 3677SOL    HW111930   0.762   6.108   2.885
 3677SOL    HW211931   0.820   6.159   2.741
 3678SOL     OW11932   0.673   3.186   4.103
 3678SOL    HW111933   0.662   3.267   4.045
 3678SOL    HW211934   0.759   3.194   4.155
 3679SOL     OW11935   0.949   1.167   2.863
 3679SOL    HW111936   0.877   1.128   2.806
 3679SOL    HW211937   0.945   1.267   2.857
 3680SOL     OW11938   6.521   3.073   4.190
 3680SOL    HW111939   6.581   3.074   4.270
 3680SOL    HW211940   6.430   3.042   4.218
 3681SOL     OW11941   0.565   0.798   5.859
 3681SOL    HW111942   0.511   0.730   5.808
 3681SOL    HW211943   0.558   0.778   5.957
 3682SOL     OW11944   6.038   2.476   5.932
 3682SOL    HW111945   6.108   2.452   5.864
 3682SOL    HW211946   6.074   2.544   5.995
 3683SOL     OW11947   6.757   0.316   4.895
 3683SOL    HW111948   6.719   0.406   4.918
 3683SOL    HW211949   6.720   0.248   4.958
 3684SOL     OW11950   1.314   3.040   0.720
 3684SOL    HW111951   1.251   3.055   0.796
 3684SOL    HW211952   1.396   2.994   0.753
 3685SOL     OW11953   6.045   6.372   5.484
 3685SOL    HW111954   6.134   6.361   5.440
 3685SOL    HW211955   6.025   6.469   5.495
 3686SOL     OW11956   6.553   5.114   3.616
 3686SOL    HW111957   6.592   5.070   3.696
 3686SOL    HW211958   6.596   5.204   3.603
 3687SOL     OW11959   3.174   5.909   5.826
 3687SOL    HW111960   3.116   5.858   5.763
 3687SOL    HW211961   3.117   5.970   5.882
 3688SOL     OW11962   1.198   3.959   0.197
 3688SOL    HW111963   1.119   4.015   0.177
 3688SOL    HW211964   1.203   3.883   0.132
 3689SOL     OW11965   1.059   0.726   5.492
 3689SOL    HW111966   1.123   0.760   5.422
 3689SOL    HW211967   0.995   0.662   5.450
 3690SOL     OW11968   4.353   0.372   6.414
 3690SOL    HW111969   4.327   0.455   6.462
 3690SOL    HW211970   4.452   0.358   6.423
 3691SOL     OW11971   2.089   3.028   6.673
 3691SOL    HW111972   2.026   3.016   6.596
 3691SOL    HW211973   2.171   3.077   6.643
 3692SOL     OW11974   0.987   5.847   4.523
 3692SOL    HW111975   0.904   5.791   4.519
 3692SOL    HW211976   0.978   5.914   4.597
 3693SOL     OW11977   1.860   3.142   2.826
 3693SOL    HW111978   1.929   3.213   2.811
 3693SOL    HW211979   1.873   3.068   2.760
 3694SOL     OW11980   1.172   5.009   2.973
 3694SOL    HW111981   1.182   5.083   3.040
 3694SOL    HW211982   1.140   5.047   2.886
 3695SOL     OW11983   0.371   2.334   2.516
 3695SOL    HW111984   0.448   2.392   2.543
 3695SOL    HW211985   0.331   2.291   2.597
 3696SOL     OW11986   3.955   5.807   5.376
 3696SOL    HW111987   4.020   5.849   5.439
 3696SOL    HW211988   3.964   5.849   5.286
 3697SOL     OW11989   6.839   5.946   3.797
 3697SOL    HW111990   6.758   5.997   3.769
 3697SOL    HW211991   6.874   5.982   3.883
 3698SOL     OW11992   3.437   6.482   4.802
 3698SOL    HW111993   3.343   6.475   4.836
 3698SOL    HW211994   3.495   6.418   4.853
 3699SOL     OW11995   6.601   3.701   3.237
 3699SOL    HW111996   6.688   3.652   3.244
 3699SOL    HW211997   6.550   3.667   3.159
 3700SOL     OW11998   5.586   0.767   3.601
 3700SOL    HW111999   5.498   0.796   3.566
 3700SOL    HW212000   5.643   0.732   3.527
 3701SOL     OW12001   0.609   1.079   3.553
 3701SOL    HW112002   0.698   1.044   3.580
 3701SOL    HW212003   0.608   1.179   3.560
 3702SOL     OW12004   4.641   0.085   1.919
 3702SOL    HW112005   4.615   0.041   1.833
 3702SOL    HW212006   4.695   0.167   1.899
 3703SOL     OW12007   4.195   3.814   5.992
 3703SOL    HW112008   4.124   3.882   5.972
 3703SOL    HW212009   4.230   3.829   6.085
 3704SOL     OW12010   3.076   1.163   2.116
 3704SOL    HW112011   3.175   1.171   2.129
 3704SOL    HW212012   3.049   1.212   2.033
 3705SOL     OW12013   5.091   6.554   3.891
 3705SOL    HW112014   5.030   6.566   3.812
 3705SOL    HW212015   5.112   6.643   3.931
 3706SOL     OW12016   1.052   2.433   4.811
 3706SOL    HW112017   1.023   2.339   4.791
 3706SOL    HW212018   1.105   2.469   4.735
 3707SOL     OW12019   5.482   3.189   4.988
 3707SOL    HW112020   5.413   3.131   5.031
 3707SOL    HW212021   5.441   3.276   4.961
 3708SOL     OW12022   6.046   0.630   6.282
 3708SOL    HW112023   5.983   0.554   6.299
 3708SOL    HW212024   6.060   0.640   6.184
 3709SOL     OW12025   3.751   0.879   6.734
 3709SOL    HW112026   3.743   0.905   6.830
 3709SOL    HW212027   3.846   0.889   6.704
 3710SOL     OW12028   6.638   5.999   0.489
 3710SOL    HW112029   6.608   6.030   0.399
 3710SOL    HW212030   6.614   6.068   0.557
 3711SOL     OW12031   7.008   6.059   2.178
 3711SOL    HW112032   6.996   5.960   2.183
 3711SOL    HW212033   0.006   6.094   2.269
 3712SOL     OW12034   6.675   5.986   6.837
 3712SOL    HW112035   6.607   5.958   6.905
 3712SOL    HW212036   6.718   5.905   6.797
 3713SOL     OW12037   1.647   6.377   4.720
 3713SOL    HW112038   1.689   6.467   4.727
 3713SOL    HW212039   1.624   6.344   4.811
 3714SOL     OW12040   5.166   6.064   4.715
 3714SOL    HW112041   5.132   6.040   4.806
 3714SOL    HW212042   5.266   6.058   4.715
 3715SOL     OW12043   5.707   4.252   4.847
 3715SOL    HW112044   5.678   4.241   4.942
 3715SOL    HW212045   5.807   4.244   4.841
 3716SOL     OW12046   0.285   6.634   4.315
 3716SOL    HW112047   0.314   6.543   4.345
 3716SOL    HW212048   0.334   6.704   4.366
 3717SOL     OW12049   6.452   5.614   0.358
 3717SOL    HW112050   6.459   5.522   0.397
 3717SOL    HW212051   6.439   5.680   0.432
 3718SOL     OW12052   2.374   6.445   6.014
 3718SOL    HW112053   2.314   6.479   6.086
 3718SOL    HW212054   2.333   6.365   5.971
 3719SOL     OW12055   5.106   4.319   1.019
 3719SOL    HW112056   5.031   4.379   1.046
 3719SOL    HW212057   5.120   4.324   0.921
 3720SOL     OW12058   5.811   1.872   6.612
 3720SOL    HW112059   5.787   1.779   6.640
 3720SOL    HW212060   5.812   1.931   6.693
 3721SOL     OW12061   5.276   4.548   0.224
 3721SOL    HW112062   5.180   4.538   0.249
 3721SOL    HW212063   5.333   4.502   0.292
 3722SOL     OW12064   0.195   6.510   2.132
 3722SOL    HW112065   0.222   6.507   2.228
 3722SOL    HW212066   0.134   6.432   2.112
 3723SOL     OW12067   5.883   6.447   1.933
 3723SOL    HW112068   5.884   6.394   2.018
 3723SOL    HW212069   5.837   6.534   1.949
 3724SOL     OW12070   2.266   5.144   6.908
 3724SOL    HW112071   2.349   5.180   6.950
 3724SOL    HW212072   2.245   5.196   6.825
 3725SOL     OW12073   5.439   6.222   6.692
 3725SOL    HW112074   5.524   6.275   6.698
 3725SOL    HW212075   5.439   6.169   6.607
 3726SOL     OW12076   6.528   4.452   1.635
 3726SOL    HW112077   6.526   4.361   1.675
 3726SOL    HW212078   6.509   4.446   1.537
 3727SOL     OW12079   0.127   3.006   6.191
 3727SOL    HW112080   0.147   2.909   6.185
 3727SOL    HW212081   0.040   3.025   6.146
 3728SOL     OW12082   1.184   3.213   0.432
 3728SOL    HW112083   1.219   3.200   0.525
 3728SOL    HW212084   1.092   3.252   0.436
 3729SOL     OW12085   0.815   2.241   4.149
 3729SOL    HW112086   0.860   2.251   4.060
 3729SOL    HW212087   0.853   2.308   4.213
 3730SOL     OW12088   3.219   5.864   0.060
 3730SOL    HW112089   3.151   5.914   0.114
 3730SOL    HW212090   3.223   5.902   6.993
 3731SOL     OW12091   4.882   0.461   0.531
 3731SOL    HW112092   4.849   0.450   0.624
 3731SOL    HW212093   4.806   0.485   0.471
 3732SOL     OW12094   1.954   2.845   5.956
 3732SOL    HW112095   1.923   2.867   6.049
 3732SOL    HW212096   2.039   2.792   5.961
 3733SOL     OW12097   1.951   4.035   1.504
 3733SOL    HW112098   1.994   4.096   1.438
 3733SOL    HW212099   1.869   3.995   1.464
 3734SOL     OW12100   4.104   1.175   1.914
 3734SOL    HW112101   4.104   1.264   1.958
 3734SOL    HW212102   4.041   1.114   1.962
 3735SOL     OW12103   0.964   1.776   3.045
 3735SOL    HW112104   1.003   1.708   2.983
 3735SOL    HW212105   1.002   1.866   3.023
 3736SOL     OW12106   0.690   3.333   1.076
 3736SOL    HW112107   0.593   3.347   1.057
 3736SOL    HW212108   0.733   3.420   1.100
 3737SOL     OW12109   4.733   0.240   2.984
 3737SOL    HW112110   4.709   0.146   2.960
 3737SOL    HW212111   4.739   0.249   3.083
 3738SOL     OW12112   6.483   6.363   3.579
 3738SOL    HW112113   6.533   6.449   3.581
 3738SOL    HW212114   6.418   6.360   3.656
 3739SOL     OW12115   1.569   4.377   2.635
 3739SOL    HW112116   1.611   4.440   2.570
 3739SOL    HW212117   1.566   4.419   2.725
 3740SOL     OW12118   4.838   0.825   6.548
 3740SOL    HW112119   4.762   0.841   6.611
 3740SOL    HW212120   4.914   0.781   6.597
 3741SOL     OW12121   4.758   3.402   1.349
 3741SOL    HW112122   4.851   3.435   1.331
 3741SOL    HW212123   4.692   3.473   1.326
 3742SOL     OW12124   2.697   2.186   5.704
 3742SOL    HW112125   2.687   2.102   5.757
 3742SOL    HW212126   2.630   2.187   5.630
 3743SOL     OW12127   5.492   4.875   0.767
 3743SOL    HW112128   5.535   4.892   0.856
 3743SOL    HW212129   5.538   4.799   0.721
 3744SOL     OW12130   0.512   6.077   3.334
 3744SOL    HW112131   0.608   6.096   3.351
 3744SOL    HW212132   0.500   6.037   3.243
 3745SOL     OW12133   2.699   5.419   2.969
 3745SOL    HW112134   2.726   5.364   2.890
 3745SOL    HW212135   2.694   5.361   3.050
 3746SOL     OW12136   4.257   1.287   1.704
 3746SOL    HW112137   4.195   1.249   1.773
 3746SOL    HW212138   4.222   1.267   1.613
 3747SOL     OW12139   3.093   6.793   5.841
 3747SOL    HW112140   3.181   6.817   5.880
 3747SOL    HW212141   3.097   6.699   5.806
 3748SOL     OW12142   5.412   0.507   1.821
 3748SOL    HW112143   5.353   0.531   1.744
 3748SOL    HW212144   5.370   0.434   1.874
 3749SOL     OW12145   1.503   6.454   4.180
 3749SOL    HW112146   1.468   6.546   4.168
 3749SOL    HW212147   1.516   6.436   4.278
 3750SOL     OW12148   1.661   3.919   0.557
 3750SOL    HW112149   1.752   3.890   0.587
 3750SOL    HW212150   1.636   4.004   0.603
 3751SOL     OW12151   6.987   3.830   3.063
 3751SOL    HW112152   7.011   3.845   2.967
 3751SOL    HW212153   7.004   3.735   3.087
 3752SOL     OW12154   4.973   0.780   5.538
 3752SOL    HW112155   5.010   0.872   5.522
 3752SOL    HW212156   4.914   0.782   5.618
 3753SOL     OW12157   5.900   0.335   4.838
 3753SOL    HW112158   5.978   0.377   4.792
 3753SOL    HW212159   5.931   0.287   4.920
 3754SOL     OW12160   1.922   0.572   2.204
 3754SOL    HW112161   1.964   0.655   2.167
 3754SOL    HW212162   1.968   0.492   2.166
 3755SOL     OW12163   3.084   5.169   4.694
 3755SOL    HW112164   3.091   5.091   4.756
 3755SOL    HW212165   3.022   5.237   4.733
 3756SOL     OW12166   3.284   5.697   6.837
 3756SOL    HW112167   3.310   5.677   6.932
 3756SOL    HW212168   3.266   5.795   6.828
 3757SOL     OW12169   6.970   4.944   1.874
 3757SOL    HW112170   7.020   4.857   1.866
 3757SOL    HW212171   6.920   4.946   1.960
 3758SOL     OW12172   2.137   1.282   4.559
 3758SOL    HW112173   2.131   1.193   4.513
 3758SOL    HW212174   2.222   1.287   4.612
 3759SOL     OW12175   4.777   0.842   4.771
 3759SOL    HW112176   4.755   0.838   4.674
 3759SOL    HW212177   4.802   0.936   4.796
 3760SOL     OW12178   0.248   0.393   3.740
 3760SOL    HW112179   0.210   0.346   3.660
 3760SOL    HW212180   0.228   0.491   3.734
 3761SOL     OW12181   5.942   1.199   4.694
 3761SOL    HW112182   5.990   1.181   4.608
 3761SOL    HW212183   5.982   1.142   4.766
 3762SOL     OW12184   1.218   3.858   2.306
 3762SOL    HW112185   1.274   3.854   2.223
 3762SOL    HW212186   1.257   3.925   2.369
 3763SOL     OW12187   6.638   3.789   0.391
 3763SOL    HW112188   6.715   3.761   0.448
 3763SOL    HW212189   6.659   3.877   0.348
 3764SOL     OW12190   2.070   0.531   2.728
 3764SOL    HW112191   2.107   0.439   2.722
 3764SOL    HW212192   1.980   0.534   2.685
 3765SOL     OW12193   6.060   2.112   1.764
 3765SOL    HW112194   6.072   2.107   1.863
 3765SOL    HW212195   6.144   2.081   1.719
 3766SOL     OW12196   2.038   2.715   4.314
 3766SOL    HW112197   1.950   2.685   4.277
 3766SOL    HW212198   2.052   2.672   4.403
 3767SOL     OW12199   3.389   4.071   6.291
 3767SOL    HW112200   3.377   3.974   6.312
 3767SOL    HW212201   3.426   4.080   6.199
 3768SOL     OW12202   1.945   0.629   4.730
 3768SOL    HW112203   1.943   0.677   4.818
 3768SOL    HW212204   2.039   0.623   4.698
 3769SOL     OW12205   5.390   5.411   4.779
 3769SOL    HW112206   5.458   5.427   4.851
 3769SOL    HW212207   5.318   5.352   4.814
 3770SOL     OW12208   1.110   1.098   0.087
 3770SOL    HW112209   1.013   1.076   0.085
 3770SOL    HW212210   1.154   1.063   0.004
 3771SOL     OW12211   6.128   4.551   0.751
 3771SOL    HW112212   6.127   4.452   0.737
 3771SOL    HW212213   6.157   4.570   0.845
 3772SOL     OW12214   1.571   6.198   0.084
 3772SOL    HW112215   1.614   6.276   0.130
 3772SOL    HW212216   1.477   6.220   0.061
 3773SOL     OW12217   5.121   4.232   5.898
 3773SOL    HW112218   5.110   4.133   5.907
 3773SOL    HW212219   5.083   4.261   5.810
 3774SOL     OW12220   6.084   4.805   2.056
 3774SOL    HW112221   6.013   4.741   2.026
 3774SOL    HW212222   6.062   4.839   2.147
 3775SOL     OW12223   3.566   4.900   3.522
 3775SOL    HW112224   3.587   4.975   3.585
 3775SOL    HW212225   3.474   4.865   3.540
 3776SOL     OW12226   3.749   2.811   6.581
 3776SOL    HW112227   3.814   2.736   6.592
 3776SOL    HW212228   3.664   2.776   6.542
 3777SOL     OW12229   2.667   5.838   3.412
 3777SOL    HW112230   2.749   5.894   3.426
 3777SOL    HW212231   2.664   5.766   3.481
 3778SOL     OW12232   2.058   6.411   4.665
 3778SOL    HW112233   2.081   6.495   4.615
 3778SOL    HW212234   1.975   6.371   4.626
 3779SOL     OW12235   0.396   5.310   0.506
 3779SOL    HW112236   0.379   5.330   0.603
 3779SOL    HW212237   0.410   5.212   0.495
 3780SOL     OW12238   6.808   2.463   2.616
 3780SOL    HW112239   6.858   2.404   2.553
 3780SOL    HW212240   6.712   2.435   2.618
 3781SOL     OW12241   0.984   6.389   5.376
 3781SOL    HW112242   0.953   6.294   5.375
 3781SOL    HW212243   0.922   6.444   5.321
 3782SOL     OW12244   4.164   6.342   2.339
 3782SOL    HW112245   4.132   6.432   2.368
 3782SOL    HW212246   4.264   6.342   2.333
 3783SOL     OW12247   5.305   4.489   5.163
 3783SOL    HW112248   5.288   4.587   5.163
 3783SOL    HW212249   5.388   4.469   5.111
 3784SOL     OW12250   5.402   2.694   2.177
 3784SOL    HW112251   5.310   2.712   2.211
 3784SOL    HW212252   5.416   2.742   2.091
 3785SOL     OW12253   0.123   3.321   5.439
 3785SOL    HW112254   0.139   3.417   5.413
 3785SOL    HW212255   0.128   3.263   5.358
 3786SOL     OW12256   2.202   2.312   3.439
 3786SOL    HW112257   2.200   2.331   3.341
 3786SOL    HW212258   2.184   2.397   3.489
 3787SOL     OW12259   4.233   0.242   3.073
 3787SOL    HW112260   4.321   0.250   3.027
 3787SOL    HW212261   4.182   0.328   3.064
 3788SOL     OW12262   6.774   3.933   4.544
 3788SOL    HW112263   6.742   3.964   4.455
 3788SOL    HW212264   6.697   3.892   4.594
 3789SOL     OW12265   0.973   3.318   2.871
 3789SOL    HW112266   1.014   3.313   2.780
 3789SOL    HW212267   0.880   3.281   2.868
 3790SOL     OW12268   1.091   5.920   6.782
 3790SOL    HW112269   1.092   5.955   6.689
 3790SOL    HW212270   1.117   5.992   6.846
 3791SOL     OW12271   5.323   1.620   6.392
 3791SOL    HW112272   5.248   1.579   6.444
 3791SOL    HW212273   5.316   1.720   6.395
 3792SOL     OW12274   1.017   1.332   4.330
 3792SOL    HW112275   0.924   1.298   4.334
 3792SOL    HW212276   1.079   1.269   4.377
 3793SOL     OW12277   5.529   6.123   1.197
 3793SOL    HW112278   5.508   6.064   1.119
 3793SOL    HW212279   5.606   6.084   1.248
 3794SOL     OW12280   2.164   3.181   0.996
 3794SOL    HW112281   2.244   3.151   1.048
 3794SOL    HW212282   2.152   3.121   0.916
 3795SOL     OW12283   2.990   5.800   0.856
 3795SOL    HW112284   2.891   5.790   0.860
 3795SOL    HW212285   3.034   5.720   0.895
 3796SOL     OW12286   4.082   1.998   1.369
 3796SOL    HW112287   4.108   1.902   1.360
 3796SOL    HW212288   4.055   2.034   1.280
 3797SOL     OW12289   1.030   4.152   2.354
 3797SOL    HW112290   1.008   4.061   2.318
 3797SOL    HW212291   1.081   4.143   2.439
 3798SOL     OW12292   2.558   6.928   2.463
 3798SOL    HW112293   2.503   6.851   2.497
 3798SOL    HW212294   2.502   7.011   2.463
 3799SOL     OW12295   6.801   2.493   3.228
 3799SOL    HW112296   6.762   2.583   3.252
 3799SOL    HW212297   6.900   2.502   3.215
 3800SOL     OW12298   4.751   1.866   2.794
 3800SOL    HW112299   4.800   1.808   2.860
 3800SOL    HW212300   4.812   1.937   2.761
 3801SOL     OW12301   5.317   6.959   2.242
 3801SOL    HW112302   5.333   6.940   2.339
 3801SOL    HW212303   5.246   0.004   2.233
 3802SOL     OW12304   0.474   2.204   2.308
 3802SOL    HW112305   0.434   2.246   2.389
 3802SOL    HW212306   0.561   2.250   2.287
 3803SOL     OW12307   3.738   3.636   3.717
 3803SOL    HW112308   3.731   3.680   3.806
 3803SOL    HW212309   3.781   3.546   3.727
 3804SOL     OW12310   3.195   1.244   4.580
 3804SOL    HW112311   3.222   1.245   4.484
 3804SOL    HW212312   3.245   1.315   4.630
 3805SOL     OW12313   2.598   2.489   1.034
 3805SOL    HW112314   2.649   2.424   0.978
 3805SOL    HW212315   2.500   2.476   1.020
 3806SOL     OW12316   3.934   3.791   6.428
 3806SOL    HW112317   3.969   3.826   6.341
 3806SOL    HW212318   3.929   3.691   6.424
 3807SOL     OW12319   1.274   4.888   4.694
 3807SOL    HW112320   1.316   4.798   4.702
 3807SOL    HW212321   1.327   4.955   4.747
 3808SOL     OW12322   4.758   0.406   5.717
 3808SOL    HW112323   4.747   0.495   5.762
 3808SOL    HW212324   4.839   0.408   5.659
 3809SOL     OW12325   6.248   1.783   1.587
 3809SOL    HW112326   6.320   1.769   1.519
 3809SOL    HW212327   6.290   1.793   1.677
 3810SOL     OW12328   6.908   2.893   3.336
 3810SOL    HW112329   7.002   2.861   3.352
 3810SOL    HW212330   6.908   2.992   3.323
 3811SOL     OW12331   0.099   6.201   4.419
 3811SOL    HW112332   0.072   6.118   4.371
 3811SOL    HW212333   0.019   6.261   4.428
 3812SOL     OW12334   2.952   5.406   6.405
 3812SOL    HW112335   2.946   5.353   6.490
 3812SOL    HW212336   3.038   5.385   6.358
 3813SOL     OW12337   6.172   4.039   1.073
 3813SOL    HW112338   6.181   3.947   1.111
 3813SOL    HW212339   6.168   4.034   0.973
 3814SOL     OW12340   0.260   6.980   3.973
 3814SOL    HW112341   0.227   6.972   4.067
 3814SOL    HW212342   0.284   0.051   3.955
 3815SOL     OW12343   5.219   3.033   0.731
 3815SOL    HW112344   5.263   3.063   0.816
 3815SOL    HW212345   5.127   2.999   0.752
 3816SOL     OW12346   0.990   6.031   5.054
 3816SOL    HW112347   0.960   5.946   5.011
 3816SOL    HW212348   1.016   6.014   5.148
 3817SOL     OW12349   4.986   3.526   2.516
 3817SOL    HW112350   4.988   3.483   2.606
 3817SOL    HW212351   5.075   3.567   2.497
 3818SOL     OW12352   0.467   0.609   1.518
 3818SOL    HW112353   0.442   0.526   1.469
 3818SOL    HW212354   0.555   0.642   1.485
 3819SOL     OW12355   6.576   4.281   2.738
 3819SOL    HW112356   6.485   4.260   2.774
 3819SOL    HW212357   6.611   4.204   2.685
 3820SOL     OW12358   5.330   6.682   3.276
 3820SOL    HW112359   5.296   6.620   3.346
 3820SOL    HW212360   5.422   6.712   3.299
 3821SOL     OW12361   0.716   0.613   0.990
 3821SOL    HW112362   0.652   0.540   0.969
 3821SOL    HW212363   0.678   0.671   1.063
 3822SOL     OW12364   2.845   6.904   0.230
 3822SOL    HW112365   2.889   6.814   0.228
 3822SOL    HW212366   2.905   6.970   0.275
 3823SOL     OW12367   4.533   4.482   6.489
 3823SOL    HW112368   4.542   4.570   6.536
 3823SOL    HW212369   4.620   4.457   6.447
 3824SOL     OW12370   1.215   2.336   0.871
 3824SOL    HW112371   1.251   2.300   0.784
 3824SOL    HW212372   1.251   2.282   0.947
 3825SOL     OW12373   0.798   4.310   0.948
 3825SOL    HW112374   0.823   4.218   0.918
 3825SOL    HW212375   0.856   4.377   0.901
 3826SOL     OW12376   0.080   3.589   2.314
 3826SOL    HW112377   0.149   3.630   2.374
 3826SOL    HW212378   0.079   3.638   2.227
 3827SOL     OW12379   0.729   0.886   1.869
 3827SOL    HW112380   0.820   0.924   1.854
 3827SOL    HW212381   0.677   0.887   1.784
 3828SOL     OW12382   3.584   3.937   4.763
 3828SOL    HW112383   3.580   4.024   4.812
 3828SOL    HW212384   3.641   3.873   4.814
 3829SOL     OW12385   0.485   4.800   2.029
 3829SOL    HW112386   0.497   4.898   2.015
 3829SOL    HW212387   0.575   4.755   2.030
 3830SOL     OW12388   0.438   0.693   5.390
 3830SOL    HW112389   0.371   0.661   5.323
 3830SOL    HW212390   0.530   0.682   5.353
 3831SOL     OW12391   4.126   2.200   2.878
 3831SOL    HW112392   4.084   2.193   2.969
 3831SOL    HW212393   4.199   2.268   2.880
 3832SOL     OW12394   6.667   0.555   2.368
 3832SOL    HW112395   6.583   0.541   2.421
 3832SOL    HW212396   6.669   0.491   2.291
 3833SOL     OW12397   1.999   0.076   6.677
 3833SOL    HW112398   2.071   0.037   6.734
 3833SOL    HW212399   1.979   0.013   6.601
 3834SOL     OW12400   4.252   4.314   1.043
 3834SOL    HW112401   4.309   4.270   0.973
 3834SOL    HW212402   4.170   4.259   1.057
 3835SOL     OW12403   3.986   5.937   5.144
 3835SOL    HW112404   4.082   5.940   5.115
 3835SOL    HW212405   3.940   6.022   5.116
 3836SOL     OW12406   0.437   4.601   5.783
 3836SOL    HW112407   0.522   4.564   5.821
 3836SOL    HW212408   0.364   4.533   5.795
 3837SOL     OW12409   4.354   5.344   4.959
 3837SOL    HW112410   4.334   5.342   4.861
 3837SOL    HW212411   4.270   5.327   5.010
 3838SOL     OW12412   1.361   1.728   3.024
 3838SOL    HW112413   1.324   1.798   2.963
 3838SOL    HW212414   1.292   1.702   3.091
 3839SOL     OW12415   3.774   0.737   2.796
 3839SOL    HW112416   3.780   0.714   2.893
 3839SOL    HW212417   3.742   0.831   2.786
 3840SOL     OW12418   2.807   1.940   5.787
 3840SOL    HW112419   2.887   1.996   5.764
 3840SOL    HW212420   2.831   1.843   5.779
 3841SOL     OW12421   1.231   3.975   4.383
 3841SOL    HW112422   1.322   3.942   4.406
 3841SOL    HW212423   1.173   3.897   4.357
 3842SOL     OW12424   2.086   2.840   4.081
 3842SOL    HW112425   1.999   2.862   4.125
 3842SOL    HW212426   2.151   2.809   4.149
 3843SOL     OW12427   5.739   3.722   0.818
 3843SOL    HW112428   5.765   3.700   0.724
 3843SOL    HW212429   5.701   3.641   0.862
 3844SOL     OW12430   1.182   4.110   6.908
 3844SOL    HW112431   1.184   4.021   6.861
 3844SOL    HW212432   1.241   4.107   6.988
 3845SOL     OW12433   2.475   5.824   6.801
 3845SOL    HW112434   2.465   5.918   6.769
 3845SOL    HW212435   2.386   5.786   6.824
 3846SOL     OW12436   0.775   3.700   4.416
 3846SOL    HW112437   0.809   3.661   4.331
 3846SOL    HW212438   0.814   3.791   4.429
 3847SOL     OW12439   4.990   2.315   4.567
 3847SOL    HW112440   4.939   2.285   4.648
 3847SOL    HW212441   4.994   2.414   4.565
 3848SOL     OW12442   4.874   3.814   2.614
 3848SOL    HW112443   4.833   3.770   2.534
 3848SOL    HW212444   4.833   3.778   2.697
 3849SOL     OW12445   0.627   0.556   6.227
 3849SOL    HW112446   0.694   0.515   6.288
 3849SOL    HW212447   0.648   0.653   6.214
 3850SOL     OW12448   3.482   2.953   1.585
 3850SOL    HW112449   3.501   2.885   1.656
 3850SOL    HW212450   3.385   2.979   1.589
 3851SOL     OW12451   0.107   4.915   3.425
 3851SOL    HW112452   0.053   4.997   3.442
 3851SOL    HW212453   0.102   4.892   3.328
 3852SOL     OW12454   3.347   6.205   4.349
 3852SOL    HW112455   3.348   6.201   4.448
 3852SOL    HW212456   3.409   6.275   4.316
 3853SOL     OW12457   1.403   2.705   3.285
 3853SOL    HW112458   1.445   2.783   3.332
 3853SOL    HW212459   1.412   2.718   3.186
 3854SOL     OW12460   1.104   2.713   2.819
 3854SOL    HW112461   1.198   2.681   2.803
 3854SOL    HW212462   1.072   2.679   2.907
 3855SOL     OW12463   4.107   6.125   6.752
 3855SOL    HW112464   4.101   6.029   6.723
 3855SOL    HW212465   4.052   6.137   6.835
 3856SOL     OW12466   0.308   1.476   5.909
 3856SOL    HW112467   0.210   1.465   5.891
 3856SOL    HW212468   0.334   1.571   5.891
 3857SOL     OW12469   1.457   6.670   6.321
 3857SOL    HW112470   1.509   6.636   6.243
 3857SOL    HW212471   1.427   6.593   6.377
 3858SOL     OW12472   3.332   1.282   6.135
 3858SOL    HW112473   3.329   1.189   6.099
 3858SOL    HW212474   3.281   1.343   6.074
 3859SOL     OW12475   6.220   0.845   2.110
 3859SOL    HW112476   6.315   0.832   2.137
 3859SOL    HW212477   6.168   0.762   2.129
 3860SOL     OW12478   1.619   1.257   4.624
 3860SOL    HW112479   1.546   1.323   4.606
 3860SOL    HW212480   1.584   1.165   4.610
 3861SOL     OW12481   4.737   6.130   3.170
 3861SOL    HW112482   4.670   6.092   3.234
 3861SOL    HW212483   4.690   6.157   3.086
 3862SOL     OW12484   0.527   0.250   4.779
 3862SOL    HW112485   0.476   0.324   4.735
 3862SOL    HW212486   0.514   0.165   4.728
 3863SOL     OW12487   5.823   1.794   6.949
 3863SOL    HW112488   5.801   1.892   6.942
 3863SOL    HW212489   5.910   1.777   6.902
 3864SOL     OW12490   2.416   0.625   5.193
 3864SOL    HW112491   2.377   0.534   5.209
 3864SOL    HW212492   2.479   0.647   5.268
 3865SOL     OW12493   4.209   1.164   1.275
 3865SOL    HW112494   4.139   1.096   1.255
 3865SOL    HW212495   4.280   1.123   1.331
 3866SOL     OW12496   4.217   0.850   7.008
 3866SOL    HW112497   4.147   0.784   0.011
 3866SOL    HW212498   4.182   0.906   6.932
 3867SOL     OW12499   0.869   3.926   3.371
 3867SOL    HW112500   0.783   3.876   3.385
 3867SOL    HW212501   0.877   3.998   3.439
 3868SOL     OW12502   3.327   0.017   0.035
 3868SOL    HW112503   3.254   6.975   0.018
 3868SOL    HW212504   3.415   7.001   0.011
 3869SOL     OW12505   6.718   3.012   3.982
 3869SOL    HW112506   6.698   2.917   3.960
 3869SOL    HW212507   6.647   3.048   4.042
 3870SOL     OW12508   6.977   6.363   0.960
 3870SOL    HW112509   6.979   6.462   0.965
 3870SOL    HW212510   6.968   6.334   0.865
 3871SOL     OW12511   3.462   0.803   2.934
 3871SOL    HW112512   3.525   0.789   3.011
 3871SOL    HW212513   3.407   0.885   2.951
 3872SOL     OW12514   3.155   3.628   3.887
 3872SOL    HW112515   3.119   3.697   3.825
 3872SOL    HW212516   3.095   3.548   3.886
 3873SOL     OW12517   5.758   4.400   1.144
 3873SOL    HW112518   5.785   4.497   1.140
 3873SOL    HW212519   5.840   4.343   1.141
 3874SOL     OW12520   4.099   0.142   0.130
 3874SOL    HW112521   4.144   0.053   0.138
 3874SOL    HW212522   4.046   0.160   0.212
 3875SOL     OW12523   2.217   3.052   3.136
 3875SOL    HW112524   2.175   3.143   3.136
 3875SOL    HW212525   2.246   3.029   3.043
 3876SOL     OW12526   3.767   5.606   0.861
 3876SOL    HW112527   3.852   5.553   0.864
 3876SOL    HW212528   3.785   5.694   0.818
 3877SOL     OW12529   6.121   2.330   1.314
 3877SOL    HW112530   6.194   2.265   1.332
 3877SOL    HW212531   6.078   2.357   1.400
 3878SOL     OW12532   4.727   6.753   4.363
 3878SOL    HW112533   4.750   6.815   4.287
 3878SOL    HW212534   4.750   6.659   4.338
 3879SOL     OW12535   6.121   5.475   0.867
 3879SOL    HW112536   6.129   5.544   0.938
 3879SOL    HW212537   6.132   5.517   0.777
 3880SOL     OW12538   5.197   4.030   4.593
 3880SOL    HW112539   5.278   4.041   4.651
 3880SOL    HW212540   5.183   3.933   4.574
 3881SOL     OW12541   1.515   3.538   1.291
 3881SOL    HW112542   1.477   3.545   1.384
 3881SOL    HW212543   1.610   3.508   1.296
 3882SOL     OW12544   0.649   1.279   6.050
 3882SOL    HW112545   0.627   1.296   5.954
 3882SOL    HW212546   0.567   1.292   6.106
 3883SOL     OW12547   3.769   1.567   2.168
 3883SOL    HW112548   3.682   1.550   2.214
 3883SOL    HW212549   3.770   1.661   2.134
 3884SOL     OW12550   0.642   5.811   2.430
 3884SOL    HW112551   0.620   5.842   2.338
 3884SOL    HW212552   0.641   5.889   2.493
 3885SOL     OW12553   6.774   5.393   2.870
 3885SOL    HW112554   6.753   5.446   2.952
 3885SOL    HW212555   6.824   5.310   2.895
 3886SOL     OW12556   4.742   5.954   5.008
 3886SOL    HW112557   4.738   6.035   5.066
 3886SOL    HW212558   4.797   5.973   4.927
 3887SOL     OW12559   1.000   0.249   6.851
 3887SOL    HW112560   1.098   0.261   6.868
 3887SOL    HW212561   0.983   0.156   6.820
 3888SOL     OW12562   6.372   0.029   4.988
 3888SOL    HW112563   6.348   6.970   5.037
 3888SOL    HW212564   6.323   0.031   4.901
 3889SOL     OW12565   6.837   3.476   0.514
 3889SOL    HW112566   6.759   3.437   0.464
 3889SOL    HW212567   6.806   3.552   0.571
 3890SOL     OW12568   6.568   4.532   3.143
 3890SOL    HW112569   6.507   4.600   3.103
 3890SOL    HW212570   6.643   4.513   3.080
 3891SOL     OW12571   5.643   3.928   4.575
 3891SOL    HW112572   5.591   3.931   4.489
 3891SOL    HW212573   5.696   3.843   4.579
 3892SOL     OW12574   0.090   1.984   1.494
 3892SOL    HW112575   0.077   2.027   1.404
 3892SOL    HW212576   0.169   1.923   1.490
 3893SOL     OW12577   4.239   3.539   6.724
 3893SOL    HW112578   4.274   3.446   6.734
 3893SOL    HW212579   4.139   3.537   6.723
 3894SOL     OW12580   4.603   0.875   0.158
 3894SOL    HW112581   4.671   0.933   0.203
 3894SOL    HW212582   4.603   0.785   0.201
 3895SOL     OW12583   1.244   0.640   5.663
 3895SOL    HW112584   1.283   0.692   5.739
 3895SOL    HW212585   1.202   0.703   5.597
 3896SOL     OW12586   0.204   1.215   5.743
 3896SOL    HW112587   0.303   1.206   5.736
 3896SOL    HW212588   0.160   1.164   5.669
 3897SOL     OW12589   3.904   5.651   2.526
 3897SOL    HW112590   3.860   5.589   2.591
 3897SOL    HW212591   3.862   5.642   2.436
 3898SOL     OW12592   2.545   3.195   6.046
 3898SOL    HW112593   2.632   3.197   5.997
 3898SOL    HW212594   2.522   3.100   6.068
 3899SOL     OW12595   4.582   6.646   5.230
 3899SOL    HW112596   4.609   6.723   5.172
 3899SOL    HW212597   4.633   6.649   5.316
 3900SOL     OW12598   4.954   3.235   3.560
 3900SOL    HW112599   4.923   3.175   3.486
 3900SOL    HW212600   4.989   3.320   3.521
 3901SOL     OW12601   3.030   0.359   5.655
 3901SOL    HW112602   3.101   0.396   5.596
 3901SOL    HW212603   3.032   0.259   5.652
 3902SOL     OW12604   6.025   2.758   1.865
 3902SOL    HW112605   6.109   2.751   1.811
 3902SOL    HW212606   5.948   2.723   1.812
 3903SOL     OW12607   3.903   5.832   0.159
 3903SOL    HW112608   3.859   5.916   0.192
 3903SOL    HW212609   4.000   5.849   0.143
 3904SOL     OW12610   2.835   1.127   5.878
 3904SOL    HW112611   2.838   1.164   5.970
 3904SOL    HW212612   2.824   1.202   5.812
 3905SOL     OW12613   0.268   0.449   6.985
 3905SOL    HW112614   0.332   0.373   6.995
 3905SOL    HW212615   0.175   0.418   7.008
 3906SOL     OW12616   5.579   5.956   5.623
 3906SOL    HW112617   5.544   5.920   5.710
 3906SOL    HW212618   5.651   5.895   5.589
 3907SOL     OW12619   5.541   1.064   3.402
 3907SOL    HW112620   5.599   1.128   3.452
 3907SOL    HW212621   5.468   1.032   3.462
 3908SOL     OW12622   0.904   2.417   0.272
 3908SOL    HW112623   0.956   2.498   0.296
 3908SOL    HW212624   0.817   2.416   0.321
 3909SOL     OW12625   6.554   6.025   5.560
 3909SOL    HW112626   6.605   6.061   5.482
 3909SOL    HW212627   6.524   5.931   5.539
 3910SOL     OW12628   3.829   3.454   2.760
 3910SOL    HW112629   3.778   3.430   2.678
 3910SOL    HW212630   3.766   3.488   2.830
 3911SOL     OW12631   4.918   1.588   5.742
 3911SOL    HW112632   4.864   1.653   5.795
 3911SOL    HW212633   4.938   1.626   5.652
 3912SOL     OW12634   4.807   0.953   5.291
 3912SOL    HW112635   4.881   0.978   5.353
 3912SOL    HW212636   4.844   0.907   5.210
 3913SOL     OW12637   2.586   6.713   6.105
 3913SOL    HW112638   2.637   6.761   6.177
 3913SOL    HW212639   2.509   6.664   6.146
 3914SOL     OW12640   3.054   0.796   0.763
 3914SOL    HW112641   3.059   0.877   0.822
 3914SOL    HW212642   2.978   0.739   0.792
 3915SOL     OW12643   4.982   5.224   1.864
 3915SOL    HW112644   4.892   5.265   1.844
 3915SOL    HW212645   5.024   5.194   1.778
 3916SOL     OW12646   1.342   0.438   4.323
 3916SOL    HW112647   1.381   0.362   4.272
 3916SOL    HW212648   1.400   0.459   4.402
 3917SOL     OW12649   6.052   6.080   0.235
 3917SOL    HW112650   6.074   6.054   0.329
 3917SOL    HW212651   6.075   6.176   0.221
 3918SOL     OW12652   5.224   5.703   1.488
 3918SOL    HW112653   5.249   5.607   1.502
 3918SOL    HW212654   5.189   5.715   1.395
 3919SOL     OW12655   2.998   6.563   6.647
 3919SOL    HW112656   2.937   6.617   6.705
 3919SOL    HW212657   2.946   6.524   6.571
 3920SOL     OW12658   3.364   2.993   0.780
 3920SOL    HW112659   3.364   2.902   0.738
 3920SOL    HW212660   3.400   2.986   0.874
 3921SOL     OW12661   0.251   3.584   1.656
 3921SOL    HW112662   0.310   3.509   1.627
 3921SOL    HW212663   0.291   3.671   1.627
 3922SOL     OW12664   6.777   3.129   1.850
 3922SOL    HW112665   6.678   3.133   1.837
 3922SOL    HW212666   6.810   3.217   1.884
 3923SOL     OW12667   6.602   0.912   7.023
 3923SOL    HW112668   6.564   0.857   6.949
 3923SOL    HW212669   6.663   0.856   0.054
 3924SOL     OW12670   0.679   4.697   3.485
 3924SOL    HW112671   0.612   4.638   3.441
 3924SOL    HW212672   0.661   4.700   3.584
 3925SOL     OW12673   3.259   5.235   1.148
 3925SOL    HW112674   3.315   5.172   1.203
 3925SOL    HW212675   3.168   5.196   1.135
 3926SOL     OW12676   6.778   6.069   3.150
 3926SOL    HW112677   6.730   6.051   3.236
 3926SOL    HW212678   6.866   6.022   3.151
 3927SOL     OW12679   6.694   2.737   3.292
 3927SOL    HW112680   6.618   2.775   3.344
 3927SOL    HW212681   6.777   2.791   3.309
 3928SOL     OW12682   3.509   6.177   6.154
 3928SOL    HW112683   3.432   6.170   6.217
 3928SOL    HW212684   3.540   6.085   6.130
 3929SOL     OW12685   0.221   0.666   5.208
 3929SOL    HW112686   0.222   0.764   5.228
 3929SOL    HW212687   0.127   0.636   5.191
 3930SOL     OW12688   2.391   2.015   4.005
 3930SOL    HW112689   2.347   1.957   3.937
 3930SOL    HW212690   2.344   2.006   4.093
 3931SOL     OW12691   1.830   1.012   1.842
 3931SOL    HW112692   1.765   0.940   1.867
 3931SOL    HW212693   1.779   1.097   1.824
 3932SOL     OW12694   1.922   4.832   3.382
 3932SOL    HW112695   1.920   4.762   3.454
 3932SOL    HW212696   1.839   4.887   3.387
 3933SOL     OW12697   2.473   6.099   6.708
 3933SOL    HW112698   2.478   6.128   6.804
 3933SOL    HW212699   2.565   6.098   6.669
 3934SOL     OW12700   6.666   1.004   0.448
 3934SOL    HW112701   6.611   1.043   0.374
 3934SOL    HW212702   6.671   1.070   0.523
 3935SOL     OW12703   2.526   6.439   0.051
 3935SOL    HW112704   2.506   6.536   0.061
 3935SOL    HW212705   2.608   6.416   0.104
 3936SOL     OW12706   0.435   4.793   5.602
 3936SOL    HW112707   0.342   4.797   5.567
 3936SOL    HW212708   0.444   4.715   5.664
 3937SOL     OW12709   6.776   1.862   3.562
 3937SOL    HW112710   6.683   1.869   3.525
 3937SOL    HW212711   6.837   1.830   3.490
 3938SOL     OW12712   0.252   2.403   3.982
 3938SOL    HW112713   0.262   2.305   3.965
 3938SOL    HW212714   0.231   2.418   4.079
 3939SOL     OW12715   2.268   2.066   3.002
 3939SOL    HW112716   2.211   2.059   2.919
 3939SOL    HW212717   2.232   2.004   3.071
 3940SOL     OW12718   4.712   5.434   1.191
 3940SOL    HW112719   4.719   5.388   1.103
 3940SOL    HW212720   4.727   5.368   1.265
 3941SOL     OW12721   4.631   2.756   6.118
 3941SOL    HW112722   4.563   2.684   6.130
 3941SOL    HW212723   4.708   2.739   6.179
 3942SOL     OW12724   0.343   6.893   6.867
 3942SOL    HW112725   0.365   6.947   6.948
 3942SOL    HW212726   0.246   6.871   6.866
 3943SOL     OW12727   0.035   3.575   3.163
 3943SOL    HW112728   0.127   3.535   3.156
 3943SOL    HW212729   7.004   3.518   3.222
 3944SOL     OW12730   4.663   2.622   4.931
 3944SOL    HW112731   4.612   2.642   5.015
 3944SOL    HW212732   4.701   2.529   4.937
 3945SOL     OW12733   0.001   1.666   0.694
 3945SOL    HW112734   0.052   1.645   0.778
 3945SOL    HW212735   6.995   1.581   0.651
 3946SOL     OW12736   5.539   5.358   5.623
 3946SOL    HW112737   5.580   5.434   5.572
 3946SOL    HW212738   5.580   5.352   5.713
 3947SOL     OW12739   5.823   5.639   0.821
 3947SOL    HW112740   5.727   5.632   0.792
 3947SOL    HW212741   5.880   5.656   0.741
 3948SOL     OW12742   1.280   5.920   1.856
 3948SOL    HW112743   1.369   5.920   1.904
 3948SOL    HW212744   1.259   5.828   1.825
 3949SOL     OW12745   4.669   0.431   3.259
 3949SOL    HW112746   4.757   0.466   3.226
 3949SOL    HW212747   4.595   0.479   3.211
 3950SOL     OW12748   1.890   4.314   1.367
 3950SOL    HW112749   1.799   4.315   1.328
 3950SOL    HW212750   1.893   4.376   1.446
 3951SOL     OW12751   5.579   6.633   0.672
 3951SOL    HW112752   5.579   6.607   0.576
 3951SOL    HW212753   5.659   6.690   0.691
 3952SOL     OW12754   6.434   3.178   2.749
 3952SOL    HW112755   6.335   3.181   2.761
 3952SOL    HW212756   6.472   3.108   2.809
 3953SOL     OW12757   3.850   4.721   1.710
 3953SOL    HW112758   3.858   4.652   1.782
 3953SOL    HW212759   3.941   4.743   1.674
 3954SOL     OW12760   4.526   4.860   5.014
 3954SOL    HW112761   4.500   4.833   4.921
 3954SOL    HW212762   4.522   4.960   5.021
 3955SOL     OW12763   3.190   5.957   6.835
 3955SOL    HW112764   3.100   5.998   6.842
 3955SOL    HW212765   3.252   6.020   6.789
 3956SOL     OW12766   6.869   0.842   3.756
 3956SOL    HW112767   6.924   0.814   3.835
 3956SOL    HW212768   6.773   0.818   3.772
 3957SOL     OW12769   4.610   6.124   4.117
 3957SOL    HW112770   4.576   6.031   4.109
 3957SOL    HW212771   4.549   6.187   4.069
 3958SOL     OW12772   5.757   1.423   4.741
 3958SOL    HW112773   5.745   1.432   4.840
 3958SOL    HW212774   5.813   1.343   4.722
 3959SOL     OW12775   4.344   6.631   0.774
 3959SOL    HW112776   4.408   6.704   0.755
 3959SOL    HW212777   4.334   6.620   0.873
 3960SOL     OW12778   4.662   1.683   6.957
 3960SOL    HW112779   4.666   1.719   6.864
 3960SOL    HW212780   4.728   1.608   6.966
 3961SOL     OW12781   5.492   1.977   2.516
 3961SOL    HW112782   5.411   2.025   2.484
 3961SOL    HW212783   5.575   2.025   2.486
 3962SOL     OW12784   2.512   3.827   0.217
 3962SOL    HW112785   2.588   3.862   0.163
 3962SOL    HW212786   2.547   3.788   0.303
 3963SOL     OW12787   4.794   4.684   3.978
 3963SOL    HW112788   4.770   4.734   4.061
 3963SOL    HW212789   4.711   4.654   3.931
 3964SOL     OW12790   4.430   4.911   3.953
 3964SOL    HW112791   4.475   4.987   3.908
 3964SOL    HW212792   4.486   4.828   3.945
 3965SOL     OW12793   4.839   2.841   5.429
 3965SOL    HW112794   4.907   2.907   5.462
 3965SOL    HW212795   4.793   2.879   5.348
 3966SOL     OW12796   5.115   6.072   6.753
 3966SOL    HW112797   5.086   6.007   6.684
 3966SOL    HW212798   5.178   6.138   6.711
 3967SOL     OW12799   2.024   3.479   2.515
 3967SOL    HW112800   2.051   3.500   2.422
 3967SOL    HW212801   2.066   3.544   2.578
 3968SOL     OW12802   4.928   0.420   1.724
 3968SOL    HW112803   5.009   0.367   1.698
 3968SOL    HW212804   4.879   0.448   1.642
 3969SOL     OW12805   1.592   4.049   2.358
 3969SOL    HW112806   1.667   4.017   2.299
 3969SOL    HW212807   1.617   4.035   2.454
 3970SOL     OW12808   6.327   6.472   3.879
 3970SOL    HW112809   6.369   6.421   3.954
 3970SOL    HW212810   6.391   6.543   3.849
 3971SOL     OW12811   3.177   5.291   2.631
 3971SOL    HW112812   3.111   5.313   2.702
 3971SOL    HW212813   3.128   5.259   2.549
 3972SOL     OW12814   1.383   4.225   0.770
 3972SOL    HW112815   1.374   4.129   0.741
 3972SOL    HW212816   1.479   4.245   0.789
 3973SOL     OW12817   1.692   5.261   6.696
 3973SOL    HW112818   1.786   5.245   6.726
 3973SOL    HW212819   1.633   5.189   6.733
 3974SOL     OW12820   1.778   0.491   4.513
 3974SOL    HW112821   1.733   0.522   4.597
 3974SOL    HW212822   1.877   0.505   4.522
 3975SOL     OW12823   5.537   1.339   5.320
 3975SOL    HW112824   5.475   1.260   5.320
 3975SOL    HW212825   5.620   1.317   5.371
 3976SOL     OW12826   1.825   5.797   1.731
 3976SOL    HW112827   1.918   5.768   1.706
 3976SOL    HW212828   1.812   5.893   1.706
 3977SOL     OW12829   2.462   3.708   5.832
 3977SOL    HW112830   2.426   3.647   5.761
 3977SOL    HW212831   2.557   3.731   5.811
 3978SOL     OW12832   5.971   5.154   4.474
 3978SOL    HW112833   5.941   5.224   4.410
 3978SOL    HW212834   6.071   5.149   4.475
 3979SOL     OW12835   3.071   0.067   0.830
 3979SOL    HW112836   3.124   0.039   0.910
 3979SOL    HW212837   3.134   0.093   0.756
 3980SOL     OW12838   5.492   6.172   0.245
 3980SOL    HW112839   5.532   6.091   0.201
 3980SOL    HW212840   5.436   6.222   0.179
 3981SOL     OW12841   2.761   0.805   0.355
 3981SOL    HW112842   2.778   0.794   0.257
 3981SOL    HW212843   2.779   0.718   0.401
 3982SOL     OW12844   2.331   0.015   3.578
 3982SOL    HW112845   2.411   0.028   3.636
 3982SOL    HW212846   2.277   0.099   3.578
 3983SOL     OW12847   5.355   4.536   4.003
 3983SOL    HW112848   5.275   4.577   3.961
 3983SOL    HW212849   5.364   4.568   4.098
 3984SOL     OW12850   6.541   1.357   3.264
 3984SOL    HW112851   6.607   1.313   3.324
 3984SOL    HW212852   6.533   1.304   3.179
 3985SOL     OW12853   3.011   4.553   6.618
 3985SOL    HW112854   3.078   4.496   6.571
 3985SOL    HW212855   2.919   4.517   6.604
 3986SOL     OW12856   5.229   2.265   2.964
 3986SOL    HW112857   5.197   2.322   3.041
 3986SOL    HW212858   5.199   2.171   2.978
 3987SOL     OW12859   3.676   5.309   3.654
 3987SOL    HW112860   3.773   5.312   3.633
 3987SOL    HW212861   3.647   5.214   3.666
 3988SOL     OW12862   3.428   4.179   6.767
 3988SOL    HW112863   3.410   4.270   6.805
 3988SOL    HW212864   3.464   4.119   6.839
 3989SOL     OW12865   6.427   2.889   6.935
 3989SOL    HW112866   6.465   2.801   6.907
 3989SOL    HW212867   6.437   2.900   0.009
 3990SOL     OW12868   4.377   1.991   2.552
 3990SOL    HW112869   4.330   2.066   2.597
 3990SOL    HW212870   4.343   1.981   2.458
 3991SOL     OW12871   5.734   1.120   2.803
 3991SOL    HW112872   5.779   1.148   2.888
 3991SOL    HW212873   5.789   1.048   2.759
 3992SOL     OW12874   3.239   1.947   6.926
 3992SOL    HW112875   3.184   1.904   6.854
 3992SOL    HW212876   3.223   2.046   6.926
 3993SOL     OW12877   1.350   1.739   2.710
 3993SOL    HW112878   1.376   1.829   2.744
 3993SOL    HW212879   1.433   1.683   2.698
 3994SOL     OW12880   2.024   0.360   5.719
 3994SOL    HW112881   2.009   0.354   5.818
 3994SOL    HW212882   2.116   0.328   5.698
 3995SOL     OW12883   2.721   3.605   6.177
 3995SOL    HW112884   2.638   3.550   6.187
 3995SOL    HW212885   2.799   3.554   6.212
 3996SOL     OW12886   1.131   0.349   4.495
 3996SOL    HW112887   1.126   0.249   4.494
 3996SOL    HW212888   1.202   0.380   4.432
 3997SOL     OW12889   5.046   1.732   3.913
 3997SOL    HW112890   5.146   1.728   3.916
 3997SOL    HW212891   5.016   1.752   3.819
 3998SOL     OW12892   4.227   1.608   3.861
 3998SOL    HW112893   4.135   1.648   3.868
 3998SOL    HW212894   4.228   1.519   3.905
 3999SOL     OW12895   5.851   3.950   4.012
 3999SOL    HW112896   5.888   3.860   3.987
 3999SOL    HW212897   5.913   3.994   4.077
 4000SOL     OW12898   3.127   6.216   3.588
 4000SOL    HW112899   3.124   6.310   3.620
 4000SOL    HW212900   3.097   6.154   3.660
 4001SOL     OW12901   1.995   2.205   3.841
 4001SOL    HW112902   1.998   2.159   3.753
 4001SOL    HW212903   2.059   2.282   3.840
 4002SOL     OW12904   3.560   4.246   0.331
 4002SOL    HW112905   3.465   4.273   0.346
 4002SOL    HW212906   3.566   4.186   0.252
 4003SOL     OW12907   3.440   6.709   4.506
 4003SOL    HW112908   3.443   6.792   4.451
 4003SOL    HW212909   3.360   6.655   4.482
 4004SOL     OW12910   4.913   2.031   4.058
 4004SOL    HW112911   4.979   2.031   3.983
 4004SOL    HW212912   4.844   1.961   4.042
 4005SOL     OW12913   5.292   4.876   6.867
 4005SOL    HW112914   5.374   4.924   6.836
 4005SOL    HW212915   5.319   4.793   6.916
 4006SOL     OW12916   4.542   5.150   2.740
 4006SOL    HW112917   4.572   5.133   2.833
 4006SOL    HW212918   4.621   5.169   2.682
 4007SOL     OW12919   0.223   2.312   0.887
 4007SOL    HW112920   0.158   2.377   0.927
 4007SOL    HW212921   0.176   2.255   0.820
 4008SOL     OW12922   2.962   1.889   3.976
 4008SOL    HW112923   3.021   1.921   3.902
 4008SOL    HW212924   2.919   1.968   4.020
 4009SOL     OW12925   4.152   3.496   1.445
 4009SOL    HW112926   4.223   3.564   1.426
 4009SOL    HW212927   4.089   3.491   1.367
 4010SOL     OW12928   2.442   3.329   1.084
 4010SOL    HW112929   2.491   3.263   1.027
 4010SOL    HW212930   2.381   3.384   1.026
 4011SOL     OW12931   0.824   1.251   2.050
 4011SOL    HW112932   0.745   1.260   1.990
 4011SOL    HW212933   0.898   1.310   2.018
 4012SOL     OW12934   5.526   4.905   1.897
 4012SOL    HW112935   5.441   4.956   1.880
 4012SOL    HW212936   5.557   4.921   1.990
 4013SOL     OW12937   2.872   1.716   5.516
 4013SOL    HW112938   2.837   1.624   5.499
 4013SOL    HW212939   2.900   1.724   5.612
 4014SOL     OW12940   5.268   6.611   2.489
 4014SOL    HW112941   5.221   6.533   2.532
 4014SOL    HW212942   5.248   6.694   2.542
 4015SOL     OW12943   4.922   4.863   6.557
 4015SOL    HW112944   4.933   4.830   6.651
 4015SOL    HW212945   4.979   4.944   6.543
 4016SOL     OW12946   2.826   5.471   6.005
 4016SOL    HW112947   2.758   5.479   5.931
 4016SOL    HW212948   2.912   5.512   5.975
 4017SOL     OW12949   0.339   5.810   0.571
 4017SOL    HW112950   0.377   5.894   0.534
 4017SOL    HW212951   0.408   5.764   0.627
 4018SOL     OW12952   4.366   6.147   2.531
 4018SOL    HW112953   4.279   6.100   2.512
 4018SOL    HW212954   4.381   6.151   2.630
 4019SOL     OW12955   5.566   3.720   2.707
 4019SOL    HW112956   5.468   3.736   2.721
 4019SOL    HW212957   5.581   3.622   2.693
 4020SOL     OW12958   4.316   1.469   5.543
 4020SOL    HW112959   4.296   1.393   5.605
 4020SOL    HW212960   4.399   1.516   5.574
 4021SOL     OW12961   3.927   5.226   5.968
 4021SOL    HW112962   3.846   5.276   5.938
 4021SOL    HW212963   3.908   5.128   5.966
 4022SOL     OW12964   4.625   1.051   6.358
 4022SOL    HW112965   4.680   0.971   6.335
 4022SOL    HW212966   4.681   1.116   6.410
 4023SOL     OW12967   6.217   1.478   4.392
 4023SOL    HW112968   6.226   1.526   4.480
 4023SOL    HW212969   6.158   1.398   4.405
 4024SOL     OW12970   3.158   6.580   3.214
 4024SOL    HW112971   3.178   6.484   3.193
 4024SOL    HW212972   3.135   6.588   3.311
 4025SOL     OW12973   0.322   4.672   3.308
 4025SOL    HW112974   0.379   4.643   3.231
 4025SOL    HW212975   0.367   4.646   3.394
 4026SOL     OW12976   5.269   6.039   4.019
 4026SOL    HW112977   5.227   6.129   4.013
 4026SOL    HW212978   5.366   6.049   4.044
 4027SOL     OW12979   3.703   4.269   1.537
 4027SOL    HW112980   3.621   4.288   1.591
 4027SOL    HW212981   3.696   4.315   1.448
 4028SOL     OW12982   1.653   2.781   4.266
 4028SOL    HW112983   1.583   2.755   4.199
 4028SOL    HW212984   1.623   2.752   4.357
 4029SOL     OW12985   2.614   4.198   6.078
 4029SOL    HW112986   2.707   4.187   6.043
 4029SOL    HW212987   2.565   4.111   6.070
 4030SOL     OW12988   0.780   2.090   5.749
 4030SOL    HW112989   0.803   2.178   5.792
 4030SOL    HW212990   0.801   2.093   5.652
 4031SOL     OW12991   5.163   5.523   3.732
 4031SOL    HW112992   5.170   5.519   3.632
 4031SOL    HW212993   5.088   5.465   3.762
 4032SOL     OW12994   6.442   6.922   3.790
 4032SOL    HW112995   6.466   6.832   3.827
 4032SOL    HW212996   6.360   6.956   3.835
 4033SOL     OW12997   3.355   2.983   4.183
 4033SOL    HW112998   3.310   3.044   4.119
 4033SOL    HW212999   3.428   2.934   4.137
 4034SOL     OW13000   5.873   1.648   4.651
 4034SOL    HW113001   5.925   1.683   4.729
 4034SOL    HW213002   5.806   1.581   4.683
 4035SOL     OW13003   0.177   4.396   0.431
 4035SOL    HW113004   0.273   4.390   0.406
 4035SOL    HW213005   0.157   4.487   0.467
 4036SOL     OW13006   5.909   6.180   2.678
 4036SOL    HW113007   5.866   6.249   2.737
 4036SOL    HW213008   5.872   6.188   2.585
 4037SOL     OW13009   1.335   3.072   6.329
 4037SOL    HW113010   1.251   3.125   6.338
 4037SOL    HW213011   1.320   2.997   6.264
 4038SOL     OW13012   4.981   4.824   2.619
 4038SOL    HW113013   4.997   4.838   2.717
 4038SOL    HW213014   4.981   4.726   2.599
 4039SOL     OW13015   5.049   5.767   0.351
 4039SOL    HW113016   4.988   5.762   0.272
 4039SOL    HW213017   5.144   5.757   0.322
 4040SOL     OW13018   2.889   7.009   1.249
 4040SOL    HW113019   2.889   6.938   1.178
 4040SOL    HW213020   2.953   6.983   1.322
 4041SOL     OW13021   0.901   5.952   2.504
 4041SOL    HW113022   0.924   5.897   2.585
 4041SOL    HW213023   0.986   5.979   2.458
 4042SOL     OW13024   6.286   5.555   2.486
 4042SOL    HW113025   6.261   5.487   2.417
 4042SOL    HW213026   6.349   5.514   2.552
 4043SOL     OW13027   5.236   1.990   2.901
 4043SOL    HW113028   5.332   1.984   2.929
 4043SOL    HW213029   5.219   1.927   2.825
 4044SOL     OW13030   5.562   0.407   3.626
 4044SOL    HW113031   5.511   0.326   3.600
 4044SOL    HW213032   5.500   0.474   3.669
 4045SOL     OW13033   2.854   4.193   6.680
 4045SOL    HW113034   2.883   4.239   6.596
 4045SOL    HW213035   2.754   4.188   6.682
 4046SOL     OW13036   1.195   1.748   1.917
 4046SOL    HW113037   1.136   1.697   1.979
 4046SOL    HW213038   1.267   1.794   1.969
 4047SOL     OW13039   2.905   3.497   1.503
 4047SOL    HW113040   2.902   3.597   1.506
 4047SOL    HW213041   2.821   3.462   1.461
 4048SOL     OW13042   5.587   0.580   1.185
 4048SOL    HW113043   5.633   0.665   1.210
 4048SOL    HW213044   5.502   0.601   1.138
 4049SOL     OW13045   6.023   6.200   5.936
 4049SOL    HW113046   6.064   6.279   5.891
 4049SOL    HW213047   6.073   6.117   5.911
 4050SOL     OW13048   1.490   6.469   0.293
 4050SOL    HW113049   1.399   6.428   0.298
 4050SOL    HW213050   1.536   6.458   0.382
 4051SOL     OW13051   3.054   4.159   0.845
 4051SOL    HW113052   2.977   4.097   0.831
 4051SOL    HW213053   3.101   4.135   0.930
 4052SOL     OW13054   0.660   0.603   0.500
 4052SOL    HW113055   0.619   0.688   0.466
 4052SOL    HW213056   0.595   0.557   0.560
 4053SOL     OW13057   2.940   4.845   3.739
 4053SOL    HW113058   3.036   4.834   3.765
 4053SOL    HW213059   2.897   4.913   3.799
 4054SOL     OW13060   2.551   2.558   0.273
 4054SOL    HW113061   2.584   2.527   0.363
 4054SOL    HW213062   2.481   2.495   0.239
 4055SOL     OW13063   2.595   2.310   6.250
 4055SOL    HW113064   2.540   2.392   6.268
 4055SOL    HW213065   2.538   2.229   6.264
 4056SOL     OW13066   4.120   3.315   0.094
 4056SOL    HW113067   4.217   3.335   0.104
 4056SOL    HW213068   4.082   3.373   0.021
 4057SOL     OW13069   5.010   3.099   0.131
 4057SOL    HW113070   5.106   3.078   0.118
 4057SOL    HW213071   4.982   3.172   0.069
 4058SOL     OW13072   2.402   1.350   4.816
 4058SOL    HW113073   2.387   1.399   4.730
 4058SOL    HW213074   2.415   1.415   4.890
 4059SOL     OW13075   1.956   2.391   4.229
 4059SOL    HW113076   1.949   2.425   4.323
 4059SOL    HW213077   2.044   2.344   4.218
 4060SOL     OW13078   4.164   4.955   4.023
 4060SOL    HW113079   4.258   4.924   4.005
 4060SOL    HW213080   4.164   5.055   4.033
 4061SOL     OW13081   3.500   4.388   1.637
 4061SOL    HW113082   3.522   4.455   1.707
 4061SOL    HW213083   3.429   4.326   1.671
 4062SOL     OW13084   3.457   1.149   2.427
 4062SOL    HW113085   3.488   1.056   2.449
 4062SOL    HW213086   3.526   1.215   2.455
 4063SOL     OW13087   3.372   6.258   5.895
 4063SOL    HW113088   3.407   6.277   5.986
 4063SOL    HW213089   3.396   6.164   5.869
 4064SOL     OW13090   1.042   0.547   2.691
 4064SOL    HW113091   0.943   0.561   2.688
 4064SOL    HW213092   1.088   0.634   2.674
 4065SOL     OW13093   0.415   6.611   0.865
 4065SOL    HW113094   0.480   6.581   0.935
 4065SOL    HW213095   0.458   6.678   0.805
 4066SOL     OW13096   5.707   4.185   1.929
 4066SOL    HW113097   5.611   4.174   1.903
 4066SOL    HW213098   5.745   4.267   1.885
 4067SOL     OW13099   5.434   1.841   3.172
 4067SOL    HW113100   5.345   1.871   3.206
 4067SOL    HW213101   5.461   1.897   3.094
 4068SOL     OW13102   5.052   0.842   5.123
 4068SOL    HW113103   5.114   0.841   5.201
 4068SOL    HW213104   5.066   0.926   5.070
 4069SOL     OW13105   5.220   4.985   0.857
 4069SOL    HW113106   5.163   5.040   0.796
 4069SOL    HW213107   5.296   4.945   0.805
 4070SOL     OW13108   2.265   4.067   2.718
 4070SOL    HW113109   2.186   4.016   2.753
 4070SOL    HW213110   2.327   4.004   2.671
 4071SOL     OW13111   1.525   0.619   4.984
 4071SOL    HW113112   1.562   0.598   5.075
 4071SOL    HW213113   1.425   0.629   4.991
 4072SOL     OW13114   1.615   6.734   4.218
 4072SOL    HW113115   1.693   6.672   4.230
 4072SOL    HW213116   1.646   6.819   4.175
 4073SOL     OW13117   2.786   5.881   6.064
 4073SOL    HW113118   2.773   5.893   5.966
 4073SOL    HW213119   2.883   5.889   6.086
 4074SOL     OW13120   0.553   2.028   1.660
 4074SOL    HW113121   0.607   2.050   1.579
 4074SOL    HW213122   0.513   2.111   1.697
 4075SOL     OW13123   3.839   1.748   2.658
 4075SOL    HW113124   3.915   1.774   2.716
 4075SOL    HW213125   3.856   1.777   2.564
 4076SOL     OW13126   2.126   3.727   5.179
 4076SOL    HW113127   2.177   3.769   5.255
 4076SOL    HW213128   2.145   3.629   5.175
 4077SOL     OW13129   3.389   0.268   0.239
 4077SOL    HW113130   3.370   0.170   0.249
 4077SOL    HW213131   3.468   0.292   0.295
 4078SOL     OW13132   6.484   4.194   1.699
 4078SOL    HW113133   6.403   4.207   1.756
 4078SOL    HW213134   6.455   4.175   1.605
 4079SOL     OW13135   1.138   1.252   3.522
 4079SOL    HW113136   1.231   1.219   3.504
 4079SOL    HW213137   1.077   1.218   3.451
 4080SOL     OW13138   3.286   3.424   1.182
 4080SOL    HW113139   3.281   3.324   1.186
 4080SOL    HW213140   3.341   3.451   1.103
 4081SOL     OW13141   2.172   1.557   5.646
 4081SOL    HW113142   2.111   1.499   5.592
 4081SOL    HW213143   2.215   1.625   5.586
 4082SOL     OW13144   0.547   2.731   5.485
 4082SOL    HW113145   0.496   2.669   5.545
 4082SOL    HW213146   0.584   2.806   5.539
 4083SOL     OW13147   6.003   4.271   3.611
 4083SOL    HW113148   6.091   4.310   3.636
 4083SOL    HW213149   5.930   4.336   3.635
 4084SOL     OW13150   4.657   2.012   3.009
 4084SOL    HW113151   4.747   2.058   3.009
 4084SOL    HW213152   4.650   1.952   2.929
 4085SOL     OW13153   3.145   5.653   1.565
 4085SOL    HW113154   3.093   5.568   1.561
 4085SOL    HW213155   3.183   5.674   1.475
 4086SOL     OW13156   6.515   5.548   6.181
 4086SOL    HW113157   6.461   5.468   6.155
 4086SOL    HW213158   6.503   5.619   6.112
 4087SOL     OW13159   2.256   6.806   2.326
 4087SOL    HW113160   2.207   6.800   2.413
 4087SOL    HW213161   2.354   6.790   2.342
 4088SOL     OW13162   6.666   1.115   5.412
 4088SOL    HW113163   6.713   1.035   5.450
 4088SOL    HW213164   6.728   1.164   5.351
 4089SOL     OW13165   0.241   6.650   3.888
 4089SOL    HW113166   0.282   6.638   3.797
 4089SOL    HW213167   0.186   6.734   3.889
 4090SOL     OW13168   1.994   6.422   4.915
 4090SOL    HW113169   2.029   6.413   4.822
 4090SOL    HW213170   1.965   6.517   4.931
 4091SOL     OW13171   1.649   5.197   1.345
 4091SOL    HW113172   1.704   5.262   1.292
 4091SOL    HW213173   1.554   5.200   1.313
 4092SOL     OW13174   4.955   3.311   4.702
 4092SOL    HW113175   4.979   3.318   4.799
 4092SOL    HW213176   4.954   3.402   4.661
 4093SOL     OW13177   5.693   5.386   2.900
 4093SOL    HW113178   5.703   5.414   2.996
 4093SOL    HW213179   5.635   5.304   2.895
 4094SOL     OW13180   0.180   5.533   6.983
 4094SOL    HW113181   0.177   5.470   6.906
 4094SOL    HW213182   0.122   5.500   0.032
 4095SOL     OW13183   0.202   4.571   0.193
 4095SOL    HW113184   0.107   4.569   0.164
 4095SOL    HW213185   0.220   4.496   0.256
 4096SOL     OW13186   1.843   1.631   6.768
 4096SOL    HW113187   1.746   1.607   6.757
 4096SOL    HW213188   1.863   1.643   6.865
 4097SOL     OW13189   0.155   3.995   5.037
 4097SOL    HW113190   0.197   3.905   5.033
 4097SOL    HW213191   0.066   3.993   4.992
 4098SOL     OW13192   2.313   5.038   2.807
 4098SOL    HW113193   2.292   5.010   2.900
 4098SOL    HW213194   2.290   5.134   2.795
 4099SOL     OW13195   4.175   4.104   6.050
 4099SOL    HW113196   4.163   4.195   6.009
 4099SOL    HW213197   4.271   4.079   6.049
 4100SOL     OW13198   1.129   0.731   3.920
 4100SOL    HW113199   1.202   0.780   3.873
 4100SOL    HW213200   1.166   0.681   3.998
 4101SOL     OW13201   6.157   0.236   0.175
 4101SOL    HW113202   6.202   0.323   0.153
 4101SOL    HW213203   6.108   0.244   0.261
 4102SOL     OW13204   1.878   0.395   6.952
 4102SOL    HW113205   1.835   0.468   6.898
 4102SOL    HW213206   1.823   0.377   0.009
 4103SOL     OW13207   1.152   6.878   2.143
 4103SOL    HW113208   1.244   6.874   2.105
 4103SOL    HW213209   1.088   6.903   2.070
 4104SOL     OW13210   0.131   5.987   2.781
 4104SOL    HW113211   0.041   6.001   2.741
 4104SOL    HW213212   0.198   6.045   2.734
 4105SOL     OW13213   4.633   1.199   1.374
 4105SOL    HW113214   4.676   1.144   1.303
 4105SOL    HW213215   4.682   1.187   1.461
 4106SOL     OW13216   0.129   1.619   3.557
 4106SOL    HW113217   0.191   1.556   3.603
 4106SOL    HW213218   0.121   1.703   3.611
 4107SOL     OW13219   0.234   6.014   6.381
 4107SOL    HW113220   0.239   6.084   6.310
 4107SOL    HW213221   0.157   5.953   6.362
 4108SOL     OW13222   0.320   5.300   3.960
 4108SOL    HW113223   0.400   5.355   3.933
 4108SOL    HW213224   0.320   5.287   4.059
 4109SOL     OW13225   6.226   5.842   3.278
 4109SOL    HW113226   6.147   5.860   3.337
 4109SOL    HW213227   6.194   5.804   3.191
 4110SOL     OW13228   4.793   3.450   7.019
 4110SOL    HW113229   4.725   3.385   0.028
 4110SOL    HW213230   4.853   3.477   0.070
 4111SOL     OW13231   6.674   4.248   5.410
 4111SOL    HW113232   6.744   4.179   5.391
 4111SOL    HW213233   6.652   4.246   5.508
 4112SOL     OW13234   4.621   6.851   5.043
 4112SOL    HW113235   4.710   6.895   5.055
 4112SOL    HW213236   4.624   6.791   4.963
 4113SOL     OW13237   4.603   4.543   4.858
 4113SOL    HW113238   4.525   4.535   4.921
 4113SOL    HW213239   4.656   4.458   4.860
 4114SOL     OW13240   6.285   1.576   3.588
 4114SOL    HW113241   6.369   1.608   3.631
 4114SOL    HW213242   6.266   1.482   3.616
 4115SOL     OW13243   2.766   5.226   3.602
 4115SOL    HW113244   2.735   5.256   3.692
 4115SOL    HW213245   2.777   5.305   3.543
 4116SOL     OW13246   5.730   2.628   3.079
 4116SOL    HW113247   5.683   2.665   3.159
 4116SOL    HW213248   5.667   2.627   3.001
 4117SOL     OW13249   1.730   2.452   2.287
 4117SOL    HW113250   1.696   2.400   2.365
 4117SOL    HW213251   1.781   2.391   2.226
 4118SOL     OW13252   7.013   5.936   6.418
 4118SOL    HW113253   7.006   5.947   6.518
 4118SOL    HW213254   6.952   5.862   6.389
 4119SOL     OW13255   2.463   0.832   3.298
 4119SOL    HW113256   2.412   0.770   3.238
 4119SOL    HW213257   2.561   0.822   3.281
 4120SOL     OW13258   1.968   1.125   6.827
 4120SOL    HW113259   1.974   1.219   6.792
 4120SOL    HW213260   1.877   1.109   6.866
 4121SOL     OW13261   0.224   6.767   2.561
 4121SOL    HW113262   0.269   6.853   2.583
 4121SOL    HW213263   0.155   6.746   2.630
 4122SOL     OW13264   0.018   5.680   4.651
 4122SOL    HW113265   0.071   5.754   4.692
 4122SOL    HW213266   0.068   5.643   4.572
 4123SOL     OW13267   4.058   4.851   3.109
 4123SOL    HW113268   4.050   4.779   3.040
 4123SOL    HW213269   4.083   4.937   3.064
 4124SOL     OW13270   6.686   6.191   0.806
 4124SOL    HW113271   6.774   6.223   0.772
 4124SOL    HW213272   6.684   6.091   0.804
 4125SOL     OW13273   5.149   2.377   2.388
 4125SOL    HW113274   5.193   2.452   2.439
 4125SOL    HW213275   5.173   2.384   2.291
 4126SOL     OW13276   1.210   2.636   2.243
 4126SOL    HW113277   1.147   2.579   2.191
 4126SOL    HW213278   1.217   2.727   2.201
 4127SOL     OW13279   3.529   2.145   4.271
 4127SOL    HW113280   3.523   2.080   4.348
 4127SOL    HW213281   3.624   2.172   4.258
 4128SOL     OW13282   0.542   3.019   1.229
 4128SOL    HW113283   0.591   3.010   1.142
 4128SOL    HW213284   0.607   3.012   1.305
 4129SOL     OW13285   3.268   2.770   0.659
 4129SOL    HW113286   3.319   2.776   0.573
 4129SOL    HW213287   3.171   2.787   0.641
 4130SOL     OW13288   5.915   2.778   1.127
 4130SOL    HW113289   5.921   2.765   1.028
 4130SOL    HW213290   5.843   2.844   1.147
 4131SOL     OW13291   5.276   0.625   2.218
 4131SOL    HW113292   5.366   0.649   2.252
 4131SOL    HW213293   5.230   0.707   2.184
 4132SOL     OW13294   6.700   4.097   4.290
 4132SOL    HW113295   6.650   4.152   4.224
 4132SOL    HW213296   6.779   4.055   4.245
 4133SOL     OW13297   5.737   6.734   1.555
 4133SOL    HW113298   5.756   6.647   1.600
 4133SOL    HW213299   5.713   6.716   1.459
 4134SOL     OW13300   2.479   3.165   1.421
 4134SOL    HW113301   2.464   3.120   1.509
 4134SOL    HW213302   2.561   3.128   1.377
 4135SOL     OW13303   0.192   1.784   3.004
 4135SOL    HW113304   0.125   1.722   3.046
 4135SOL    HW213305   0.283   1.763   3.038
 4136SOL     OW13306   0.704   4.222   1.675
 4136SOL    HW113307   0.748   4.157   1.737
 4136SOL    HW213308   0.613   4.245   1.710
 4137SOL     OW13309   1.760   2.841   0.624
 4137SOL    HW113310   1.760   2.744   0.649
 4137SOL    HW213311   1.851   2.879   0.641
 4138SOL     OW13312   4.841   6.266   0.850
 4138SOL    HW113313   4.888   6.280   0.763
 4138SOL    HW213314   4.860   6.344   0.911
 4139SOL     OW13315   1.562   1.548   2.746
 4139SOL    HW113316   1.645   1.512   2.703
 4139SOL    HW213317   1.584   1.581   2.838
 4140SOL     OW13318   2.508   2.228   4.318
 4140SOL    HW113319   2.449   2.147   4.317
 4140SOL    HW213320   2.583   2.216   4.253
 4141SOL     OW13321   3.925   6.599   6.659
 4141SOL    HW113322   4.014   6.646   6.658
 4141SOL    HW213323   3.939   6.501   6.647
 4142SOL     OW13324   0.129   4.160   2.665
 4142SOL    HW113325   0.041   4.136   2.625
 4142SOL    HW213326   0.119   4.172   2.764
 4143SOL     OW13327   5.729   3.523   1.013
 4143SOL    HW113328   5.711   3.426   0.996
 4143SOL    HW213329   5.787   3.533   1.093
 4144SOL     OW13330   5.439   1.647   0.452
 4144SOL    HW113331   5.508   1.660   0.523
 4144SOL    HW213332   5.348   1.648   0.493
 4145SOL     OW13333   0.875   6.168   0.412
 4145SOL    HW113334   0.941   6.157   0.487
 4145SOL    HW213335   0.910   6.123   0.330
 4146SOL     OW13336   5.582   6.752   3.354
 4146SOL    HW113337   5.657   6.740   3.289
 4146SOL    HW213338   5.613   6.730   3.446
 4147SOL     OW13339   5.119   4.581   5.658
 4147SOL    HW113340   5.024   4.591   5.687
 4147SOL    HW213341   5.178   4.638   5.715
 4148SOL     OW13342   3.070   0.304   4.658
 4148SOL    HW113343   3.022   0.285   4.744
 4148SOL    HW213344   3.006   0.296   4.582
 4149SOL     OW13345   1.897   3.275   1.058
 4149SOL    HW113346   1.988   3.235   1.067
 4149SOL    HW213347   1.892   3.327   0.972
 4150SOL     OW13348   6.380   2.889   6.382
 4150SOL    HW113349   6.399   2.907   6.286
 4150SOL    HW213350   6.425   2.804   6.409
 4151SOL     OW13351   2.017   7.018   4.679
 4151SOL    HW113352   1.945   0.062   4.692
 4151SOL    HW213353   2.014   6.951   4.753
 4152SOL     OW13354   3.539   5.562   1.525
 4152SOL    HW113355   3.490   5.574   1.611
 4152SOL    HW213356   3.496   5.617   1.454
 4153SOL     OW13357   6.539   4.853   1.644
 4153SOL    HW113358   6.569   4.775   1.701
 4153SOL    HW213359   6.615   4.881   1.585
 4154SOL     OW13360   7.013   6.065   4.039
 4154SOL    HW113361   0.010   6.148   3.989
 4154SOL    HW213362   6.926   6.077   4.088
 4155SOL     OW13363   0.609   2.351   1.487
 4155SOL    HW113364   0.689   2.303   1.450
 4155SOL    HW213365   0.550   2.378   1.411
 4156SOL     OW13366   6.693   4.819   5.008
 4156SOL    HW113367   6.642   4.816   4.922
 4156SOL    HW213368   6.785   4.854   4.990
 4157SOL     OW13369   6.926   6.666   2.082
 4157SOL    HW113370   6.846   6.613   2.109
 4157SOL    HW213371   7.006   6.635   2.135
 4158SOL     OW13372   2.237   2.570   1.802
 4158SOL    HW113373   2.320   2.525   1.770
 4158SOL    HW213374   2.173   2.580   1.726
 4159SOL     OW13375   3.013   1.735   2.969
 4159SOL    HW113376   2.975   1.813   3.019
 4159SOL    HW213377   2.942   1.665   2.957
 4160SOL     OW13378   6.534   6.632   6.862
 4160SOL    HW113379   6.552   6.534   6.858
 4160SOL    HW213380   6.580   6.679   6.787
 4161SOL     OW13381   1.978   1.586   1.321
 4161SOL    HW113382   2.016   1.571   1.412
 4161SOL    HW213383   2.053   1.594   1.254
 4162SOL     OW13384   6.254   6.100   1.014
 4162SOL    HW113385   6.345   6.078   1.050
 4162SOL    HW213386   6.223   6.186   1.053
 4163SOL     OW13387   4.731   6.632   1.978
 4163SOL    HW113388   4.765   6.693   1.906
 4163SOL    HW213389   4.785   6.547   1.977
 4164SOL     OW13390   7.021   6.295   5.446
 4164SOL    HW113391   7.010   6.196   5.450
 4164SOL    HW213392   0.093   6.318   5.433
 4165SOL     OW13393   3.730   0.928   5.726
 4165SOL    HW113394   3.781   0.842   5.724
 4165SOL    HW213395   3.694   0.943   5.818
 4166SOL     OW13396   5.619   0.830   2.834
 4166SOL    HW113397   5.600   0.776   2.916
 4166SOL    HW213398   5.554   0.906   2.828
 4167SOL     OW13399   3.031   5.026   5.616
 4167SOL    HW113400   3.128   5.007   5.601
 4167SOL    HW213401   3.003   4.986   5.704
 4168SOL     OW13402   6.954   4.628   0.370
 4168SOL    HW113403   7.022   4.696   0.343
 4168SOL    HW213404   6.996   4.560   0.430
 4169SOL     OW13405   5.237   4.052   5.224
 4169SOL    HW113406   5.209   3.963   5.259
 4169SOL    HW213407   5.210   4.060   5.128
 4170SOL     OW13408   4.875   3.036   4.661
 4170SOL    HW113409   4.855   3.007   4.568
 4170SOL    HW213410   4.921   3.125   4.659
 4171SOL     OW13411   1.589   4.280   1.205
 4171SOL    HW113412   1.502   4.270   1.156
 4171SOL    HW213413   1.574   4.266   1.302
 4172SOL     OW13414   3.851   3.401   1.026
 4172SOL    HW113415   3.937   3.352   1.014
 4172SOL    HW213416   3.804   3.408   0.938
 4173SOL     OW13417   4.219   2.798   5.657
 4173SOL    HW113418   4.319   2.803   5.650
 4173SOL    HW213419   4.190   2.702   5.659
 4174SOL     OW13420   4.444   0.376   3.913
 4174SOL    HW113421   4.516   0.369   3.982
 4174SOL    HW213422   4.365   0.424   3.953
 4175SOL     OW13423   2.095   4.659   5.970
 4175SOL    HW113424   2.152   4.736   5.998
 4175SOL    HW213425   2.004   4.669   6.009
 4176SOL     OW13426   5.011   6.674   0.045
 4176SOL    HW113427   4.983   6.591   7.020
 4176SOL    HW213428   5.088   6.716   7.022
 4177SOL     OW13429   5.117   4.721   4.923
 4177SOL    HW113430   5.052   4.646   4.915
 4177SOL    HW213431   5.200   4.699   4.872
 4178SOL     OW13432   4.330   6.571   2.722
 4178SOL    HW113433   4.262   6.497   2.713
 4178SOL    HW213434   4.386   6.574   2.639
 4179SOL     OW13435   5.352   3.783   3.739
 4179SOL    HW113436   5.351   3.771   3.838
 4179SOL    HW213437   5.387   3.700   3.696
 4180SOL     OW13438   5.769   3.328   0.491
 4180SOL    HW113439   5.741   3.278   0.409
 4180SOL    HW213440   5.835   3.274   0.543
 4181SOL     OW13441   5.222   0.384   6.277
 4181SOL    HW113442   5.143   0.408   6.220
 4181SOL    HW213443   5.268   0.467   6.308
 4182SOL     OW13444   0.311   5.937   3.935
 4182SOL    HW113445   0.293   6.030   3.967
 4182SOL    HW213446   0.239   5.875   3.968
 4183SOL     OW13447   1.770   1.385   1.367
 4183SOL    HW113448   1.819   1.453   1.315
 4183SOL    HW213449   1.832   1.311   1.393
 4184SOL     OW13450   3.874   0.563   2.115
 4184SOL    HW113451   3.914   0.558   2.206
 4184SOL    HW213452   3.792   0.506   2.112
 4185SOL     OW13453   0.565   4.021   3.478
 4185SOL    HW113454   0.473   4.060   3.483
 4185SOL    HW213455   0.570   3.939   3.535
 4186SOL     OW13456   2.417   5.387   6.724
 4186SOL    HW113457   2.411   5.423   6.631
 4186SOL    HW213458   2.422   5.464   6.788
 4187SOL     OW13459   1.966   3.602   6.735
 4187SOL    HW113460   2.053   3.647   6.755
 4187SOL    HW213461   1.917   3.653   6.664
 4188SOL     OW13462   5.734   0.750   5.099
 4188SOL    HW113463   5.831   0.757   5.078
 4188SOL    HW213464   5.681   0.751   5.014
 4189SOL     OW13465   4.079   5.335   3.556
 4189SOL    HW113466   4.022   5.319   3.476
 4189SOL    HW213467   4.053   5.272   3.629
 4190SOL     OW13468   0.410   6.237   0.893
 4190SOL    HW113469   0.393   6.149   0.848
 4190SOL    HW213470   0.346   6.305   0.858
 4191SOL     OW13471   5.379   4.105   6.683
 4191SOL    HW113472   5.409   4.071   6.593
 4191SOL    HW213473   5.292   4.152   6.673
 4192SOL     OW13474   0.793   1.659   2.293
 4192SOL    HW113475   0.728   1.589   2.322
 4192SOL    HW213476   0.752   1.713   2.219
 4193SOL     OW13477   5.616   0.346   0.066
 4193SOL    HW113478   5.517   0.362   0.060
 4193SOL    HW213479   5.665   0.426   0.032
 4194SOL     OW13480   4.242   0.308   5.032
 4194SOL    HW113481   4.284   0.396   5.052
 4194SOL    HW213482   4.303   0.254   4.973
 4195SOL     OW13483   4.278   6.574   1.293
 4195SOL    HW113484   4.360   6.613   1.334
 4195SOL    HW213485   4.256   6.488   1.339
 4196SOL     OW13486   0.335   2.639   3.863
 4196SOL    HW113487   0.371   2.637   3.770
 4196SOL    HW213488   0.316   2.545   3.893
 4197SOL     OW13489   4.202   5.930   5.662
 4197SOL    HW113490   4.108   5.963   5.649
 4197SOL    HW213491   4.266   6.004   5.641
 4198SOL     OW13492   6.476   0.969   2.403
 4198SOL    HW113493   6.514   1.060   2.414
 4198SOL    HW213494   6.506   0.930   2.315
 4199SOL     OW13495   1.231   3.385   5.918
 4199SOL    HW113496   1.271   3.391   6.010
 4199SOL    HW213497   1.301   3.360   5.852
 4200SOL     OW13498   3.664   0.529   5.716
 4200SOL    HW113499   3.602   0.590   5.667
 4200SOL    HW213500   3.619   0.495   5.799
 4201SOL     OW13501   6.000   6.811   3.383
 4201SOL    HW113502   6.034   6.719   3.405
 4201SOL    HW213503   6.061   6.879   3.425
 4202SOL     OW13504   3.747   5.585   6.763
 4202SOL    HW113505   3.663   5.610   6.716
 4202SOL    HW213506   3.729   5.573   6.861
 4203SOL     OW13507   5.058   5.108   0.518
 4203SOL    HW113508   5.014   5.166   0.449
 4203SOL    HW213509   5.007   5.022   0.526
 4204SOL     OW13510   3.864   3.345   5.502
 4204SOL    HW113511   3.764   3.338   5.497
 4204SOL    HW213512   3.892   3.440   5.485
 4205SOL     OW13513   3.619   5.358   5.065
 4205SOL    HW113514   3.700   5.416   5.063
 4205SOL    HW213515   3.537   5.414   5.054
 4206SOL     OW13516   0.337   1.439   4.833
 4206SOL    HW113517   0.309   1.409   4.925
 4206SOL    HW213518   0.276   1.397   4.765
 4207SOL     OW13519   2.593   2.285   1.382
 4207SOL    HW113520   2.587   2.206   1.320
 4207SOL    HW213521   2.642   2.359   1.336
 4208SOL     OW13522   0.903   3.751   5.533
 4208SOL    HW113523   0.893   3.678   5.466
 4208SOL    HW213524   0.866   3.836   5.495
 4209SOL     OW13525   6.599   5.781   3.063
 4209SOL    HW113526   6.638   5.850   3.002
 4209SOL    HW213527   6.586   5.821   3.154
 4210SOL     OW13528   3.861   3.000   3.592
 4210SOL    HW113529   3.841   2.904   3.575
 4210SOL    HW213530   3.888   3.044   3.506
 4211SOL     OW13531   3.822   1.970   5.300
 4211SOL    HW113532   3.850   2.007   5.212
 4211SOL    HW213533   3.732   2.007   5.325
 4212SOL     OW13534   6.849   1.826   3.838
 4212SOL    HW113535   6.856   1.737   3.884
 4212SOL    HW213536   6.801   1.815   3.751
 4213SOL     OW13537   2.701   0.537   3.332
 4213SOL    HW113538   2.704   0.623   3.280
 4213SOL    HW213539   2.793   0.499   3.341
 4214SOL     OW13540   0.219   5.764   4.813
 4214SOL    HW113541   0.197   5.850   4.860
 4214SOL    HW213542   0.264   5.785   4.727
 4215SOL     OW13543   5.110   0.049   5.446
 4215SOL    HW113544   5.189   0.104   5.415
 4215SOL    HW213545   5.108   6.988   5.395
 4216SOL     OW13546   1.554   0.596   2.299
 4216SOL    HW113547   1.604   0.535   2.361
 4216SOL    HW213548   1.550   0.556   2.208
 4217SOL     OW13549   1.278   0.312   1.763
 4217SOL    HW113550   1.358   0.272   1.807
 4217SOL    HW213551   1.230   0.242   1.711
 4218SOL     OW13552   3.183   0.628   1.006
 4218SOL    HW113553   3.107   0.692   0.997
 4218SOL    HW213554   3.267   0.679   1.028
 4219SOL     OW13555   4.283   6.388   4.150
 4219SOL    HW113556   4.220   6.440   4.092
 4219SOL    HW213557   4.282   6.427   4.242
 4220SOL     OW13558   5.975   2.847   2.285
 4220SOL    HW113559   5.896   2.787   2.285
 4220SOL    HW213560   6.031   2.829   2.366
 4221SOL     OW13561   6.586   4.550   6.736
 4221SOL    HW113562   6.574   4.462   6.690
 4221SOL    HW213563   6.498   4.595   6.745
 4222SOL     OW13564   6.136   1.604   3.930
 4222SOL    HW113565   6.113   1.655   4.013
 4222SOL    HW213566   6.104   1.655   3.850
 4223SOL     OW13567   3.918   3.668   1.066
 4223SOL    HW113568   3.888   3.573   1.055
 4223SOL    HW213569   3.841   3.729   1.046
 4224SOL     OW13570   4.921   4.529   4.892
 4224SOL    HW113571   4.904   4.475   4.809
 4224SOL    HW213572   4.870   4.490   4.968
 4225SOL     OW13573   1.547   2.070   5.586
 4225SOL    HW113574   1.507   2.027   5.667
 4225SOL    HW213575   1.624   2.129   5.614
 4226SOL     OW13576   0.971   6.354   3.851
 4226SOL    HW113577   0.880   6.379   3.816
 4226SOL    HW213578   0.961   6.318   3.944
 4227SOL     OW13579   5.118   5.907   1.613
 4227SOL    HW113580   5.139   5.816   1.577
 4227SOL    HW213581   5.155   5.976   1.551
 4228SOL     OW13582   0.619   5.875   5.294
 4228SOL    HW113583   0.714   5.867   5.264
 4228SOL    HW213584   0.573   5.946   5.240
 4229SOL     OW13585   4.398   5.873   5.855
 4229SOL    HW113586   4.354   5.847   5.769
 4229SOL    HW213587   4.429   5.968   5.849
 4230SOL     OW13588   0.717   6.624   3.138
 4230SOL    HW113589   0.679   6.532   3.144
 4230SOL    HW213590   0.693   6.665   3.050
 4231SOL     OW13591   5.010   0.482   5.586
 4231SOL    HW113592   4.948   0.541   5.534
 4231SOL    HW213593   5.023   0.396   5.536
 4232SOL     OW13594   1.923   5.594   3.665
 4232SOL    HW113595   1.996   5.587   3.597
 4232SOL    HW213596   1.940   5.529   3.739
 4233SOL     OW13597   0.190   6.837   5.090
 4233SOL    HW113598   0.195   6.903   5.014
 4233SOL    HW213599   0.105   6.852   5.141
 4234SOL     OW13600   2.171   5.025   5.426
 4234SOL    HW113601   2.240   4.961   5.390
 4234SOL    HW213602   2.135   5.080   5.350
 4235SOL     OW13603   6.493   4.870   5.476
 4235SOL    HW113604   6.528   4.895   5.385
 4235SOL    HW213605   6.538   4.925   5.546
 4236SOL     OW13606   0.112   4.476   1.848
 4236SOL    HW113607   0.155   4.506   1.763
 4236SOL    HW213608   0.183   4.445   1.912
 4237SOL     OW13609   6.394   4.117   4.200
 4237SOL    HW113610   6.438   4.169   4.128
 4237SOL    HW213611   6.399   4.019   4.178
 4238SOL     OW13612   0.973   0.928   3.555
 4238SOL    HW113613   0.969   1.000   3.486
 4238SOL    HW213614   0.919   0.849   3.524
 4239SOL     OW13615   4.159   0.831   2.422
 4239SOL    HW113616   4.144   0.858   2.327
 4239SOL    HW213617   4.095   0.758   2.447
 4240SOL     OW13618   2.667   5.055   0.070
 4240SOL    HW113619   2.733   5.009   0.011
 4240SOL    HW213620   2.644   4.996   0.147
 4241SOL     OW13621   5.269   1.213   6.956
 4241SOL    HW113622   5.302   1.307   6.964
 4241SOL    HW213623   5.223   1.187   0.016
 4242SOL     OW13624   2.040   1.934   4.301
 4242SOL    HW113625   2.034   1.995   4.222
 4242SOL    HW213626   2.056   1.989   4.384
 4243SOL     OW13627   5.029   1.584   2.786
 4243SOL    HW113628   4.997   1.606   2.878
 4243SOL    HW213629   4.957   1.602   2.719
 4244SOL     OW13630   3.503   4.107   1.274
 4244SOL    HW113631   3.508   4.023   1.219
 4244SOL    HW213632   3.515   4.084   1.370
 4245SOL     OW13633   6.258   1.907   6.800
 4245SOL    HW113634   6.225   1.998   6.827
 4245SOL    HW213635   6.331   1.917   6.733
 4246SOL     OW13636   6.461   4.252   3.185
 4246SOL    HW113637   6.547   4.205   3.201
 4246SOL    HW213638   6.475   4.351   3.187
 4247SOL     OW13639   1.149   6.177   3.567
 4247SOL    HW113640   1.155   6.272   3.537
 4247SOL    HW213641   1.175   6.171   3.663
 4248SOL     OW13642   2.274   1.795   4.789
 4248SOL    HW113643   2.253   1.848   4.871
 4248SOL    HW213644   2.203   1.809   4.720
 4249SOL     OW13645   6.265   3.213   5.174
 4249SOL    HW113646   6.255   3.201   5.076
 4249SOL    HW213647   6.203   3.285   5.206
 4250SOL     OW13648   0.390   4.927   3.237
 4250SOL    HW113649   0.384   4.836   3.277
 4250SOL    HW213650   0.483   4.945   3.207
 4251SOL     OW13651   6.017   5.129   0.351
 4251SOL    HW113652   6.060   5.118   0.441
 4251SOL    HW213653   6.074   5.087   0.282
 4252SOL     OW13654   6.682   6.720   5.471
 4252SOL    HW113655   6.675   6.767   5.559
 4252SOL    HW213656   6.596   6.730   5.421
 4253SOL     OW13657   2.745   0.402   1.736
 4253SOL    HW113658   2.775   0.310   1.760
 4253SOL    HW213659   2.740   0.411   1.637
 4254SOL     OW13660   1.211   2.918   1.515
 4254SOL    HW113661   1.138   2.853   1.534
 4254SOL    HW213662   1.236   2.967   1.599
 4255SOL     OW13663   5.805   2.893   3.295
 4255SOL    HW113664   5.737   2.922   3.227
 4255SOL    HW213665   5.768   2.906   3.387
 4256SOL     OW13666   1.284   6.509   0.546
 4256SOL    HW113667   1.254   6.604   0.536
 4256SOL    HW213668   1.380   6.502   0.521
 4257SOL     OW13669   3.834   0.570   5.138
 4257SOL    HW113670   3.876   0.534   5.221
 4257SOL    HW213671   3.906   0.592   5.072
 4258SOL     OW13672   5.830   6.468   1.669
 4258SOL    HW113673   5.874   6.431   1.751
 4258SOL    HW213674   5.812   6.393   1.604
 4259SOL     OW13675   3.218   0.992   6.451
 4259SOL    HW113676   3.314   0.981   6.424
 4259SOL    HW213677   3.162   1.002   6.369
 4260SOL     OW13678   5.039   6.101   4.493
 4260SOL    HW113679   5.074   6.103   4.587
 4260SOL    HW213680   5.075   6.020   4.447
 4261SOL     OW13681   2.115   0.682   1.622
 4261SOL    HW113682   2.174   0.611   1.583
 4261SOL    HW213683   2.144   0.772   1.588
 4262SOL     OW13684   0.956   4.538   5.812
 4262SOL    HW113685   0.954   4.465   5.744
 4262SOL    HW213686   1.000   4.505   5.895
 4263SOL     OW13687   2.436   6.215   3.574
 4263SOL    HW113688   2.532   6.234   3.589
 4263SOL    HW213689   2.394   6.292   3.525
 4264SOL     OW13690   6.961   1.761   2.248
 4264SOL    HW113691   6.885   1.700   2.269
 4264SOL    HW213692   0.011   1.709   2.208
 4265SOL     OW13693   5.315   1.563   6.791
 4265SOL    HW113694   5.351   1.529   6.878
 4265SOL    HW213695   5.268   1.650   6.806
 4266SOL     OW13696   2.051   5.278   1.057
 4266SOL    HW113697   2.081   5.345   1.125
 4266SOL    HW213698   2.095   5.190   1.074
 4267SOL     OW13699   2.136   3.936   4.851
 4267SOL    HW113700   2.050   3.890   4.874
 4267SOL    HW213701   2.178   3.971   4.935
 4268SOL     OW13702   1.750   0.111   6.813
 4268SOL    HW113703   1.730   0.067   6.901
 4268SOL    HW213704   1.848   0.103   6.793
 4269SOL     OW13705   2.057   1.403   0.491
 4269SOL    HW113706   2.073   1.381   0.588
 4269SOL    HW213707   2.103   1.335   0.434
 4270SOL     OW13708   3.059   4.026   3.971
 4270SOL    HW113709   2.980   4.080   3.942
 4270SOL    HW213710   3.088   3.966   3.896
 4271SOL     OW13711   7.021   0.809   5.983
 4271SOL    HW113712   6.989   0.902   5.971
 4271SOL    HW213713   6.968   0.764   6.055
 4272SOL     OW13714   0.525   4.662   4.758
 4272SOL    HW113715   0.441   4.611   4.737
 4272SOL    HW213716   0.552   4.644   4.852
 4273SOL     OW13717   4.774   6.327   4.134
 4273SOL    HW113718   4.750   6.386   4.057
 4273SOL    HW213719   4.724   6.241   4.126
 4274SOL     OW13720   1.161   0.343   2.789
 4274SOL    HW113721   1.117   0.417   2.738
 4274SOL    HW213722   1.243   0.378   2.835
 4275SOL     OW13723   6.687   1.406   5.484
 4275SOL    HW113724   6.706   1.373   5.577
 4275SOL    HW213725   6.626   1.342   5.438
 4276SOL     OW13726   1.650   4.969   3.353
 4276SOL    HW113727   1.640   5.012   3.264
 4276SOL    HW213728   1.614   4.876   3.350
 4277SOL     OW13729   6.943   4.615   4.626
 4277SOL    HW113730   6.909   4.526   4.657
 4277SOL    HW213731   6.981   4.605   4.534
 4278SOL     OW13732   6.971   0.594   5.121
 4278SOL    HW113733   6.984   0.519   5.056
 4278SOL    HW213734   6.894   0.573   5.181
 4279SOL     OW13735   3.197   6.105   5.459
 4279SOL    HW113736   3.295   6.086   5.453
 4279SOL    HW213737   3.173   6.177   5.395
 4280SOL     OW13738   5.210   1.440   5.245
 4280SOL    HW113739   5.259   1.361   5.281
 4280SOL    HW213740   5.207   1.511   5.315
 4281SOL     OW13741   2.231   4.765   4.533
 4281SOL    HW113742   2.219   4.704   4.612
 4281SOL    HW213743   2.157   4.749   4.468
 4282SOL     OW13744   2.904   2.614   0.259
 4282SOL    HW113745   2.895   2.593   0.162
 4282SOL    HW213746   2.818   2.593   0.306
 4283SOL     OW13747   1.465   0.705   3.882
 4283SOL    HW113748   1.376   0.665   3.904
 4283SOL    HW213749   1.472   0.718   3.783
 4284SOL     OW13750   5.172   5.858   1.874
 4284SOL    HW113751   5.097   5.834   1.936
 4284SOL    HW213752   5.135   5.905   1.794
 4285SOL     OW13753   0.366   0.158   6.151
 4285SOL    HW113754   0.429   0.180   6.224
 4285SOL    HW213755   0.375   0.224   6.077
 4286SOL     OW13756   5.254   5.264   6.514
 4286SOL    HW113757   5.196   5.186   6.534
 4286SOL    HW213758   5.239   5.293   6.419
 4287SOL     OW13759   5.777   0.593   6.153
 4287SOL    HW113760   5.766   0.672   6.093
 4287SOL    HW213761   5.732   0.514   6.113
 4288SOL     OW13762   0.541   5.952   3.097
 4288SOL    HW113763   0.625   6.003   3.076
 4288SOL    HW213764   0.506   5.910   3.013
 4289SOL     OW13765   6.283   3.009   1.164
 4289SOL    HW113766   6.226   3.054   1.096
 4289SOL    HW213767   6.324   3.078   1.224
 4290SOL     OW13768   2.288   6.544   1.270
 4290SOL    HW113769   2.306   6.535   1.172
 4290SOL    HW213770   2.270   6.640   1.292
 4291SOL     OW13771   4.474   3.509   1.572
 4291SOL    HW113772   4.495   3.598   1.612
 4291SOL    HW213773   4.390   3.473   1.615
 4292SOL     OW13774   6.540   4.489   5.705
 4292SOL    HW113775   6.555   4.391   5.693
 4292SOL    HW213776   6.462   4.503   5.766
 4293SOL     OW13777   6.957   3.251   0.029
 4293SOL    HW113778   7.007   3.320   0.082
 4293SOL    HW213779   7.018   3.176   0.006
 4294SOL     OW13780   4.296   3.022   0.392
 4294SOL    HW113781   4.290   2.930   0.355
 4294SOL    HW213782   4.217   3.039   0.451
 4295SOL     OW13783   3.532   6.065   4.975
 4295SOL    HW113784   3.535   5.965   4.978
 4295SOL    HW213785   3.460   6.095   4.912
 4296SOL     OW13786   3.245   1.401   0.055
 4296SOL    HW113787   3.256   1.413   0.154
 4296SOL    HW213788   3.215   1.488   0.015
 4297SOL     OW13789   5.454   0.460   5.834
 4297SOL    HW113790   5.425   0.387   5.771
 4297SOL    HW213791   5.543   0.495   5.804
 4298SOL     OW13792   2.164   5.316   6.728
 4298SOL    HW113793   2.261   5.338   6.732
 4298SOL    HW213794   2.143   5.271   6.641
 4299SOL     OW13795   0.806   2.670   6.666
 4299SOL    HW113796   0.775   2.697   6.756
 4299SOL    HW213797   0.758   2.724   6.596
 4300SOL     OW13798   3.077   1.399   6.565
 4300SOL    HW113799   3.147   1.396   6.493
 4300SOL    HW213800   3.068   1.308   6.606
 4301SOL     OW13801   2.352   1.056   0.648
 4301SOL    HW113802   2.262   1.015   0.637
 4301SOL    HW213803   2.387   1.085   0.559
 4302SOL     OW13804   0.511   6.506   5.668
 4302SOL    HW113805   0.567   6.465   5.740
 4302SOL    HW213806   0.494   6.438   5.597
 4303SOL     OW13807   6.142   4.730   3.980
 4303SOL    HW113808   6.177   4.787   4.055
 4303SOL    HW213809   6.060   4.773   3.942
 4304SOL     OW13810   3.397   3.882   4.399
 4304SOL    HW113811   3.434   3.814   4.462
 4304SOL    HW213812   3.352   3.836   4.322
 4305SOL     OW13813   6.271   1.337   3.706
 4305SOL    HW113814   6.246   1.321   3.801
 4305SOL    HW213815   6.355   1.287   3.684
 4306SOL     OW13816   6.395   3.756   6.504
 4306SOL    HW113817   6.412   3.768   6.602
 4306SOL    HW213818   6.304   3.717   6.491
 4307SOL     OW13819   4.786   4.392   6.430
 4307SOL    HW113820   4.815   4.311   6.481
 4307SOL    HW213821   4.842   4.470   6.456
 4308SOL     OW13822   5.199   5.590   5.882
 4308SOL    HW113823   5.208   5.536   5.798
 4308SOL    HW213824   5.252   5.675   5.872
 4309SOL     OW13825   0.801   0.572   0.260
 4309SOL    HW113826   0.741   0.580   0.339
 4309SOL    HW213827   0.750   0.596   0.177
 4310SOL     OW13828   1.851   2.624   3.435
 4310SOL    HW113829   1.947   2.597   3.424
 4310SOL    HW213830   1.847   2.719   3.468
 4311SOL     OW13831   1.195   5.598   2.635
 4311SOL    HW113832   1.278   5.643   2.604
 4311SOL    HW213833   1.141   5.661   2.691
 4312SOL     OW13834   1.837   5.404   1.550
 4312SOL    HW113835   1.849   5.498   1.516
 4312SOL    HW213836   1.768   5.357   1.494
 4313SOL     OW13837   5.076   1.700   2.018
 4313SOL    HW113838   5.150   1.730   2.079
 4313SOL    HW213839   5.033   1.780   1.976
 4314SOL     OW13840   5.433   2.356   3.390
 4314SOL    HW113841   5.383   2.269   3.397
 4314SOL    HW213842   5.401   2.407   3.310
 4315SOL     OW13843   2.025   0.828   2.160
 4315SOL    HW113844   2.107   0.799   2.209
 4315SOL    HW213845   2.046   0.907   2.103
 4316SOL     OW13846   5.136   0.370   0.956
 4316SOL    HW113847   5.123   0.469   0.962
 4316SOL    HW213848   5.067   0.324   1.012
 4317SOL     OW13849   3.316   1.228   4.854
 4317SOL    HW113850   3.394   1.258   4.909
 4317SOL    HW213851   3.347   1.166   4.782
 4318SOL     OW13852   1.207   3.159   3.299
 4318SOL    HW113853   1.293   3.202   3.324
 4318SOL    HW213854   1.150   3.223   3.247
 4319SOL     OW13855   2.309   2.713   0.439
 4319SOL    HW113856   2.323   2.618   0.413
 4319SOL    HW213857   2.225   2.747   0.398
 4320SOL     OW13858   1.234   6.174   1.785
 4320SOL    HW113859   1.266   6.080   1.793
 4320SOL    HW213860   1.213   6.211   1.875
 4321SOL     OW13861   6.759   0.239   4.316
 4321SOL    HW113862   6.716   0.175   4.253
 4321SOL    HW213863   6.786   0.322   4.267
 4322SOL     OW13864   6.017   1.435   6.610
 4322SOL    HW113865   6.045   1.359   6.552
 4322SOL    HW213866   5.918   1.447   6.604
 4323SOL     OW13867   5.737   3.936   1.839
 4323SOL    HW113868   5.642   3.910   1.857
 4323SOL    HW213869   5.749   4.033   1.859
 4324SOL     OW13870   5.608   4.700   6.799
 4324SOL    HW113871   5.541   4.696   6.725
 4324SOL    HW213872   5.611   4.611   6.845
 4325SOL     OW13873   0.968   0.610   0.018
 4325SOL    HW113874   0.938   0.593   0.112
 4325SOL    HW213875   1.056   0.564   0.003
 4326SOL     OW13876   6.246   2.758   5.168
 4326SOL    HW113877   6.241   2.690   5.241
 4326SOL    HW213878   6.197   2.841   5.197
 4327SOL     OW13879   6.236   5.138   2.484
 4327SOL    HW113880   6.228   5.181   2.574
 4327SOL    HW213881   6.147   5.139   2.438
 4328SOL     OW13882   4.958   4.162   6.253
 4328SOL    HW113883   4.990   4.071   6.228
 4328SOL    HW213884   5.017   4.231   6.209
 4329SOL     OW13885   3.646   1.989   6.016
 4329SOL    HW113886   3.602   1.949   6.096
 4329SOL    HW213887   3.626   1.932   5.936
 4330SOL     OW13888   3.217   0.790   4.772
 4330SOL    HW113889   3.192   0.710   4.718
 4330SOL    HW213890   3.291   0.765   4.835
 4331SOL     OW13891   5.302   3.091   0.976
 4331SOL    HW113892   5.211   3.105   1.015
 4331SOL    HW213893   5.339   3.180   0.947
 4332SOL     OW13894   5.546   4.402   2.357
 4332SOL    HW113895   5.586   4.487   2.322
 4332SOL    HW213896   5.600   4.324   2.325
 4333SOL     OW13897   4.235   1.413   5.281
 4333SOL    HW113898   4.174   1.487   5.253
 4333SOL    HW213899   4.267   1.430   5.374
 4334SOL     OW13900   2.502   2.097   2.637
 4334SOL    HW113901   2.485   2.103   2.538
 4334SOL    HW213902   2.506   2.001   2.664
 4335SOL     OW13903   3.333   4.094   3.719
 4335SOL    HW113904   3.407   4.159   3.700
 4335SOL    HW213905   3.371   4.014   3.766
 4336SOL     OW13906   0.698   6.323   5.875
 4336SOL    HW113907   0.757   6.326   5.794
 4336SOL    HW213908   0.737   6.380   5.947
 4337SOL     OW13909   1.607   4.757   0.204
 4337SOL    HW113910   1.625   4.663   0.175
 4337SOL    HW213911   1.634   4.768   0.300
 4338SOL     OW13912   4.562   5.941   4.362
 4338SOL    HW113913   4.583   6.023   4.308
 4338SOL    HW213914   4.530   5.869   4.301
 4339SOL     OW13915   5.658   3.435   5.081
 4339SOL    HW113916   5.663   3.355   5.022
 4339SOL    HW213917   5.750   3.470   5.098
 4340SOL     OW13918   6.072   4.379   2.892
 4340SOL    HW113919   6.009   4.424   2.956
 4340SOL    HW213920   6.022   4.354   2.809
 4341SOL     OW13921   1.011   5.019   2.106
 4341SOL    HW113922   1.100   5.056   2.131
 4341SOL    HW213923   1.022   4.954   2.031
 4342SOL     OW13924   0.125   3.142   4.222
 4342SOL    HW113925   0.066   3.088   4.161
 4342SOL    HW213926   0.069   3.182   4.295
 4343SOL     OW13927   2.362   6.628   6.263
 4343SOL    HW113928   2.313   6.698   6.211
 4343SOL    HW213929   2.297   6.575   6.317
 4344SOL     OW13930   2.094   5.741   2.900
 4344SOL    HW113931   2.168   5.694   2.852
 4344SOL    HW213932   2.103   5.840   2.886
 4345SOL     OW13933   1.755   2.560   5.770
 4345SOL    HW113934   1.774   2.652   5.737
 4345SOL    HW213935   1.665   2.531   5.737
 4346SOL     OW13936   2.026   3.364   1.638
 4346SOL    HW113937   2.030   3.394   1.734
 4346SOL    HW213938   2.120   3.352   1.604
 4347SOL     OW13939   6.076   1.130   2.183
 4347SOL    HW113940   5.993   1.080   2.157
 4347SOL    HW213941   6.133   1.071   2.240
 4348SOL     OW13942   0.443   3.120   2.394
 4348SOL    HW113943   0.366   3.086   2.447
 4348SOL    HW213944   0.421   3.211   2.358
 4349SOL     OW13945   6.868   1.760   3.327
 4349SOL    HW113946   6.950   1.708   3.351
 4349SOL    HW213947   6.800   1.699   3.286
 4350SOL     OW13948   4.961   2.089   4.315
 4350SOL    HW113949   5.060   2.082   4.320
 4350SOL    HW213950   4.930   2.055   4.226
 4351SOL     OW13951   2.150   6.294   0.666
 4351SOL    HW113952   2.106   6.205   0.682
 4351SOL    HW213953   2.091   6.367   0.701
 4352SOL     OW13954   1.120   2.507   1.906
 4352SOL    HW113955   1.170   2.428   1.871
 4352SOL    HW213956   1.069   2.481   1.988
 4353SOL     OW13957   3.144   4.730   0.662
 4353SOL    HW113958   3.119   4.637   0.688
 4353SOL    HW213959   3.197   4.728   0.577
 4354SOL     OW13960   2.117   6.316   5.701
 4354SOL    HW113961   2.088   6.232   5.655
 4354SOL    HW213962   2.100   6.307   5.799
 4355SOL     OW13963   3.603   6.664   1.649
 4355SOL    HW113964   3.527   6.708   1.602
 4355SOL    HW213965   3.661   6.733   1.692
 4356SOL     OW13966   4.750   4.087   1.871
 4356SOL    HW113967   4.821   4.157   1.875
 4356SOL    HW213968   4.660   4.130   1.884
 4357SOL     OW13969   6.205   0.187   6.924
 4357SOL    HW113970   6.154   0.119   6.871
 4357SOL    HW213971   6.158   0.203   7.011
 4358SOL     OW13972   6.711   5.790   0.675
 4358SOL    HW113973   6.689   5.850   0.598
 4358SOL    HW213974   6.785   5.831   0.728
 4359SOL     OW13975   1.179   1.948   5.245
 4359SOL    HW113976   1.156   2.042   5.218
 4359SOL    HW213977   1.277   1.933   5.234
 4360SOL     OW13978   1.669   3.440   2.430
 4360SOL    HW113979   1.696   3.490   2.512
 4360SOL    HW213980   1.647   3.504   2.357
 4361SOL     OW13981   2.774   2.669   1.679
 4361SOL    HW113982   2.844   2.597   1.685
 4361SOL    HW213983   2.817   2.758   1.696
 4362SOL     OW13984   6.341   3.706   4.480
 4362SOL    HW113985   6.331   3.791   4.531
 4362SOL    HW213986   6.334   3.725   4.382
 4363SOL     OW13987   5.513   2.459   6.044
 4363SOL    HW113988   5.588   2.464   6.110
 4363SOL    HW213989   5.485   2.363   6.033
 4364SOL     OW13990   3.024   3.684   5.270
 4364SOL    HW113991   3.004   3.587   5.260
 4364SOL    HW213992   2.940   3.737   5.256
 4365SOL     OW13993   2.772   1.549   1.853
 4365SOL    HW113994   2.854   1.492   1.865
 4365SOL    HW213995   2.800   1.642   1.828
 4366SOL     OW13996   5.438   6.573   0.033
 4366SOL    HW113997   5.516   6.624   7.022
 4366SOL    HW213998   5.445   6.569   0.133
 4367SOL     OW13999   1.626   5.329   5.276
 4367SOL    HW114000   1.714   5.282   5.276
 4367SOL    HW214001   1.565   5.285   5.341
 4368SOL     OW14002   4.255   5.123   1.370
 4368SOL    HW114003   4.270   5.033   1.330
 4368SOL    HW214004   4.329   5.143   1.434
 4369SOL     OW14005   4.119   5.267   2.583
 4369SOL    HW114006   4.141   5.205   2.508
 4369SOL    HW214007   4.065   5.219   2.652
 4370SOL     OW14008   5.094   4.440   2.915
 4370SOL    HW114009   5.030   4.402   2.848
 4370SOL    HW214010   5.147   4.513   2.872
 4371SOL     OW14011   6.242   0.658   1.826
 4371SOL    HW114012   6.215   0.693   1.916
 4371SOL    HW214013   6.321   0.709   1.792
 4372SOL     OW14014   4.400   0.852   3.140
 4372SOL    HW114015   4.388   0.927   3.074
 4372SOL    HW214016   4.387   0.887   3.233
 4373SOL     OW14017   6.980   2.948   0.222
 4373SOL    HW114018   6.936   3.028   0.263
 4373SOL    HW214019   0.051   2.944   0.250
 4374SOL     OW14020   0.941   1.846   1.839
 4374SOL    HW114021   0.944   1.933   1.889
 4374SOL    HW214022   1.028   1.799   1.849
 4375SOL     OW14023   3.180   0.151   4.127
 4375SOL    HW114024   3.221   0.145   4.218
 4375SOL    HW214025   3.251   0.174   4.060
 4376SOL     OW14026   7.013   0.513   2.590
 4376SOL    HW114027   0.061   0.465   2.542
 4376SOL    HW214028   0.004   0.506   2.689
 4377SOL     OW14029   6.054   4.101   0.261
 4377SOL    HW114030   6.046   4.199   0.276
 4377SOL    HW214031   6.134   4.065   0.309
 4378SOL     OW14032   1.849   1.719   2.615
 4378SOL    HW114033   1.823   1.629   2.652
 4378SOL    HW214034   1.939   1.712   2.571
 4379SOL     OW14035   2.744   1.407   3.935
 4379SOL    HW114036   2.657   1.376   3.896
 4379SOL    HW214037   2.755   1.505   3.916
 4380SOL     OW14038   1.209   0.229   1.318
 4380SOL    HW114039   1.257   0.221   1.405
 4380SOL    HW214040   1.271   0.268   1.250
 4381SOL     OW14041   1.033   6.035   4.742
 4381SOL    HW114042   1.079   6.045   4.831
 4381SOL    HW214043   1.011   6.125   4.706
 4382SOL     OW14044   6.788   3.156   6.229
 4382SOL    HW114045   6.812   3.111   6.315
 4382SOL    HW214046   6.858   3.224   6.206
 4383SOL     OW14047   6.737   4.017   6.338
 4383SOL    HW114048   6.725   4.089   6.406
 4383SOL    HW214049   6.654   3.961   6.334
 4384SOL     OW14050   5.674   1.001   3.771
 4384SOL    HW114051   5.618   0.959   3.699
 4384SOL    HW214052   5.755   1.043   3.730
 4385SOL     OW14053   4.475   2.465   5.508
 4385SOL    HW114054   4.549   2.408   5.473
 4385SOL    HW214055   4.513   2.542   5.558
 4386SOL     OW14056   1.400   4.088   5.173
 4386SOL    HW114057   1.419   4.185   5.161
 4386SOL    HW214058   1.328   4.060   5.109
 4387SOL     OW14059   6.665   2.730   2.003
 4387SOL    HW114060   6.695   2.749   1.910
 4387SOL    HW214061   6.684   2.634   2.025
 4388SOL     OW14062   4.382   2.484   6.077
 4388SOL    HW114063   4.371   2.385   6.081
 4388SOL    HW214064   4.395   2.520   6.169
 4389SOL     OW14065   6.606   3.589   0.751
 4389SOL    HW114066   6.643   3.506   0.792
 4389SOL    HW214067   6.550   3.566   0.672
 4390SOL     OW14068   4.749   0.004   1.454
 4390SOL    HW114069   4.658   0.027   1.487
 4390SOL    HW214070   4.817   0.030   1.523
 4391SOL     OW14071   2.748   4.861   6.509
 4391SOL    HW114072   2.742   4.769   6.549
 4391SOL    HW214073   2.792   4.922   6.574
 4392SOL     OW14074   0.418   1.768   4.942
 4392SOL    HW114075   0.409   1.863   4.971
 4392SOL    HW214076   0.448   1.765   4.847
 4393SOL     OW14077   6.521   0.775   2.078
 4393SOL    HW114078   6.617   0.780   2.050
 4393SOL    HW214079   6.491   0.679   2.079
 4394SOL     OW14080   0.780   6.495   1.191
 4394SOL    HW114081   0.820   6.412   1.230
 4394SOL    HW214082   0.794   6.495   1.092
 4395SOL     OW14083   2.208   0.257   1.487
 4395SOL    HW114084   2.158   0.173   1.507
 4395SOL    HW214085   2.234   0.302   1.572
 4396SOL     OW14086   1.705   1.897   4.293
 4396SOL    HW114087   1.646   1.901   4.213
 4396SOL    HW214088   1.799   1.920   4.267
 4397SOL     OW14089   1.736   3.088   4.487
 4397SOL    HW114090   1.829   3.105   4.454
 4397SOL    HW214091   1.739   3.021   4.562
 4398SOL     OW14092   1.632   3.470   6.642
 4398SOL    HW114093   1.635   3.462   6.542
 4398SOL    HW214094   1.700   3.409   6.682
 4399SOL     OW14095   2.365   6.587   1.981
 4399SOL    HW114096   2.309   6.509   1.951
 4399SOL    HW214097   2.438   6.603   1.914
 4400SOL     OW14098   2.156   6.590   3.531
 4400SOL    HW114099   2.222   6.533   3.484
 4400SOL    HW214100   2.065   6.551   3.522
 4401SOL     OW14101   4.023   6.449   5.014
 4401SOL    HW114102   3.981   6.467   4.925
 4401SOL    HW214103   3.977   6.503   5.084
 4402SOL     OW14104   0.837   0.106   2.944
 4402SOL    HW114105   0.749   0.106   2.894
 4402SOL    HW214106   0.912   0.100   2.878
 4403SOL     OW14107   1.572   6.409   0.570
 4403SOL    HW114108   1.619   6.455   0.645
 4403SOL    HW214109   1.536   6.322   0.602
 4404SOL     OW14110   1.368   6.049   5.132
 4404SOL    HW114111   1.339   5.968   5.081
 4404SOL    HW214112   1.468   6.052   5.136
 4405SOL     OW14113   2.166   4.827   2.675
 4405SOL    HW114114   2.222   4.893   2.724
 4405SOL    HW214115   2.196   4.734   2.697
 4406SOL     OW14116   6.720   3.368   0.890
 4406SOL    HW114117   6.752   3.436   0.956
 4406SOL    HW214118   6.696   3.284   0.939
 4407SOL     OW14119   0.255   5.367   1.043
 4407SOL    HW114120   0.349   5.336   1.057
 4407SOL    HW214121   0.215   5.392   1.131
 4408SOL     OW14122   2.913   6.103   6.810
 4408SOL    HW114123   2.844   6.126   6.741
 4408SOL    HW214124   2.868   6.081   6.896
 4409SOL     OW14125   4.916   0.970   1.570
 4409SOL    HW114126   4.956   0.944   1.482
 4409SOL    HW214127   4.951   1.061   1.596
 4410SOL     OW14128   6.403   5.851   0.488
 4410SOL    HW114129   6.495   5.889   0.478
 4410SOL    HW214130   6.384   5.835   0.585
 4411SOL     OW14131   3.529   4.303   5.227
 4411SOL    HW114132   3.564   4.266   5.141
 4411SOL    HW214133   3.558   4.398   5.237
 4412SOL     OW14134   5.183   6.668   4.343
 4412SOL    HW114135   5.281   6.651   4.343
 4412SOL    HW214136   5.136   6.594   4.392
 4413SOL     OW14137   5.242   5.972   3.730
 4413SOL    HW114138   5.164   6.035   3.721
 4413SOL    HW214139   5.224   5.908   3.805
 4414SOL     OW14140   4.516   5.626   1.311
 4414SOL    HW114141   4.568   5.554   1.265
 4414SOL    HW214142   4.545   5.633   1.407
 4415SOL     OW14143   4.020   3.706   0.799
 4415SOL    HW114144   4.109   3.739   0.766
 4415SOL    HW214145   4.018   3.710   0.899
 4416SOL     OW14146   3.804   1.125   4.247
 4416SOL    HW114147   3.900   1.106   4.269
 4416SOL    HW214148   3.744   1.069   4.305
 4417SOL     OW14149   6.105   2.710   4.397
 4417SOL    HW114150   6.065   2.784   4.451
 4417SOL    HW214151   6.163   2.748   4.325
 4418SOL     OW14152   6.109   1.800   2.003
 4418SOL    HW114153   6.115   1.900   2.005
 4418SOL    HW214154   6.027   1.773   1.952
 4419SOL     OW14155   6.887   0.100   5.922
 4419SOL    HW114156   6.957   0.029   5.914
 4419SOL    HW214157   6.931   0.190   5.922
 4420SOL     OW14158   3.286   1.394   1.019
 4420SOL    HW114159   3.278   1.333   0.940
 4420SOL    HW214160   3.378   1.433   1.022
 4421SOL     OW14161   1.575   2.139   5.105
 4421SOL    HW114162   1.612   2.193   5.180
 4421SOL    HW214163   1.520   2.064   5.141
 4422SOL     OW14164   0.987   4.780   0.043
 4422SOL    HW114165   0.931   4.698   0.034
 4422SOL    HW214166   1.041   4.794   6.985
 4423SOL     OW14167   6.643   4.681   5.920
 4423SOL    HW114168   6.629   4.625   5.838
 4423SOL    HW214169   6.595   4.767   5.910
 4424SOL     OW14170   5.958   6.200   4.680
 4424SOL    HW114171   5.966   6.113   4.728
 4424SOL    HW214172   5.971   6.275   4.744
 4425SOL     OW14173   1.787   5.391   1.223
 4425SOL    HW114174   1.875   5.404   1.179
 4425SOL    HW214175   1.715   5.384   1.154
 4426SOL     OW14176   1.078   1.107   3.947
 4426SOL    HW114177   0.997   1.051   3.931
 4426SOL    HW214178   1.117   1.084   4.036
 4427SOL     OW14179   4.033   6.189   2.578
 4427SOL    HW114180   3.997   6.257   2.514
 4427SOL    HW214181   4.065   6.110   2.527
 4428SOL     OW14182   4.936   0.707   4.557
 4428SOL    HW114183   4.999   0.780   4.583
 4428SOL    HW214184   4.948   0.685   4.460
 4429SOL     OW14185   2.722   6.582   2.759
 4429SOL    HW114186   2.784   6.629   2.697
 4429SOL    HW214187   2.768   6.504   2.801
 4430SOL     OW14188   5.794   4.760   4.313
 4430SOL    HW114189   5.881   4.715   4.296
 4430SOL    HW214190   5.764   4.808   4.231
 4431SOL     OW14191   2.911   0.695   3.633
 4431SOL    HW114192   2.937   0.604   3.600
 4431SOL    HW214193   2.987   0.758   3.620
 4432SOL     OW14194   1.945   3.050   6.450
 4432SOL    HW114195   1.846   3.036   6.449
 4432SOL    HW214196   1.972   3.110   6.375
 4433SOL     OW14197   0.335   2.643   4.767
 4433SOL    HW114198   0.342   2.741   4.748
 4433SOL    HW214199   0.328   2.630   4.866
 4434SOL     OW14200   5.552   1.812   2.752
 4434SOL    HW114201   5.500   1.877   2.696
 4434SOL    HW214202   5.535   1.719   2.719
 4435SOL     OW14203   3.974   3.733   1.575
 4435SOL    HW114204   3.884   3.778   1.571
 4435SOL    HW214205   3.981   3.668   1.499
 4436SOL     OW14206   3.600   1.184   1.518
 4436SOL    HW114207   3.665   1.181   1.594
 4436SOL    HW214208   3.650   1.196   1.432
 4437SOL     OW14209   0.835   3.568   2.881
 4437SOL    HW114210   0.884   3.482   2.900
 4437SOL    HW214211   0.760   3.550   2.818
 4438SOL     OW14212   4.880   6.692   5.741
 4438SOL    HW114213   4.940   6.621   5.777
 4438SOL    HW214214   4.865   6.677   5.643
 4439SOL     OW14215   0.831   4.743   2.842
 4439SOL    HW114216   0.794   4.818   2.786
 4439SOL    HW214217   0.848   4.776   2.935
 4440SOL     OW14218   2.409   4.352   0.873
 4440SOL    HW114219   2.467   4.411   0.818
 4440SOL    HW214220   2.447   4.345   0.965
 4441SOL     OW14221   6.942   1.176   0.969
 4441SOL    HW114222   6.973   1.203   1.060
 4441SOL    HW214223   6.856   1.125   0.977
 4442SOL     OW14224   1.155   5.598   5.585
 4442SOL    HW114225   1.250   5.626   5.575
 4442SOL    HW214226   1.146   5.532   5.660
 4443SOL     OW14227   1.072   4.130   6.362
 4443SOL    HW114228   1.165   4.092   6.366
 4443SOL    HW214229   1.066   4.209   6.424
 4444SOL     OW14230   4.542   3.957   0.496
 4444SOL    HW114231   4.580   3.880   0.547
 4444SOL    HW214232   4.580   4.042   0.532
 4445SOL     OW14233   1.409   5.867   0.047
 4445SOL    HW114234   1.429   5.845   6.976
 4445SOL    HW214235   1.495   5.875   0.098
 4446SOL     OW14236   5.457   1.469   7.004
 4446SOL    HW114237   5.442   1.441   0.074
 4446SOL    HW214238   5.554   1.491   6.991
 4447SOL     OW14239   5.902   4.141   5.131
 4447SOL    HW114240   5.930   4.157   5.226
 4447SOL    HW214241   5.929   4.218   5.074
 4448SOL     OW14242   2.687   7.016   0.898
 4448SOL    HW114243   2.734   6.946   0.951
 4448SOL    HW214244   2.616   0.033   0.954
 4449SOL     OW14245   4.351   1.166   6.478
 4449SOL    HW114246   4.382   1.158   6.384
 4449SOL    HW214247   4.419   1.125   6.539
 4450SOL     OW14248   3.138   1.546   6.781
 4450SOL    HW114249   3.126   1.493   6.698
 4450SOL    HW214250   3.234   1.571   6.793
 4451SOL     OW14251   4.522   4.981   4.659
 4451SOL    HW114252   4.563   4.966   4.569
 4451SOL    HW214253   4.536   5.076   4.687
 4452SOL     OW14254   6.179   5.978   4.513
 4452SOL    HW114255   6.157   6.047   4.444
 4452SOL    HW214256   6.268   5.998   4.553
 4453SOL     OW14257   1.478   2.853   1.736
 4453SOL    HW114258   1.402   2.917   1.752
 4453SOL    HW214259   1.461   2.768   1.786
 4454SOL     OW14260   0.725   1.424   0.079
 4454SOL    HW114261   0.813   1.416   0.033
 4454SOL    HW214262   0.716   1.353   0.149
 4455SOL     OW14263   5.494   5.595   5.301
 4455SOL    HW114264   5.487   5.515   5.241
 4455SOL    HW214265   5.584   5.636   5.291
 4456SOL     OW14266   2.459   6.023   3.363
 4456SOL    HW114267   2.523   5.947   3.378
 4456SOL    HW214268   2.457   6.081   3.445
 4457SOL     OW14269   1.741   2.041   4.547
 4457SOL    HW114270   1.705   1.994   4.466
 4457SOL    HW214271   1.774   1.974   4.613
 4458SOL     OW14272   2.576   3.701   1.402
 4458SOL    HW114273   2.538   3.678   1.492
 4458SOL    HW214274   2.502   3.704   1.335
 4459SOL     OW14275   2.564   1.759   4.116
 4459SOL    HW114276   2.623   1.700   4.170
 4459SOL    HW214277   2.610   1.785   4.032
 4460SOL     OW14278   0.722   2.902   5.620
 4460SOL    HW114279   0.724   2.983   5.678
 4460SOL    HW214280   0.794   2.839   5.647
 4461SOL     OW14281   1.624   0.941   0.899
 4461SOL    HW114282   1.648   0.923   0.803
 4461SOL    HW214283   1.652   1.033   0.923
 4462SOL     OW14284   6.172   4.217   2.389
 4462SOL    HW114285   6.110   4.255   2.458
 4462SOL    HW214286   6.178   4.280   2.312
 4463SOL     OW14287   5.212   1.626   1.389
 4463SOL    HW114288   5.292   1.677   1.358
 4463SOL    HW214289   5.172   1.672   1.468
 4464SOL     OW14290   0.579   5.499   0.470
 4464SOL    HW114291   0.608   5.508   0.565
 4464SOL    HW214292   0.512   5.425   0.462
 4465SOL     OW14293   2.888   5.287   0.341
 4465SOL    HW114294   2.935   5.374   0.324
 4465SOL    HW214295   2.933   5.215   0.289
 4466SOL     OW14296   1.544   1.997   2.668
 4466SOL    HW114297   1.469   2.019   2.730
 4466SOL    HW214298   1.589   2.081   2.638
 4467SOL     OW14299   2.733   5.860   3.866
 4467SOL    HW114300   2.765   5.927   3.799
 4467SOL    HW214301   2.797   5.784   3.870
 4468SOL     OW14302   1.359   4.199   1.066
 4468SOL    HW114303   1.354   4.180   0.968
 4468SOL    HW214304   1.290   4.266   1.091
 4469SOL     OW14305   2.890   0.605   1.267
 4469SOL    HW114306   2.792   0.594   1.254
 4469SOL    HW214307   2.929   0.519   1.302
 4470SOL     OW14308   0.621   1.443   2.332
 4470SOL    HW114309   0.625   1.385   2.251
 4470SOL    HW214310   0.526   1.449   2.363
 4471SOL     OW14311   2.101   2.556   6.865
 4471SOL    HW114312   2.005   2.527   6.873
 4471SOL    HW214313   2.117   2.590   6.772
 4472SOL     OW14314   1.460   2.101   0.471
 4472SOL    HW114315   1.374   2.050   0.473
 4472SOL    HW214316   1.535   2.040   0.496
 4473SOL     OW14317   6.002   2.947   3.673
 4473SOL    HW114318   6.037   2.934   3.766
 4473SOL    HW214319   5.949   2.867   3.646
 4474SOL     OW14320   2.846   0.020   2.204
 4474SOL    HW114321   2.884   0.112   2.193
 4474SOL    HW214322   2.848   7.019   2.300
 4475SOL     OW14323   1.002   3.816   1.741
 4475SOL    HW114324   0.968   3.764   1.820
 4475SOL    HW214325   1.059   3.757   1.684
 4476SOL     OW14326   6.155   1.001   4.341
 4476SOL    HW114327   6.240   1.051   4.327
 4476SOL    HW214328   6.174   0.904   4.352
 4477SOL     OW14329   1.942   0.416   5.463
 4477SOL    HW114330   1.862   0.363   5.435
 4477SOL    HW214331   1.988   0.368   5.538
 4478SOL     OW14332   1.063   0.204   1.627
 4478SOL    HW114333   0.988   0.267   1.648
 4478SOL    HW214334   1.026   0.111   1.617
 4479SOL     OW14335   1.176   1.767   0.670
 4479SOL    HW114336   1.238   1.691   0.687
 4479SOL    HW214337   1.086   1.732   0.643
 4480SOL     OW14338   0.748   4.139   5.120
 4480SOL    HW114339   0.742   4.171   5.214
 4480SOL    HW214340   0.766   4.216   5.059
 4481SOL     OW14341   2.336   5.299   5.129
 4481SOL    HW114342   2.415   5.284   5.189
 4481SOL    HW214343   2.261   5.240   5.157
 4482SOL     OW14344   2.446   3.365   5.793
 4482SOL    HW114345   2.436   3.429   5.716
 4482SOL    HW214346   2.439   3.271   5.759
 4483SOL     OW14347   0.520   2.620   1.997
 4483SOL    HW114348   0.588   2.693   1.999
 4483SOL    HW214349   0.547   2.551   1.929
 4484SOL     OW14350   2.189   2.968   0.099
 4484SOL    HW114351   2.125   2.900   0.135
 4484SOL    HW214352   2.282   2.929   0.097
 4485SOL     OW14353   4.671   2.691   5.252
 4485SOL    HW114354   4.619   2.776   5.241
 4485SOL    HW214355   4.648   2.650   5.341
 4486SOL     OW14356   5.849   5.104   5.398
 4486SOL    HW114357   5.819   5.179   5.340
 4486SOL    HW214358   5.911   5.044   5.347
 4487SOL     OW14359   2.318   2.841   6.734
 4487SOL    HW114360   2.229   2.871   6.768
 4487SOL    HW214361   2.351   2.906   6.665
 4488SOL     OW14362   1.102   3.570   4.136
 4488SOL    HW114363   1.184   3.539   4.186
 4488SOL    HW214364   1.103   3.532   4.044
 4489SOL     OW14365   5.000   5.610   5.145
 4489SOL    HW114366   4.940   5.536   5.116
 4489SOL    HW214367   5.030   5.662   5.064
 4490SOL     OW14368   5.083   2.177   1.072
 4490SOL    HW114369   5.113   2.123   1.150
 4490SOL    HW214370   5.153   2.244   1.048
 4491SOL     OW14371   0.832   3.315   3.193
 4491SOL    HW114372   0.902   3.309   3.264
 4491SOL    HW214373   0.843   3.239   3.129
 4492SOL     OW14374   5.872   2.048   2.107
 4492SOL    HW114375   5.881   1.990   2.026
 4492SOL    HW214376   5.775   2.062   2.127
 4493SOL     OW14377   6.239   6.717   4.567
 4493SOL    HW114378   6.149   6.673   4.557
 4493SOL    HW214379   6.309   6.646   4.578
 4494SOL     OW14380   1.310   0.789   5.927
 4494SOL    HW114381   1.293   0.887   5.916
 4494SOL    HW214382   1.226   0.743   5.957
 4495SOL     OW14383   3.695   6.853   2.606
 4495SOL    HW114384   3.672   6.779   2.543
 4495SOL    HW214385   3.789   6.841   2.638
 4496SOL     OW14386   4.966   6.437   6.959
 4496SOL    HW114387   4.956   6.338   6.950
 4496SOL    HW214388   5.013   6.473   6.879
 4497SOL     OW14389   3.974   2.610   6.828
 4497SOL    HW114390   3.940   2.698   6.861
 4497SOL    HW214391   3.952   2.539   6.894
 4498SOL     OW14392   6.784   5.282   6.447
 4498SOL    HW114393   6.878   5.249   6.455
 4498SOL    HW214394   6.771   5.324   6.357
 4499SOL     OW14395   5.922   2.199   3.531
 4499SOL    HW114396   5.889   2.117   3.484
 4499SOL    HW214397   5.993   2.242   3.476
 4500SOL     OW14398   3.822   4.532   6.746
 4500SOL    HW114399   3.891   4.510   6.677
 4500SOL    HW214400   3.866   4.553   6.833
 4501SOL     OW14401   5.545   2.287   2.576
 4501SOL    HW114402   5.468   2.244   2.624
 4501SOL    HW214403   5.587   2.355   2.635
 4502SOL     OW14404   0.940   4.070   0.160
 4502SOL    HW114405   0.882   4.048   0.082
 4502SOL    HW214406   0.923   4.164   0.190
 4503SOL     OW14407   3.073   6.855   2.191
 4503SOL    HW114408   2.999   6.862   2.125
 4503SOL    HW214409   3.072   6.935   2.251
 4504SOL     OW14410   6.262   2.162   4.250
 4504SOL    HW114411   6.188   2.213   4.293
 4504SOL    HW214412   6.340   2.223   4.235
 4505SOL     OW14413   6.839   4.339   2.466
 4505SOL    HW114414   6.875   4.334   2.559
 4505SOL    HW214415   6.913   4.359   2.402
 4506SOL     OW14416   5.574   2.693   3.271
 4506SOL    HW114417   5.629   2.631   3.327
 4506SOL    HW214418   5.483   2.653   3.256
 4507SOL     OW14419   6.991   3.036   4.027
 4507SOL    HW114420   6.895   3.047   4.001
 4507SOL    HW214421   0.021   3.015   3.946
 4508SOL     OW14422   1.664   4.524   0.091
 4508SOL    HW114423   1.586   4.492   0.037
 4508SOL    HW214424   1.746   4.524   0.034
 4509SOL     OW14425   5.016   2.560   2.943
 4509SOL    HW114426   4.979   2.619   3.015
 4509SOL    HW214427   4.941   2.515   2.895
 4510SOL     OW14428   4.732   1.394   4.345
 4510SOL    HW114429   4.669   1.440   4.408
 4510SOL    HW214430   4.826   1.418   4.368
 4511SOL     OW14431   6.541   3.711   0.989
 4511SOL    HW114432   6.595   3.692   1.071
 4511SOL    HW214433   6.568   3.649   0.916
 4512SOL     OW14434   3.294   1.714   5.693
 4512SOL    HW114435   3.248   1.686   5.609
 4512SOL    HW214436   3.310   1.813   5.691
 4513SOL     OW14437   0.810   6.180   6.581
 4513SOL    HW114438   0.880   6.225   6.637
 4513SOL    HW214439   0.844   6.171   6.487
 4514SOL     OW14440   3.647   3.342   0.403
 4514SOL    HW114441   3.622   3.413   0.337
 4514SOL    HW214442   3.714   3.378   0.468
 4515SOL     OW14443   5.300   1.363   4.810
 4515SOL    HW114444   5.242   1.360   4.891
 4515SOL    HW214445   5.389   1.322   4.831
 4516SOL     OW14446   2.723   0.106   5.571
 4516SOL    HW114447   2.715   0.069   5.478
 4516SOL    HW214448   2.806   0.070   5.613
 4517SOL     OW14449   4.421   6.198   6.608
 4517SOL    HW114450   4.355   6.181   6.681
 4517SOL    HW214451   4.374   6.194   6.520
 4518SOL     OW14452   1.298   6.636   1.263
 4518SOL    HW114453   1.297   6.633   1.363
 4518SOL    HW214454   1.311   6.543   1.228
 4519SOL     OW14455   4.727   6.639   6.690
 4519SOL    HW114456   4.774   6.673   6.609
 4519SOL    HW214457   4.659   6.570   6.664
 4520SOL     OW14458   4.278   5.472   5.619
 4520SOL    HW114459   4.313   5.424   5.700
 4520SOL    HW214460   4.319   5.563   5.615
 4521SOL     OW14461   5.067   2.131   4.975
 4521SOL    HW114462   5.119   2.122   5.060
 4521SOL    HW214463   4.982   2.078   4.982
 4522SOL     OW14464   6.093   4.042   3.159
 4522SOL    HW114465   6.142   4.117   3.204
 4522SOL    HW214466   5.999   4.072   3.138
 4523SOL     OW14467   1.480   3.755   6.928
 4523SOL    HW114468   1.573   3.738   6.897
 4523SOL    HW214469   1.416   3.705   6.871
 4524SOL     OW14470   6.919   3.397   2.211
 4524SOL    HW114471   6.937   3.306   2.247
 4524SOL    HW214472   6.983   3.463   2.250
 4525SOL     OW14473   2.925   2.334   5.662
 4525SOL    HW114474   2.954   2.347   5.567
 4525SOL    HW214475   2.830   2.302   5.663
 4526SOL     OW14476   0.299   1.057   6.545
 4526SOL    HW114477   0.372   1.044   6.477
 4526SOL    HW214478   0.320   1.004   6.627
 4527SOL     OW14479   6.747   0.214   2.918
 4527SOL    HW114480   6.834   0.262   2.926
 4527SOL    HW214481   6.728   0.166   3.004
 4528SOL     OW14482   4.247   0.659   6.342
 4528SOL    HW114483   4.280   0.749   6.370
 4528SOL    HW214484   4.160   0.668   6.295
 4529SOL     OW14485   3.038   1.441   5.780
 4529SOL    HW114486   3.105   1.369   5.763
 4529SOL    HW214487   2.945   1.406   5.764
 4530SOL     OW14488   2.344   5.657   4.425
 4530SOL    HW114489   2.402   5.610   4.491
 4530SOL    HW214490   2.346   5.609   4.338
 4531SOL     OW14491   0.866   3.962   6.494
 4531SOL    HW114492   0.954   4.010   6.493
 4531SOL    HW214493   0.854   3.913   6.407
 4532SOL     OW14494   4.980   0.844   3.120
 4532SOL    HW114495   4.948   0.750   3.115
 4532SOL    HW214496   5.080   0.845   3.116
 4533SOL     OW14497   1.620   1.509   3.263
 4533SOL    HW114498   1.539   1.460   3.293
 4533SOL    HW214499   1.601   1.607   3.259
 4534SOL     OW14500   4.276   2.257   5.360
 4534SOL    HW114501   4.196   2.240   5.302
 4534SOL    HW214502   4.337   2.178   5.356
 4535SOL     OW14503   3.448   1.105   1.227
 4535SOL    HW114504   3.417   1.194   1.260
 4535SOL    HW214505   3.544   1.092   1.252
 4536SOL     OW14506   2.746   1.357   5.726
 4536SOL    HW114507   2.700   1.445   5.737
 4536SOL    HW214508   2.686   1.294   5.678
 4537SOL     OW14509   3.885   3.744   2.842
 4537SOL    HW114510   3.829   3.684   2.784
 4537SOL    HW214511   3.978   3.748   2.805
 4538SOL     OW14512   1.778   2.176   2.150
 4538SOL    HW114513   1.746   2.142   2.062
 4538SOL    HW214514   1.738   2.121   2.224
 4539SOL     OW14515   1.802   5.407   4.722
 4539SOL    HW114516   1.857   5.357   4.654
 4539SOL    HW214517   1.849   5.407   4.810
 4540SOL     OW14518   0.847   1.158   0.800
 4540SOL    HW114519   0.947   1.163   0.803
 4540SOL    HW214520   0.817   1.074   0.844
 4541SOL     OW14521   4.418   1.580   6.962
 4541SOL    HW114522   4.345   1.576   0.006
 4541SOL    HW214523   4.501   1.618   7.003
 4542SOL     OW14524   6.875   1.993   0.934
 4542SOL    HW114525   6.837   1.910   0.893
 4542SOL    HW214526   6.974   1.990   0.930
 4543SOL     OW14527   4.497   2.339   0.849
 4543SOL    HW114528   4.536   2.397   0.920
 4543SOL    HW214529   4.565   2.271   0.821
 4544SOL     OW14530   4.308   4.836   0.871
 4544SOL    HW114531   4.396   4.837   0.824
 4544SOL    HW214532   4.286   4.743   0.899
 4545SOL     OW14533   0.630   4.021   5.482
 4545SOL    HW114534   0.547   4.031   5.428
 4545SOL    HW214535   0.606   3.986   5.573
 4546SOL     OW14536   3.366   0.254   5.741
 4546SOL    HW114537   3.335   0.337   5.788
 4546SOL    HW214538   3.466   0.252   5.739
 4547SOL     OW14539   6.295   0.469   0.101
 4547SOL    HW114540   6.304   0.536   0.027
 4547SOL    HW214541   6.321   0.512   0.187
 4548SOL     OW14542   2.447   2.635   3.338
 4548SOL    HW114543   2.363   2.625   3.285
 4548SOL    HW214544   2.427   2.679   3.426
 4549SOL     OW14545   5.113   4.246   2.284
 4549SOL    HW114546   5.079   4.152   2.295
 4549SOL    HW214547   5.037   4.305   2.258
 4550SOL     OW14548   1.111   4.297   3.820
 4550SOL    HW114549   1.193   4.260   3.864
 4550SOL    HW214550   1.040   4.312   3.888
 4551SOL     OW14551   0.901   3.538   5.359
 4551SOL    HW114552   0.938   3.450   5.329
 4551SOL    HW214553   0.816   3.558   5.310
 4552SOL     OW14554   5.672   2.366   2.084
 4552SOL    HW114555   5.613   2.439   2.049
 4552SOL    HW214556   5.747   2.350   2.020
 4553SOL     OW14557   5.164   4.495   6.723
 4553SOL    HW114558   5.247   4.488   6.667
 4553SOL    HW214559   5.189   4.498   6.820
 4554SOL     OW14560   0.466   6.775   1.185
 4554SOL    HW114561   0.498   6.726   1.266
 4554SOL    HW214562   0.379   6.735   1.155
 4555SOL     OW14563   1.058   1.211   6.607
 4555SOL    HW114564   1.149   1.168   6.610
 4555SOL    HW214565   1.067   1.306   6.576
 4556SOL     OW14566   6.038   3.254   5.646
 4556SOL    HW114567   5.974   3.182   5.619
 4556SOL    HW214568   6.089   3.286   5.566
 4557SOL     OW14569   5.682   5.213   4.692
 4557SOL    HW114570   5.759   5.153   4.670
 4557SOL    HW214571   5.679   5.290   4.629
 4558SOL     OW14572   6.522   3.421   5.156
 4558SOL    HW114573   6.559   3.485   5.224
 4558SOL    HW214574   6.504   3.470   5.071
 4559SOL     OW14575   0.730   3.436   2.653
 4559SOL    HW114576   0.633   3.425   2.634
 4559SOL    HW214577   0.777   3.349   2.642
 4560SOL     OW14578   5.914   4.469   2.452
 4560SOL    HW114579   5.903   4.432   2.360
 4560SOL    HW214580   5.878   4.404   2.519
 4561SOL     OW14581   3.179   1.750   4.134
 4561SOL    HW114582   3.143   1.830   4.086
 4561SOL    HW214583   3.225   1.778   4.218
 4562SOL     OW14584   1.965   6.570   0.124
 4562SOL    HW114585   1.944   6.512   0.046
 4562SOL    HW214586   2.047   6.624   0.105
 4563SOL     OW14587   6.971   3.425   1.459
 4563SOL    HW114588   6.972   3.330   1.490
 4563SOL    HW214589   0.030   3.470   1.488
 4564SOL     OW14590   0.094   4.758   2.350
 4564SOL    HW114591   0.083   4.667   2.390
 4564SOL    HW214592   0.191   4.776   2.333
 4565SOL     OW14593   1.544   1.465   4.836
 4565SOL    HW114594   1.614   1.404   4.872
 4565SOL    HW214595   1.575   1.506   4.751
 4566SOL     OW14596   0.382   3.790   1.354
 4566SOL    HW114597   0.322   3.815   1.430
 4566SOL    HW214598   0.391   3.691   1.350
 4567SOL     OW14599   6.980   0.327   0.188
 4567SOL    HW114600   6.987   0.341   0.089
 4567SOL    HW214601   6.888   0.297   0.211
 4568SOL     OW14602   0.818   4.403   5.019
 4568SOL    HW114603   0.774   4.421   4.931
 4568SOL    HW214604   0.851   4.488   5.059
 4569SOL     OW14605   2.996   0.693   2.639
 4569SOL    HW114606   2.930   0.728   2.573
 4569SOL    HW214607   2.997   0.593   2.636
 4570SOL     OW14608   6.028   6.770   2.374
 4570SOL    HW114609   6.088   6.816   2.440
 4570SOL    HW214610   6.069   6.776   2.283
 4571SOL     OW14611   4.411   2.981   6.852
 4571SOL    HW114612   4.321   3.002   6.813
 4571SOL    HW214613   4.448   2.900   6.807
 4572SOL     OW14614   2.211   1.869   6.422
 4572SOL    HW114615   2.222   1.934   6.498
 4572SOL    HW214616   2.217   1.776   6.458
 4573SOL     OW14617   0.848   0.269   0.602
 4573SOL    HW114618   0.886   0.313   0.684
 4573SOL    HW214619   0.878   0.173   0.599
 4574SOL     OW14620   5.955   4.505   6.754
 4574SOL    HW114621   5.877   4.450   6.724
 4574SOL    HW214622   6.004   4.456   6.827
 4575SOL     OW14623   6.037   0.736   4.579
 4575SOL    HW114624   5.954   0.705   4.627
 4575SOL    HW214625   6.110   0.752   4.645
 4576SOL     OW14626   2.590   4.930   5.234
 4576SOL    HW114627   2.643   4.846   5.244
 4576SOL    HW214628   2.545   4.932   5.145
 4577SOL     OW14629   1.157   2.329   3.016
 4577SOL    HW114630   1.124   2.317   2.922
 4577SOL    HW214631   1.254   2.354   3.015
 4578SOL     OW14632   0.670   0.707   3.911
 4578SOL    HW114633   0.607   0.673   3.840
 4578SOL    HW214634   0.759   0.727   3.871
 4579SOL     OW14635   5.172   1.096   1.388
 4579SOL    HW114636   5.186   1.183   1.340
 4579SOL    HW214637   5.167   1.021   1.322
 4580SOL     OW14638   5.689   4.431   0.732
 4580SOL    HW114639   5.651   4.346   0.697
 4580SOL    HW214640   5.775   4.451   0.684
 4581SOL     OW14641   3.061   6.401   2.178
 4581SOL    HW114642   3.056   6.328   2.246
 4581SOL    HW214643   3.031   6.366   2.089
 4582SOL     OW14644   4.556   0.636   3.054
 4582SOL    HW114645   4.505   0.689   3.122
 4582SOL    HW214646   4.501   0.627   2.971
 4583SOL     OW14647   2.134   1.062   6.617
 4583SOL    HW114648   2.087   0.985   6.575
 4583SOL    HW214649   2.081   1.097   6.694
 4584SOL     OW14650   1.884   6.545   5.857
 4584SOL    HW114651   1.845   6.636   5.845
 4584SOL    HW214652   1.820   6.476   5.822
 4585SOL     OW14653   1.888   4.029   3.403
 4585SOL    HW114654   1.847   4.035   3.312
 4585SOL    HW214655   1.816   4.012   3.471
 4586SOL     OW14656   5.207   3.818   0.668
 4586SOL    HW114657   5.180   3.817   0.571
 4586SOL    HW214658   5.132   3.856   0.722
 4587SOL     OW14659   3.472   3.347   4.571
 4587SOL    HW114660   3.420   3.428   4.599
 4587SOL    HW214661   3.554   3.375   4.523
 4588SOL     OW14662   3.151   3.437   5.439
 4588SOL    HW114663   3.244   3.465   5.415
 4588SOL    HW214664   3.138   3.444   5.537
 4589SOL     OW14665   5.720   6.032   1.949
 4589SOL    HW114666   5.786   5.963   1.919
 4589SOL    HW214667   5.672   6.069   1.869
 4590SOL     OW14668   3.526   6.413   1.388
 4590SOL    HW114669   3.547   6.358   1.469
 4590SOL    HW214670   3.504   6.353   1.312
 4591SOL     OW14671   1.763   0.898   4.739
 4591SOL    HW114672   1.768   0.902   4.839
 4591SOL    HW214673   1.806   0.978   4.699
 4592SOL     OW14674   2.552   2.237   3.742
 4592SOL    HW114675   2.501   2.175   3.683
 4592SOL    HW214676   2.589   2.187   3.820
 4593SOL     OW14677   6.456   5.632   2.887
 4593SOL    HW114678   6.530   5.602   2.826
 4593SOL    HW214679   6.493   5.696   2.955
 4594SOL     OW14680   3.010   0.043   2.969
 4594SOL    HW114681   3.044   0.037   3.063
 4594SOL    HW214682   3.084   0.023   2.905
 4595SOL     OW14683   5.098   2.671   5.621
 4595SOL    HW114684   5.034   2.703   5.551
 4595SOL    HW214685   5.190   2.666   5.582
 4596SOL     OW14686   0.092   0.965   2.273
 4596SOL    HW114687   0.175   0.985   2.326
 4596SOL    HW214688   0.107   0.884   2.217
 4597SOL     OW14689   2.740   5.407   6.986
 4597SOL    HW114690   2.645   5.428   6.961
 4597SOL    HW214691   2.794   5.491   6.987
 4598SOL     OW14692   1.912   5.406   0.860
 4598SOL    HW114693   1.976   5.346   0.910
 4598SOL    HW214694   1.927   5.501   0.887
 4599SOL     OW14695   1.846   3.659   2.074
 4599SOL    HW114696   1.831   3.591   2.003
 4599SOL    HW214697   1.869   3.747   2.032
 4600SOL     OW14698   0.374   6.917   6.046
 4600SOL    HW114699   0.467   6.906   6.013
 4600SOL    HW214700   0.368   7.000   6.102
 4601SOL     OW14701   0.668   1.271   5.063
 4601SOL    HW114702   0.737   1.256   5.133
 4601SOL    HW214703   0.710   1.314   4.983
 4602SOL     OW14704   3.129   0.136   6.298
 4602SOL    HW114705   3.051   0.179   6.343
 4602SOL    HW214706   3.137   0.041   6.326
 4603SOL     OW14707   3.665   6.007   0.917
 4603SOL    HW114708   3.656   5.932   0.982
 4603SOL    HW214709   3.615   5.985   0.833
 4604SOL     OW14710   4.939   6.910   5.883
 4604SOL    HW114711   4.922   6.876   5.976
 4604SOL    HW214712   4.931   6.834   5.819
 4605SOL     OW14713   2.320   0.060   1.777
 4605SOL    HW114714   2.276   0.007   1.849
 4605SOL    HW214715   2.344   7.024   1.701
 4606SOL     OW14716   6.942   6.897   2.358
 4606SOL    HW114717   6.968   6.956   2.434
 4606SOL    HW214718   7.023   6.850   2.323
 4607SOL     OW14719   2.180   3.611   3.148
 4607SOL    HW114720   2.150   3.706   3.156
 4607SOL    HW214721   2.118   3.562   3.086
 4608SOL     OW14722   0.277   3.330   3.861
 4608SOL    HW114723   0.336   3.388   3.918
 4608SOL    HW214724   0.183   3.335   3.895
 4609SOL     OW14725   4.960   5.489   6.824
 4609SOL    HW114726   4.892   5.417   6.806
 4609SOL    HW214727   5.039   5.448   6.870
 4610SOL     OW14728   4.911   1.849   6.588
 4610SOL    HW114729   4.813   1.834   6.574
 4610SOL    HW214730   4.944   1.917   6.523
 4611SOL     OW14731   0.260   0.885   5.941
 4611SOL    HW114732   0.164   0.857   5.951
 4611SOL    HW214733   0.301   0.834   5.865
 4612SOL     OW14734   2.233   6.369   1.831
 4612SOL    HW114735   2.160   6.406   1.888
 4612SOL    HW214736   2.208   6.277   1.800
 4613SOL     OW14737   1.533   5.363   2.554
 4613SOL    HW114738   1.616   5.386   2.606
 4613SOL    HW214739   1.517   5.264   2.560
 4614SOL     OW14740   6.218   3.077   3.914
 4614SOL    HW114741   6.242   3.142   3.987
 4614SOL    HW214742   6.238   3.118   3.825
 4615SOL     OW14743   1.133   0.668   1.349
 4615SOL    HW114744   1.136   0.640   1.253
 4615SOL    HW214745   1.111   0.589   1.406
 4616SOL     OW14746   6.272   2.286   4.672
 4616SOL    HW114747   6.252   2.222   4.746
 4616SOL    HW214748   6.281   2.378   4.710
 4617SOL     OW14749   1.410   2.170   2.386
 4617SOL    HW114750   1.361   2.256   2.401
 4617SOL    HW214751   1.465   2.177   2.303
 4618SOL     OW14752   2.677   3.602   5.330
 4618SOL    HW114753   2.746   3.535   5.356
 4618SOL    HW214754   2.721   3.684   5.295
 4619SOL     OW14755   2.914   6.614   3.556
 4619SOL    HW114756   2.892   6.709   3.535
 4619SOL    HW214757   2.868   6.587   3.640
 4620SOL     OW14758   0.392   5.134   1.264
 4620SOL    HW114759   0.463   5.172   1.205
 4620SOL    HW214760   0.422   5.135   1.359
 4621SOL     OW14761   5.167   0.467   1.996
 4621SOL    HW114762   5.082   0.511   1.965
 4621SOL    HW214763   5.200   0.513   2.078
 4622SOL     OW14764   4.456   4.609   1.207
 4622SOL    HW114765   4.492   4.698   1.180
 4622SOL    HW214766   4.374   4.588   1.154
 4623SOL     OW14767   4.330   5.718   0.818
 4623SOL    HW114768   4.357   5.729   0.914
 4623SOL    HW214769   4.283   5.801   0.787
 4624SOL     OW14770   3.673   1.406   3.256
 4624SOL    HW114771   3.581   1.393   3.293
 4624SOL    HW214772   3.739   1.410   3.331
 4625SOL     OW14773   2.541   6.061   1.486
 4625SOL    HW114774   2.599   6.115   1.425
 4625SOL    HW214775   2.447   6.066   1.455
 4626SOL     OW14776   4.108   3.760   1.839
 4626SOL    HW114777   4.073   3.805   1.757
 4626SOL    HW214778   4.186   3.703   1.815
 4627SOL     OW14779   0.204   6.021   4.936
 4627SOL    HW114780   0.178   6.048   5.029
 4627SOL    HW214781   0.149   6.071   4.870
 4628SOL     OW14782   4.855   4.814   3.309
 4628SOL    HW114783   4.865   4.718   3.283
 4628SOL    HW214784   4.772   4.852   3.269
 4629SOL     OW14785   2.771   5.166   6.104
 4629SOL    HW114786   2.773   5.264   6.083
 4629SOL    HW214787   2.742   5.154   6.199
 4630SOL     OW14788   1.836   5.649   2.782
 4630SOL    HW114789   1.899   5.667   2.858
 4630SOL    HW214790   1.866   5.700   2.701
 4631SOL     OW14791   1.057   6.875   3.526
 4631SOL    HW114792   1.121   6.817   3.476
 4631SOL    HW214793   0.973   6.823   3.544
 4632SOL     OW14794   2.555   5.559   2.773
 4632SOL    HW114795   2.596   5.519   2.855
 4632SOL    HW214796   2.595   5.516   2.692
 4633SOL     OW14797   5.080   1.399   4.185
 4633SOL    HW114798   5.002   1.462   4.190
 4633SOL    HW214799   5.151   1.438   4.127
 4634SOL     OW14800   2.995   3.741   4.788
 4634SOL    HW114801   2.951   3.814   4.841
 4634SOL    HW214802   3.029   3.670   4.850
 4635SOL     OW14803   4.143   4.626   1.204
 4635SOL    HW114804   4.183   4.547   1.250
 4635SOL    HW214805   4.094   4.595   1.122
 4636SOL     OW14806   1.766   4.844   1.121
 4636SOL    HW114807   1.767   4.843   1.021
 4636SOL    HW214808   1.843   4.898   1.155
 4637SOL     OW14809   1.056   6.636   0.160
 4637SOL    HW114810   0.999   6.717   0.171
 4637SOL    HW214811   1.071   6.618   0.062
 4638SOL     OW14812   3.573   5.257   6.834
 4638SOL    HW114813   3.660   5.306   6.826
 4638SOL    HW214814   3.560   5.198   6.754
 4639SOL     OW14815   2.757   2.568   6.370
 4639SOL    HW114816   2.666   2.595   6.402
 4639SOL    HW214817   2.749   2.483   6.317
 4640SOL     OW14818   6.236   2.568   4.677
 4640SOL    HW114819   6.209   2.610   4.763
 4640SOL    HW214820   6.191   2.614   4.601
 4641SOL     OW14821   1.951   6.832   3.579
 4641SOL    HW114822   1.930   6.738   3.553
 4641SOL    HW214823   1.874   6.872   3.629
 4642SOL     OW14824   1.716   0.748   3.427
 4642SOL    HW114825   1.786   0.721   3.361
 4642SOL    HW214826   1.760   0.793   3.505
 4643SOL     OW14827   6.390   2.282   0.449
 4643SOL    HW114828   6.387   2.368   0.499
 4643SOL    HW214829   6.481   2.241   0.457
 4644SOL     OW14830   6.701   0.852   5.600
 4644SOL    HW114831   6.601   0.850   5.603
 4644SOL    HW214832   6.734   0.923   5.662
 4645SOL     OW14833   1.445   0.765   4.342
 4645SOL    HW114834   1.439   0.727   4.434
 4645SOL    HW214835   1.464   0.692   4.277
 4646SOL     OW14836   2.461   4.892   4.670
 4646SOL    HW114837   2.529   4.821   4.687
 4646SOL    HW214838   2.389   4.856   4.611
 4647SOL     OW14839   1.553   0.552   3.216
 4647SOL    HW114840   1.489   0.498   3.271
 4647SOL    HW214841   1.537   0.649   3.231
 4648SOL     OW14842   2.602   0.749   4.301
 4648SOL    HW114843   2.586   0.714   4.209
 4648SOL    HW214844   2.549   0.832   4.315
 4649SOL     OW14845   5.492   0.890   1.110
 4649SOL    HW114846   5.414   0.896   1.048
 4649SOL    HW214847   5.575   0.923   1.064
 4650SOL     OW14848   4.419   5.986   1.549
 4650SOL    HW114849   4.369   5.943   1.625
 4650SOL    HW214850   4.505   6.025   1.583
 4651SOL     OW14851   6.150   3.762   6.726
 4651SOL    HW114852   6.075   3.734   6.666
 4651SOL    HW214853   6.195   3.843   6.688
 4652SOL     OW14854   6.462   6.173   4.428
 4652SOL    HW114855   6.472   6.077   4.404
 4652SOL    HW214856   6.540   6.203   4.483
 4653SOL     OW14857   4.957   5.318   0.379
 4653SOL    HW114858   5.052   5.346   0.372
 4653SOL    HW214859   4.927   5.278   0.292
 4654SOL     OW14860   6.966   6.842   5.497
 4654SOL    HW114861   0.012   6.794   5.549
 4654SOL    HW214862   6.894   6.778   5.470
 4655SOL     OW14863   4.837   3.671   1.909
 4655SOL    HW114864   4.843   3.737   1.834
 4655SOL    HW214865   4.841   3.578   1.872
 4656SOL     OW14866   0.849   0.421   1.619
 4656SOL    HW114867   0.778   0.489   1.604
 4656SOL    HW214868   0.938   0.460   1.595
 4657SOL     OW14869   5.962   5.963   1.625
 4657SOL    HW114870   5.902   5.938   1.549
 4657SOL    HW214871   5.956   5.893   1.696
 4658SOL     OW14872   3.005   2.905   5.415
 4658SOL    HW114873   3.012   2.819   5.465
 4658SOL    HW214874   2.910   2.923   5.391
 4659SOL     OW14875   3.465   4.396   1.367
 4659SOL    HW114876   3.502   4.404   1.460
 4659SOL    HW214877   3.476   4.302   1.335
 4660SOL     OW14878   1.518   0.052   4.084
 4660SOL    HW114879   1.468   7.024   4.152
 4660SOL    HW214880   1.475   0.041   3.994
 4661SOL     OW14881   2.642   4.935   5.694
 4661SOL    HW114882   2.568   4.869   5.685
 4661SOL    HW214883   2.682   4.953   5.603
 4662SOL     OW14884   2.914   0.242   4.858
 4662SOL    HW114885   2.898   0.145   4.838
 4662SOL    HW214886   2.827   0.291   4.859
 4663SOL     OW14887   0.705   6.801   0.023
 4663SOL    HW114888   0.790   6.832   0.067
 4663SOL    HW214889   0.641   6.878   0.018
 4664SOL     OW14890   6.861   0.290   0.919
 4664SOL    HW114891   6.932   0.296   0.989
 4664SOL    HW214892   6.825   0.197   0.916
 4665SOL     OW14893   2.279   0.757   6.297
 4665SOL    HW114894   2.278   0.843   6.247
 4665SOL    HW214895   2.343   0.693   6.254
 4666SOL     OW14896   1.967   2.002   6.409
 4666SOL    HW114897   2.003   2.091   6.382
 4666SOL    HW214898   2.040   1.934   6.408
 4667SOL     OW14899   6.706   4.113   2.293
 4667SOL    HW114900   6.766   4.190   2.316
 4667SOL    HW214901   6.751   4.027   2.318
 4668SOL     OW14902   4.170   1.952   4.814
 4668SOL    HW114903   4.237   1.920   4.882
 4668SOL    HW214904   4.164   1.886   4.739
 4669SOL     OW14905   5.400   6.919   0.194
 4669SOL    HW114906   5.315   6.944   0.240
 4669SOL    HW214907   5.468   6.991   0.209
 4670SOL     OW14908   1.074   3.106   0.175
 4670SOL    HW114909   1.117   3.144   0.256
 4670SOL    HW214910   1.123   3.137   0.093
 4671SOL     OW14911   0.349   3.383   0.286
 4671SOL    HW114912   0.384   3.449   0.219
 4671SOL    HW214913   0.422   3.358   0.349
 4672SOL     OW14914   4.504   4.575   6.008
 4672SOL    HW114915   4.556   4.492   5.985
 4672SOL    HW214916   4.481   4.574   6.105
 4673SOL     OW14917   5.337   0.370   0.032
 4673SOL    HW114918   5.295   0.324   6.979
 4673SOL    HW214919   5.303   0.331   0.117
 4674SOL     OW14920   6.112   1.553   0.353
 4674SOL    HW114921   6.173   1.479   0.382
 4674SOL    HW214922   6.097   1.548   0.255
 4675SOL     OW14923   3.874   0.247   6.672
 4675SOL    HW114924   3.825   0.162   6.651
 4675SOL    HW214925   3.899   0.249   6.768
 4676SOL     OW14926   0.798   6.740   4.324
 4676SOL    HW114927   0.802   6.767   4.421
 4676SOL    HW214928   0.738   6.661   4.315
 4677SOL     OW14929   3.091   0.595   6.835
 4677SOL    HW114930   3.023   0.667   6.822
 4677SOL    HW214931   3.046   0.506   6.832
 4678SOL     OW14932   1.955   5.301   2.282
 4678SOL    HW114933   2.009   5.335   2.359
 4678SOL    HW214934   1.934   5.377   2.220
 4679SOL     OW14935   3.032   1.509   6.313
 4679SOL    HW114936   3.004   1.460   6.395
 4679SOL    HW214937   3.129   1.534   6.321
 4680SOL     OW14938   2.181   6.062   0.949
 4680SOL    HW114939   2.280   6.049   0.947
 4680SOL    HW214940   2.160   6.150   0.992
 4681SOL     OW14941   6.434   6.303   4.068
 4681SOL    HW114942   6.493   6.221   4.072
 4681SOL    HW214943   6.412   6.332   4.160
 4682SOL     OW14944   4.516   5.483   0.085
 4682SOL    HW114945   4.450   5.558   0.092
 4682SOL    HW214946   4.497   5.415   0.155
 4683SOL     OW14947   5.771   4.581   2.643
 4683SOL    HW114948   5.705   4.507   2.655
 4683SOL    HW214949   5.830   4.561   2.565
 4684SOL     OW14950   0.538   2.095   4.700
 4684SOL    HW114951   0.454   2.150   4.699
 4684SOL    HW214952   0.515   1.998   4.690
 4685SOL     OW14953   6.653   5.591   4.543
 4685SOL    HW114954   6.663   5.505   4.492
 4685SOL    HW214955   6.563   5.595   4.584
 4686SOL     OW14956   5.213   5.409   0.399
 4686SOL    HW114957   5.271   5.327   0.393
 4686SOL    HW214958   5.176   5.417   0.492
 4687SOL     OW14959   6.428   4.107   4.939
 4687SOL    HW114960   6.428   4.195   4.890
 4687SOL    HW214961   6.487   4.115   5.019
 4688SOL     OW14962   0.432   3.080   6.345
 4688SOL    HW114963   0.496   3.157   6.345
 4688SOL    HW214964   0.345   3.108   6.386
 4689SOL     OW14965   6.135   0.556   6.037
 4689SOL    HW114966   6.194   0.627   5.997
 4689SOL    HW214967   6.191   0.491   6.088
 4690SOL     OW14968   1.149   0.906   6.866
 4690SOL    HW114969   1.056   0.942   6.860
 4690SOL    HW214970   1.202   0.940   6.788
 4691SOL     OW14971   2.707   3.915   1.488
 4691SOL    HW114972   2.649   3.855   1.433
 4691SOL    HW214973   2.650   3.987   1.530
 4692SOL     OW14974   0.037   4.956   2.717
 4692SOL    HW114975   0.060   4.944   2.814
 4692SOL    HW214976   6.963   4.945   2.705
 4693SOL     OW14977   0.134   1.183   4.840
 4693SOL    HW114978   0.222   1.189   4.888
 4693SOL    HW214979   0.063   1.153   4.904
 4694SOL     OW14980   3.126   0.563   0.084
 4694SOL    HW114981   3.080   0.474   0.086
 4694SOL    HW214982   3.118   0.603   7.018
 4695SOL     OW14983   3.703   3.330   1.590
 4695SOL    HW114984   3.652   3.301   1.671
 4695SOL    HW214985   3.788   3.375   1.618
 4696SOL     OW14986   1.245   4.223   5.822
 4696SOL    HW114987   1.341   4.199   5.804
 4696SOL    HW214988   1.196   4.141   5.852
 4697SOL     OW14989   1.557   3.617   0.791
 4697SOL    HW114990   1.578   3.701   0.840
 4697SOL    HW214991   1.502   3.638   0.710
 4698SOL     OW14992   4.796   4.640   2.448
 4698SOL    HW114993   4.841   4.620   2.535
 4698SOL    HW214994   4.706   4.681   2.466
 4699SOL     OW14995   0.539   6.467   2.202
 4699SOL    HW114996   0.552   6.523   2.120
 4699SOL    HW214997   0.546   6.371   2.178
 4700SOL     OW14998   5.544   1.567   1.657
 4700SOL    HW114999   5.500   1.656   1.643
 4700SOL    HW215000   5.479   1.503   1.695
 4701SOL     OW15001   0.947   1.433   6.919
 4701SOL    HW115002   0.889   1.385   6.853
 4701SOL    HW215003   1.041   1.398   6.913
 4702SOL     OW15004   4.536   4.143   6.064
 4702SOL    HW115005   4.550   4.082   6.142
 4702SOL    HW215006   4.585   4.229   6.078
 4703SOL     OW15007   0.928   2.142   2.754
 4703SOL    HW115008   0.870   2.211   2.711
 4703SOL    HW215009   1.023   2.173   2.753
 4704SOL     OW15010   0.184   5.739   1.017
 4704SOL    HW115011   0.186   5.824   1.070
 4704SOL    HW215012   0.255   5.678   1.050
 4705SOL     OW15013   3.184   3.025   3.590
 4705SOL    HW115014   3.093   3.030   3.548
 4705SOL    HW215015   3.195   3.101   3.654
 4706SOL     OW15016   3.916   5.649   6.569
 4706SOL    HW115017   3.867   5.735   6.557
 4706SOL    HW215018   3.872   5.595   6.640
 4707SOL     OW15019   2.169   5.613   0.865
 4707SOL    HW115020   2.169   5.625   0.765
 4707SOL    HW215021   2.076   5.624   0.900
 4708SOL     OW15022   2.632   2.709   0.571
 4708SOL    HW115023   2.681   2.704   0.657
 4708SOL    HW215024   2.550   2.766   0.582
 4709SOL     OW15025   3.955   5.097   4.918
 4709SOL    HW115026   4.006   5.143   4.990
 4709SOL    HW215027   3.857   5.101   4.938
 4710SOL     OW15028   4.462   1.220   6.227
 4710SOL    HW115029   4.491   1.316   6.232
 4710SOL    HW215030   4.538   1.162   6.256
 4711SOL     OW15031   4.253   0.150   2.464
 4711SOL    HW115032   4.327   0.186   2.521
 4711SOL    HW215033   4.203   0.080   2.515
 4712SOL     OW15034   2.270   4.615   0.967
 4712SOL    HW115035   2.283   4.523   0.929
 4712SOL    HW215036   2.359   4.653   0.993
 4713SOL     OW15037   3.295   4.592   1.358
 4713SOL    HW115038   3.198   4.587   1.379
 4713SOL    HW215039   3.332   4.500   1.345
 4714SOL     OW15040   2.064   2.110   0.242
 4714SOL    HW115041   2.140   2.065   0.196
 4714SOL    HW215042   2.000   2.146   0.173
 4715SOL     OW15043   6.324   3.563   2.612
 4715SOL    HW115044   6.348   3.644   2.559
 4715SOL    HW215045   6.256   3.586   2.681
 4716SOL     OW15046   3.798   4.856   6.391
 4716SOL    HW115047   3.769   4.786   6.456
 4716SOL    HW215048   3.828   4.812   6.306
 4717SOL     OW15049   1.049   5.956   2.035
 4717SOL    HW115050   0.988   5.879   2.016
 4717SOL    HW215051   1.121   5.959   1.966
 4718SOL     OW15052   5.315   1.885   6.388
 4718SOL    HW115053   5.308   1.969   6.443
 4718SOL    HW215054   5.258   1.894   6.307
 4719SOL     OW15055   4.954   3.474   2.800
 4719SOL    HW115056   4.902   3.558   2.814
 4719SOL    HW215057   5.022   3.465   2.873
 4720SOL     OW15058   2.249   6.677   5.410
 4720SOL    HW115059   2.203   6.765   5.422
 4720SOL    HW215060   2.237   6.621   5.492
 4721SOL     OW15061   0.804   2.320   1.881
 4721SOL    HW115062   0.710   2.289   1.896
 4721SOL    HW215063   0.804   2.418   1.862
 4722SOL     OW15064   1.676   6.168   6.762
 4722SOL    HW115065   1.706   6.074   6.742
 4722SOL    HW215066   1.730   6.205   6.837
 4723SOL     OW15067   2.017   5.846   6.011
 4723SOL    HW115068   2.074   5.795   5.947
 4723SOL    HW215069   2.022   5.804   6.101
 4724SOL     OW15070   4.165   6.353   2.745
 4724SOL    HW115071   4.122   6.310   2.666
 4724SOL    HW215072   4.183   6.284   2.815
 4725SOL     OW15073   5.162   6.315   3.036
 4725SOL    HW115074   5.176   6.414   3.044
 4725SOL    HW215075   5.109   6.283   3.114
 4726SOL     OW15076   0.711   3.474   6.917
 4726SOL    HW115077   0.649   3.545   6.885
 4726SOL    HW215078   0.697   3.458   7.015
 4727SOL     OW15079   7.004   5.759   6.998
 4727SOL    HW115080   6.932   5.765   6.929
 4727SOL    HW215081   0.033   5.676   6.983
 4728SOL     OW15082   5.158   1.505   0.920
 4728SOL    HW115083   5.098   1.578   0.889
 4728SOL    HW215084   5.251   1.523   0.888
 4729SOL     OW15085   1.878   1.073   3.065
 4729SOL    HW115086   1.891   1.170   3.048
 4729SOL    HW215087   1.791   1.059   3.113
 4730SOL     OW15088   2.325   6.224   5.878
 4730SOL    HW115089   2.420   6.202   5.900
 4730SOL    HW215090   2.319   6.247   5.781
 4731SOL     OW15091   5.556   0.155   5.627
 4731SOL    HW115092   5.640   0.166   5.680
 4731SOL    HW215093   5.478   0.182   5.684
 4732SOL     OW15094   0.026   3.321   6.754
 4732SOL    HW115095   0.038   3.245   6.817
 4732SOL    HW215096   6.954   3.350   6.755
 4733SOL     OW15097   1.040   3.813   3.630
 4733SOL    HW115098   1.076   3.861   3.710
 4733SOL    HW215099   1.114   3.798   3.564
 4734SOL     OW15100   5.489   2.666   6.738
 4734SOL    HW115101   5.453   2.632   6.825
 4734SOL    HW215102   5.578   2.624   6.720
 4735SOL     OW15103   1.291   5.117   3.380
 4735SOL    HW115104   1.330   5.204   3.411
 4735SOL    HW215105   1.275   5.058   3.458
 4736SOL     OW15106   0.203   1.289   6.618
 4736SOL    HW115107   0.160   1.285   6.708
 4736SOL    HW215108   0.214   1.196   6.582
 4737SOL     OW15109   2.256   4.843   2.377
 4737SOL    HW115110   2.352   4.823   2.396
 4737SOL    HW215111   2.204   4.844   2.462
 4738SOL     OW15112   6.790   6.200   1.759
 4738SOL    HW115113   6.817   6.276   1.817
 4738SOL    HW215114   6.860   6.186   1.688
 4739SOL     OW15115   4.621   0.497   2.170
 4739SOL    HW115116   4.585   0.412   2.208
 4739SOL    HW215117   4.563   0.527   2.095
 4740SOL     OW15118   0.629   1.197   2.535
 4740SOL    HW115119   0.693   1.120   2.529
 4740SOL    HW215120   0.672   1.279   2.499
 4741SOL     OW15121   3.755   2.359   1.229
 4741SOL    HW115122   3.831   2.423   1.238
 4741SOL    HW215123   3.765   2.285   1.296
 4742SOL     OW15124   2.285   6.798   6.993
 4742SOL    HW115125   2.193   6.835   7.011
 4742SOL    HW215126   2.282   6.698   6.996
 4743SOL     OW15127   1.685   3.771   2.506
 4743SOL    HW115128   1.667   3.721   2.422
 4743SOL    HW215129   1.778   3.806   2.506
 4744SOL     OW15130   2.227   5.580   0.612
 4744SOL    HW115131   2.265   5.488   0.606
 4744SOL    HW215132   2.130   5.579   0.585
 4745SOL     OW15133   3.090   3.522   0.325
 4745SOL    HW115134   3.153   3.449   0.351
 4745SOL    HW215135   3.065   3.513   0.229
 4746SOL     OW15136   4.652   5.408   3.877
 4746SOL    HW115137   4.584   5.423   3.805
 4746SOL    HW215138   4.605   5.396   3.965
 4747SOL     OW15139   1.495   2.865   0.533
 4747SOL    HW115140   1.471   2.913   0.617
 4747SOL    HW215141   1.588   2.830   0.540
 4748SOL     OW15142   1.718   6.579   2.001
 4748SOL    HW115143   1.657   6.598   1.924
 4748SOL    HW215144   1.769   6.494   1.983
 4749SOL     OW15145   2.291   0.028   0.122
 4749SOL    HW115146   2.215   0.093   0.127
 4749SOL    HW215147   2.302   7.021   0.027
 4750SOL     OW15148   6.342   4.299   5.430
 4750SOL    HW115149   6.299   4.359   5.363
 4750SOL    HW215150   6.432   4.270   5.395
 4751SOL     OW15151   5.208   1.785   2.712
 4751SOL    HW115152   5.218   1.767   2.614
 4751SOL    HW215153   5.139   1.724   2.751
 4752SOL     OW15154   4.748   1.075   0.284
 4752SOL    HW115155   4.753   1.157   0.341
 4752SOL    HW215156   4.839   1.052   0.251
 4753SOL     OW15157   1.392   6.555   4.759
 4753SOL    HW115158   1.402   6.573   4.857
 4753SOL    HW215159   1.297   6.567   4.732
 4754SOL     OW15160   4.655   3.791   5.659
 4754SOL    HW115161   4.672   3.852   5.737
 4754SOL    HW215162   4.622   3.703   5.693
 4755SOL     OW15163   1.820   0.575   1.116
 4755SOL    HW115164   1.729   0.599   1.083
 4755SOL    HW215165   1.815   0.491   1.169
 4756SOL     OW15166   6.861   4.365   6.746
 4756SOL    HW115167   6.837   4.352   6.649
 4756SOL    HW215168   6.900   4.456   6.758
 4757SOL     OW15169   1.483   2.590   1.590
 4757SOL    HW115170   1.481   2.490   1.580
 4757SOL    HW215171   1.392   2.627   1.572
 4758SOL     OW15172   1.425   0.320   3.670
 4758SOL    HW115173   1.484   0.382   3.617
 4758SOL    HW215174   1.368   0.267   3.608
 4759SOL     OW15175   0.452   5.407   0.203
 4759SOL    HW115176   0.455   5.377   0.298
 4759SOL    HW215177   0.531   5.465   0.184
 4760SOL     OW15178   1.366   6.939   0.901
 4760SOL    HW115179   1.352   7.023   0.849
 4760SOL    HW215180   1.380   6.863   0.837
 4761SOL     OW15181   6.909   6.996   0.694
 4761SOL    HW115182   6.907   6.973   0.791
 4761SOL    HW215183   6.993   0.022   0.673
 4762SOL     OW15184   1.592   5.989   2.027
 4762SOL    HW115185   1.617   6.084   2.047
 4762SOL    HW215186   1.577   5.979   1.929
 4763SOL     OW15187   4.739   5.678   2.130
 4763SOL    HW115188   4.679   5.616   2.181
 4763SOL    HW215189   4.805   5.625   2.078
 4764SOL     OW15190   4.954   3.618   5.269
 4764SOL    HW115191   4.987   3.626   5.363
 4764SOL    HW215192   4.872   3.561   5.268
 4765SOL     OW15193   3.148   0.736   5.416
 4765SOL    HW115194   3.137   0.649   5.367
 4765SOL    HW215195   3.166   0.809   5.350
 4766SOL     OW15196   5.898   6.851   4.317
 4766SOL    HW115197   5.850   6.763   4.317
 4766SOL    HW215198   5.870   6.905   4.396
 4767SOL     OW15199   2.416   5.518   5.000
 4767SOL    HW115200   2.435   5.591   5.066
 4767SOL    HW215201   2.404   5.432   5.048
 4768SOL     OW15202   4.427   3.260   6.323
 4768SOL    HW115203   4.436   3.174   6.272
 4768SOL    HW215204   4.333   3.292   6.316
 4769SOL     OW15205   2.695   6.156   0.823
 4769SOL    HW115206   2.685   6.253   0.800
 4769SOL    HW215207   2.630   6.102   0.770
 4770SOL     OW15208   6.756   1.948   5.803
 4770SOL    HW115209   6.826   1.961   5.733
 4770SOL    HW215210   6.777   1.866   5.856
 4771SOL     OW15211   2.200   0.209   5.031
 4771SOL    HW115212   2.206   0.139   4.960
 4771SOL    HW215213   2.194   0.299   4.988
 4772SOL     OW15214   2.933   4.919   0.747
 4772SOL    HW115215   2.940   5.017   0.728
 4772SOL    HW215216   3.014   4.873   0.712
 4773SOL     OW15217   1.689   5.788   4.703
 4773SOL    HW115218   1.741   5.732   4.638
 4773SOL    HW215219   1.594   5.794   4.673
 4774SOL     OW15220   1.917   4.199   0.895
 4774SOL    HW115221   1.957   4.281   0.935
 4774SOL    HW215222   1.956   4.183   0.805
 4775SOL     OW15223   5.274   6.656   4.648
 4775SOL    HW115224   5.197   6.717   4.633
 4775SOL    HW215225   5.256   6.568   4.603
 4776SOL     OW15226   1.452   0.383   5.391
 4776SOL    HW115227   1.396   0.382   5.474
 4776SOL    HW215228   1.421   0.311   5.328
 4777SOL     OW15229   1.239   5.289   0.370
 4777SOL    HW115230   1.246   5.239   0.283
 4777SOL    HW215231   1.150   5.334   0.374
 4778SOL     OW15232   0.806   2.371   5.053
 4778SOL    HW115233   0.853   2.459   5.067
 4778SOL    HW215234   0.810   2.346   4.957
 4779SOL     OW15235   5.949   0.422   4.150
 4779SOL    HW115236   5.920   0.516   4.171
 4779SOL    HW215237   5.896   0.387   4.073
 4780SOL     OW15238   5.605   2.734   5.797
 4780SOL    HW115239   5.663   2.655   5.775
 4780SOL    HW215240   5.613   2.802   5.725
 4781SOL     OW15241   2.538   5.666   2.395
 4781SOL    HW115242   2.609   5.735   2.384
 4781SOL    HW215243   2.553   5.592   2.330
 4782SOL     OW15244   5.686   5.299   5.862
 4782SOL    HW115245   5.670   5.217   5.808
 4782SOL    HW215246   5.728   5.274   5.949
 4783SOL     OW15247   5.784   4.103   0.457
 4783SOL    HW115248   5.802   4.012   0.419
 4783SOL    HW215249   5.786   4.170   0.383
 4784SOL     OW15250   6.044   2.252   6.261
 4784SOL    HW115251   6.102   2.324   6.300
 4784SOL    HW215252   5.973   2.294   6.205
 4785SOL     OW15253   0.310   6.593   3.155
 4785SOL    HW115254   0.244   6.570   3.084
 4785SOL    HW215255   0.369   6.514   3.173
 4786SOL     OW15256   2.859   0.207   0.895
 4786SOL    HW115257   2.945   0.157   0.878
 4786SOL    HW215258   2.784   0.141   0.905
 4787SOL     OW15259   4.549   2.224   4.332
 4787SOL    HW115260   4.477   2.254   4.270
 4787SOL    HW215261   4.591   2.303   4.376
 4788SOL     OW15262   5.996   5.889   6.937
 4788SOL    HW115263   5.989   5.907   6.839
 4788SOL    HW215264   5.963   5.968   6.988
 4789SOL     OW15265   5.032   2.048   2.144
 4789SOL    HW115266   4.981   2.051   2.231
 4789SOL    HW215267   4.992   1.979   2.084
 4790SOL     OW15268   5.244   1.685   5.435
 4790SOL    HW115269   5.343   1.697   5.426
 4790SOL    HW215270   5.197   1.750   5.374
 4791SOL     OW15271   0.247   3.023   0.795
 4791SOL    HW115272   0.312   3.079   0.846
 4791SOL    HW215273   0.294   2.981   0.717
 4792SOL     OW15274   1.484   4.662   4.916
 4792SOL    HW115275   1.488   4.562   4.903
 4792SOL    HW215276   1.513   4.708   4.832
 4793SOL     OW15277   1.339   4.398   6.306
 4793SOL    HW115278   1.263   4.456   6.276
 4793SOL    HW215279   1.350   4.321   6.243
 4794SOL     OW15280   4.847   0.570   3.809
 4794SOL    HW115281   4.878   0.533   3.721
 4794SOL    HW215282   4.849   0.497   3.878
 4795SOL     OW15283   0.151   1.846   4.239
 4795SOL    HW115284   0.191   1.842   4.147
 4795SOL    HW215285   0.057   1.881   4.233
 4796SOL     OW15286   3.642   1.145   5.961
 4796SOL    HW115287   3.707   1.121   6.034
 4796SOL    HW215288   3.648   1.243   5.942
 4797SOL     OW15289   0.208   5.450   4.693
 4797SOL    HW115290   0.264   5.459   4.611
 4797SOL    HW215291   0.192   5.541   4.732
 4798SOL     OW15292   5.370   5.014   6.351
 4798SOL    HW115293   5.470   5.016   6.358
 4798SOL    HW215294   5.342   5.057   6.265
 4799SOL     OW15295   2.999   2.465   6.697
 4799SOL    HW115296   2.915   2.441   6.745
 4799SOL    HW215297   3.031   2.387   6.644
 4800SOL     OW15298   2.010   4.397   0.469
 4800SOL    HW115299   1.943   4.455   0.423
 4800SOL    HW215300   2.038   4.439   0.555
 4801SOL     OW15301   4.722   2.713   1.057
 4801SOL    HW115302   4.775   2.798   1.052
 4801SOL    HW215303   4.624   2.735   1.064
 4802SOL     OW15304   6.690   6.457   2.145
 4802SOL    HW115305   6.631   6.516   2.090
 4802SOL    HW215306   6.635   6.405   2.210
 4803SOL     OW15307   5.564   5.070   0.164
 4803SOL    HW115308   5.643   5.131   0.160
 4803SOL    HW215309   5.567   5.006   0.088
 4804SOL     OW15310   5.042   1.778   0.364
 4804SOL    HW115311   4.950   1.789   0.402
 4804SOL    HW215312   5.098   1.857   0.388
 4805SOL     OW15313   6.705   2.029   1.781
 4805SOL    HW115314   6.690   1.935   1.811
 4805SOL    HW215315   6.619   2.080   1.788
 4806SOL     OW15316   1.138   3.997   2.741
 4806SOL    HW115317   1.041   3.994   2.764
 4806SOL    HW215318   1.151   3.975   2.645
 4807SOL     OW15319   1.206   3.458   6.587
 4807SOL    HW115320   1.272   3.508   6.643
 4807SOL    HW215321   1.121   3.510   6.581
 4808SOL     OW15322   3.935   5.894   1.001
 4808SOL    HW115323   3.990   5.853   0.930
 4808SOL    HW215324   3.842   5.856   0.998
 4809SOL     OW15325   3.503   4.740   1.461
 4809SOL    HW115326   3.420   4.709   1.415
 4809SOL    HW215327   3.566   4.778   1.394
 4810SOL     OW15328   0.843   3.995   4.400
 4810SOL    HW115329   0.911   3.960   4.336
 4810SOL    HW215330   0.764   4.031   4.349
 4811SOL     OW15331   3.712   3.583   4.638
 4811SOL    HW115332   3.738   3.497   4.593
 4811SOL    HW215333   3.794   3.625   4.678
 4812SOL     OW15334   0.865   6.927   1.452
 4812SOL    HW115335   0.947   6.933   1.509
 4812SOL    HW215336   0.786   6.911   1.510
 4813SOL     OW15337   5.759   1.508   7.002
 4813SOL    HW115338   5.752   1.608   6.993
 4813SOL    HW215339   5.816   1.487   0.057
 4814SOL     OW15340   6.898   3.890   2.333
 4814SOL    HW115341   6.973   3.954   2.317
 4814SOL    HW215342   6.889   3.872   2.431
 4815SOL     OW15343   5.125   5.176   3.009
 4815SOL    HW115344   5.090   5.107   3.073
 4815SOL    HW215345   5.058   5.190   2.936
 4816SOL     OW15346   2.082   6.707   1.466
 4816SOL    HW115347   2.013   6.777   1.454
 4816SOL    HW215348   2.044   6.631   1.519
 4817SOL     OW15349   3.881   0.429   1.830
 4817SOL    HW115350   3.784   0.435   1.808
 4817SOL    HW215351   3.894   0.441   1.929
 4818SOL     OW15352   2.664   0.398   4.068
 4818SOL    HW115353   2.619   0.355   4.146
 4818SOL    HW215354   2.677   0.330   3.996
 4819SOL     OW15355   3.103   2.320   1.012
 4819SOL    HW115356   3.062   2.396   0.961
 4819SOL    HW215357   3.129   2.247   0.948
 4820SOL     OW15358   0.439   3.510   1.350
 4820SOL    HW115359   0.420   3.450   1.427
 4820SOL    HW215360   0.366   3.502   1.282
 4821SOL     OW15361   6.243   5.667   1.933
 4821SOL    HW115362   6.311   5.694   1.866
 4821SOL    HW215363   6.204   5.578   1.909
 4822SOL     OW15364   1.417   3.587   3.536
 4822SOL    HW115365   1.514   3.565   3.546
 4822SOL    HW215366   1.361   3.508   3.561
 4823SOL     OW15367   0.681   6.932   3.921
 4823SOL    HW115368   0.597   6.898   3.963
 4823SOL    HW215369   0.755   6.928   3.987
 4824SOL     OW15370   5.193   1.907   3.261
 4824SOL    HW115371   5.114   1.918   3.201
 4824SOL    HW215372   5.173   1.838   3.331
 4825SOL     OW15373   1.236   3.103   4.553
 4825SOL    HW115374   1.148   3.078   4.512
 4825SOL    HW215375   1.277   3.177   4.501
 4826SOL     OW15376   0.377   6.308   0.471
 4826SOL    HW115377   0.452   6.372   0.486
 4826SOL    HW215378   0.406   6.237   0.407
 4827SOL     OW15379   5.166   0.557   1.702
 4827SOL    HW115380   5.085   0.498   1.712
 4827SOL    HW215381   5.137   0.649   1.676
 4828SOL     OW15382   5.762   3.831   1.546
 4828SOL    HW115383   5.739   3.854   1.641
 4828SOL    HW215384   5.699   3.879   1.484
 4829SOL     OW15385   3.665   0.212   6.051
 4829SOL    HW115386   3.673   0.165   6.139
 4829SOL    HW215387   3.650   0.145   5.978
 4830SOL     OW15388   4.896   5.964   3.818
 4830SOL    HW115389   4.973   5.922   3.866
 4830SOL    HW215390   4.894   6.062   3.838
 4831SOL     OW15391   6.871   4.886   5.290
 4831SOL    HW115392   6.905   4.793   5.272
 4831SOL    HW215393   6.810   4.914   5.216
 4832SOL     OW15394   3.296   2.571   6.389
 4832SOL    HW115395   3.318   2.500   6.455
 4832SOL    HW215396   3.226   2.539   6.326
 4833SOL     OW15397   4.289   1.625   2.768
 4833SOL    HW115398   4.200   1.655   2.734
 4833SOL    HW215399   4.360   1.685   2.733
 4834SOL     OW15400   3.847   0.484   0.548
 4834SOL    HW115401   3.871   0.440   0.461
 4834SOL    HW215402   3.882   0.429   0.624
 4835SOL     OW15403   1.651   0.086   6.238
 4835SOL    HW115404   1.566   0.036   6.251
 4835SOL    HW215405   1.661   0.153   6.312
 4836SOL     OW15406   4.188   1.989   3.556
 4836SOL    HW115407   4.236   1.902   3.565
 4836SOL    HW215408   4.252   2.064   3.567
 4837SOL     OW15409   3.278   2.750   1.884
 4837SOL    HW115410   3.353   2.725   1.822
 4837SOL    HW215411   3.226   2.668   1.908
 4838SOL     OW15412   3.248   4.886   2.203
 4838SOL    HW115413   3.184   4.864   2.130
 4838SOL    HW215414   3.212   4.852   2.290
 4839SOL     OW15415   0.322   4.350   5.366
 4839SOL    HW115416   0.377   4.324   5.446
 4839SOL    HW215417   0.372   4.327   5.283
 4840SOL     OW15418   5.897   6.598   6.462
 4840SOL    HW115419   5.905   6.568   6.557
 4840SOL    HW215420   5.952   6.680   6.448
 4841SOL     OW15421   3.442   5.597   1.773
 4841SOL    HW115422   3.455   5.695   1.791
 4841SOL    HW215423   3.416   5.551   1.857
 4842SOL     OW15424   3.574   5.303   1.494
 4842SOL    HW115425   3.495   5.245   1.512
 4842SOL    HW215426   3.548   5.399   1.504
 4843SOL     OW15427   6.315   4.098   0.384
 4843SOL    HW115428   6.337   4.014   0.434
 4843SOL    HW215429   6.392   4.162   0.391
 4844SOL     OW15430   0.294   4.237   0.064
 4844SOL    HW115431   0.350   4.187   7.022
 4844SOL    HW215432   0.198   4.228   0.040
 4845SOL     OW15433   6.792   5.364   4.349
 4845SOL    HW115434   6.796   5.447   4.292
 4845SOL    HW215435   6.869   5.364   4.413
 4846SOL     OW15436   0.195   3.820   0.869
 4846SOL    HW115437   0.287   3.817   0.908
 4846SOL    HW215438   0.171   3.730   0.832
 4847SOL     OW15439   3.671   1.928   5.738
 4847SOL    HW115440   3.753   1.884   5.777
 4847SOL    HW215441   3.698   2.014   5.694
 4848SOL     OW15442   1.711   1.271   4.963
 4848SOL    HW115443   1.728   1.218   5.046
 4848SOL    HW215444   1.798   1.299   4.923
 4849SOL     OW15445   1.689   6.471   0.086
 4849SOL    HW115446   1.633   6.467   0.169
 4849SOL    HW215447   1.630   6.477   0.006
 4850SOL     OW15448   3.464   0.601   1.926
 4850SOL    HW115449   3.371   0.581   1.958
 4850SOL    HW215450   3.529   0.540   1.970
 4851SOL     OW15451   3.772   6.533   5.205
 4851SOL    HW115452   3.733   6.449   5.242
 4851SOL    HW215453   3.706   6.579   5.146
 4852SOL     OW15454   1.570   0.302   6.831
 4852SOL    HW115455   1.572   0.389   6.783
 4852SOL    HW215456   1.653   0.251   6.810
 4853SOL     OW15457   3.551   1.521   2.319
 4853SOL    HW115458   3.506   1.548   2.233
 4853SOL    HW215459   3.481   1.498   2.387
 4854SOL     OW15460   4.708   5.986   2.578
 4854SOL    HW115461   4.639   5.928   2.622
 4854SOL    HW215462   4.677   6.011   2.486
 4855SOL     OW15463   5.794   2.054   1.675
 4855SOL    HW115464   5.767   1.959   1.656
 4855SOL    HW215465   5.884   2.056   1.718
 4856SOL     OW15466   2.446   4.763   2.880
 4856SOL    HW115467   2.487   4.853   2.864
 4856SOL    HW215468   2.506   4.692   2.844
 4857SOL     OW15469   1.383   1.644   5.811
 4857SOL    HW115470   1.369   1.710   5.884
 4857SOL    HW215471   1.362   1.552   5.845
 4858SOL     OW15472   1.688   1.261   4.076
 4858SOL    HW115473   1.596   1.273   4.039
 4858SOL    HW215474   1.689   1.187   4.143
 4859SOL     OW15475   1.204   6.057   4.193
 4859SOL    HW115476   1.201   6.150   4.158
 4859SOL    HW215477   1.300   6.030   4.208
 4860SOL     OW15478   3.792   5.580   2.289
 4860SOL    HW115479   3.855   5.502   2.296
 4860SOL    HW215480   3.715   5.555   2.230
 4861SOL     OW15481   5.441   5.226   0.413
 4861SOL    HW115482   5.533   5.254   0.439
 4861SOL    HW215483   5.429   5.128   0.431
 4862SOL     OW15484   2.132   4.987   4.098
 4862SOL    HW115485   2.138   4.888   4.116
 4862SOL    HW215486   2.186   5.036   4.165
 4863SOL     OW15487   5.573   4.872   0.419
 4863SOL    HW115488   5.484   4.911   0.443
 4863SOL    HW215489   5.613   4.925   0.344
 4864SOL     OW15490   3.463   1.409   4.158
 4864SOL    HW115491   3.530   1.354   4.109
 4864SOL    HW215492   3.509   1.483   4.207
 4865SOL     OW15493   2.114   0.403   4.869
 4865SOL    HW115494   2.014   0.403   4.870
 4865SOL    HW215495   2.146   0.498   4.867
 4866SOL     OW15496   6.705   4.077   1.197
 4866SOL    HW115497   6.707   4.175   1.177
 4866SOL    HW215498   6.650   4.061   1.279
 4867SOL     OW15499   4.527   5.582   2.232
 4867SOL    HW115500   4.433   5.575   2.200
 4867SOL    HW215501   4.528   5.608   2.329
 4868SOL     OW15502   6.620   4.726   2.385
 4868SOL    HW115503   6.527   4.752   2.361
 4868SOL    HW215504   6.627   4.626   2.387
 4869SOL     OW15505   1.278   1.543   0.777
 4869SOL    HW115506   1.252   1.520   0.870
 4869SOL    HW215507   1.235   1.478   0.714
 4870SOL     OW15508   0.432   6.277   1.618
 4870SOL    HW115509   0.363   6.268   1.546
 4870SOL    HW215510   0.405   6.223   1.698
 4871SOL     OW15511   1.004   0.564   4.380
 4871SOL    HW115512   1.051   0.486   4.422
 4871SOL    HW215513   0.929   0.593   4.438
 4872SOL     OW15514   6.419   6.865   3.047
 4872SOL    HW115515   6.464   6.854   2.959
 4872SOL    HW215516   6.342   6.928   3.038
 4873SOL     OW15517   6.683   5.933   4.589
 4873SOL    HW115518   6.734   5.972   4.665
 4873SOL    HW215519   6.738   5.938   4.506
 4874SOL     OW15520   5.222   3.116   2.436
 4874SOL    HW115521   5.296   3.143   2.376
 4874SOL    HW215522   5.150   3.186   2.434
 4875SOL     OW15523   5.221   0.220   6.870
 4875SOL    HW115524   5.247   0.263   6.784
 4875SOL    HW215525   5.208   0.122   6.856
 4876SOL     OW15526   6.878   1.425   3.814
 4876SOL    HW115527   6.914   1.333   3.796
 4876SOL    HW215528   6.941   1.475   3.873
 4877SOL     OW15529   0.369   2.213   5.478
 4877SOL    HW115530   0.337   2.289   5.422
 4877SOL    HW215531   0.436   2.246   5.545
 4878SOL     OW15532   6.924   1.973   2.085
 4878SOL    HW115533   6.940   1.893   2.143
 4878SOL    HW215534   6.854   2.031   2.128
 4879SOL     OW15535   4.461   2.532   1.869
 4879SOL    HW115536   4.484   2.533   1.966
 4879SOL    HW215537   4.489   2.444   1.829
 4880SOL     OW15538   6.260   3.718   7.016
 4880SOL    HW115539   6.246   3.633   0.043
 4880SOL    HW215540   6.283   3.695   6.921
 4881SOL     OW15541   1.877   1.755   0.308
 4881SOL    HW115542   1.813   1.810   0.255
 4881SOL    HW215543   1.827   1.704   0.378
 4882SOL     OW15544   3.839   2.130   5.686
 4882SOL    HW115545   3.868   2.104   5.779
 4882SOL    HW215546   3.910   2.186   5.644
 4883SOL     OW15547   5.353   4.192   1.342
 4883SOL    HW115548   5.420   4.165   1.411
 4883SOL    HW215549   5.383   4.160   1.252
 4884SOL     OW15550   3.900   5.007   1.020
 4884SOL    HW115551   3.941   4.976   1.105
 4884SOL    HW215552   3.952   5.085   0.984
 4885SOL     OW15553   2.356   4.512   1.713
 4885SOL    HW115554   2.271   4.545   1.671
 4885SOL    HW215555   2.356   4.535   1.810
 4886SOL     OW15556   3.460   6.809   1.472
 4886SOL    HW115557   3.389   6.878   1.456
 4886SOL    HW215558   3.475   6.757   1.388
 4887SOL     OW15559   0.775   6.161   1.728
 4887SOL    HW115560   0.713   6.084   1.745
 4887SOL    HW215561   0.731   6.226   1.667
 4888SOL     OW15562   2.578   0.138   2.692
 4888SOL    HW115563   2.666   0.095   2.712
 4888SOL    HW215564   2.508   0.099   2.751
 4889SOL     OW15565   6.454   1.798   5.275
 4889SOL    HW115566   6.466   1.887   5.320
 4889SOL    HW215567   6.525   1.787   5.206
 4890SOL     OW15568   0.888   1.656   5.712
 4890SOL    HW115569   0.876   1.679   5.615
 4890SOL    HW215570   0.966   1.708   5.749
 4891SOL     OW15571   3.022   4.985   7.018
 4891SOL    HW115572   3.069   5.015   6.935
 4891SOL    HW215573   3.018   4.885   7.018
 4892SOL     OW15574   5.422   5.687   2.150
 4892SOL    HW115575   5.488   5.702   2.077
 4892SOL    HW215576   5.467   5.699   2.238
 4893SOL     OW15577   6.291   3.575   2.058
 4893SOL    HW115578   6.270   3.630   1.976
 4893SOL    HW215579   6.273   3.479   2.039
 4894SOL     OW15580   3.579   0.064   2.517
 4894SOL    HW115581   3.644   0.141   2.524
 4894SOL    HW215582   3.628   7.003   2.535
 4895SOL     OW15583   0.936   4.699   3.389
 4895SOL    HW115584   0.979   4.616   3.422
 4895SOL    HW215585   0.838   4.697   3.411
 4896SOL     OW15586   2.529   4.779   2.493
 4896SOL    HW115587   2.581   4.740   2.569
 4896SOL    HW215588   2.550   4.729   2.409
 4897SOL     OW15589   1.772   5.893   5.800
 4897SOL    HW115590   1.817   5.804   5.788
 4897SOL    HW215591   1.679   5.887   5.762
 4898SOL     OW15592   4.220   0.824   4.987
 4898SOL    HW115593   4.310   0.863   4.966
 4898SOL    HW215594   4.155   0.897   5.005
 4899SOL     OW15595   6.316   5.304   3.208
 4899SOL    HW115596   6.404   5.351   3.219
 4899SOL    HW215597   6.307   5.271   3.115
 4900SOL     OW15598   3.856   6.050   6.087
 4900SOL    HW115599   3.898   5.986   6.023
 4900SOL    HW215600   3.814   6.000   6.162
 4901SOL     OW15601   1.875   1.535   5.810
 4901SOL    HW115602   1.945   1.504   5.745
 4901SOL    HW215603   1.824   1.611   5.771
 4902SOL     OW15604   1.333   1.084   5.539
 4902SOL    HW115605   1.286   1.020   5.477
 4902SOL    HW215606   1.432   1.081   5.520
 4903SOL     OW15607   4.394   5.765   1.083
 4903SOL    HW115608   4.311   5.797   1.129
 4903SOL    HW215609   4.445   5.705   1.145
 4904SOL     OW15610   1.922   0.892   5.682
 4904SOL    HW115611   1.915   0.795   5.659
 4904SOL    HW215612   1.856   0.913   5.755
 4905SOL     OW15613   2.326   0.903   3.615
 4905SOL    HW115614   2.297   0.960   3.538
 4905SOL    HW215615   2.274   0.817   3.614
 4906SOL     OW15616   4.788   3.144   5.703
 4906SOL    HW115617   4.855   3.071   5.687
 4906SOL    HW215618   4.714   3.110   5.761
 4907SOL     OW15619   4.724   1.048   1.155
 4907SOL    HW115620   4.731   1.124   1.090
 4907SOL    HW215621   4.790   0.977   1.131
 4908SOL     OW15622   4.986   6.700   0.318
 4908SOL    HW115623   5.011   6.697   0.221
 4908SOL    HW215624   5.066   6.676   0.374
 4909SOL     OW15625   6.861   4.689   3.872
 4909SOL    HW115626   6.813   4.760   3.821
 4909SOL    HW215627   6.906   4.730   3.952
 4910SOL     OW15628   5.601   0.850   4.310
 4910SOL    HW115629   5.696   0.857   4.341
 4910SOL    HW215630   5.598   0.851   4.210
 4911SOL     OW15631   1.737   3.541   3.291
 4911SOL    HW115632   1.732   3.503   3.199
 4911SOL    HW215633   1.829   3.529   3.328
 4912SOL     OW15634   5.389   1.576   5.659
 4912SOL    HW115635   5.330   1.596   5.580
 4912SOL    HW215636   5.352   1.621   5.740
 4913SOL     OW15637   5.365   3.534   5.521
 4913SOL    HW115638   5.375   3.502   5.615
 4913SOL    HW215639   5.325   3.626   5.521
 4914SOL     OW15640   4.306   0.187   5.471
 4914SOL    HW115641   4.347   0.254   5.410
 4914SOL    HW215642   4.277   0.107   5.418
 4915SOL     OW15643   2.926   6.437   5.410
 4915SOL    HW115644   2.928   6.444   5.310
 4915SOL    HW215645   2.861   6.366   5.437
 4916SOL     OW15646   0.306   0.482   4.061
 4916SOL    HW115647   0.215   0.451   4.087
 4916SOL    HW215648   0.349   0.413   4.002
 4917SOL     OW15649   4.050   5.803   0.764
 4917SOL    HW115650   4.110   5.818   0.685
 4917SOL    HW215651   3.955   5.802   0.734
 4918SOL     OW15652   6.121   6.371   2.483
 4918SOL    HW115653   6.098   6.285   2.439
 4918SOL    HW215654   6.040   6.430   2.485
 4919SOL     OW15655   3.884   2.967   2.640
 4919SOL    HW115656   3.956   2.972   2.571
 4919SOL    HW215657   3.795   2.982   2.597
 4920SOL     OW15658   5.371   0.199   5.117
 4920SOL    HW115659   5.470   0.187   5.115
 4920SOL    HW215660   5.337   0.212   5.024
 4921SOL     OW15661   1.710   4.999   0.099
 4921SOL    HW115662   1.674   4.914   0.061
 4921SOL    HW215663   1.634   5.059   0.123
 4922SOL     OW15664   3.165   2.086   4.839
 4922SOL    HW115665   3.191   2.163   4.897
 4922SOL    HW215666   3.148   2.006   4.897
 4923SOL     OW15667   2.320   1.550   2.916
 4923SOL    HW115668   2.312   1.614   2.839
 4923SOL    HW215669   2.368   1.467   2.885
 4924SOL     OW15670   2.199   1.956   5.005
 4924SOL    HW115671   2.132   1.974   5.077
 4924SOL    HW215672   2.198   2.030   4.938
 4925SOL     OW15673   4.462   0.323   2.942
 4925SOL    HW115674   4.457   0.416   2.907
 4925SOL    HW215675   4.557   0.292   2.942
 4926SOL     OW15676   5.553   1.981   1.427
 4926SOL    HW115677   5.615   1.917   1.472
 4926SOL    HW215678   5.606   2.053   1.382
 4927SOL     OW15679   2.812   3.227   5.831
 4927SOL    HW115680   2.910   3.218   5.814
 4927SOL    HW215681   2.786   3.324   5.826
 4928SOL     OW15682   1.489   1.009   0.112
 4928SOL    HW115683   1.460   0.987   0.205
 4928SOL    HW215684   1.586   0.988   0.101
 4929SOL     OW15685   6.664   0.235   3.577
 4929SOL    HW115686   6.645   0.140   3.556
 4929SOL    HW215687   6.614   0.294   3.514
 4930SOL     OW15688   5.755   0.049   2.554
 4930SOL    HW115689   5.700   0.092   2.626
 4930SOL    HW215690   5.698   0.035   2.473
 4931SOL     OW15691   6.262   6.447   1.701
 4931SOL    HW115692   6.245   6.402   1.613
 4931SOL    HW215693   6.344   6.503   1.694
 4932SOL     OW15694   3.872   3.846   3.451
 4932SOL    HW115695   3.890   3.888   3.362
 4932SOL    HW215696   3.792   3.786   3.444
 4933SOL     OW15697   2.330   6.674   3.001
 4933SOL    HW115698   2.390   6.593   2.998
 4933SOL    HW215699   2.287   6.686   2.912
 4934SOL     OW15700   3.814   5.844   2.804
 4934SOL    HW115701   3.803   5.900   2.886
 4934SOL    HW215702   3.872   5.765   2.824
 4935SOL     OW15703   2.006   1.968   6.751
 4935SOL    HW115704   2.013   1.871   6.777
 4935SOL    HW215705   1.946   1.977   6.672
 4936SOL     OW15706   2.753   4.818   0.923
 4936SOL    HW115707   2.813   4.856   0.852
 4936SOL    HW215708   2.766   4.719   0.929
 4937SOL     OW15709   5.244   3.116   5.168
 4937SOL    HW115710   5.208   3.073   5.085
 4937SOL    HW215711   5.177   3.180   5.205
 4938SOL     OW15712   3.482   5.499   6.048
 4938SOL    HW115713   3.578   5.521   6.028
 4938SOL    HW215714   3.476   5.405   6.081
 4939SOL     OW15715   5.382   2.394   4.785
 4939SOL    HW115716   5.454   2.370   4.850
 4939SOL    HW215717   5.415   2.377   4.692
 4940SOL     OW15718   1.248   0.705   5.004
 4940SOL    HW115719   1.240   0.706   4.904
 4940SOL    HW215720   1.156   0.709   5.044
 4941SOL     OW15721   3.447   1.863   6.388
 4941SOL    HW115722   3.537   1.897   6.413
 4941SOL    HW215723   3.456   1.784   6.328
 4942SOL     OW15724   4.825   3.280   5.181
 4942SOL    HW115725   4.730   3.309   5.196
 4942SOL    HW215726   4.883   3.317   5.254
 4943SOL     OW15727   4.063   2.274   6.943
 4943SOL    HW115728   4.036   2.180   6.964
 4943SOL    HW215729   4.027   2.336   7.013
 4944SOL     OW15730   2.082   3.868   3.209
 4944SOL    HW115731   1.985   3.853   3.189
 4944SOL    HW215732   2.092   3.946   3.271
 4945SOL     OW15733   0.900   0.837   3.827
 4945SOL    HW115734   0.924   0.852   3.731
 4945SOL    HW215735   0.976   0.792   3.874
 4946SOL     OW15736   0.917   2.797   1.207
 4946SOL    HW115737   0.839   2.820   1.148
 4946SOL    HW215738   0.913   2.701   1.232
 4947SOL     OW15739   0.895   6.340   0.760
 4947SOL    HW115740   0.929   6.268   0.700
 4947SOL    HW215741   0.796   6.329   0.772
 4948SOL     OW15742   2.869   0.861   2.399
 4948SOL    HW115743   2.891   0.944   2.450
 4948SOL    HW215744   2.790   0.878   2.340
 4949SOL     OW15745   4.535   0.535   5.479
 4949SOL    HW115746   4.597   0.562   5.554
 4949SOL    HW215747   4.443   0.525   5.515
 4950SOL     OW15748   2.899   5.653   3.815
 4950SOL    HW115749   2.901   5.592   3.737
 4950SOL    HW215750   2.992   5.676   3.843
 4951SOL     OW15751   4.909   1.257   4.600
 4951SOL    HW115752   4.951   1.329   4.544
 4951SOL    HW215753   4.938   1.168   4.565
 4952SOL     OW15754   0.616   6.178   5.242
 4952SOL    HW115755   0.541   6.131   5.195
 4952SOL    HW215756   0.597   6.276   5.246
 4953SOL     OW15757   2.405   5.586   1.984
 4953SOL    HW115758   2.340   5.625   1.920
 4953SOL    HW215759   2.463   5.658   2.021
 4954SOL     OW15760   4.551   4.363   6.949
 4954SOL    HW115761   4.486   4.435   6.921
 4954SOL    HW215762   4.617   4.347   6.875
 4955SOL     OW15763   1.714   5.686   6.544
 4955SOL    HW115764   1.753   5.760   6.599
 4955SOL    HW215765   1.773   5.668   6.465
 4956SOL     OW15766   3.795   6.937   5.131
 4956SOL    HW115767   3.822   6.855   5.181
 4956SOL    HW215768   3.874   6.997   5.119
 4957SOL     OW15769   0.059   1.559   3.950
 4957SOL    HW115770   7.007   1.584   4.010
 4957SOL    HW215771   0.097   1.472   3.979
 4958SOL     OW15772   0.448   6.516   6.340
 4958SOL    HW115773   0.383   6.555   6.274
 4958SOL    HW215774   0.405   6.513   6.431
 4959SOL     OW15775   0.765   0.898   6.447
 4959SOL    HW115776   0.758   0.855   6.357
 4959SOL    HW215777   0.825   0.978   6.441
 4960SOL     OW15778   3.312   6.556   4.169
 4960SOL    HW115779   3.297   6.639   4.116
 4960SOL    HW215780   3.407   6.527   4.160
 4961SOL     OW15781   5.493   1.502   5.053
 4961SOL    HW115782   5.590   1.478   5.041
 4961SOL    HW215783   5.454   1.445   5.125
 4962SOL     OW15784   5.464   3.002   1.906
 4962SOL    HW115785   5.512   3.019   1.992
 4962SOL    HW215786   5.460   2.904   1.888
 4963SOL     OW15787   6.813   5.996   1.552
 4963SOL    HW115788   6.783   5.905   1.525
 4963SOL    HW215789   6.745   6.037   1.613
 4964SOL     OW15790   3.546   5.823   2.785
 4964SOL    HW115791   3.507   5.874   2.708
 4964SOL    HW215792   3.644   5.839   2.788
 4965SOL     OW15793   0.611   6.896   4.905
 4965SOL    HW115794   0.559   6.876   4.823
 4965SOL    HW215795   0.556   6.952   4.967
 4966SOL     OW15796   2.233   5.848   4.686
 4966SOL    HW115797   2.188   5.931   4.719
 4966SOL    HW215798   2.165   5.786   4.646
 4967SOL     OW15799   4.188   2.785   6.745
 4967SOL    HW115800   4.115   2.718   6.750
 4967SOL    HW215801   4.213   2.816   6.837
 4968SOL     OW15802   5.069   3.394   3.323
 4968SOL    HW115803   5.165   3.418   3.332
 4968SOL    HW215804   5.030   3.441   3.244
 4969SOL     OW15805   1.478   0.842   2.480
 4969SOL    HW115806   1.544   0.912   2.454
 4969SOL    HW215807   1.466   0.778   2.403
 4970SOL     OW15808   1.246   2.285   4.943
 4970SOL    HW115809   1.253   2.278   5.043
 4970SOL    HW215810   1.175   2.351   4.919
 4971SOL     OW15811   6.235   6.065   3.968
 4971SOL    HW115812   6.215   5.994   3.901
 4971SOL    HW215813   6.253   6.151   3.920
 4972SOL     OW15814   2.709   3.245   0.371
 4972SOL    HW115815   2.673   3.293   0.291
 4972SOL    HW215816   2.698   3.302   0.452
 4973SOL     OW15817   6.144   6.494   1.944
 4973SOL    HW115818   6.045   6.489   1.938
 4973SOL    HW215819   6.186   6.448   1.866
 4974SOL     OW15820   5.885   5.259   1.686
 4974SOL    HW115821   5.822   5.280   1.761
 4974SOL    HW215822   5.858   5.174   1.642
 4975SOL     OW15823   6.240   6.512   0.684
 4975SOL    HW115824   6.298   6.525   0.604
 4975SOL    HW215825   6.246   6.418   0.715
 4976SOL     OW15826   3.346   0.698   4.008
 4976SOL    HW115827   3.280   0.730   4.076
 4976SOL    HW215828   3.352   0.763   3.933
 4977SOL     OW15829   5.126   3.538   0.567
 4977SOL    HW115830   5.146   3.620   0.514
 4977SOL    HW215831   5.027   3.524   0.571
 4978SOL     OW15832   6.336   4.006   5.419
 4978SOL    HW115833   6.340   3.930   5.355
 4978SOL    HW215834   6.312   4.090   5.370
 4979SOL     OW15835   6.778   2.590   5.393
 4979SOL    HW115836   6.700   2.619   5.336
 4979SOL    HW215837   6.757   2.608   5.489
 4980SOL     OW15838   3.786   6.431   2.833
 4980SOL    HW115839   3.850   6.367   2.875
 4980SOL    HW215840   3.709   6.447   2.895
 4981SOL     OW15841   4.347   6.382   5.669
 4981SOL    HW115842   4.419   6.342   5.726
 4981SOL    HW215843   4.375   6.377   5.573
 4982SOL     OW15844   2.179   1.673   6.931
 4982SOL    HW115845   2.203   1.628   6.845
 4982SOL    HW215846   2.257   1.670   6.994
 4983SOL     OW15847   5.712   3.309   4.116
 4983SOL    HW115848   5.764   3.230   4.083
 4983SOL    HW215849   5.660   3.283   4.197
 4984SOL     OW15850   5.436   3.546   4.666
 4984SOL    HW115851   5.504   3.512   4.601
 4984SOL    HW215852   5.461   3.639   4.695
 4985SOL     OW15853   6.140   5.602   3.885
 4985SOL    HW115854   6.178   5.638   3.800
 4985SOL    HW215855   6.213   5.590   3.952
 4986SOL     OW15856   6.373   4.674   3.051
 4986SOL    HW115857   6.332   4.622   3.126
 4986SOL    HW215858   6.312   4.670   2.971
 4987SOL     OW15859   0.643   2.816   0.946
 4987SOL    HW115860   0.639   2.914   0.930
 4987SOL    HW215861   0.734   2.782   0.924
 4988SOL     OW15862   0.065   1.948   3.974
 4988SOL    HW115863   7.020   1.936   3.903
 4988SOL    HW215864   0.079   2.046   3.990
 4989SOL     OW15865   5.725   1.407   1.526
 4989SOL    HW115866   5.671   1.461   1.591
 4989SOL    HW215867   5.791   1.351   1.576
 4990SOL     OW15868   0.684   2.546   6.284
 4990SOL    HW115869   0.619   2.540   6.209
 4990SOL    HW215870   0.720   2.639   6.290
 4991SOL     OW15871   0.459   3.078   4.225
 4991SOL    HW115872   0.421   3.000   4.176
 4991SOL    HW215873   0.525   3.126   4.167
 4992SOL     OW15874   3.943   0.336   4.536
 4992SOL    HW115875   3.909   0.304   4.447
 4992SOL    HW215876   4.006   0.413   4.522
 4993SOL     OW15877   2.536   4.725   3.681
 4993SOL    HW115878   2.526   4.801   3.745
 4993SOL    HW215879   2.625   4.730   3.636
 4994SOL     OW15880   1.273   6.934   2.731
 4994SOL    HW115881   1.201   6.873   2.697
 4994SOL    HW215882   1.269   7.021   2.682
 4995SOL     OW15883   6.894   2.787   6.242
 4995SOL    HW115884   6.891   2.809   6.145
 4995SOL    HW215885   6.864   2.693   6.257
 4996SOL     OW15886   0.230   1.062   1.474
 4996SOL    HW115887   0.247   0.996   1.400
 4996SOL    HW215888   0.164   1.023   1.538
 4997SOL     OW15889   6.759   2.551   2.878
 4997SOL    HW115890   6.832   2.520   2.939
 4997SOL    HW215891   6.785   2.531   2.783
 4998SOL     OW15892   1.927   4.701   5.289
 4998SOL    HW115893   2.015   4.660   5.312
 4998SOL    HW215894   1.854   4.633   5.302
 4999SOL     OW15895   4.798   5.705   1.197
 4999SOL    HW115896   4.747   5.630   1.154
 4999SOL    HW215897   4.880   5.669   1.241
 5000SOL     OW15898   0.986   0.490   4.865
 5000SOL    HW115899   0.906   0.442   4.829
 5000SOL    HW215900   0.959   0.582   4.895
 5001SOL     OW15901   1.903   3.971   6.425
 5001SOL    HW115902   1.981   4.034   6.427
 5001SOL    HW215903   1.825   4.016   6.384
 5002SOL     OW15904   1.375   2.235   3.280
 5002SOL    HW115905   1.415   2.155   3.325
 5002SOL    HW215906   1.405   2.318   3.327
 5003SOL     OW15907   0.439   6.743   3.342
 5003SOL    HW115908   0.492   6.828   3.337
 5003SOL    HW215909   0.384   6.732   3.259
 5004SOL     OW15910   2.765   5.527   5.699
 5004SOL    HW115911   2.755   5.615   5.745
 5004SOL    HW215912   2.807   5.541   5.610
 5005SOL     OW15913   3.794   2.065   0.765
 5005SOL    HW115914   3.880   2.041   0.810
 5005SOL    HW215915   3.769   1.992   0.700
 5006SOL     OW15916   5.938   0.069   5.702
 5006SOL    HW115917   5.917   0.061   5.604
 5006SOL    HW215918   5.892   0.149   5.740
 5007SOL     OW15919   3.364   0.534   5.788
 5007SOL    HW115920   3.424   0.486   5.851
 5007SOL    HW215921   3.373   0.633   5.802
 5008SOL     OW15922   5.868   1.152   3.072
 5008SOL    HW115923   5.956   1.127   3.033
 5008SOL    HW215924   5.870   1.248   3.101
 5009SOL     OW15925   1.534   5.924   1.747
 5009SOL    HW115926   1.629   5.944   1.724
 5009SOL    HW215927   1.502   5.846   1.692
 5010SOL     OW15928   3.408   3.950   4.067
 5010SOL    HW115929   3.501   3.979   4.087
 5010SOL    HW215930   3.343   4.006   4.119
 5011SOL     OW15931   2.017   3.289   2.058
 5011SOL    HW115932   2.087   3.361   2.053
 5011SOL    HW215933   1.930   3.325   2.023
 5012SOL     OW15934   6.272   2.691   5.853
 5012SOL    HW115935   6.334   2.768   5.837
 5012SOL    HW215936   6.230   2.700   5.943
 5013SOL     OW15937   4.488   0.949   6.105
 5013SOL    HW115938   4.564   1.012   6.121
 5013SOL    HW215939   4.502   0.866   6.159
 5014SOL     OW15940   6.082   5.927   0.887
 5014SOL    HW115941   6.129   5.980   0.957
 5014SOL    HW215942   5.996   5.972   0.862
 5015SOL     OW15943   4.602   1.650   3.451
 5015SOL    HW115944   4.539   1.634   3.376
 5015SOL    HW215945   4.675   1.581   3.449
 5016SOL     OW15946   2.046   1.503   2.812
 5016SOL    HW115947   2.006   1.582   2.858
 5016SOL    HW215948   2.045   1.517   2.713
 5017SOL     OW15949   2.371   2.376   0.588
 5017SOL    HW115950   2.367   2.283   0.552
 5017SOL    HW215951   2.332   2.440   0.521
 5018SOL     OW15952   0.139   4.072   2.370
 5018SOL    HW115953   0.183   4.149   2.417
 5018SOL    HW215954   0.209   4.006   2.342
 5019SOL     OW15955   2.250   3.907   0.227
 5019SOL    HW115956   2.350   3.899   0.223
 5019SOL    HW215957   2.208   3.835   0.171
 5020SOL     OW15958   5.639   5.536   6.089
 5020SOL    HW115959   5.734   5.555   6.061
 5020SOL    HW215960   5.633   5.539   6.188
 5021SOL     OW15961   1.217   4.608   6.047
 5021SOL    HW115962   1.209   4.621   5.948
 5021SOL    HW215963   1.151   4.539   6.077
 5022SOL     OW15964   2.025   6.782   0.470
 5022SOL    HW115965   2.006   6.805   0.565
 5022SOL    HW215966   2.111   6.825   0.441
 5023SOL     OW15967   6.295   2.568   0.882
 5023SOL    HW115968   6.320   2.661   0.911
 5023SOL    HW215969   6.267   2.515   0.962
 5024SOL     OW15970   6.939   4.086   3.147
 5024SOL    HW115971   6.959   3.999   3.102
 5024SOL    HW215972   6.882   4.143   3.087
 5025SOL     OW15973   4.505   1.807   2.697
 5025SOL    HW115974   4.481   1.878   2.631
 5025SOL    HW215975   4.594   1.828   2.736
 5026SOL     OW15976   6.294   5.758   5.710
 5026SOL    HW115977   6.236   5.690   5.755
 5026SOL    HW215978   6.248   5.846   5.711
 5027SOL     OW15979   0.394   6.909   3.082
 5027SOL    HW115980   0.359   6.978   3.019
 5027SOL    HW215981   0.490   6.890   3.061
 5028SOL     OW15982   0.105   6.030   1.931
 5028SOL    HW115983   0.079   6.066   2.021
 5028SOL    HW215984   0.087   5.932   1.928
 5029SOL     OW15985   6.947   2.294   2.460
 5029SOL    HW115986   6.930   2.264   2.367
 5029SOL    HW215987   7.011   2.232   2.505
 5030SOL     OW15988   0.258   7.023   0.103
 5030SOL    HW115989   0.160   7.021   0.079
 5030SOL    HW215990   0.285   6.934   0.138
 5031SOL     OW15991   5.895   1.051   4.202
 5031SOL    HW115992   5.872   1.126   4.140
 5031SOL    HW215993   5.985   1.014   4.178
 5032SOL     OW15994   1.590   5.216   0.795
 5032SOL    HW115995   1.562   5.209   0.700
 5032SOL    HW215996   1.627   5.128   0.826
 5033SOL     OW15997   2.940   5.303   5.394
 5033SOL    HW115998   2.942   5.277   5.490
 5033SOL    HW215999   2.922   5.222   5.338
 5034SOL     OW16000   6.555   2.782   2.272
 5034SOL    HW116001   6.595   2.774   2.180
 5034SOL    HW216002   6.553   2.878   2.299
 5035SOL     OW16003   5.073   5.224   0.761
 5035SOL    HW116004   5.083   5.322   0.741
 5035SOL    HW216005   5.070   5.173   0.675
 5036SOL     OW16006   1.301   6.096   6.540
 5036SOL    HW116007   1.373   6.029   6.557
 5036SOL    HW216008   1.213   6.050   6.531
 5037SOL     OW16009   4.070   1.887   3.331
 5037SOL    HW116010   4.096   1.926   3.419
 5037SOL    HW216011   3.981   1.842   3.338
 5038SOL     OW16012   1.072   6.017   5.726
 5038SOL    HW116013   1.074   6.101   5.779
 5038SOL    HW216014   0.978   5.992   5.705
 5039SOL     OW16015   2.498   3.235   5.367
 5039SOL    HW116016   2.495   3.195   5.459
 5039SOL    HW216017   2.528   3.166   5.302
 5040SOL     OW16018   2.579   3.223   6.663
 5040SOL    HW116019   2.611   3.246   6.571
 5040SOL    HW216020   2.631   3.275   6.731
 5041SOL     OW16021   0.730   4.371   1.447
 5041SOL    HW116022   0.722   4.317   1.531
 5041SOL    HW216023   0.785   4.321   1.380
 5042SOL     OW16024   6.712   3.232   6.665
 5042SOL    HW116025   6.769   3.174   6.721
 5042SOL    HW216026   6.623   3.188   6.650
 5043SOL     OW16027   3.880   1.714   4.679
 5043SOL    HW116028   3.952   1.741   4.615
 5043SOL    HW216029   3.852   1.620   4.659
 5044SOL     OW16030   6.252   6.265   3.745
 5044SOL    HW116031   6.272   6.343   3.803
 5044SOL    HW216032   6.153   6.248   3.744
 5045SOL     OW16033   6.135   2.926   0.366
 5045SOL    HW116034   6.036   2.922   0.361
 5045SOL    HW216035   6.166   2.879   0.449
 5046SOL     OW16036   3.876   2.941   5.030
 5046SOL    HW116037   3.965   2.951   5.074
 5046SOL    HW216038   3.829   2.862   5.070
 5047SOL     OW16039   5.456   1.054   2.817
 5047SOL    HW116040   5.544   1.099   2.805
 5047SOL    HW216041   5.388   1.121   2.848
 5048SOL     OW16042   6.676   2.380   1.798
 5048SOL    HW116043   6.599   2.380   1.734
 5048SOL    HW216044   6.737   2.304   1.777
 5049SOL     OW16045   0.944   1.994   2.318
 5049SOL    HW116046   0.886   1.937   2.376
 5049SOL    HW216047   1.027   1.944   2.294
 5050SOL     OW16048   6.897   1.527   1.952
 5050SOL    HW116049   6.972   1.510   1.889
 5050SOL    HW216050   6.922   1.493   2.043
 5051SOL     OW16051   2.925   4.026   1.351
 5051SOL    HW116052   2.843   3.984   1.390
 5051SOL    HW216053   2.999   3.959   1.348
 5052SOL     OW16054   3.482   4.335   0.654
 5052SOL    HW116055   3.488   4.415   0.594
 5052SOL    HW216056   3.517   4.254   0.607
 5053SOL     OW16057   2.050   4.157   2.122
 5053SOL    HW116058   2.025   4.191   2.031
 5053SOL    HW216059   1.987   4.084   2.149
 5054SOL     OW16060   3.403   5.984   5.237
 5054SOL    HW116061   3.482   6.030   5.198
 5054SOL    HW216062   3.399   5.890   5.204
 5055SOL     OW16063   0.399   1.866   4.681
 5055SOL    HW116064   0.315   1.830   4.722
 5055SOL    HW216065   0.413   1.824   4.591
 5056SOL     OW16066   0.005   4.164   6.438
 5056SOL    HW116067   0.026   4.116   6.523
 5056SOL    HW216068   7.021   4.098   6.363
 5057SOL     OW16069   0.721   5.527   3.498
 5057SOL    HW116070   0.638   5.563   3.542
 5057SOL    HW216071   0.782   5.603   3.477
 5058SOL     OW16072   3.959   4.230   6.978
 5058SOL    HW116073   3.980   4.142   6.935
 5058SOL    HW216074   3.861   4.245   6.976
 5059SOL     OW16075   4.205   2.179   4.652
 5059SOL    HW116076   4.252   2.252   4.702
 5059SOL    HW216077   4.173   2.109   4.716
 5060SOL     OW16078   0.079   3.356   5.717
 5060SOL    HW116079   0.134   3.313   5.789
 5060SOL    HW216080   0.110   3.324   5.628
 5061SOL     OW16081   2.956   3.799   4.116
 5061SOL    HW116082   3.014   3.774   4.194
 5061SOL    HW216083   2.994   3.880   4.071
 5062SOL     OW16084   4.826   1.485   2.239
 5062SOL    HW116085   4.761   1.469   2.165
 5062SOL    HW216086   4.832   1.583   2.258
 5063SOL     OW16087   1.939   6.322   1.632
 5063SOL    HW116088   1.939   6.347   1.535
 5063SOL    HW216089   2.029   6.285   1.656
 5064SOL     OW16090   4.465   5.124   0.995
 5064SOL    HW116091   4.416   5.206   0.966
 5064SOL    HW216092   4.424   5.044   0.951
 5065SOL     OW16093   1.597   0.493   3.529
 5065SOL    HW116094   1.630   0.422   3.466
 5065SOL    HW216095   1.616   0.583   3.490
 5066SOL     OW16096   2.108   4.350   2.288
 5066SOL    HW116097   2.031   4.388   2.339
 5066SOL    HW216098   2.074   4.281   2.224
 5067SOL     OW16099   4.110   1.949   1.745
 5067SOL    HW116100   4.041   1.933   1.674
 5067SOL    HW216101   4.085   2.029   1.799
 5068SOL     OW16102   3.562   5.978   0.661
 5068SOL    HW116103   3.542   6.075   0.677
 5068SOL    HW216104   3.527   5.952   0.571
 5069SOL     OW16105   2.292   3.614   6.360
 5069SOL    HW116106   2.282   3.584   6.455
 5069SOL    HW216107   2.209   3.592   6.309
 5070SOL     OW16108   5.806   2.827   3.897
 5070SOL    HW116109   5.870   2.750   3.903
 5070SOL    HW216110   5.784   2.845   3.802
 5071SOL     OW16111   3.697   1.280   4.065
 5071SOL    HW116112   3.750   1.364   4.058
 5071SOL    HW216113   3.740   1.219   4.131
 5072SOL     OW16114   1.605   0.720   1.028
 5072SOL    HW116115   1.597   0.807   0.979
 5072SOL    HW216116   1.531   0.712   1.094
 5073SOL     OW16117   2.745   5.865   2.320
 5073SOL    HW116118   2.778   5.926   2.248
 5073SOL    HW216119   2.799   5.878   2.403
 5074SOL     OW16120   3.285   1.414   1.864
 5074SOL    HW116121   3.275   1.513   1.853
 5074SOL    HW216122   3.322   1.375   1.780
 5075SOL     OW16123   0.871   2.927   0.021
 5075SOL    HW116124   0.901   2.833   0.009
 5075SOL    HW216125   0.911   2.964   0.106
 5076SOL     OW16126   5.369   0.647   0.023
 5076SOL    HW116127   5.407   0.664   0.114
 5076SOL    HW216128   5.361   0.548   0.008
 5077SOL     OW16129   1.461   3.993   4.767
 5077SOL    HW116130   1.376   3.984   4.818
 5077SOL    HW216131   1.539   3.981   4.829
 5078SOL     OW16132   0.345   1.409   4.157
 5078SOL    HW116133   0.444   1.412   4.176
 5078SOL    HW216134   0.328   1.345   4.082
 5079SOL     OW16135   1.822   1.895   5.700
 5079SOL    HW116136   1.814   1.993   5.680
 5079SOL    HW216137   1.880   1.852   5.631
 5080SOL     OW16138   5.828   5.508   5.727
 5080SOL    HW116139   5.781   5.458   5.800
 5080SOL    HW216140   5.814   5.606   5.740
 5081SOL     OW16141   3.067   5.450   5.221
 5081SOL    HW116142   3.010   5.528   5.195
 5081SOL    HW216143   3.015   5.390   5.282
 5082SOL     OW16144   4.532   6.663   0.097
 5082SOL    HW116145   4.539   6.594   0.169
 5082SOL    HW216146   4.561   6.623   0.010
 5083SOL     OW16147   3.041   0.767   1.930
 5083SOL    HW116148   3.098   0.687   1.947
 5083SOL    HW216149   3.021   0.812   2.017
 5084SOL     OW16150   0.974   4.979   5.587
 5084SOL    HW116151   0.943   5.045   5.518
 5084SOL    HW216152   0.908   4.905   5.595
 5085SOL     OW16153   1.642   3.059   5.729
 5085SOL    HW116154   1.580   3.065   5.650
 5085SOL    HW216155   1.589   3.068   5.813
 5086SOL     OW16156   0.612   4.326   2.726
 5086SOL    HW116157   0.537   4.288   2.781
 5086SOL    HW216158   0.576   4.394   2.663
 5087SOL     OW16159   6.839   5.438   2.353
 5087SOL    HW116160   6.855   5.437   2.452
 5087SOL    HW216161   6.925   5.422   2.306
 5088SOL     OW16162   4.495   5.924   2.739
 5088SOL    HW116163   4.467   6.007   2.788
 5088SOL    HW216164   4.505   5.849   2.805
 5089SOL     OW16165   6.173   4.488   4.165
 5089SOL    HW116166   6.171   4.582   4.133
 5089SOL    HW216167   6.096   4.472   4.227
 5090SOL     OW16168   1.726   0.329   3.819
 5090SOL    HW116169   1.639   0.315   3.772
 5090SOL    HW216170   1.750   0.247   3.871
 5091SOL     OW16171   6.506   7.005   0.111
 5091SOL    HW116172   6.411   6.985   0.135
 5091SOL    HW216173   6.566   6.976   0.185
 5092SOL     OW16174   4.099   3.527   4.442
 5092SOL    HW116175   4.064   3.620   4.455
 5092SOL    HW216176   4.136   3.493   4.529
 5093SOL     OW16177   2.476   1.350   2.845
 5093SOL    HW116178   2.551   1.313   2.900
 5093SOL    HW216179   2.470   1.300   2.759
 5094SOL     OW16180   2.759   5.802   6.827
 5094SOL    HW116181   2.659   5.800   6.826
 5094SOL    HW216182   2.791   5.804   6.922
 5095SOL     OW16183   0.678   1.624   3.815
 5095SOL    HW116184   0.630   1.673   3.887
 5095SOL    HW216185   0.765   1.590   3.850
 5096SOL     OW16186   5.840   4.106   6.470
 5096SOL    HW116187   5.770   4.064   6.529
 5096SOL    HW216188   5.897   4.034   6.430
 5097SOL     OW16189   6.441   6.693   0.115
 5097SOL    HW116190   6.449   6.669   0.019
 5097SOL    HW216191   6.467   6.789   0.127
 5098SOL     OW16192   3.937   2.304   1.748
 5098SOL    HW116193   3.942   2.273   1.653
 5098SOL    HW216194   3.841   2.310   1.776
 5099SOL     OW16195   6.978   5.836   1.339
 5099SOL    HW116196   0.011   5.776   1.396
 5099SOL    HW216197   6.953   5.917   1.391
 5100SOL     OW16198   4.690   5.172   2.967
 5100SOL    HW116199   4.758   5.233   2.928
 5100SOL    HW216200   4.633   5.222   3.032
 5101SOL     OW16201   3.962   0.331   4.954
 5101SOL    HW116202   3.938   0.421   4.919
 5101SOL    HW216203   4.046   0.337   5.008
 5102SOL     OW16204   5.021   5.764   4.117
 5102SOL    HW116205   4.928   5.746   4.151
 5102SOL    HW216206   5.082   5.780   4.195
 5103SOL     OW16207   0.789   0.319   4.785
 5103SOL    HW116208   0.820   0.305   4.691
 5103SOL    HW216209   0.696   0.283   4.795
 5104SOL     OW16210   3.400   5.951   1.939
 5104SOL    HW116211   3.322   5.928   1.880
 5104SOL    HW216212   3.485   5.932   1.890
 5105SOL     OW16213   3.028   3.251   0.263
 5105SOL    HW116214   2.929   3.245   0.249
 5105SOL    HW216215   3.075   3.240   0.176
 5106SOL     OW16216   3.968   1.798   0.843
 5106SOL    HW116217   3.999   1.758   0.757
 5106SOL    HW216218   3.900   1.739   0.886
 5107SOL     OW16219   5.530   3.289   1.147
 5107SOL    HW116220   5.469   3.351   1.196
 5107SOL    HW216221   5.584   3.237   1.214
 5108SOL     OW16222   4.799   4.129   5.797
 5108SOL    HW116223   4.873   4.064   5.813
 5108SOL    HW216224   4.711   4.085   5.819
 5109SOL     OW16225   1.899   2.611   1.198
 5109SOL    HW116226   1.995   2.585   1.182
 5109SOL    HW216227   1.860   2.648   1.114
 5110SOL     OW16228   0.116   0.076   6.146
 5110SOL    HW116229   0.207   0.118   6.151
 5110SOL    HW216230   0.118   7.024   6.082
 5111SOL     OW16231   0.903   6.524   4.970
 5111SOL    HW116232   0.893   6.428   4.995
 5111SOL    HW216233   0.827   6.552   4.912
 5112SOL     OW16234   0.494   0.107   2.415
 5112SOL    HW116235   0.488   0.089   2.317
 5112SOL    HW216236   0.537   0.196   2.430
 5113SOL     OW16237   1.791   5.147   0.384
 5113SOL    HW116238   1.701   5.105   0.380
 5113SOL    HW216239   1.802   5.195   0.471
 5114SOL     OW16240   3.546   6.973   0.429
 5114SOL    HW116241   3.453   6.979   0.393
 5114SOL    HW216242   3.605   6.931   0.361
 5115SOL     OW16243   2.061   3.746   1.685
 5115SOL    HW116244   2.109   3.695   1.613
 5115SOL    HW216245   2.107   3.833   1.700
 5116SOL     OW16246   2.792   6.044   0.028
 5116SOL    HW116247   2.818   6.102   0.105
 5116SOL    HW216248   2.834   5.954   0.038
 5117SOL     OW16249   0.938   3.377   4.335
 5117SOL    HW116250   0.972   3.300   4.280
 5117SOL    HW216251   0.904   3.449   4.275
 5118SOL     OW16252   6.036   6.984   0.372
 5118SOL    HW116253   5.963   6.952   0.312
 5118SOL    HW216254   6.007   0.042   0.420
 5119SOL     OW16255   5.035   1.731   0.802
 5119SOL    HW116256   5.017   1.823   0.837
 5119SOL    HW216257   4.971   1.710   0.728
 5120SOL     OW16258   5.036   0.177   5.171
 5120SOL    HW116259   5.134   0.179   5.191
 5120SOL    HW216260   5.011   0.258   5.119
 5121SOL     OW16261   3.551   3.595   0.299
 5121SOL    HW116262   3.633   3.636   0.258
 5121SOL    HW216263   3.483   3.577   0.228
 5122SOL     OW16264   3.426   5.241   3.142
 5122SOL    HW116265   3.432   5.142   3.130
 5122SOL    HW216266   3.507   5.274   3.189
 5123SOL     OW16267   5.562   2.508   2.386
 5123SOL    HW116268   5.549   2.436   2.454
 5123SOL    HW216269   5.473   2.548   2.362
 5124SOL     OW16270   2.193   6.402   3.198
 5124SOL    HW116271   2.251   6.348   3.137
 5124SOL    HW216272   2.106   6.355   3.213
 5125SOL     OW16273   0.274   2.167   3.669
 5125SOL    HW116274   0.360   2.125   3.642
 5125SOL    HW216275   0.276   2.265   3.650
 5126SOL     OW16276   1.334   6.339   0.039
 5126SOL    HW116277   1.313   6.368   0.132
 5126SOL    HW216278   1.309   6.411   6.999
 5127SOL     OW16279   2.215   5.613   0.293
 5127SOL    HW116280   2.218   5.529   0.347
 5127SOL    HW216281   2.120   5.633   0.269
 5128SOL     OW16282   6.957   6.094   1.016
 5128SOL    HW116283   6.991   6.084   1.109
 5128SOL    HW216284   6.959   6.191   0.989
 5129SOL     OW16285   5.058   6.494   1.556
 5129SOL    HW116286   5.005   6.424   1.602
 5129SOL    HW216287   5.063   6.576   1.614
 5130SOL     OW16288   0.087   4.672   2.809
 5130SOL    HW116289   0.001   4.723   2.819
 5130SOL    HW216290   0.161   4.724   2.849
 5131SOL     OW16291   1.332   3.605   3.881
 5131SOL    HW116292   1.408   3.558   3.926
 5131SOL    HW216293   1.280   3.539   3.827
 5132SOL     OW16294   4.271   3.505   6.124
 5132SOL    HW116295   4.303   3.456   6.043
 5132SOL    HW216296   4.282   3.603   6.111
 5133SOL     OW16297   3.451   4.951   0.361
 5133SOL    HW116298   3.378   4.954   0.293
 5133SOL    HW216299   3.444   5.031   0.421
 5134SOL     OW16300   0.531   2.783   1.499
 5134SOL    HW116301   0.476   2.773   1.416
 5134SOL    HW216302   0.478   2.833   1.568
 5135SOL     OW16303   6.480   1.770   6.034
 5135SOL    HW116304   6.564   1.808   6.072
 5135SOL    HW216305   6.414   1.844   6.018
 5136SOL     OW16306   5.050   0.721   4.884
 5136SOL    HW116307   4.956   0.689   4.874
 5136SOL    HW216308   5.062   0.761   4.975
 5137SOL     OW16309   5.945   3.350   6.094
 5137SOL    HW116310   5.906   3.325   6.005
 5137SOL    HW216311   5.876   3.338   6.165
 5138SOL     OW16312   3.886   3.280   6.761
 5138SOL    HW116313   3.917   3.188   6.736
 5138SOL    HW216314   3.838   3.321   6.684
 5139SOL     OW16315   1.509   6.754   3.890
 5139SOL    HW116316   1.460   6.841   3.882
 5139SOL    HW216317   1.469   6.700   3.964
 5140SOL     OW16318   2.409   1.641   0.071
 5140SOL    HW116319   2.428   1.689   0.157
 5140SOL    HW216320   2.495   1.608   0.032
 5141SOL     OW16321   6.118   3.159   0.985
 5141SOL    HW116322   6.029   3.135   0.947
 5141SOL    HW216323   6.122   3.258   1.002
 5142SOL     OW16324   5.693   2.078   4.175
 5142SOL    HW116325   5.675   2.176   4.186
 5142SOL    HW216326   5.746   2.045   4.253
 5143SOL     OW16327   0.944   3.968   4.132
 5143SOL    HW116328   1.040   3.985   4.110
 5143SOL    HW216329   0.913   3.886   4.084
 5144SOL     OW16330   1.925   6.785   6.173
 5144SOL    HW116331   1.849   6.738   6.128
 5144SOL    HW216332   1.925   6.881   6.148
 5145SOL     OW16333   2.567   5.400   6.167
 5145SOL    HW116334   2.630   5.470   6.200
 5145SOL    HW216335   2.534   5.425   6.076
 5146SOL     OW16336   4.546   3.596   6.657
 5146SOL    HW116337   4.480   3.600   6.731
 5146SOL    HW216338   4.500   3.571   6.572
 5147SOL     OW16339   6.840   3.890   2.068
 5147SOL    HW116340   6.874   3.810   2.019
 5147SOL    HW216341   6.875   3.888   2.162
 5148SOL     OW16342   0.890   6.130   0.994
 5148SOL    HW116343   0.926   6.037   1.001
 5148SOL    HW216344   0.897   6.161   0.899
 5149SOL     OW16345   5.585   0.111   3.822
 5149SOL    HW116346   5.616   0.201   3.851
 5149SOL    HW216347   5.570   0.053   3.903
 5150SOL     OW16348   2.188   5.806   3.956
 5150SOL    HW116349   2.281   5.815   3.991
 5150SOL    HW216350   2.145   5.897   3.950
 5151SOL     OW16351   5.661   0.939   6.727
 5151SOL    HW116352   5.643   0.867   6.660
 5151SOL    HW216353   5.619   1.024   6.697
 5152SOL     OW16354   2.560   4.957   6.772
 5152SOL    HW116355   2.587   5.052   6.755
 5152SOL    HW216356   2.637   4.906   6.810
 5153SOL     OW16357   2.280   1.354   6.552
 5153SOL    HW116358   2.276   1.256   6.569
 5153SOL    HW216359   2.249   1.373   6.458
 5154SOL     OW16360   1.999   3.236   6.255
 5154SOL    HW116361   2.097   3.222   6.239
 5154SOL    HW216362   1.986   3.315   6.316
 5155SOL     OW16363   4.473   6.698   2.089
 5155SOL    HW116364   4.537   6.671   2.017
 5155SOL    HW216365   4.417   6.775   2.057
 5156SOL     OW16366   6.592   2.345   6.194
 5156SOL    HW116367   6.580   2.291   6.111
 5156SOL    HW216368   6.533   2.425   6.191
 5157SOL     OW16369   4.868   3.078   3.365
 5157SOL    HW116370   4.958   3.034   3.360
 5157SOL    HW216371   4.849   3.124   3.279
 5158SOL     OW16372   3.097   2.122   1.501
 5158SOL    HW116373   3.112   2.147   1.596
 5158SOL    HW216374   3.018   2.172   1.465
 5159SOL     OW16375   1.226   3.992   4.981
 5159SOL    HW116376   1.196   4.033   4.895
 5159SOL    HW216377   1.146   3.965   5.035
 5160SOL     OW16378   1.479   3.936   4.491
 5160SOL    HW116379   1.543   3.998   4.445
 5160SOL    HW216380   1.471   3.962   4.587
 5161SOL     OW16381   1.250   4.352   5.418
 5161SOL    HW116382   1.308   4.380   5.342
 5161SOL    HW216383   1.274   4.404   5.500
 5162SOL     OW16384   0.316   5.138   4.220
 5162SOL    HW116385   0.249   5.160   4.291
 5162SOL    HW216386   0.408   5.160   4.251
 5163SOL     OW16387   4.470   4.858   1.580
 5163SOL    HW116388   4.530   4.779   1.589
 5163SOL    HW216389   4.385   4.830   1.534
 5164SOL     OW16390   5.835   2.117   6.085
 5164SOL    HW116391   5.836   2.076   6.176
 5164SOL    HW216392   5.844   2.216   6.093
 5165SOL     OW16393   5.994   4.752   4.618
 5165SOL    HW116394   5.929   4.828   4.614
 5165SOL    HW216395   6.044   4.756   4.704
 5166SOL     OW16396   1.802   5.213   1.912
 5166SOL    HW116397   1.705   5.232   1.928
 5166SOL    HW216398   1.836   5.274   1.841
 5167SOL     OW16399   6.194   6.758   5.584
 5167SOL    HW116400   6.197   6.855   5.558
 5167SOL    HW216401   6.258   6.742   5.659
 5168SOL     OW16402   4.759   2.643   3.606
 5168SOL    HW116403   4.853   2.666   3.633
 5168SOL    HW216404   4.739   2.549   3.634
 5169SOL     OW16405   3.465   3.407   6.796
 5169SOL    HW116406   3.416   3.324   6.770
 5169SOL    HW216407   3.398   3.480   6.813
 5170SOL     OW16408   6.697   4.308   6.160
 5170SOL    HW116409   6.780   4.357   6.134
 5170SOL    HW216410   6.711   4.210   6.150
 5171SOL     OW16411   2.477   4.470   4.458
 5171SOL    HW116412   2.452   4.374   4.467
 5171SOL    HW216413   2.464   4.517   4.546
 5172SOL     OW16414   1.209   3.256   1.445
 5172SOL    HW116415   1.125   3.302   1.474
 5172SOL    HW216416   1.186   3.165   1.409
 5173SOL     OW16417   5.828   4.333   6.343
 5173SOL    HW116418   5.862   4.329   6.249
 5173SOL    HW216419   5.840   4.243   6.386
 5174SOL     OW16420   1.762   4.508   4.546
 5174SOL    HW116421   1.742   4.581   4.480
 5174SOL    HW216422   1.848   4.463   4.520
 5175SOL     OW16423   2.353   4.649   6.896
 5175SOL    HW116424   2.314   4.741   6.897
 5175SOL    HW216425   2.282   4.583   6.868
 5176SOL     OW16426   4.015   2.974   0.503
 5176SOL    HW116427   3.987   3.046   0.438
 5176SOL    HW216428   3.959   2.893   0.488
 5177SOL     OW16429   4.996   0.165   5.791
 5177SOL    HW116430   5.004   0.227   5.869
 5177SOL    HW216431   4.961   0.077   5.823
 5178SOL     OW16432   2.604   2.084   1.124
 5178SOL    HW116433   2.577   1.999   1.170
 5178SOL    HW216434   2.703   2.093   1.126
 5179SOL     OW16435   4.894   6.224   4.958
 5179SOL    HW116436   4.842   6.206   4.875
 5179SOL    HW216437   4.889   6.322   4.979
 5180SOL     OW16438   3.315   2.457   6.785
 5180SOL    HW116439   3.403   2.410   6.795
 5180SOL    HW216440   3.328   2.542   6.734
 5181SOL     OW16441   3.984   0.900   2.973
 5181SOL    HW116442   4.015   0.956   3.050
 5181SOL    HW216443   3.923   0.953   2.915
 5182SOL     OW16444   5.715   4.770   1.758
 5182SOL    HW116445   5.631   4.814   1.791
 5182SOL    HW216446   5.695   4.676   1.730
 5183SOL     OW16447   4.807   6.812   1.765
 5183SOL    HW116448   4.785   6.793   1.669
 5183SOL    HW216449   4.897   6.855   1.771
 5184SOL     OW16450   0.883   1.839   4.048
 5184SOL    HW116451   0.835   1.888   3.976
 5184SOL    HW216452   0.935   1.763   4.009
 5185SOL     OW16453   3.969   0.274   2.886
 5185SOL    HW116454   3.957   0.351   2.823
 5185SOL    HW216455   4.067   0.252   2.891
 5186SOL     OW16456   6.603   4.325   0.873
 5186SOL    HW116457   6.544   4.316   0.954
 5186SOL    HW216458   6.672   4.253   0.875
 5187SOL     OW16459   6.619   0.879   3.648
 5187SOL    HW116460   6.526   0.905   3.674
 5187SOL    HW216461   6.639   0.914   3.556
 5188SOL     OW16462   0.634   4.969   0.337
 5188SOL    HW116463   0.639   4.871   0.315
 5188SOL    HW216464   0.543   4.990   0.372
 5189SOL     OW16465   4.677   4.957   6.819
 5189SOL    HW116466   4.697   4.861   6.842
 5189SOL    HW216467   4.630   4.962   6.731
 5190SOL     OW16468   0.976   2.002   4.397
 5190SOL    HW116469   1.056   2.003   4.338
 5190SOL    HW216470   0.894   1.992   4.342
 5191SOL     OW16471   3.484   0.873   1.382
 5191SOL    HW116472   3.460   0.965   1.353
 5191SOL    HW216473   3.418   0.842   1.451
 5192SOL     OW16474   4.556   5.697   2.933
 5192SOL    HW116475   4.652   5.714   2.954
 5192SOL    HW216476   4.517   5.636   3.002
 5193SOL     OW16477   4.319   4.675   3.692
 5193SOL    HW116478   4.262   4.757   3.696
 5193SOL    HW216479   4.275   4.605   3.636
 5194SOL     OW16480   5.236   0.095   5.958
 5194SOL    HW116481   5.259   7.022   5.952
 5194SOL    HW216482   5.145   0.105   5.998
 5195SOL     OW16483   6.399   7.016   4.476
 5195SOL    HW116484   6.351   6.990   4.392
 5195SOL    HW216485   6.396   6.940   4.541
 5196SOL     OW16486   0.795   3.983   1.865
 5196SOL    HW116487   0.727   3.917   1.834
 5196SOL    HW216488   0.882   3.966   1.818
 5197SOL     OW16489   1.922   6.105   4.292
 5197SOL    HW116490   1.936   6.200   4.319
 5197SOL    HW216491   1.981   6.046   4.347
 5198SOL     OW16492   2.928   6.966   4.885
 5198SOL    HW116493   2.834   6.936   4.898
 5198SOL    HW216494   2.986   6.926   4.956
 5199SOL     OW16495   2.484   5.575   1.303
 5199SOL    HW116496   2.448   5.550   1.213
 5199SOL    HW216497   2.552   5.648   1.292
 5200SOL     OW16498   0.858   1.731   5.012
 5200SOL    HW116499   0.903   1.701   4.927
 5200SOL    HW216500   0.777   1.675   5.028
 5201SOL     OW16501   5.921   5.330   4.264
 5201SOL    HW116502   5.844   5.281   4.223
 5201SOL    HW216503   5.977   5.370   4.191
 5202SOL     OW16504   5.448   3.095   6.989
 5202SOL    HW116505   5.391   3.035   6.933
 5202SOL    HW216506   5.393   3.173   7.020
 5203SOL     OW16507   1.397   0.372   6.165
 5203SOL    HW116508   1.301   0.368   6.138
 5203SOL    HW216509   1.407   0.331   6.255
 5204SOL     OW16510   3.210   6.633   6.457
 5204SOL    HW116511   3.166   6.666   6.374
 5204SOL    HW216512   3.140   6.607   6.524
 5205SOL     OW16513   6.419   5.809   1.012
 5205SOL    HW116514   6.353   5.770   1.075
 5205SOL    HW216515   6.510   5.772   1.031
 5206SOL     OW16516   0.982   4.445   5.545
 5206SOL    HW116517   0.921   4.454   5.466
 5206SOL    HW216518   1.064   4.394   5.518
 5207SOL     OW16519   6.989   0.080   4.036
 5207SOL    HW116520   6.990   7.009   4.007
 5207SOL    HW216521   6.896   0.105   4.063
 5208SOL     OW16522   4.627   2.803   0.283
 5208SOL    HW116523   4.684   2.884   0.267
 5208SOL    HW216524   4.599   2.801   0.380
 5209SOL     OW16525   4.714   6.924   3.418
 5209SOL    HW116526   4.702   7.023   3.411
 5209SOL    HW216527   4.647   6.888   3.484
 5210SOL     OW16528   5.002   4.554   1.398
 5210SOL    HW116529   4.913   4.520   1.366
 5210SOL    HW216530   5.075   4.507   1.348
 5211SOL     OW16531   4.811   2.021   4.542
 5211SOL    HW116532   4.719   1.998   4.512
 5211SOL    HW216533   4.863   2.058   4.464
 5212SOL     OW16534   1.662   2.243   0.861
 5212SOL    HW116535   1.711   2.285   0.937
 5212SOL    HW216536   1.652   2.145   0.879
 5213SOL     OW16537   4.013   3.636   2.070
 5213SOL    HW116538   4.042   3.676   1.984
 5213SOL    HW216539   3.978   3.543   2.054
 5214SOL     OW16540   5.474   4.418   6.294
 5214SOL    HW116541   5.501   4.323   6.278
 5214SOL    HW216542   5.503   4.474   6.216
 5215SOL     OW16543   0.255   3.220   4.806
 5215SOL    HW116544   0.314   3.202   4.726
 5215SOL    HW216545   0.168   3.259   4.775
 5216SOL     OW16546   5.305   5.528   0.890
 5216SOL    HW116547   5.215   5.571   0.899
 5216SOL    HW216548   5.302   5.436   0.928
 5217SOL     OW16549   3.585   5.697   4.239
 5217SOL    HW116550   3.665   5.661   4.286
 5217SOL    HW216551   3.519   5.731   4.306
 5218SOL     OW16552   0.568   1.512   0.558
 5218SOL    HW116553   0.610   1.423   0.572
 5218SOL    HW216554   0.473   1.501   0.529
 5219SOL     OW16555   3.312   1.711   4.614
 5219SOL    HW116556   3.345   1.658   4.692
 5219SOL    HW216557   3.213   1.720   4.618
 5220SOL     OW16558   2.041   5.547   3.408
 5220SOL    HW116559   2.013   5.454   3.382
 5220SOL    HW216560   2.141   5.551   3.413
 5221SOL     OW16561   6.911   0.147   1.471
 5221SOL    HW116562   6.995   0.150   1.525
 5221SOL    HW216563   6.877   0.240   1.456
 5222SOL     OW16564   4.520   4.648   1.835
 5222SOL    HW116565   4.505   4.718   1.766
 5222SOL    HW216566   4.603   4.670   1.886
 5223SOL     OW16567   0.347   2.626   0.973
 5223SOL    HW116568   0.375   2.705   1.027
 5223SOL    HW216569   0.408   2.615   0.895
 5224SOL     OW16570   0.794   1.811   4.704
 5224SOL    HW116571   0.852   1.737   4.737
 5224SOL    HW216572   0.835   1.899   4.728
 5225SOL     OW16573   6.353   1.248   4.598
 5225SOL    HW116574   6.309   1.317   4.657
 5225SOL    HW216575   6.349   1.159   4.643
 5226SOL     OW16576   0.420   5.841   3.693
 5226SOL    HW116577   0.380   5.860   3.782
 5226SOL    HW216578   0.372   5.764   3.651
 5227SOL     OW16579   6.798   3.845   6.111
 5227SOL    HW116580   6.767   3.751   6.124
 5227SOL    HW216581   6.757   3.903   6.181
 5228SOL     OW16582   0.917   2.981   6.430
 5228SOL    HW116583   1.007   2.965   6.471
 5228SOL    HW216584   0.848   2.986   6.501
 5229SOL     OW16585   3.483   6.380   6.935
 5229SOL    HW116586   3.432   6.332   6.864
 5229SOL    HW216587   3.580   6.355   6.930
 5230SOL     OW16588   6.550   6.912   2.205
 5230SOL    HW116589   6.520   6.859   2.285
 5230SOL    HW216590   6.471   6.959   2.165
 5231SOL     OW16591   5.477   1.389   3.349
 5231SOL    HW116592   5.464   1.349   3.258
 5231SOL    HW216593   5.572   1.418   3.360
 5232SOL     OW16594   1.653   4.034   6.299
 5232SOL    HW116595   1.568   4.009   6.345
 5232SOL    HW216596   1.670   4.131   6.312
 5233SOL     OW16597   3.135   1.480   2.500
 5233SOL    HW116598   3.059   1.448   2.443
 5233SOL    HW216599   3.127   1.579   2.512
 5234SOL     OW16600   1.972   3.025   0.391
 5234SOL    HW116601   2.005   3.100   0.448
 5234SOL    HW216602   1.912   3.061   0.319
 5235SOL     OW16603   2.148   2.124   0.497
 5235SOL    HW116604   2.121   2.134   0.401
 5235SOL    HW216605   2.243   2.092   0.502
 5236SOL     OW16606   3.471   4.947   2.033
 5236SOL    HW116607   3.396   4.901   2.079
 5236SOL    HW216608   3.537   4.879   2.001
 5237SOL     OW16609   1.860   1.871   4.713
 5237SOL    HW116610   1.951   1.852   4.677
 5237SOL    HW216611   1.833   1.799   4.777
 5238SOL     OW16612   1.120   4.884   3.234
 5238SOL    HW116613   1.124   4.925   3.143
 5238SOL    HW216614   1.026   4.855   3.254
 5239SOL     OW16615   3.240   4.093   1.102
 5239SOL    HW116616   3.317   4.118   1.160
 5239SOL    HW216617   3.231   3.993   1.099
 5240SOL     OW16618   2.636   2.958   5.776
 5240SOL    HW116619   2.605   2.881   5.832
 5240SOL    HW216620   2.708   3.008   5.825
 5241SOL     OW16621   1.503   5.991   2.301
 5241SOL    HW116622   1.520   6.009   2.204
 5241SOL    HW216623   1.591   5.975   2.347
 5242SOL     OW16624   5.135   0.786   1.422
 5242SOL    HW116625   5.115   0.831   1.335
 5242SOL    HW216626   5.168   0.693   1.405
 5243SOL     OW16627   2.465   6.370   1.695
 5243SOL    HW116628   2.380   6.389   1.743
 5243SOL    HW216629   2.450   6.380   1.597
 5244SOL     OW16630   5.301   3.154   0.496
 5244SOL    HW116631   5.283   3.123   0.589
 5244SOL    HW216632   5.371   3.226   0.498
 5245SOL     OW16633   3.950   4.407   0.402
 5245SOL    HW116634   3.867   4.396   0.347
 5245SOL    HW216635   3.978   4.503   0.402
 5246SOL     OW16636   6.910   2.571   2.010
 5246SOL    HW116637   6.951   2.552   1.921
 5246SOL    HW216638   6.981   2.604   2.073
 5247SOL     OW16639   3.872   1.551   5.478
 5247SOL    HW116640   3.797   1.617   5.486
 5247SOL    HW216641   3.959   1.595   5.499
 5248SOL     OW16642   6.906   1.896   2.926
 5248SOL    HW116643   7.003   1.902   2.949
 5248SOL    HW216644   6.892   1.929   2.833
 5249SOL     OW16645   1.243   5.145   6.879
 5249SOL    HW116646   1.191   5.122   6.962
 5249SOL    HW216647   1.235   5.243   6.861
 5250SOL     OW16648   1.855   5.315   0.608
 5250SOL    HW116649   1.938   5.260   0.610
 5250SOL    HW216650   1.830   5.341   0.702
 5251SOL     OW16651   0.917   4.653   1.109
 5251SOL    HW116652   0.964   4.698   1.033
 5251SOL    HW216653   0.916   4.713   1.189
 5252SOL     OW16654   2.999   6.623   2.324
 5252SOL    HW116655   3.021   6.536   2.280
 5252SOL    HW216656   3.050   6.696   2.280
 5253SOL     OW16657   5.852   4.546   4.760
 5253SOL    HW116658   5.910   4.607   4.706
 5253SOL    HW216659   5.757   4.554   4.730
 5254SOL     OW16660   5.622   0.526   3.396
 5254SOL    HW116661   5.562   0.482   3.328
 5254SOL    HW216662   5.620   0.474   3.481
 5255SOL     OW16663   5.201   2.133   4.537
 5255SOL    HW116664   5.218   2.114   4.634
 5255SOL    HW216665   5.116   2.185   4.528
 5256SOL     OW16666   4.823   1.076   2.968
 5256SOL    HW116667   4.894   1.010   2.993
 5256SOL    HW216668   4.856   1.169   2.984
 5257SOL     OW16669   4.563   0.297   0.267
 5257SOL    HW116670   4.522   0.216   0.308
 5257SOL    HW216671   4.662   0.287   0.261
 5258SOL     OW16672   5.820   1.822   2.851
 5258SOL    HW116673   5.831   1.921   2.851
 5258SOL    HW216674   5.732   1.798   2.809
 5259SOL     OW16675   5.130   5.812   2.892
 5259SOL    HW116676   5.048   5.847   2.938
 5259SOL    HW216677   5.205   5.805   2.958
 5260SOL     OW16678   3.408   5.352   0.103
 5260SOL    HW116679   3.483   5.288   0.119
 5260SOL    HW216680   3.326   5.318   0.149
 5261SOL     OW16681   0.198   4.918   0.873
 5261SOL    HW116682   0.226   4.970   0.954
 5261SOL    HW216683   0.116   4.959   0.834
 5262SOL     OW16684   2.748   0.633   2.948
 5262SOL    HW116685   2.737   0.551   2.893
 5262SOL    HW216686   2.830   0.682   2.919
 5263SOL     OW16687   1.961   1.322   3.007
 5263SOL    HW116688   1.970   1.374   2.922
 5263SOL    HW216689   2.051   1.291   3.037
 5264SOL     OW16690   6.957   2.134   1.872
 5264SOL    HW116691   6.981   2.083   1.955
 5264SOL    HW216692   6.877   2.093   1.830
 5265SOL     OW16693   5.797   2.820   4.554
 5265SOL    HW116694   5.824   2.751   4.620
 5265SOL    HW216695   5.701   2.844   4.569
 5266SOL     OW16696   2.193   6.606   0.739
 5266SOL    HW116697   2.221   6.619   0.644
 5266SOL    HW216698   2.094   6.616   0.747
 5267SOL     OW16699   4.542   2.172   4.878
 5267SOL    HW116700   4.480   2.248   4.861
 5267SOL    HW216701   4.490   2.091   4.905
 5268SOL     OW16702   5.304   0.633   6.759
 5268SOL    HW116703   5.338   0.633   6.853
 5268SOL    HW216704   5.324   0.721   6.717
 5269SOL     OW16705   0.710   6.750   2.238
 5269SOL    HW116706   0.702   6.794   2.149
 5269SOL    HW216707   0.619   6.727   2.273
 5270SOL     OW16708   5.426   1.453   0.246
 5270SOL    HW116709   5.452   1.542   0.281
 5270SOL    HW216710   5.452   1.382   0.311
 5271SOL     OW16711   6.593   5.312   4.759
 5271SOL    HW116712   6.608   5.221   4.723
 5271SOL    HW216713   6.650   5.327   4.839
 5272SOL     OW16714   4.229   6.340   1.039
 5272SOL    HW116715   4.141   6.305   1.071
 5272SOL    HW216716   4.284   6.264   1.005
 5273SOL     OW16717   0.806   3.032   2.651
 5273SOL    HW116718   0.794   3.080   2.564
 5273SOL    HW216719   0.883   2.968   2.643
 5274SOL     OW16720   4.524   6.582   2.524
 5274SOL    HW116721   4.557   6.644   2.453
 5274SOL    HW216722   4.602   6.550   2.579
 5275SOL     OW16723   2.514   0.697   1.013
 5275SOL    HW116724   2.481   0.773   0.957
 5275SOL    HW216725   2.614   0.701   1.018
 5276SOL     OW16726   2.471   0.087   2.274
 5276SOL    HW116727   2.482   0.135   2.187
 5276SOL    HW216728   2.473   7.013   2.259
 5277SOL     OW16729   3.129   0.945   2.603
 5277SOL    HW116730   3.100   0.849   2.598
 5277SOL    HW216731   3.225   0.952   2.576
 5278SOL     OW16732   4.410   4.613   3.001
 5278SOL    HW116733   4.316   4.579   3.005
 5278SOL    HW216734   4.434   4.655   3.088
 5279SOL     OW16735   2.707   5.379   0.803
 5279SOL    HW116736   2.793   5.400   0.849
 5279SOL    HW216737   2.716   5.398   0.706
 5280SOL     OW16738   2.842   6.391   5.140
 5280SOL    HW116739   2.802   6.428   5.056
 5280SOL    HW216740   2.851   6.292   5.132
 5281SOL     OW16741   6.984   1.517   2.761
 5281SOL    HW116742   6.989   1.571   2.845
 5281SOL    HW216743   6.964   1.421   2.784
 5282SOL     OW16744   2.063   1.843   3.987
 5282SOL    HW116745   2.148   1.812   3.946
 5282SOL    HW216746   2.082   1.922   4.046
 5283SOL     OW16747   5.496   5.896   0.988
 5283SOL    HW116748   5.510   5.938   0.898
 5283SOL    HW216749   5.402   5.862   0.994
 5284SOL     OW16750   5.507   4.549   2.906
 5284SOL    HW116751   5.585   4.601   2.941
 5284SOL    HW216752   5.450   4.518   2.982
 5285SOL     OW16753   3.200   4.903   3.800
 5285SOL    HW116754   3.290   4.893   3.840
 5285SOL    HW216755   3.208   4.948   3.711
 5286SOL     OW16756   2.330   4.214   1.154
 5286SOL    HW116757   2.423   4.252   1.154
 5286SOL    HW216758   2.298   4.204   1.059
 5287SOL     OW16759   2.618   1.341   0.607
 5287SOL    HW116760   2.625   1.368   0.703
 5287SOL    HW216761   2.535   1.380   0.567
 5288SOL     OW16762   3.336   0.133   1.439
 5288SOL    HW116763   3.379   0.212   1.483
 5288SOL    HW216764   3.379   0.119   1.349
 5289SOL     OW16765   0.833   5.148   0.462
 5289SOL    HW116766   0.775   5.112   0.388
 5289SOL    HW216767   0.879   5.073   0.508
 5290SOL     OW16768   3.694   6.182   6.848
 5290SOL    HW116769   3.702   6.170   6.749
 5290SOL    HW216770   3.785   6.176   6.889
 5291SOL     OW16771   1.781   4.909   5.760
 5291SOL    HW116772   1.713   4.942   5.695
 5291SOL    HW216773   1.869   4.898   5.713
 5292SOL     OW16774   5.168   2.996   6.923
 5292SOL    HW116775   5.125   3.079   6.890
 5292SOL    HW216776   5.097   2.929   6.946
 5293SOL     OW16777   0.827   1.053   4.495
 5293SOL    HW116778   0.893   0.988   4.457
 5293SOL    HW216779   0.770   1.090   4.422
 5294SOL     OW16780   5.711   2.935   6.205
 5294SOL    HW116781   5.664   2.997   6.267
 5294SOL    HW216782   5.666   2.937   6.116
 5295SOL     OW16783   5.129   0.976   2.887
 5295SOL    HW116784   5.200   1.045   2.899
 5295SOL    HW216785   5.125   0.917   2.968
 5296SOL     OW16786   1.734   4.333   0.282
 5296SOL    HW116787   1.701   4.397   0.213
 5296SOL    HW216788   1.801   4.271   0.240
 5297SOL     OW16789   1.923   1.642   0.997
 5297SOL    HW116790   1.860   1.628   1.073
 5297SOL    HW216791   1.931   1.557   0.944
 5298SOL     OW16792   6.560   4.762   1.990
 5298SOL    HW116793   6.473   4.721   2.016
 5298SOL    HW216794   6.633   4.694   1.999
 5299SOL     OW16795   2.731   0.378   1.463
 5299SOL    HW116796   2.658   0.314   1.437
 5299SOL    HW216797   2.811   0.362   1.406
 5300SOL     OW16798   0.216   6.339   3.604
 5300SOL    HW116799   0.228   6.421   3.549
 5300SOL    HW216800   0.298   6.282   3.597
 5301SOL     OW16801   4.189   1.577   0.087
 5301SOL    HW116802   4.148   1.559   0.177
 5301SOL    HW216803   4.141   1.525   0.017
 5302SOL     OW16804   6.860   4.359   3.104
 5302SOL    HW116805   6.905   4.300   3.171
 5302SOL    HW216806   6.928   4.417   3.059
 5303SOL     OW16807   0.056   4.761   3.644
 5303SOL    HW116808   0.046   4.826   3.568
 5303SOL    HW216809   0.113   4.802   3.715
 5304SOL     OW16810   5.041   2.010   5.629
 5304SOL    HW116811   4.953   2.030   5.587
 5304SOL    HW216812   5.035   2.023   5.728
 5305SOL     OW16813   2.136   0.595   3.903
 5305SOL    HW116814   2.226   0.627   3.871
 5305SOL    HW216815   2.135   0.592   4.002
 5306SOL     OW16816   2.515   6.819   5.792
 5306SOL    HW116817   2.610   6.804   5.820
 5306SOL    HW216818   2.480   6.902   5.834
 5307SOL     OW16819   4.350   6.469   6.266
 5307SOL    HW116820   4.337   6.528   6.186
 5307SOL    HW216821   4.377   6.525   6.344
 5308SOL     OW16822   6.779   0.573   3.447
 5308SOL    HW116823   6.839   0.650   3.472
 5308SOL    HW216824   6.713   0.557   3.520
 5309SOL     OW16825   3.854   4.016   3.910
 5309SOL    HW116826   3.949   4.020   3.877
 5309SOL    HW216827   3.791   4.018   3.832
 5310SOL     OW16828   5.475   2.427   1.543
 5310SOL    HW116829   5.442   2.369   1.618
 5310SOL    HW216830   5.439   2.519   1.554
 5311SOL     OW16831   2.479   5.252   0.014
 5311SOL    HW116832   2.564   5.202   0.032
 5311SOL    HW216833   2.499   5.350   0.009
 5312SOL     OW16834   1.188   4.340   2.729
 5312SOL    HW116835   1.101   4.323   2.776
 5312SOL    HW216836   1.263   4.314   2.789
 5313SOL     OW16837   1.082   5.975   6.501
 5313SOL    HW116838   1.004   5.916   6.523
 5313SOL    HW216839   1.105   5.965   6.404
 5314SOL     OW16840   4.295   5.427   6.766
 5314SOL    HW116841   4.214   5.440   6.709
 5314SOL    HW216842   4.293   5.336   6.808
 5315SOL     OW16843   6.027   3.780   1.493
 5315SOL    HW116844   5.930   3.805   1.486
 5315SOL    HW216845   6.037   3.694   1.543
 5316SOL     OW16846   0.155   4.952   4.813
 5316SOL    HW116847   0.145   4.910   4.723
 5316SOL    HW216848   0.212   5.034   4.807
 5317SOL     OW16849   5.434   0.479   2.695
 5317SOL    HW116850   5.448   0.494   2.793
 5317SOL    HW216851   5.363   0.541   2.662
 5318SOL     OW16852   6.888   2.665   4.593
 5318SOL    HW116853   6.934   2.717   4.665
 5318SOL    HW216854   6.808   2.618   4.632
 5319SOL     OW16855   5.584   0.137   0.253
 5319SOL    HW116856   5.569   0.169   0.347
 5319SOL    HW216857   5.612   0.213   0.196
 5320SOL     OW16858   5.356   3.645   6.675
 5320SOL    HW116859   5.358   3.658   6.774
 5320SOL    HW216860   5.305   3.562   6.653
 5321SOL     OW16861   1.833   5.644   5.623
 5321SOL    HW116862   1.763   5.702   5.580
 5321SOL    HW216863   1.789   5.569   5.671
 5322SOL     OW16864   3.838   5.527   6.307
 5322SOL    HW116865   3.812   5.556   6.399
 5322SOL    HW216866   3.914   5.584   6.275
 5323SOL     OW16867   3.773   1.598   0.440
 5323SOL    HW116868   3.832   1.671   0.476
 5323SOL    HW216869   3.824   1.513   0.436
 5324SOL     OW16870   4.323   3.087   1.513
 5324SOL    HW116871   4.230   3.075   1.479
 5324SOL    HW216872   4.358   3.177   1.486
 5325SOL     OW16873   5.252   6.283   2.035
 5325SOL    HW116874   5.331   6.326   2.079
 5325SOL    HW216875   5.253   6.185   2.052
 5326SOL     OW16876   6.623   5.822   1.944
 5326SOL    HW116877   6.610   5.906   1.890
 5326SOL    HW216878   6.633   5.846   2.041
 5327SOL     OW16879   6.613   6.793   4.356
 5327SOL    HW116880   6.599   6.774   4.453
 5327SOL    HW216881   6.601   6.891   4.338
 5328SOL     OW16882   3.813   3.940   0.123
 5328SOL    HW116883   3.861   3.944   0.035
 5328SOL    HW216884   3.868   3.987   0.192
 5329SOL     OW16885   0.624   4.647   0.942
 5329SOL    HW116886   0.582   4.728   0.985
 5329SOL    HW216887   0.709   4.625   0.989
 5330SOL     OW16888   4.071   3.880   1.271
 5330SOL    HW116889   4.092   3.808   1.205
 5330SOL    HW216890   3.972   3.885   1.285
 5331SOL     OW16891   3.983   2.113   0.430
 5331SOL    HW116892   4.067   2.140   0.383
 5331SOL    HW216893   3.981   2.154   0.522
 5332SOL     OW16894   6.114   4.800   0.414
 5332SOL    HW116895   6.142   4.860   0.340
 5332SOL    HW216896   6.091   4.855   0.495
 5333SOL     OW16897   1.414   1.058   3.795
 5333SOL    HW116898   1.416   1.002   3.712
 5333SOL    HW216899   1.432   1.000   3.875
 5334SOL     OW16900   4.592   4.395   3.086
 5334SOL    HW116901   4.616   4.416   3.181
 5334SOL    HW216902   4.528   4.464   3.052
 5335SOL     OW16903   0.152   4.824   1.314
 5335SOL    HW116904   0.248   4.802   1.302
 5335SOL    HW216905   0.102   4.807   1.229
 5336SOL     OW16906   1.905   2.296   4.512
 5336SOL    HW116907   1.820   2.247   4.528
 5336SOL    HW216908   1.921   2.361   4.586
 5337SOL     OW16909   6.720   4.654   1.301
 5337SOL    HW116910   6.641   4.716   1.295
 5337SOL    HW216911   6.757   4.656   1.393
 5338SOL     OW16912   6.287   3.188   0.208
 5338SOL    HW116913   6.300   3.093   0.179
 5338SOL    HW216914   6.346   3.208   0.286
 5339SOL     OW16915   6.219   2.397   2.797
 5339SOL    HW116916   6.211   2.300   2.777
 5339SOL    HW216917   6.306   2.414   2.845
 5340SOL     OW16918   5.516   2.919   2.533
 5340SOL    HW116919   5.419   2.894   2.532
 5340SOL    HW216920   5.554   2.906   2.441
 5341SOL     OW16921   4.648   5.024   3.283
 5341SOL    HW116922   4.675   5.046   3.377
 5341SOL    HW216923   4.548   5.026   3.277
 5342SOL     OW16924   6.017   0.182   5.414
 5342SOL    HW116925   5.942   0.117   5.418
 5342SOL    HW216926   5.989   0.268   5.458
 5343SOL     OW16927   3.944   3.602   5.454
 5343SOL    HW116928   4.025   3.617   5.511
 5343SOL    HW216929   3.968   3.611   5.358
 5344SOL     OW16930   0.344   1.849   6.480
 5344SOL    HW116931   0.354   1.865   6.578
 5344SOL    HW216932   0.248   1.849   6.455
 5345SOL     OW16933   5.318   1.133   6.699
 5345SOL    HW116934   5.418   1.127   6.699
 5345SOL    HW216935   5.286   1.155   6.791
 5346SOL     OW16936   2.667   5.333   3.834
 5346SOL    HW116937   2.635   5.428   3.833
 5346SOL    HW216938   2.589   5.272   3.852
 5347SOL     OW16939   6.345   1.880   4.035
 5347SOL    HW116940   6.364   1.870   3.938
 5347SOL    HW216941   6.428   1.911   4.083
 5348SOL     OW16942   5.272   2.207   4.048
 5348SOL    HW116943   5.363   2.244   4.032
 5348SOL    HW216944   5.249   2.141   3.977
 5349SOL     OW16945   0.995   2.945   2.018
 5349SOL    HW116946   1.032   2.951   2.111
 5349SOL    HW216947   1.046   2.876   1.966
 5350SOL     OW16948   2.520   6.718   5.520
 5350SOL    HW116949   2.450   6.670   5.468
 5350SOL    HW216950   2.485   6.740   5.611
 5351SOL     OW16951   0.398   5.349   1.767
 5351SOL    HW116952   0.492   5.384   1.760
 5351SOL    HW216953   0.400   5.249   1.764
 5352SOL     OW16954   1.910   3.961   3.970
 5352SOL    HW116955   1.919   3.969   4.069
 5352SOL    HW216956   1.916   4.052   3.928
 5353SOL     OW16957   4.557   5.268   3.188
 5353SOL    HW116958   4.490   5.257   3.262
 5353SOL    HW216959   4.642   5.220   3.214
 5354SOL     OW16960   4.374   5.603   0.586
 5354SOL    HW116961   4.297   5.541   0.569
 5354SOL    HW216962   4.355   5.659   0.667
 5355SOL     OW16963   5.278   4.769   5.156
 5355SOL    HW116964   5.350   4.827   5.120
 5355SOL    HW216965   5.206   4.759   5.088
 5356SOL     OW16966   0.408   4.806   1.043
 5356SOL    HW116967   0.314   4.829   1.020
 5356SOL    HW216968   0.416   4.789   1.141
 5357SOL     OW16969   5.062   4.781   2.001
 5357SOL    HW116970   4.971   4.741   1.988
 5357SOL    HW216971   5.058   4.879   1.983
 5358SOL     OW16972   4.680   1.136   0.006
 5358SOL    HW116973   4.657   1.086   0.089
 5358SOL    HW216974   4.731   1.219   0.029
 5359SOL     OW16975   1.703   2.058   6.861
 5359SOL    HW116976   1.787   2.100   6.826
 5359SOL    HW216977   1.691   2.083   6.957
 5360SOL     OW16978   5.742   4.340   3.712
 5360SOL    HW116979   5.679   4.355   3.636
 5360SOL    HW216980   5.694   4.355   3.799
 5361SOL     OW16981   3.427   6.145   2.752
 5361SOL    HW116982   3.449   6.089   2.673
 5361SOL    HW216983   3.488   6.224   2.755
 5362SOL     OW16984   5.590   0.072   2.040
 5362SOL    HW116985   5.594   0.060   1.941
 5362SOL    HW216986   5.550   0.162   2.062
 5363SOL     OW16987   5.635   5.346   4.931
 5363SOL    HW116988   5.558   5.308   4.983
 5363SOL    HW216989   5.649   5.292   4.848
 5364SOL     OW16990   4.816   0.906   2.610
 5364SOL    HW116991   4.888   0.839   2.626
 5364SOL    HW216992   4.856   0.998   2.604
 5365SOL     OW16993   3.164   3.204   4.111
 5365SOL    HW116994   3.236   3.235   4.049
 5365SOL    HW216995   3.182   3.237   4.203
 5366SOL     OW16996   6.476   6.648   1.682
 5366SOL    HW116997   6.398   6.704   1.654
 5366SOL    HW216998   6.550   6.707   1.714
 5367SOL     OW16999   0.017   6.464   1.240
 5367SOL    HW117000   6.954   6.510   1.234
 5367SOL    HW217001   0.089   6.525   1.205
 5368SOL     OW17002   6.581   5.743   3.579
 5368SOL    HW117003   6.663   5.688   3.598
 5368SOL    HW217004   6.523   5.746   3.661
 5369SOL     OW17005   2.905   5.769   1.978
 5369SOL    HW117006   2.980   5.735   1.921
 5369SOL    HW217007   2.826   5.707   1.970
 5370SOL     OW17008   3.091   3.803   1.332
 5370SOL    HW117009   3.176   3.758   1.307
 5370SOL    HW217010   3.016   3.736   1.330
 5371SOL     OW17011   6.786   5.206   5.373
 5371SOL    HW117012   6.788   5.126   5.314
 5371SOL    HW217013   6.732   5.278   5.329
 5372SOL     OW17014   0.781   0.237   2.344
 5372SOL    HW117015   0.780   0.246   2.444
 5372SOL    HW217016   0.824   0.318   2.304
 5373SOL     OW17017   3.915   0.331   6.027
 5373SOL    HW117018   3.974   0.281   6.091
 5373SOL    HW217019   3.820   0.315   6.050
 5374SOL     OW17020   3.000   5.106   1.354
 5374SOL    HW117021   3.013   5.008   1.368
 5374SOL    HW217022   2.902   5.127   1.352
 5375SOL     OW17023   0.685   5.898   4.816
 5375SOL    HW117024   0.774   5.867   4.848
 5375SOL    HW217025   0.613   5.858   4.874
 5376SOL     OW17026   1.007   1.695   0.001
 5376SOL    HW117027   0.989   1.603   6.990
 5376SOL    HW217028   0.920   1.745   0.008
 5377SOL     OW17029   2.242   0.519   3.376
 5377SOL    HW117030   2.248   0.600   3.318
 5377SOL    HW217031   2.185   0.450   3.331
 5378SOL     OW17032   5.787   0.619   1.616
 5378SOL    HW117033   5.722   0.546   1.594
 5378SOL    HW217034   5.805   0.618   1.714
 5379SOL     OW17035   0.905   2.922   5.954
 5379SOL    HW117036   0.922   2.965   6.042
 5379SOL    HW217037   0.891   2.993   5.884
 5380SOL     OW17038   5.038   0.318   1.276
 5380SOL    HW117039   4.999   0.265   1.352
 5380SOL    HW217040   4.970   0.328   1.204
 5381SOL     OW17041   4.700   6.265   2.923
 5381SOL    HW117042   4.668   6.273   2.829
 5381SOL    HW217043   4.799   6.249   2.923
 5382SOL     OW17044   4.271   1.788   1.929
 5382SOL    HW117045   4.199   1.815   1.865
 5382SOL    HW217046   4.259   1.692   1.954
 5383SOL     OW17047   2.148   2.890   4.648
 5383SOL    HW117048   2.169   2.859   4.740
 5383SOL    HW217049   2.224   2.869   4.587
 5384SOL     OW17050   4.583   5.837   5.460
 5384SOL    HW117051   4.633   5.915   5.496
 5384SOL    HW217052   4.648   5.770   5.422
 5385SOL     OW17053   5.846   2.565   5.696
 5385SOL    HW117054   5.840   2.493   5.765
 5385SOL    HW217055   5.800   2.534   5.613
 5386SOL     OW17056   6.943   4.153   4.082
 5386SOL    HW117057   6.983   4.233   4.126
 5386SOL    HW217058   6.907   4.180   3.992
 5387SOL     OW17059   2.097   1.224   2.653
 5387SOL    HW117060   2.195   1.240   2.648
 5387SOL    HW217061   2.051   1.309   2.681
 5388SOL     OW17062   0.988   6.702   2.310
 5388SOL    HW117063   1.060   6.734   2.248
 5388SOL    HW217064   0.902   6.748   2.287
 5389SOL     OW17065   4.446   1.732   4.003
 5389SOL    HW117066   4.386   1.804   3.969
 5389SOL    HW217067   4.430   1.648   3.952
 5390SOL     OW17068   6.569   3.258   3.655
 5390SOL    HW117069   6.498   3.190   3.675
 5390SOL    HW217070   6.546   3.344   3.702
 5391SOL     OW17071   2.086   2.741   0.240
 5391SOL    HW117072   2.120   2.669   0.178
 5391SOL    HW217073   2.006   2.707   0.290
 5392SOL     OW17074   5.340   1.629   3.357
 5392SOL    HW117075   5.395   1.693   3.303
 5392SOL    HW217076   5.392   1.544   3.370
 5393SOL     OW17077   3.864   1.745   5.804
 5393SOL    HW117078   3.870   1.653   5.844
 5393SOL    HW217079   3.955   1.775   5.775
 5394SOL     OW17080   1.987   0.324   0.921
 5394SOL    HW117081   2.075   0.285   0.895
 5394SOL    HW217082   2.001   0.414   0.962
 5395SOL     OW17083   5.420   2.221   1.047
 5395SOL    HW117084   5.361   2.267   1.114
 5395SOL    HW217085   5.514   2.251   1.061
 5396SOL     OW17086   6.070   5.453   3.236
 5396SOL    HW117087   6.031   5.478   3.325
 5396SOL    HW217088   6.158   5.408   3.249
 5397SOL     OW17089   6.529   1.191   3.031
 5397SOL    HW117090   6.509   1.097   3.004
 5397SOL    HW217091   6.502   1.254   2.959
 5398SOL     OW17092   4.948   1.820   3.396
 5398SOL    HW117093   4.874   1.855   3.338
 5398SOL    HW217094   4.912   1.802   3.488
 5399SOL     OW17095   2.151   6.916   5.514
 5399SOL    HW117096   2.175   7.006   5.477
 5399SOL    HW217097   2.094   6.927   5.596
 5400SOL     OW17098   3.738   3.297   1.316
 5400SOL    HW117099   3.700   3.314   1.407
 5400SOL    HW217100   3.696   3.215   1.278
 5401SOL     OW17101   6.035   4.434   1.720
 5401SOL    HW117102   6.021   4.486   1.636
 5401SOL    HW217103   6.132   4.438   1.745
 5402SOL     OW17104   1.703   6.931   0.805
 5402SOL    HW117105   1.723   7.005   0.869
 5402SOL    HW217106   1.675   6.968   0.717
 5403SOL     OW17107   5.226   3.445   0.290
 5403SOL    HW117108   5.285   3.524   0.308
 5403SOL    HW217109   5.218   3.389   0.372
 5404SOL     OW17110   6.266   0.748   1.449
 5404SOL    HW117111   6.179   0.733   1.495
 5404SOL    HW217112   6.309   0.831   1.485
 5405SOL     OW17113   4.957   5.663   0.039
 5405SOL    HW117114   5.055   5.667   0.021
 5405SOL    HW217115   4.918   5.583   7.018
 5406SOL     OW17116   2.744   0.226   3.868
 5406SOL    HW117117   2.833   0.198   3.903
 5406SOL    HW217118   2.756   0.285   3.788
 5407SOL     OW17119   2.320   0.559   1.482
 5407SOL    HW117120   2.403   0.542   1.535
 5407SOL    HW217121   2.342   0.565   1.385
 5408SOL     OW17122   2.601   2.507   4.435
 5408SOL    HW117123   2.572   2.427   4.381
 5408SOL    HW217124   2.630   2.476   4.526
 5409SOL     OW17125   1.366   2.580   1.264
 5409SOL    HW117126   1.278   2.566   1.310
 5409SOL    HW217127   1.354   2.565   1.166
 5410SOL     OW17128   0.949   2.402   0.924
 5410SOL    HW117129   1.037   2.370   0.890
 5410SOL    HW217130   0.877   2.377   0.859
 5411SOL     OW17131   4.052   5.096   6.823
 5411SOL    HW117132   3.996   5.170   6.784
 5411SOL    HW217133   4.033   5.011   6.774
 5412SOL     OW17134   0.403   2.308   5.746
 5412SOL    HW117135   0.308   2.326   5.772
 5412SOL    HW217136   0.439   2.232   5.800
 5413SOL     OW17137   6.587   6.756   4.611
 5413SOL    HW117138   6.634   6.809   4.681
 5413SOL    HW217139   6.556   6.669   4.650
 5414SOL     OW17140   6.506   3.748   5.546
 5414SOL    HW117141   6.454   3.830   5.523
 5414SOL    HW217142   6.581   3.772   5.608
 5415SOL     OW17143   3.611   0.616   0.371
 5415SOL    HW117144   3.527   0.664   0.346
 5415SOL    HW217145   3.628   0.627   0.469
 5416SOL     OW17146   3.543   5.092   5.555
 5416SOL    HW117147   3.540   5.017   5.621
 5416SOL    HW217148   3.452   5.133   5.547
 5417SOL     OW17149   4.318   6.198   3.767
 5417SOL    HW117150   4.331   6.103   3.737
 5417SOL    HW217151   4.344   6.260   3.693
 5418SOL     OW17152   6.359   4.009   4.483
 5418SOL    HW117153   6.377   4.035   4.388
 5418SOL    HW217154   6.430   4.048   4.542
 5419SOL     OW17155   3.886   6.925   6.405
 5419SOL    HW117156   3.815   6.923   6.475
 5419SOL    HW217157   3.915   7.020   6.389
 5420SOL     OW17158   1.362   0.841   1.421
 5420SOL    HW117159   1.406   0.820   1.509
 5420SOL    HW217160   1.282   0.783   1.409
 5421SOL     OW17161   3.731   5.288   2.191
 5421SOL    HW117162   3.657   5.276   2.257
 5421SOL    HW217163   3.694   5.285   2.099
 5422SOL     OW17164   2.243   6.478   3.822
 5422SOL    HW117165   2.293   6.513   3.902
 5422SOL    HW217166   2.267   6.532   3.741
 5423SOL     OW17167   6.382   6.422   2.437
 5423SOL    HW117168   6.289   6.389   2.448
 5423SOL    HW217169   6.443   6.344   2.420
 5424SOL     OW17170   4.456   4.130   5.355
 5424SOL    HW117171   4.476   4.169   5.266
 5424SOL    HW217172   4.533   4.145   5.417
 5425SOL     OW17173   0.018   3.727   6.317
 5425SOL    HW117174   6.965   3.685   6.269
 5425SOL    HW217175   0.037   3.675   6.400
 5426SOL     OW17176   5.824   5.325   2.678
 5426SOL    HW117177   5.771   5.344   2.761
 5426SOL    HW217178   5.778   5.367   2.599
 5427SOL     OW17179   4.782   2.630   6.351
 5427SOL    HW117180   4.814   2.560   6.288
 5427SOL    HW217181   4.839   2.629   6.434
 5428SOL     OW17182   6.925   5.572   3.320
 5428SOL    HW117183   6.988   5.495   3.331
 5428SOL    HW217184   6.881   5.592   3.407
 5429SOL     OW17185   2.694   0.392   3.635
 5429SOL    HW117186   2.607   0.344   3.622
 5429SOL    HW217187   2.690   0.482   3.592
 5430SOL     OW17188   2.471   3.540   6.633
 5430SOL    HW117189   2.457   3.495   6.545
 5430SOL    HW217190   2.562   3.583   6.635
 5431SOL     OW17191   3.216   5.062   5.901
 5431SOL    HW117192   3.166   4.978   5.921
 5431SOL    HW217193   3.156   5.141   5.916
 5432SOL     OW17194   5.565   5.546   0.785
 5432SOL    HW117195   5.590   5.451   0.770
 5432SOL    HW217196   5.484   5.550   0.843
 5433SOL     OW17197   1.613   6.695   0.921
 5433SOL    HW117198   1.644   6.782   0.881
 5433SOL    HW217199   1.552   6.713   0.997
 5434SOL     OW17200   5.075   0.926   4.703
 5434SOL    HW117201   5.043   0.875   4.783
 5434SOL    HW217202   5.159   0.974   4.725
 5435SOL     OW17203   6.543   3.929   0.792
 5435SOL    HW117204   6.597   4.001   0.836
 5435SOL    HW217205   6.538   3.850   0.852
 5436SOL     OW17206   1.508   4.797   3.041
 5436SOL    HW117207   1.570   4.857   3.090
 5436SOL    HW217208   1.534   4.793   2.944
 5437SOL     OW17209   3.785   5.833   0.654
 5437SOL    HW117210   3.705   5.893   0.660
 5437SOL    HW217211   3.791   5.794   0.563
 5438SOL     OW17212   4.695   4.332   2.716
 5438SOL    HW117213   4.604   4.375   2.717
 5438SOL    HW217214   4.737   4.345   2.627
 5439SOL     OW17215   1.019   4.466   1.766
 5439SOL    HW117216   1.018   4.378   1.718
 5439SOL    HW217217   0.928   4.507   1.759
 5440SOL     OW17218   5.423   6.092   3.399
 5440SOL    HW117219   5.487   6.103   3.475
 5440SOL    HW217220   5.472   6.056   3.319
 5441SOL     OW17221   4.408   2.304   3.787
 5441SOL    HW117222   4.327   2.305   3.729
 5441SOL    HW217223   4.455   2.216   3.777
 5442SOL     OW17224   5.265   7.023   4.597
 5442SOL    HW117225   5.295   0.065   4.666
 5442SOL    HW217226   5.200   6.959   4.639
 5443SOL     OW17227   4.527   0.142   4.611
 5443SOL    HW117228   4.595   0.202   4.568
 5443SOL    HW217229   4.448   0.133   4.550
 5444SOL     OW17230   0.023   0.876   4.307
 5444SOL    HW117231   0.092   0.923   4.252
 5444SOL    HW217232   7.008   0.940   4.373
 5445SOL     OW17233   5.195   5.356   5.236
 5445SOL    HW117234   5.124   5.301   5.281
 5445SOL    HW217235   5.154   5.438   5.196
 5446SOL     OW17236   1.056   4.384   6.015
 5446SOL    HW117237   0.994   4.326   6.067
 5446SOL    HW217238   1.129   4.328   5.974
 5447SOL     OW17239   0.945   1.638   0.598
 5447SOL    HW117240   0.972   1.542   0.602
 5447SOL    HW217241   0.902   1.657   0.510
 5448SOL     OW17242   4.253   5.615   3.263
 5448SOL    HW117243   4.197   5.686   3.304
 5448SOL    HW217244   4.244   5.531   3.315
 5449SOL     OW17245   2.911   1.891   2.292
 5449SOL    HW117246   2.908   1.924   2.386
 5449SOL    HW217247   2.945   1.964   2.232
 5450SOL     OW17248   3.972   5.440   1.550
 5450SOL    HW117249   3.952   5.347   1.518
 5450SOL    HW217250   3.998   5.497   1.472
 5451SOL     OW17251   1.179   0.384   3.323
 5451SOL    HW117252   1.201   0.303   3.269
 5451SOL    HW217253   1.193   0.466   3.268
 5452SOL     OW17254   1.978   4.754   1.997
 5452SOL    HW117255   1.941   4.831   1.945
 5452SOL    HW217256   1.910   4.682   2.003
 5453SOL     OW17257   5.666   4.462   3.189
 5453SOL    HW117258   5.569   4.488   3.187
 5453SOL    HW217259   5.713   4.513   3.261
 5454SOL     OW17260   5.958   5.537   3.497
 5454SOL    HW117261   6.039   5.596   3.510
 5454SOL    HW217262   5.908   5.531   3.583
 5455SOL     OW17263   0.444   1.663   3.074
 5455SOL    HW117264   0.439   1.569   3.040
 5455SOL    HW217265   0.531   1.704   3.048
 5456SOL     OW17266   5.504   0.964   6.448
 5456SOL    HW117267   5.566   0.920   6.383
 5456SOL    HW217268   5.528   1.060   6.458
 5457SOL     OW17269   6.163   2.369   0.281
 5457SOL    HW117270   6.240   2.336   0.337
 5457SOL    HW217271   6.087   2.305   0.289
 5458SOL     OW17272   6.230   4.590   0.996
 5458SOL    HW117273   6.186   4.508   1.031
 5458SOL    HW217274   6.310   4.611   1.052
 5459SOL     OW17275   2.390   4.505   5.711
 5459SOL    HW117276   2.426   4.486   5.802
 5459SOL    HW217277   2.290   4.502   5.713
 5460SOL     OW17278   1.903   0.098   0.057
 5460SOL    HW117279   1.830   0.151   0.100
 5460SOL    HW217280   1.959   0.159   0.001
 5461SOL     OW17281   6.656   1.310   6.620
 5461SOL    HW117282   6.678   1.245   6.693
 5461SOL    HW217283   6.718   1.296   6.543
 5462SOL     OW17284   5.551   5.992   6.751
 5462SOL    HW117285   5.469   6.023   6.799
 5462SOL    HW217286   5.591   5.914   6.799
 5463SOL     OW17287   0.110   2.765   0.505
 5463SOL    HW117288   0.073   2.834   0.567
 5463SOL    HW217289   0.179   2.808   0.446
 5464SOL     OW17290   6.455   6.436   5.221
 5464SOL    HW117291   6.540   6.423   5.272
 5464SOL    HW217292   6.459   6.385   5.135
 5465SOL     OW17293   6.909   6.703   3.725
 5465SOL    HW117294   6.893   6.796   3.757
 5465SOL    HW217295   6.995   6.700   3.674
 5466SOL     OW17296   6.095   2.987   5.221
 5466SOL    HW117297   6.163   3.036   5.167
 5466SOL    HW217298   6.026   3.052   5.255
 5467SOL     OW17299   5.495   3.912   3.149
 5467SOL    HW117300   5.534   3.839   3.093
 5467SOL    HW217301   5.489   3.996   3.095
 5468SOL     OW17302   0.111   1.348   2.442
 5468SOL    HW117303   0.081   1.282   2.511
 5468SOL    HW217304   0.046   1.348   2.366
 5469SOL     OW17305   2.299   0.877   5.286
 5469SOL    HW117306   2.396   0.892   5.308
 5469SOL    HW217307   2.291   0.796   5.228
 5470SOL     OW17308   3.961   5.251   4.158
 5470SOL    HW117309   4.055   5.234   4.129
 5470SOL    HW217310   3.954   5.238   4.257
 5471SOL     OW17311   4.797   0.049   2.630
 5471SOL    HW117312   4.845   0.129   2.593
 5471SOL    HW217313   4.782   7.007   2.557
 5472SOL     OW17314   2.845   1.260   6.119
 5472SOL    HW117315   2.839   1.360   6.126
 5472SOL    HW217316   2.756   1.220   6.144
 5473SOL     OW17317   2.542   4.622   1.525
 5473SOL    HW117318   2.514   4.619   1.620
 5473SOL    HW217319   2.466   4.655   1.468
 5474SOL     OW17320   0.309   5.641   3.489
 5474SOL    HW117321   0.318   5.634   3.389
 5474SOL    HW217322   0.340   5.555   3.531
 5475SOL     OW17323   0.074   1.838   6.747
 5475SOL    HW117324   0.034   1.865   6.834
 5475SOL    HW217325   0.174   1.846   6.752
 5476SOL     OW17326   2.625   6.442   6.162
 5476SOL    HW117327   2.552   6.424   6.096
 5476SOL    HW217328   2.649   6.539   6.159
 5477SOL     OW17329   2.015   5.309   4.485
 5477SOL    HW117330   2.107   5.330   4.518
 5477SOL    HW217331   2.014   5.315   4.385
 5478SOL     OW17332   5.621   4.800   6.276
 5478SOL    HW117333   5.641   4.876   6.338
 5478SOL    HW217334   5.577   4.836   6.194
 5479SOL     OW17335   4.288   1.929   4.544
 5479SOL    HW117336   4.239   1.903   4.461
 5479SOL    HW217337   4.279   2.028   4.558
 5480SOL     OW17338   6.279   4.575   4.926
 5480SOL    HW117339   6.325   4.595   5.013
 5480SOL    HW217340   6.337   4.518   4.869
 5481SOL     OW17341   4.211   0.964   6.180
 5481SOL    HW117342   4.204   1.051   6.227
 5481SOL    HW217343   4.300   0.957   6.136
 5482SOL     OW17344   3.899   3.469   1.714
 5482SOL    HW117345   3.953   3.549   1.687
 5482SOL    HW217346   3.953   3.414   1.778
 5483SOL     OW17347   6.946   3.384   6.182
 5483SOL    HW117348   0.007   3.334   6.192
 5483SOL    HW217349   6.952   3.470   6.233
 5484SOL     OW17350   0.040   6.510   4.215
 5484SOL    HW117351   0.081   6.474   4.132
 5484SOL    HW217352   0.111   6.545   4.275
 5485SOL     OW17353   4.024   6.740   4.841
 5485SOL    HW117354   4.079   6.744   4.925
 5485SOL    HW217355   3.949   6.675   4.853
 5486SOL     OW17356   1.094   0.609   3.462
 5486SOL    HW117357   1.031   0.588   3.538
 5486SOL    HW217358   1.116   0.524   3.413
 5487SOL     OW17359   6.221   4.531   0.468
 5487SOL    HW117360   6.216   4.518   0.567
 5487SOL    HW217361   6.200   4.626   0.446
 5488SOL     OW17362   5.021   2.304   6.995
 5488SOL    HW117363   5.054   2.315   0.064
 5488SOL    HW217364   4.953   2.232   6.992
 5489SOL     OW17365   1.702   4.583   2.510
 5489SOL    HW117366   1.708   4.623   2.418
 5489SOL    HW217367   1.791   4.586   2.554
 5490SOL     OW17368   3.619   0.907   6.999
 5490SOL    HW117369   3.653   0.880   0.064
 5490SOL    HW217370   3.544   0.847   6.972
 5491SOL     OW17371   1.933   4.692   0.474
 5491SOL    HW117372   1.944   4.647   0.562
 5491SOL    HW217373   1.973   4.784   0.478
 5492SOL     OW17374   0.813   2.336   6.752
 5492SOL    HW117375   0.766   2.259   6.708
 5492SOL    HW217376   0.752   2.378   6.819
 5493SOL     OW17377   3.798   3.310   5.921
 5493SOL    HW117378   3.712   3.259   5.918
 5493SOL    HW217379   3.862   3.272   5.855
 5494SOL     OW17380   6.796   3.820   1.437
 5494SOL    HW117381   6.816   3.835   1.340
 5494SOL    HW217382   6.871   3.770   1.479
 5495SOL     OW17383   3.857   3.885   1.898
 5495SOL    HW117384   3.947   3.848   1.920
 5495SOL    HW217385   3.788   3.813   1.910
 5496SOL     OW17386   3.570   5.936   1.511
 5496SOL    HW117387   3.658   5.943   1.463
 5496SOL    HW217388   3.584   5.946   1.609
 5497SOL     OW17389   0.529   1.299   3.205
 5497SOL    HW117390   0.493   1.340   3.289
 5497SOL    HW217391   0.461   1.309   3.131
 5498SOL     OW17392   4.401   1.020   5.834
 5498SOL    HW117393   4.377   0.935   5.788
 5498SOL    HW217394   4.413   1.003   5.932
 5499SOL     OW17395   6.863   1.092   3.637
 5499SOL    HW117396   6.960   1.115   3.628
 5499SOL    HW217397   6.853   1.002   3.680
 5500SOL     OW17398   2.535   5.192   0.471
 5500SOL    HW117399   2.626   5.233   0.464
 5500SOL    HW217400   2.480   5.220   0.392
 5501SOL     OW17401   2.682   6.994   1.995
 5501SOL    HW117402   2.743   7.007   2.073
 5501SOL    HW217403   2.615   0.043   1.991
 5502SOL     OW17404   5.995   4.133   5.618
 5502SOL    HW117405   5.957   4.171   5.703
 5502SOL    HW217406   6.014   4.036   5.630
 5503SOL     OW17407   1.214   4.837   3.499
 5503SOL    HW117408   1.295   4.789   3.532
 5503SOL    HW217409   1.208   4.828   3.400
 5504SOL     OW17410   3.635   0.981   4.811
 5504SOL    HW117411   3.654   0.883   4.805
 5504SOL    HW217412   3.539   0.998   4.788
 5505SOL     OW17413   2.580   5.883   5.204
 5505SOL    HW117414   2.508   5.814   5.210
 5505SOL    HW217415   2.651   5.864   5.272
 5506SOL     OW17416   6.580   0.602   4.872
 5506SOL    HW117417   6.628   0.687   4.848
 5506SOL    HW217418   6.543   0.560   4.789
 5507SOL     OW17419   2.062   6.649   3.196
 5507SOL    HW117420   2.061   6.685   3.103
 5507SOL    HW217421   2.122   6.568   3.200
 5508SOL     OW17422   2.417   0.601   6.496
 5508SOL    HW117423   2.380   0.669   6.432
 5508SOL    HW217424   2.500   0.561   6.458
 5509SOL     OW17425   5.626   6.315   0.426
 5509SOL    HW117426   5.579   6.402   0.422
 5509SOL    HW217427   5.585   6.251   0.360
 5510SOL     OW17428   4.223   6.883   6.407
 5510SOL    HW117429   4.142   6.898   6.464
 5510SOL    HW217430   4.194   6.873   6.312
 5511SOL     OW17431   0.776   0.558   2.743
 5511SOL    HW117432   0.764   0.546   2.841
 5511SOL    HW217433   0.722   0.637   2.712
 5512SOL     OW17434   6.619   2.125   0.485
 5512SOL    HW117435   6.582   2.054   0.425
 5512SOL    HW217436   6.625   2.090   0.579
 5513SOL     OW17437   4.477   4.671   4.632
 5513SOL    HW117438   4.521   4.599   4.685
 5513SOL    HW217439   4.423   4.730   4.693
 5514SOL     OW17440   5.911   5.129   3.173
 5514SOL    HW117441   5.911   5.203   3.240
 5514SOL    HW217442   5.818   5.096   3.158
 5515SOL     OW17443   6.845   2.886   1.706
 5515SOL    HW117444   6.820   2.978   1.735
 5515SOL    HW217445   6.904   2.891   1.626
 5516SOL     OW17446   1.461   2.902   6.778
 5516SOL    HW117447   1.433   2.855   6.862
 5516SOL    HW217448   1.493   2.994   6.802
 5517SOL     OW17449   3.210   2.393   1.678
 5517SOL    HW117450   3.242   2.300   1.694
 5517SOL    HW217451   3.289   2.454   1.669
 5518SOL     OW17452   5.091   5.010   6.397
 5518SOL    HW117453   5.183   4.970   6.395
 5518SOL    HW217454   5.093   5.094   6.452
 5519SOL     OW17455   5.079   3.923   2.742
 5519SOL    HW117456   5.162   3.875   2.712
 5519SOL    HW217457   5.001   3.893   2.687
 5520SOL     OW17458   1.605   4.410   2.891
 5520SOL    HW117459   1.671   4.465   2.942
 5520SOL    HW217460   1.526   4.392   2.949
 5521SOL     OW17461   5.125   6.304   1.765
 5521SOL    HW117462   5.161   6.264   1.850
 5521SOL    HW217463   5.150   6.246   1.688
 5522SOL     OW17464   2.703   3.370   1.369
 5522SOL    HW117465   2.675   3.276   1.350
 5522SOL    HW217466   2.628   3.433   1.346
 5523SOL     OW17467   3.405   6.692   3.264
 5523SOL    HW117468   3.328   6.639   3.229
 5523SOL    HW217469   3.439   6.752   3.191
 5524SOL     OW17470   0.548   5.744   5.011
 5524SOL    HW117471   0.638   5.704   5.029
 5524SOL    HW217472   0.487   5.674   4.973
 5525SOL     OW17473   6.707   4.901   7.003
 5525SOL    HW117474   6.666   4.921   0.066
 5525SOL    HW217475   6.726   4.803   6.996
 5526SOL     OW17476   6.264   3.243   4.121
 5526SOL    HW117477   6.276   3.179   4.198
 5526SOL    HW217478   6.253   3.335   4.157
 5527SOL     OW17479   0.791   2.587   1.883
 5527SOL    HW117480   0.780   2.671   1.935
 5527SOL    HW217481   0.729   2.588   1.804
 5528SOL     OW17482   6.877   2.921   5.277
 5528SOL    HW117483   6.899   2.947   5.183
 5528SOL    HW217484   6.946   2.858   5.311
 5529SOL     OW17485   2.523   0.495   4.705
 5529SOL    HW117486   2.550   0.418   4.763
 5529SOL    HW217487   2.542   0.474   4.610
 5530SOL     OW17488   6.929   2.666   1.353
 5530SOL    HW117489   6.835   2.695   1.331
 5530SOL    HW217490   6.982   2.659   1.269
 5531SOL     OW17491   4.124   3.446   4.719
 5531SOL    HW117492   4.081   3.372   4.668
 5531SOL    HW217493   4.125   3.423   4.816
 5532SOL     OW17494   1.490   0.757   0.547
 5532SOL    HW117495   1.398   0.732   0.516
 5532SOL    HW217496   1.538   0.807   0.475
 5533SOL     OW17497   2.722   0.772   3.216
 5533SOL    HW117498   2.795   0.840   3.215
 5533SOL    HW217499   2.714   0.731   3.125
 5534SOL     OW17500   0.928   3.098   6.790
 5534SOL    HW117501   0.924   3.033   6.866
 5534SOL    HW217502   0.989   3.062   6.720
 5535SOL     OW17503   6.672   3.073   3.088
 5535SOL    HW117504   6.681   3.023   3.174
 5535SOL    HW217505   6.588   3.046   3.042
 5536SOL     OW17506   2.108   0.589   4.163
 5536SOL    HW117507   2.121   0.687   4.181
 5536SOL    HW217508   2.133   0.536   4.244
 5537SOL     OW17509   3.719   0.265   4.643
 5537SOL    HW117510   3.802   0.320   4.635
 5537SOL    HW217511   3.727   0.185   4.583
 5538SOL     OW17512   4.222   0.516   5.320
 5538SOL    HW117513   4.164   0.435   5.305
 5538SOL    HW217514   4.248   0.521   5.416
 5539SOL     OW17515   0.659   1.696   2.057
 5539SOL    HW117516   0.620   1.610   2.088
 5539SOL    HW217517   0.635   1.711   1.961
 5540SOL     OW17518   5.198   2.972   1.297
 5540SOL    HW117519   5.116   2.957   1.352
 5540SOL    HW217520   5.211   3.071   1.284
 5541SOL     OW17521   5.079   2.989   5.499
 5541SOL    HW117522   5.061   2.988   5.598
 5541SOL    HW217523   5.172   2.955   5.482
 5542SOL     OW17524   5.551   5.319   6.248
 5542SOL    HW117525   5.530   5.308   6.345
 5542SOL    HW217526   5.529   5.412   6.219
 5543SOL     OW17527   2.493   5.543   6.939
 5543SOL    HW117528   2.399   5.574   6.949
 5543SOL    HW217529   2.553   5.596   6.999
 5544SOL     OW17530   5.278   5.004   6.040
 5544SOL    HW117531   5.287   5.042   5.948
 5544SOL    HW217532   5.197   4.945   6.045
 5545SOL     OW17533   4.011   1.086   2.656
 5545SOL    HW117534   3.996   1.185   2.649
 5545SOL    HW217535   4.105   1.069   2.687
 5546SOL     OW17536   1.199   6.653   4.514
 5546SOL    HW117537   1.168   6.675   4.607
 5546SOL    HW217538   1.277   6.712   4.491
 5547SOL     OW17539   3.433   1.166   5.431
 5547SOL    HW117540   3.407   1.261   5.450
 5547SOL    HW217541   3.465   1.159   5.337
 5548SOL     OW17542   6.433   4.310   6.107
 5548SOL    HW117543   6.530   4.312   6.132
 5548SOL    HW217544   6.382   4.369   6.170
 5549SOL     OW17545   3.997   3.162   1.188
 5549SOL    HW117546   3.907   3.193   1.217
 5549SOL    HW217547   4.038   3.105   1.260
 5550SOL     OW17548   2.416   4.460   2.999
 5550SOL    HW117549   2.481   4.487   2.928
 5550SOL    HW217550   2.374   4.373   2.973
 5551SOL     OW17551   1.381   6.361   2.703
 5551SOL    HW117552   1.317   6.319   2.767
 5551SOL    HW217553   1.335   6.377   2.615
 5552SOL     OW17554   5.974   0.320   6.148
 5552SOL    HW117555   5.993   0.411   6.110
 5552SOL    HW217556   6.041   0.299   6.220
 5553SOL     OW17557   4.209   6.636   6.690
 5553SOL    HW117558   4.175   6.545   6.664
 5553SOL    HW217559   4.246   6.632   6.783
 5554SOL     OW17560   4.952   3.401   1.860
 5554SOL    HW117561   4.882   3.377   1.793
 5554SOL    HW217562   5.028   3.446   1.814
 5555SOL     OW17563   0.962   3.531   2.118
 5555SOL    HW117564   0.918   3.562   2.203
 5555SOL    HW217565   0.902   3.551   2.041
 5556SOL     OW17566   6.375   0.911   3.745
 5556SOL    HW117567   6.338   0.937   3.834
 5556SOL    HW217568   6.358   0.984   3.679
 5557SOL     OW17569   4.189   5.352   1.940
 5557SOL    HW117570   4.165   5.412   1.864
 5557SOL    HW217571   4.113   5.290   1.959
 5558SOL     OW17572   3.778   3.650   0.176
 5558SOL    HW117573   3.788   3.748   0.160
 5558SOL    HW217574   3.820   3.600   0.101
 5559SOL     OW17575   1.565   0.488   2.057
 5559SOL    HW117576   1.645   0.509   2.000
 5559SOL    HW217577   1.492   0.554   2.038
 5560SOL     OW17578   0.084   5.586   1.463
 5560SOL    HW117579   0.171   5.548   1.493
 5560SOL    HW217580   0.042   5.525   1.395
 5561SOL     OW17581   2.800   0.701   4.487
 5561SOL    HW117582   2.783   0.762   4.565
 5561SOL    HW217583   2.731   0.718   4.416
 5562SOL     OW17584   4.459   3.551   0.722
 5562SOL    HW117585   4.520   3.483   0.680
 5562SOL    HW217586   4.372   3.507   0.744
 5563SOL     OW17587   2.879   5.082   3.090
 5563SOL    HW117588   2.945   5.133   3.145
 5563SOL    HW217589   2.791   5.128   3.093
 5564SOL     OW17590   4.441   6.823   6.041
 5564SOL    HW117591   4.363   6.884   6.048
 5564SOL    HW217592   4.500   6.852   5.965
 5565SOL     OW17593   3.757   2.664   6.187
 5565SOL    HW117594   3.784   2.568   6.193
 5565SOL    HW217595   3.670   2.678   6.234
 5566SOL     OW17596   2.253   4.413   0.146
 5566SOL    HW117597   2.275   4.329   0.196
 5566SOL    HW217598   2.287   4.492   0.198
 5567SOL     OW17599   0.028   3.644   2.040
 5567SOL    HW117600   0.092   3.568   2.051
 5567SOL    HW217601   0.044   3.688   1.951
 5568SOL     OW17602   4.708   1.178   3.378
 5568SOL    HW117603   4.749   1.235   3.306
 5568SOL    HW217604   4.709   1.083   3.349
 5569SOL     OW17605   1.967   2.157   2.699
 5569SOL    HW117606   2.058   2.124   2.724
 5569SOL    HW217607   1.899   2.087   2.723
 5570SOL     OW17608   6.298   3.210   3.682
 5570SOL    HW117609   6.251   3.295   3.657
 5570SOL    HW217610   6.285   3.142   3.609
 5571SOL     OW17611   6.715   5.856   2.262
 5571SOL    HW117612   6.678   5.832   2.351
 5571SOL    HW217613   6.812   5.831   2.258
 5572SOL     OW17614   1.256   4.384   5.011
 5572SOL    HW117615   1.230   4.468   4.964
 5572SOL    HW217616   1.313   4.328   4.951
 5573SOL     OW17617   1.286   5.916   5.575
 5573SOL    HW117618   1.311   5.984   5.506
 5573SOL    HW217619   1.195   5.937   5.611
 5574SOL     OW17620   0.360   3.197   0.981
 5574SOL    HW117621   0.393   3.286   0.948
 5574SOL    HW217622   0.345   3.202   1.080
 5575SOL     OW17623   6.592   0.587   0.742
 5575SOL    HW117624   6.677   0.537   0.724
 5575SOL    HW217625   6.600   0.679   0.705
 5576SOL     OW17626   1.370   4.318   2.462
 5576SOL    HW117627   1.456   4.340   2.509
 5576SOL    HW217628   1.294   4.335   2.524
 5577SOL     OW17629   2.162   2.599   6.605
 5577SOL    HW117630   2.130   2.645   6.523
 5577SOL    HW217631   2.260   2.616   6.618
 5578SOL     OW17632   3.193   3.941   2.297
 5578SOL    HW117633   3.111   3.908   2.344
 5578SOL    HW217634   3.238   4.011   2.353
 5579SOL     OW17635   0.573   4.125   0.788
 5579SOL    HW117636   0.636   4.104   0.713
 5579SOL    HW217637   0.542   4.220   0.781
 5580SOL     OW17638   4.443   1.780   5.535
 5580SOL    HW117639   4.517   1.780   5.467
 5580SOL    HW217640   4.406   1.872   5.544
 5581SOL     OW17641   1.411   0.567   1.658
 5581SOL    HW117642   1.497   0.574   1.607
 5581SOL    HW217643   1.402   0.475   1.696
 5582SOL     OW17644   2.629   4.451   6.307
 5582SOL    HW117645   2.553   4.512   6.333
 5582SOL    HW217646   2.599   4.356   6.314
 5583SOL     OW17647   4.236   0.977   2.791
 5583SOL    HW117648   4.313   1.003   2.850
 5583SOL    HW217649   4.172   0.921   2.843
 5584SOL     OW17650   6.585   3.563   4.467
 5584SOL    HW117651   6.617   3.559   4.372
 5584SOL    HW217652   6.496   3.607   4.469
 5585SOL     OW17653   5.825   5.881   3.206
 5585SOL    HW117654   5.913   5.837   3.191
 5585SOL    HW217655   5.796   5.928   3.123
 5586SOL     OW17656   0.191   4.036   5.869
 5586SOL    HW117657   0.137   3.959   5.904
 5586SOL    HW217658   0.217   4.095   5.945
 5587SOL     OW17659   4.365   0.123   0.585
 5587SOL    HW117660   4.318   0.211   0.580
 5587SOL    HW217661   4.432   0.118   0.511
 5588SOL     OW17662   2.452   5.794   3.051
 5588SOL    HW117663   2.455   5.892   3.067
 5588SOL    HW217664   2.510   5.770   2.973
 5589SOL     OW17665   6.315   3.914   5.848
 5589SOL    HW117666   6.259   3.928   5.766
 5589SOL    HW217667   6.367   3.830   5.839
 5590SOL     OW17668   6.841   6.592   3.954
 5590SOL    HW117669   6.862   6.636   3.866
 5590SOL    HW217670   6.817   6.497   3.938
 5591SOL     OW17671   6.824   1.974   1.512
 5591SOL    HW117672   6.906   1.970   1.568
 5591SOL    HW217673   6.743   1.981   1.571
 5592SOL     OW17674   2.172   5.886   3.408
 5592SOL    HW117675   2.237   5.933   3.348
 5592SOL    HW217676   2.105   5.952   3.442
 5593SOL     OW17677   0.049   2.916   6.744
 5593SOL    HW117678   0.047   2.869   6.656
 5593SOL    HW217679   0.028   2.851   6.817
 5594SOL     OW17680   4.937   0.408   5.078
 5594SOL    HW117681   4.930   0.461   5.163
 5594SOL    HW217682   4.941   0.471   5.000
 5595SOL     OW17683   0.979   1.608   4.801
 5595SOL    HW117684   0.921   1.527   4.792
 5595SOL    HW217685   1.074   1.580   4.817
 5596SOL     OW17686   3.668   6.933   2.889
 5596SOL    HW117687   3.725   6.875   2.947
 5596SOL    HW217688   3.682   6.907   2.793
 5597SOL     OW17689   4.526   2.565   4.700
 5597SOL    HW117690   4.578   2.612   4.771
 5597SOL    HW217691   4.542   2.610   4.612
 5598SOL     OW17692   5.402   3.863   4.433
 5598SOL    HW117693   5.311   3.835   4.464
 5598SOL    HW217694   5.398   3.955   4.394
 5599SOL     OW17695   1.123   1.719   4.381
 5599SOL    HW117696   1.105   1.657   4.304
 5599SOL    HW217697   1.140   1.665   4.464
 5600SOL     OW17698   1.138   0.902   1.756
 5600SOL    HW117699   1.108   0.830   1.818
 5600SOL    HW217700   1.139   0.989   1.804
 5601SOL     OW17701   2.584   0.944   5.075
 5601SOL    HW117702   2.574   0.877   5.002
 5601SOL    HW217703   2.618   0.898   5.157
 5602SOL     OW17704   6.007   2.007   1.249
 5602SOL    HW117705   6.105   1.996   1.261
 5602SOL    HW217706   5.979   1.965   1.163
 5603SOL     OW17707   5.562   1.718   6.685
 5603SOL    HW117708   5.524   1.630   6.659
 5603SOL    HW217709   5.514   1.754   6.765
 5604SOL     OW17710   6.304   1.888   4.655
 5604SOL    HW117711   6.255   1.916   4.573
 5604SOL    HW217712   6.339   1.969   4.703
 5605SOL     OW17713   0.751   0.585   5.063
 5605SOL    HW117714   0.728   0.604   5.159
 5605SOL    HW217715   0.757   0.486   5.050
 5606SOL     OW17716   4.688   6.802   0.263
 5606SOL    HW117717   4.759   6.737   0.292
 5606SOL    HW217718   4.627   6.757   0.198
 5607SOL     OW17719   5.260   0.650   2.601
 5607SOL    HW117720   5.274   0.747   2.624
 5607SOL    HW217721   5.321   0.625   2.527
 5608SOL     OW17722   4.833   0.015   5.057
 5608SOL    HW117723   4.784   0.069   4.989
 5608SOL    HW217724   4.910   0.068   5.094
 5609SOL     OW17725   3.127   6.133   1.130
 5609SOL    HW117726   3.050   6.078   1.164
 5609SOL    HW217727   3.160   6.192   1.204
 5610SOL     OW17728   4.598   6.511   0.561
 5610SOL    HW117729   4.633   6.573   0.631
 5610SOL    HW217730   4.621   6.417   0.586
 5611SOL     OW17731   0.894   5.362   2.523
 5611SOL    HW117732   0.886   5.438   2.458
 5611SOL    HW217733   0.807   5.311   2.525
 5612SOL     OW17734   3.904   1.936   6.750
 5612SOL    HW117735   3.905   1.859   6.687
 5612SOL    HW217736   3.953   1.912   6.833
 5613SOL     OW17737   5.547   3.944   3.652
 5613SOL    HW117738   5.592   3.980   3.734
 5613SOL    HW217739   5.473   3.883   3.679
 5614SOL     OW17740   4.734   2.703   4.553
 5614SOL    HW117741   4.742   2.801   4.530
 5614SOL    HW217742   4.817   2.674   4.601
 5615SOL     OW17743   0.375   1.129   4.659
 5615SOL    HW117744   0.432   1.204   4.624
 5615SOL    HW217745   0.284   1.164   4.681
 5616SOL     OW17746   2.376   1.774   5.169
 5616SOL    HW117747   2.314   1.841   5.128
 5616SOL    HW217748   2.468   1.812   5.173
 5617SOL     OW17749   3.395   0.655   6.256
 5617SOL    HW117750   3.364   0.676   6.349
 5617SOL    HW217751   3.339   0.582   6.218
 5618SOL     OW17752   0.317   4.280   3.827
 5618SOL    HW117753   0.333   4.372   3.794
 5618SOL    HW217754   0.368   4.265   3.912
 5619SOL     OW17755   2.880   3.832   5.829
 5619SOL    HW117756   2.845   3.774   5.755
 5619SOL    HW217757   2.903   3.922   5.792
 5620SOL     OW17758   3.645   2.848   0.761
 5620SOL    HW117759   3.627   2.946   0.753
 5620SOL    HW217760   3.624   2.817   0.854
 5621SOL     OW17761   1.025   2.305   6.244
 5621SOL    HW117762   1.067   2.354   6.320
 5621SOL    HW217763   0.926   2.299   6.258
 5622SOL     OW17764   4.497   0.120   6.049
 5622SOL    HW117765   4.401   0.097   6.065
 5622SOL    HW217766   4.508   0.158   5.957
 5623SOL     OW17767   1.981   6.086   5.575
 5623SOL    HW117768   1.914   6.153   5.541
 5623SOL    HW217769   2.056   6.078   5.509
 5624SOL     OW17770   1.220   4.503   3.361
 5624SOL    HW117771   1.220   4.576   3.293
 5624SOL    HW217772   1.160   4.528   3.437
 5625SOL     OW17773   6.574   1.699   4.421
 5625SOL    HW117774   6.574   1.618   4.481
 5625SOL    HW217775   6.484   1.709   4.378
 5626SOL     OW17776   2.813   6.575   3.823
 5626SOL    HW117777   2.878   6.609   3.891
 5626SOL    HW217778   2.772   6.490   3.856
 5627SOL     OW17779   0.876   5.789   6.580
 5627SOL    HW117780   0.895   5.694   6.554
 5627SOL    HW217781   0.803   5.791   6.648
 5628SOL     OW17782   1.230   2.416   6.721
 5628SOL    HW117783   1.323   2.396   6.752
 5628SOL    HW217784   1.234   2.474   6.640
 5629SOL     OW17785   2.978   3.663   2.215
 5629SOL    HW117786   2.927   3.578   2.201
 5629SOL    HW217787   2.946   3.708   2.299
 5630SOL     OW17788   2.098   4.786   1.110
 5630SOL    HW117789   2.097   4.771   1.209
 5630SOL    HW217790   2.143   4.709   1.065
 5631SOL     OW17791   4.414   2.198   0.523
 5631SOL    HW117792   4.392   2.107   0.558
 5631SOL    HW217793   4.380   2.267   0.587
 5632SOL     OW17794   3.475   3.010   6.284
 5632SOL    HW117795   3.553   3.071   6.272
 5632SOL    HW217796   3.404   3.057   6.337
 5633SOL     OW17797   6.992   2.983   4.556
 5633SOL    HW117798   6.904   2.979   4.510
 5633SOL    HW217799   0.040   2.957   4.491
 5634SOL     OW17800   1.875   5.541   5.024
 5634SOL    HW117801   1.780   5.562   5.043
 5634SOL    HW217802   1.932   5.568   5.102
 5635SOL     OW17803   2.282   3.922   5.589
 5635SOL    HW117804   2.281   4.018   5.562
 5635SOL    HW217805   2.315   3.866   5.512
 5636SOL     OW17806   3.678   6.630   3.739
 5636SOL    HW117807   3.645   6.647   3.646
 5636SOL    HW217808   3.760   6.685   3.756
 5637SOL     OW17809   4.966   6.508   3.618
 5637SOL    HW117810   4.917   6.422   3.608
 5637SOL    HW217811   4.933   6.574   3.551
 5638SOL     OW17812   6.052   4.037   1.477
 5638SOL    HW117813   6.049   3.938   1.491
 5638SOL    HW217814   6.094   4.081   1.557
 5639SOL     OW17815   0.594   0.564   0.097
 5639SOL    HW117816   0.566   0.637   0.034
 5639SOL    HW217817   0.516   0.536   0.152
 5640SOL     OW17818   2.858   0.576   4.059
 5640SOL    HW117819   2.827   0.614   3.971
 5640SOL    HW217820   2.787   0.517   4.097
 5641SOL     OW17821   0.651   4.923   5.501
 5641SOL    HW117822   0.558   4.911   5.536
 5641SOL    HW217823   0.706   4.842   5.524
 5642SOL     OW17824   1.964   6.951   5.739
 5642SOL    HW117825   1.924   0.017   5.726
 5642SOL    HW217826   1.891   6.885   5.759
 5643SOL     OW17827   4.630   1.139   5.270
 5643SOL    HW117828   4.695   1.065   5.257
 5643SOL    HW217829   4.661   1.198   5.345
 5644SOL     OW17830   3.348   6.969   4.668
 5644SOL    HW117831   3.302   6.891   4.710
 5644SOL    HW217832   3.446   6.950   4.661
 5645SOL     OW17833   6.597   4.249   4.081
 5645SOL    HW117834   6.634   4.218   3.994
 5645SOL    HW217835   6.637   4.338   4.104
 5646SOL     OW17836   1.931   5.720   3.118
 5646SOL    HW117837   2.010   5.712   3.057
 5646SOL    HW217838   1.901   5.629   3.147
 5647SOL     OW17839   5.188   6.926   1.394
 5647SOL    HW117840   5.148   6.840   1.363
 5647SOL    HW217841   5.254   6.958   1.327
 5648SOL     OW17842   2.113   6.005   2.896
 5648SOL    HW117843   2.056   5.986   2.975
 5648SOL    HW217844   2.171   6.084   2.915
 5649SOL     OW17845   1.115   6.668   3.936
 5649SOL    HW117846   1.142   6.624   3.851
 5649SOL    HW217847   1.022   6.640   3.959
 5650SOL     OW17848   1.150   4.711   1.674
 5650SOL    HW117849   1.234   4.703   1.727
 5650SOL    HW217850   1.092   4.631   1.691
 5651SOL     OW17851   1.182   0.794   0.265
 5651SOL    HW117852   1.225   0.722   0.318
 5651SOL    HW217853   1.219   0.794   0.172
 5652SOL     OW17854   6.663   5.713   1.070
 5652SOL    HW117855   6.735   5.659   1.026
 5652SOL    HW217856   6.701   5.801   1.100
 5653SOL     OW17857   0.638   6.005   6.809
 5653SOL    HW117858   0.587   6.035   6.729
 5653SOL    HW217859   0.674   5.913   6.794
 5654SOL     OW17860   1.510   5.551   4.395
 5654SOL    HW117861   1.435   5.560   4.329
 5654SOL    HW217862   1.547   5.458   4.390
 5655SOL     OW17863   0.183   2.846   3.308
 5655SOL    HW117864   0.280   2.823   3.302
 5655SOL    HW217865   0.165   2.930   3.256
 5656SOL     OW17866   6.776   4.259   6.448
 5656SOL    HW117867   6.762   4.317   6.367
 5656SOL    HW217868   6.874   4.249   6.465
 5657SOL     OW17869   4.584   4.308   5.156
 5657SOL    HW117870   4.514   4.315   5.085
 5657SOL    HW217871   4.675   4.323   5.115
 5658SOL     OW17872   2.818   3.627   5.652
 5658SOL    HW117873   2.807   3.575   5.566
 5658SOL    HW217874   2.790   3.569   5.729
 5659SOL     OW17875   3.671   3.992   5.907
 5659SOL    HW117876   3.690   3.927   5.833
 5659SOL    HW217877   3.579   3.974   5.944
 5660SOL     OW17878   4.241   6.270   6.417
 5660SOL    HW117879   4.204   6.200   6.356
 5660SOL    HW217880   4.273   6.348   6.362
 5661SOL     OW17881   1.273   5.361   5.031
 5661SOL    HW117882   1.319   5.285   5.078
 5661SOL    HW217883   1.309   5.448   5.066
 5662SOL     OW17884   2.579   0.271   2.450
 5662SOL    HW117885   2.594   0.228   2.539
 5662SOL    HW217886   2.549   0.202   2.384
 5663SOL     OW17887   2.146   2.032   0.895
 5663SOL    HW117888   2.235   2.076   0.904
 5663SOL    HW217889   2.154   1.935   0.916
 5664SOL     OW17890   6.239   3.415   4.406
 5664SOL    HW117891   6.309   3.365   4.456
 5664SOL    HW217892   6.150   3.399   4.449
 5665SOL     OW17893   1.015   5.631   0.167
 5665SOL    HW117894   0.998   5.706   0.231
 5665SOL    HW217895   0.972   5.547   0.201
 5666SOL     OW17896   6.035   0.547   3.750
 5666SOL    HW117897   6.036   0.461   3.801
 5666SOL    HW217898   6.128   0.570   3.721
 5667SOL     OW17899   1.424   5.022   4.894
 5667SOL    HW117900   1.451   5.054   4.985
 5667SOL    HW217901   1.464   5.082   4.824
 5668SOL     OW17902   5.929   2.788   2.931
 5668SOL    HW117903   5.892   2.781   2.838
 5668SOL    HW217904   5.872   2.734   2.993
 5669SOL     OW17905   6.744   5.081   0.609
 5669SOL    HW117906   6.834   5.112   0.639
 5669SOL    HW217907   6.675   5.108   0.676
 5670SOL     OW17908   1.581   3.489   3.952
 5670SOL    HW117909   1.674   3.517   3.978
 5670SOL    HW217910   1.586   3.408   3.895
 5671SOL     OW17911   6.053   5.399   5.660
 5671SOL    HW117912   5.959   5.420   5.686
 5671SOL    HW217913   6.116   5.436   5.730
 5672SOL     OW17914   4.919   4.170   4.924
 5672SOL    HW117915   4.939   4.074   4.945
 5672SOL    HW217916   4.962   4.195   4.837
 5673SOL     OW17917   1.413   6.206   0.942
 5673SOL    HW117918   1.369   6.261   0.871
 5673SOL    HW217919   1.350   6.135   0.974
 5674SOL     OW17920   2.167   4.871   5.031
 5674SOL    HW117921   2.149   4.912   4.942
 5674SOL    HW217922   2.148   4.939   5.103
 5675SOL     OW17923   4.213   2.197   0.291
 5675SOL    HW117924   4.255   2.200   0.200
 5675SOL    HW217925   4.285   2.187   0.360
 5676SOL     OW17926   2.830   1.654   2.485
 5676SOL    HW117927   2.762   1.631   2.417
 5676SOL    HW217928   2.893   1.722   2.448
 5677SOL     OW17929   0.353   0.838   0.052
 5677SOL    HW117930   0.321   0.781   0.127
 5677SOL    HW217931   0.277   0.860   7.017
 5678SOL     OW17932   4.448   1.027   1.961
 5678SOL    HW117933   4.371   0.964   1.975
 5678SOL    HW217934   4.532   0.974   1.953
 5679SOL     OW17935   5.490   1.909   4.091
 5679SOL    HW117936   5.553   1.986   4.093
 5679SOL    HW217937   5.539   1.825   4.117
 5680SOL     OW17938   1.521   4.986   6.575
 5680SOL    HW117939   1.541   4.888   6.571
 5680SOL    HW217940   1.523   5.017   6.670
 5681SOL     OW17941   0.377   3.686   2.151
 5681SOL    HW117942   0.349   3.702   2.056
 5681SOL    HW217943   0.457   3.626   2.152
 5682SOL     OW17944   2.216   5.373   4.259
 5682SOL    HW117945   2.268   5.448   4.217
 5682SOL    HW217946   2.271   5.332   4.333
 5683SOL     OW17947   3.981   2.711   5.990
 5683SOL    HW117948   3.927   2.710   5.907
 5683SOL    HW217949   3.921   2.723   6.069
 5684SOL     OW17950   1.857   3.713   6.490
 5684SOL    HW117951   1.760   3.692   6.473
 5684SOL    HW217952   1.874   3.809   6.468
 5685SOL     OW17953   2.166   2.310   3.166
 5685SOL    HW117954   2.219   2.248   3.109
 5685SOL    HW217955   2.069   2.302   3.143
 5686SOL     OW17956   3.079   1.580   4.737
 5686SOL    HW117957   3.018   1.588   4.816
 5686SOL    HW217958   3.036   1.523   4.667
 5687SOL     OW17959   1.131   6.000   6.233
 5687SOL    HW117960   1.182   6.086   6.244
 5687SOL    HW217961   1.123   5.979   6.135
 5688SOL     OW17962   2.186   2.960   2.870
 5688SOL    HW117963   2.088   2.949   2.850
 5688SOL    HW217964   2.225   3.027   2.807
 5689SOL     OW17965   2.607   0.484   2.143
 5689SOL    HW117966   2.670   0.560   2.130
 5689SOL    HW217967   2.622   0.442   2.232
 5690SOL     OW17968   1.118   5.181   6.546
 5690SOL    HW117969   1.152   5.126   6.469
 5690SOL    HW217970   1.115   5.123   6.628
 5691SOL     OW17971   3.749   1.054   2.829
 5691SOL    HW117972   3.653   1.060   2.800
 5691SOL    HW217973   3.808   1.068   2.749
 5692SOL     OW17974   4.737   4.566   1.272
 5692SOL    HW117975   4.645   4.558   1.310
 5692SOL    HW217976   4.739   4.641   1.205
 5693SOL     OW17977   4.518   0.221   1.397
 5693SOL    HW117978   4.530   0.198   1.494
 5693SOL    HW217979   4.557   0.312   1.380
 5694SOL     OW17980   0.428   0.028   2.158
 5694SOL    HW117981   0.346   6.997   2.145
 5694SOL    HW217982   0.429   0.103   2.092
 5695SOL     OW17983   1.144   1.030   3.029
 5695SOL    HW117984   1.061   1.051   2.977
 5695SOL    HW217985   1.136   0.940   3.071
 5696SOL     OW17986   1.337   6.961   4.234
 5696SOL    HW117987   1.289   7.022   4.171
 5696SOL    HW217988   1.310   6.983   4.328
 5697SOL     OW17989   5.947   1.912   2.374
 5697SOL    HW117990   5.953   1.961   2.286
 5697SOL    HW217991   5.868   1.947   2.425
 5698SOL     OW17992   1.410   3.822   4.059
 5698SOL    HW117993   1.353   3.759   4.006
 5698SOL    HW217994   1.454   3.773   4.134
 5699SOL     OW17995   1.918   2.845   2.867
 5699SOL    HW117996   1.845   2.863   2.932
 5699SOL    HW217997   1.880   2.804   2.784
 5700SOL     OW17998   6.532   0.291   3.349
 5700SOL    HW117999   6.543   0.227   3.273
 5700SOL    HW218000   6.472   0.366   3.321
 5701SOL     OW18001   6.834   0.416   1.422
 5701SOL    HW118002   6.825   0.489   1.490
 5701SOL    HW218003   6.788   0.443   1.338
 5702SOL     OW18004   1.460   6.443   4.493
 5702SOL    HW118005   1.382   6.380   4.498
 5702SOL    HW218006   1.525   6.422   4.566
 5703SOL     OW18007   7.023   4.093   6.735
 5703SOL    HW118008   6.958   4.033   6.689
 5703SOL    HW218009   6.977   4.176   6.764
 5704SOL     OW18010   4.830   3.759   3.467
 5704SOL    HW118011   4.905   3.739   3.404
 5704SOL    HW218012   4.744   3.761   3.417
 5705SOL     OW18013   5.758   5.753   6.793
 5705SOL    HW118014   5.838   5.785   6.844
 5705SOL    HW218015   5.785   5.680   6.730
 5706SOL     OW18016   5.047   2.715   1.755
 5706SOL    HW118017   5.019   2.811   1.761
 5706SOL    HW218018   5.080   2.684   1.845
 5707SOL     OW18019   6.158   0.171   0.863
 5707SOL    HW118020   6.062   0.185   0.888
 5707SOL    HW218021   6.193   0.253   0.819
 5708SOL     OW18022   5.045   6.242   2.804
 5708SOL    HW118023   5.034   6.319   2.741
 5708SOL    HW218024   5.052   6.277   2.898
 5709SOL     OW18025   0.619   0.770   2.674
 5709SOL    HW118026   0.612   0.855   2.726
 5709SOL    HW218027   0.537   0.758   2.618
 5710SOL     OW18028   2.922   2.182   0.734
 5710SOL    HW118029   3.019   2.172   0.755
 5710SOL    HW218030   2.910   2.193   0.635
 5711SOL     OW18031   4.754   0.326   1.932
 5711SOL    HW118032   4.680   0.387   1.958
 5711SOL    HW218033   4.795   0.358   1.847
 5712SOL     OW18034   6.189   6.665   0.270
 5712SOL    HW118035   6.264   6.619   0.223
 5712SOL    HW218036   6.213   6.761   0.285
 5713SOL     OW18037   3.350   4.751   0.840
 5713SOL    HW118038   3.263   4.750   0.792
 5713SOL    HW218039   3.419   4.795   0.783
 5714SOL     OW18040   6.912   6.267   0.690
 5714SOL    HW118041   6.864   6.344   0.648
 5714SOL    HW218042   6.995   6.248   0.639
 5715SOL     OW18043   6.809   0.249   2.422
 5715SOL    HW118044   6.732   0.189   2.400
 5715SOL    HW218045   6.776   0.344   2.428
 5716SOL     OW18046   0.922   5.706   6.108
 5716SOL    HW118047   0.870   5.711   6.194
 5716SOL    HW218048   1.008   5.657   6.124
 5717SOL     OW18049   2.388   5.265   1.960
 5717SOL    HW118050   2.391   5.287   2.058
 5717SOL    HW218051   2.347   5.341   1.911
 5718SOL     OW18052   0.731   3.509   0.288
 5718SOL    HW118053   0.806   3.574   0.281
 5718SOL    HW218054   0.654   3.540   0.232
 5719SOL     OW18055   2.950   3.586   1.026
 5719SOL    HW118056   2.996   3.591   1.115
 5719SOL    HW218057   2.999   3.521   0.967
 5720SOL     OW18058   1.656   6.789   4.996
 5720SOL    HW118059   1.596   6.789   5.076
 5720SOL    HW218060   1.731   6.724   5.011
 5721SOL     OW18061   5.936   4.311   0.870
 5721SOL    HW118062   5.948   4.231   0.812
 5721SOL    HW218063   5.878   4.378   0.824
 5722SOL     OW18064   0.002   2.339   5.434
 5722SOL    HW118065   7.020   2.399   5.513
 5722SOL    HW218066   0.079   2.366   5.377
 5723SOL     OW18067   4.156   3.778   7.024
 5723SOL    HW118068   4.146   3.721   0.081
 5723SOL    HW218069   4.158   3.874   0.026
 5724SOL     OW18070   6.112   2.927   3.414
 5724SOL    HW118071   6.076   2.844   3.371
 5724SOL    HW218072   6.062   2.946   3.498
 5725SOL     OW18073   6.664   5.117   4.354
 5725SOL    HW118074   6.715   5.032   4.340
 5725SOL    HW218075   6.728   5.194   4.358
 5726SOL     OW18076   6.217   5.160   4.016
 5726SOL    HW118077   6.169   5.111   4.089
 5726SOL    HW218078   6.173   5.139   3.928
 5727SOL     OW18079   7.020   2.580   4.879
 5727SOL    HW118080   0.020   2.676   4.894
 5727SOL    HW218081   6.983   2.569   4.787
 5728SOL     OW18082   5.132   5.949   5.263
 5728SOL    HW118083   5.220   5.963   5.309
 5728SOL    HW218084   5.092   5.863   5.294
 5729SOL     OW18085   1.136   2.271   5.986
 5729SOL    HW118086   1.099   2.189   5.943
 5729SOL    HW218087   1.105   2.276   6.081
 5730SOL     OW18088   6.536   4.310   6.623
 5730SOL    HW118089   6.595   4.267   6.555
 5730SOL    HW218090   6.506   4.242   6.690
 5731SOL     OW18091   6.706   6.808   1.854
 5731SOL    HW118092   6.759   6.810   1.939
 5731SOL    HW218093   6.707   6.898   1.812
 5732SOL     OW18094   1.279   6.773   3.365
 5732SOL    HW118095   1.326   6.848   3.411
 5732SOL    HW218096   1.272   6.793   3.267
 5733SOL     OW18097   4.329   6.544   5.282
 5733SOL    HW118098   4.427   6.564   5.275
 5733SOL    HW218099   4.288   6.604   5.350
 5734SOL     OW18100   1.106   6.717   5.010
 5734SOL    HW118101   1.083   6.784   5.081
 5734SOL    HW218102   1.053   6.634   5.025
 5735SOL     OW18103   2.934   1.295   1.265
 5735SOL    HW118104   2.985   1.338   1.191
 5735SOL    HW218105   2.881   1.218   1.229
 5736SOL     OW18106   0.441   4.345   0.255
 5736SOL    HW118107   0.385   4.304   0.183
 5736SOL    HW218108   0.506   4.278   0.289
 5737SOL     OW18109   5.674   6.368   6.694
 5737SOL    HW118110   5.774   6.372   6.691
 5737SOL    HW218111   5.637   6.452   6.656
 5738SOL     OW18112   1.418   3.548   6.768
 5738SOL    HW118113   1.395   3.470   6.827
 5738SOL    HW218114   1.497   3.524   6.711
 5739SOL     OW18115   1.495   1.025   6.827
 5739SOL    HW118116   1.522   1.121   6.817
 5739SOL    HW218117   1.574   0.971   6.855
 5740SOL     OW18118   4.510   5.943   0.428
 5740SOL    HW118119   4.430   6.000   0.409
 5740SOL    HW218120   4.513   5.921   0.526
 5741SOL     OW18121   6.856   5.751   4.467
 5741SOL    HW118122   6.925   5.717   4.530
 5741SOL    HW218123   6.767   5.711   4.490
 5742SOL     OW18124   5.421   6.200   2.317
 5742SOL    HW118125   5.458   6.268   2.253
 5742SOL    HW218126   5.404   6.114   2.268
 5743SOL     OW18127   2.590   7.007   4.778
 5743SOL    HW118128   2.640   6.954   4.847
 5743SOL    HW218129   2.649   7.023   4.699
 5744SOL     OW18130   5.077   0.853   0.494
 5744SOL    HW118131   5.092   0.894   0.404
 5744SOL    HW218132   4.980   0.857   0.516
 5745SOL     OW18133   2.063   1.754   4.596
 5745SOL    HW118134   2.057   1.658   4.624
 5745SOL    HW218135   2.072   1.758   4.496
 5746SOL     OW18136   5.018   0.933   0.226
 5746SOL    HW118137   5.047   0.858   0.166
 5746SOL    HW218138   5.063   1.018   0.199
 5747SOL     OW18139   0.215   5.612   3.216
 5747SOL    HW118140   0.153   5.537   3.192
 5747SOL    HW218141   0.274   5.632   3.138
 5748SOL     OW18142   2.132   4.990   1.872
 5748SOL    HW118143   2.128   5.075   1.924
 5748SOL    HW218144   2.163   4.916   1.931
 5749SOL     OW18145   1.931   1.393   4.345
 5749SOL    HW118146   1.983   1.310   4.365
 5749SOL    HW218147   1.959   1.430   4.257
 5750SOL     OW18148   6.236   5.111   4.387
 5750SOL    HW118149   6.252   5.209   4.396
 5750SOL    HW218150   6.297   5.073   4.317
 5751SOL     OW18151   2.123   2.967   5.113
 5751SOL    HW118152   2.219   2.995   5.116
 5751SOL    HW218153   2.115   2.875   5.152
 5752SOL     OW18154   6.839   0.443   5.569
 5752SOL    HW118155   6.744   0.472   5.552
 5752SOL    HW218156   6.899   0.488   5.504
 5753SOL     OW18157   3.515   3.106   6.764
 5753SOL    HW118158   3.566   3.161   6.831
 5753SOL    HW218159   3.579   3.053   6.709
 5754SOL     OW18160   5.912   5.108   2.546
 5754SOL    HW118161   5.870   5.188   2.588
 5754SOL    HW218162   5.924   5.124   2.448
 5755SOL     OW18163   2.884   3.781   6.422
 5755SOL    HW118164   2.865   3.683   6.418
 5755SOL    HW218165   2.980   3.795   6.447
 5756SOL     OW18166   6.816   4.843   3.133
 5756SOL    HW118167   6.804   4.792   3.218
 5756SOL    HW218168   6.869   4.926   3.151
 5757SOL     OW18169   6.175   5.964   1.274
 5757SOL    HW118170   6.147   5.868   1.277
 5757SOL    HW218171   6.204   5.988   1.182
 5758SOL     OW18172   2.735   2.349   4.954
 5758SOL    HW118173   2.808   2.280   4.951
 5758SOL    HW218174   2.725   2.383   5.048
 5759SOL     OW18175   5.149   2.194   6.291
 5759SOL    HW118176   5.096   2.278   6.306
 5759SOL    HW218177   5.194   2.198   6.202
 5760SOL     OW18178   1.858   6.046   2.217
 5760SOL    HW118179   1.786   6.053   2.285
 5760SOL    HW218180   1.914   5.965   2.235
 5761SOL     OW18181   5.593   0.470   4.930
 5761SOL    HW118182   5.660   0.538   4.960
 5761SOL    HW218183   5.501   0.503   4.949
 5762SOL     OW18184   5.616   6.932   0.498
 5762SOL    HW118185   5.663   6.964   0.415
 5762SOL    HW218186   5.678   6.874   0.551
 5763SOL     OW18187   0.929   6.857   0.211
 5763SOL    HW118188   0.953   6.949   0.181
 5763SOL    HW218189   0.860   6.862   0.283
 5764SOL     OW18190   5.870   4.444   5.568
 5764SOL    HW118191   5.840   4.413   5.478
 5764SOL    HW218192   5.932   4.376   5.608
 5765SOL     OW18193   6.501   4.094   6.789
 5765SOL    HW118194   6.525   4.031   6.863
 5765SOL    HW218195   6.402   4.108   6.788
 5766SOL     OW18196   3.432   1.332   2.088
 5766SOL    HW118197   3.379   1.381   2.018
 5766SOL    HW218198   3.387   1.343   2.177
 5767SOL     OW18199   1.047   6.134   0.619
 5767SOL    HW118200   1.126   6.160   0.564
 5767SOL    HW218201   1.042   6.035   0.625
 5768SOL     OW18202   6.720   0.879   2.999
 5768SOL    HW118203   6.747   0.782   3.002
 5768SOL    HW218204   6.758   0.921   2.917
 5769SOL     OW18205   2.680   6.326   3.123
 5769SOL    HW118206   2.703   6.419   3.094
 5769SOL    HW218207   2.764   6.277   3.148
 5770SOL     OW18208   7.014   6.658   0.951
 5770SOL    HW118209   6.982   6.745   0.988
 5770SOL    HW218210   0.067   6.674   0.890
 5771SOL     OW18211   1.410   0.647   1.199
 5771SOL    HW118212   1.322   0.605   1.175
 5771SOL    HW218213   1.393   0.732   1.250
 5772SOL     OW18214   6.382   2.594   0.370
 5772SOL    HW118215   6.450   2.642   0.314
 5772SOL    HW218216   6.312   2.554   0.311
 5773SOL     OW18217   5.367   6.822   3.670
 5773SOL    HW118218   5.307   6.756   3.624
 5773SOL    HW218219   5.460   6.811   3.637
 5774SOL     OW18220   2.322   4.532   3.262
 5774SOL    HW118221   2.244   4.595   3.252
 5774SOL    HW218222   2.351   4.501   3.172
 5775SOL     OW18223   0.154   6.919   0.464
 5775SOL    HW118224   0.069   6.921   0.411
 5775SOL    HW218225   0.221   6.980   0.423
 5776SOL     OW18226   5.363   0.600   6.374
 5776SOL    HW118227   5.436   0.539   6.405
 5776SOL    HW218228   5.323   0.647   6.452
 5777SOL     OW18229   6.304   0.770   4.387
 5777SOL    HW118230   6.377   0.746   4.324
 5777SOL    HW218231   6.231   0.702   4.380
 5778SOL     OW18232   1.505   6.778   2.710
 5778SOL    HW118233   1.517   6.774   2.611
 5778SOL    HW218234   1.416   6.820   2.731
 5779SOL     OW18235   3.778   1.131   1.298
 5779SOL    HW118236   3.803   1.107   1.204
 5779SOL    HW218237   3.838   1.083   1.362
 5780SOL     OW18238   6.793   4.124   1.682
 5780SOL    HW118239   6.862   4.171   1.626
 5780SOL    HW218240   6.703   4.132   1.638
 5781SOL     OW18241   1.869   4.148   4.810
 5781SOL    HW118242   1.882   4.237   4.854
 5781SOL    HW218243   1.801   4.095   4.861
 5782SOL     OW18244   1.952   1.180   1.424
 5782SOL    HW118245   1.899   1.098   1.446
 5782SOL    HW218246   1.998   1.213   1.507
 5783SOL     OW18247   1.530   0.132   0.996
 5783SOL    HW118248   1.625   0.124   0.965
 5783SOL    HW218249   1.485   0.043   0.990
 5784SOL     OW18250   0.908   6.086   6.935
 5784SOL    HW118251   0.815   6.115   6.914
 5784SOL    HW218252   0.924   5.993   6.900
 5785SOL     OW18253   1.231   0.744   0.774
 5785SOL    HW118254   1.134   0.744   0.800
 5785SOL    HW218255   1.264   0.649   0.772
 5786SOL     OW18256   1.919   3.498   1.440
 5786SOL    HW118257   1.869   3.456   1.365
 5786SOL    HW218258   1.926   3.432   1.516
 5787SOL     OW18259   5.888   2.606   4.710
 5787SOL    HW118260   5.880   2.655   4.798
 5787SOL    HW218261   5.924   2.515   4.726
 5788SOL     OW18262   3.309   0.841   2.269
 5788SOL    HW118263   3.300   0.767   2.335
 5788SOL    HW218264   3.224   0.848   2.215
 5789SOL     OW18265   4.285   4.008   0.613
 5789SOL    HW118266   4.335   4.005   0.526
 5789SOL    HW218267   4.308   4.092   0.661
 5790SOL     OW18268   5.775   5.451   4.484
 5790SOL    HW118269   5.718   5.533   4.482
 5790SOL    HW218270   5.812   5.434   4.392
 5791SOL     OW18271   3.700   1.299   2.483
 5791SOL    HW118272   3.695   1.365   2.558
 5791SOL    HW218273   3.650   1.334   2.404
 5792SOL     OW18274   4.906   3.724   2.873
 5792SOL    HW118275   4.876   3.811   2.912
 5792SOL    HW218276   5.001   3.732   2.841
 5793SOL     OW18277   5.667   2.366   5.518
 5793SOL    HW118278   5.751   2.349   5.466
 5793SOL    HW218279   5.631   2.278   5.550
 5794SOL     OW18280   3.118   6.497   5.626
 5794SOL    HW118281   3.136   6.404   5.655
 5794SOL    HW218282   3.041   6.497   5.561
 5795SOL     OW18283   1.158   5.200   1.705
 5795SOL    HW118284   1.064   5.204   1.740
 5795SOL    HW218285   1.221   5.230   1.777
 5796SOL     OW18286   4.326   1.237   6.003
 5796SOL    HW118287   4.371   1.232   6.092
 5796SOL    HW218288   4.343   1.152   5.953
 5797SOL     OW18289   5.085   2.062   6.768
 5797SOL    HW118290   5.122   2.015   6.848
 5797SOL    HW218291   4.986   2.073   6.778
 5798SOL     OW18292   1.531   3.710   5.236
 5798SOL    HW118293   1.601   3.638   5.233
 5798SOL    HW218294   1.443   3.670   5.261
 5799SOL     OW18295   1.378   6.514   3.388
 5799SOL    HW118296   1.343   6.471   3.304
 5799SOL    HW218297   1.355   6.611   3.388
 5800SOL     OW18298   0.187   6.728   0.763
 5800SOL    HW118299   0.274   6.693   0.798
 5800SOL    HW218300   0.201   6.821   0.729
 5801SOL     OW18301   2.122   3.178   2.346
 5801SOL    HW118302   2.131   3.167   2.445
 5801SOL    HW218303   2.040   3.231   2.326
 5802SOL     OW18304   0.099   1.701   2.502
 5802SOL    HW118305   0.044   1.732   2.425
 5802SOL    HW218306   0.074   1.607   2.526
 5803SOL     OW18307   0.968   5.496   4.410
 5803SOL    HW118308   1.005   5.405   4.428
 5803SOL    HW218309   0.917   5.495   4.324
 5804SOL     OW18310   5.877   6.868   3.675
 5804SOL    HW118311   5.900   6.812   3.596
 5804SOL    HW218312   5.906   6.822   3.759
 5805SOL     OW18313   2.559   3.169   0.684
 5805SOL    HW118314   2.632   3.160   0.616
 5805SOL    HW218315   2.495   3.240   0.655
 5806SOL     OW18316   0.618   3.029   3.143
 5806SOL    HW118317   0.711   3.014   3.110
 5806SOL    HW218318   0.558   3.054   3.067
 5807SOL     OW18319   1.040   6.091   0.185
 5807SOL    HW118320   1.058   6.187   0.208
 5807SOL    HW218321   1.087   6.068   0.100
 5808SOL     OW18322   5.860   0.876   4.408
 5808SOL    HW118323   5.941   0.846   4.460
 5808SOL    HW218324   5.889   0.938   4.336
 5809SOL     OW18325   0.184   2.739   6.180
 5809SOL    HW118326   0.169   2.640   6.180
 5809SOL    HW218327   0.266   2.760   6.234
 5810SOL     OW18328   4.219   6.616   4.676
 5810SOL    HW118329   4.204   6.519   4.697
 5810SOL    HW218330   4.135   6.668   4.696
 5811SOL     OW18331   2.893   3.409   6.214
 5811SOL    HW118332   2.947   3.414   6.298
 5811SOL    HW218333   2.896   3.317   6.177
 5812SOL     OW18334   5.903   3.081   0.571
 5812SOL    HW118335   5.899   2.997   0.517
 5812SOL    HW218336   5.916   3.058   0.668
 5813SOL     OW18337   4.872   6.475   1.029
 5813SOL    HW118338   4.800   6.542   1.012
 5813SOL    HW218339   4.908   6.487   1.122
 5814SOL     OW18340   5.658   1.830   2.237
 5814SOL    HW118341   5.607   1.893   2.178
 5814SOL    HW218342   5.698   1.757   2.182
 5815SOL     OW18343   6.520   0.771   3.922
 5815SOL    HW118344   6.472   0.795   3.838
 5815SOL    HW218345   6.534   0.672   3.926
 5816SOL     OW18346   0.210   3.875   3.306
 5816SOL    HW118347   0.122   3.860   3.262
 5816SOL    HW218348   0.216   3.820   3.389
 5817SOL     OW18349   5.320   4.271   4.156
 5817SOL    HW118350   5.255   4.218   4.102
 5817SOL    HW218351   5.307   4.368   4.139
 5818SOL     OW18352   1.826   0.165   4.711
 5818SOL    HW118353   1.779   0.173   4.623
 5818SOL    HW218354   1.820   0.252   4.760
 5819SOL     OW18355   4.332   4.769   6.848
 5819SOL    HW118356   4.382   4.817   6.921
 5819SOL    HW218357   4.343   4.670   6.861
 5820SOL     OW18358   6.085   5.117   2.932
 5820SOL    HW118359   6.057   5.119   3.028
 5820SOL    HW218360   6.021   5.061   2.880
 5821SOL     OW18361   6.490   0.752   1.774
 5821SOL    HW118362   6.503   0.761   1.873
 5821SOL    HW218363   6.502   0.842   1.731
 5822SOL     OW18364   1.267   2.889   2.117
 5822SOL    HW118365   1.295   2.819   2.051
 5822SOL    HW218366   1.280   2.980   2.077
 5823SOL     OW18367   2.352   6.423   3.428
 5823SOL    HW118368   2.448   6.453   3.426
 5823SOL    HW218369   2.319   6.412   3.335
 5824SOL     OW18370   1.028   0.439   2.232
 5824SOL    HW118371   1.067   0.436   2.324
 5824SOL    HW218372   1.100   0.420   2.165
 5825SOL     OW18373   6.264   0.369   4.092
 5825SOL    HW118374   6.182   0.415   4.127
 5825SOL    HW218375   6.245   0.333   4.001
 5826SOL     OW18376   0.363   6.616   5.060
 5826SOL    HW118377   0.313   6.702   5.056
 5826SOL    HW218378   0.417   6.604   4.977
 5827SOL     OW18379   2.265   4.389   5.118
 5827SOL    HW118380   2.265   4.488   5.103
 5827SOL    HW218381   2.269   4.342   5.030
 5828SOL     OW18382   4.585   0.222   4.127
 5828SOL    HW118383   4.630   0.158   4.065
 5828SOL    HW218384   4.487   0.199   4.133
 5829SOL     OW18385   2.507   0.872   3.810
 5829SOL    HW118386   2.449   0.893   3.732
 5829SOL    HW218387   2.599   0.905   3.794
 5830SOL     OW18388   3.825   5.769   4.910
 5830SOL    HW118389   3.843   5.719   4.826
 5830SOL    HW218390   3.852   5.865   4.898
 5831SOL     OW18391   1.655   1.114   5.518
 5831SOL    HW118392   1.616   1.155   5.435
 5831SOL    HW218393   1.644   1.177   5.595
 5832SOL     OW18394   3.644   4.937   1.271
 5832SOL    HW118395   3.578   4.904   1.204
 5832SOL    HW218396   3.655   5.036   1.261
 5833SOL     OW18397   3.861   3.571   5.882
 5833SOL    HW118398   3.958   3.575   5.856
 5833SOL    HW218399   3.834   3.476   5.895
 5834SOL     OW18400   6.303   4.606   6.924
 5834SOL    HW118401   6.295   4.630   6.827
 5834SOL    HW218402   6.273   4.683   6.980
 5835SOL     OW18403   5.599   1.065   2.393
 5835SOL    HW118404   5.560   0.973   2.386
 5835SOL    HW218405   5.529   1.130   2.421
 5836SOL     OW18406   4.412   6.968   1.490
 5836SOL    HW118407   4.325   6.994   1.446
 5836SOL    HW218408   4.436   6.875   1.465
 5837SOL     OW18409   3.722   4.463   0.243
 5837SOL    HW118410   3.706   4.486   0.147
 5837SOL    HW218411   3.669   4.382   0.267
 5838SOL     OW18412   2.564   1.784   1.124
 5838SOL    HW118413   2.663   1.782   1.137
 5838SOL    HW218414   2.541   1.737   1.038
 5839SOL     OW18415   1.438   2.268   1.616
 5839SOL    HW118416   1.378   2.255   1.695
 5839SOL    HW218417   1.467   2.178   1.582
 5840SOL     OW18418   0.637   3.034   2.208
 5840SOL    HW118419   0.632   3.095   2.128
 5840SOL    HW218420   0.568   3.062   2.275
 5841SOL     OW18421   4.786   1.529   0.316
 5841SOL    HW118422   4.740   1.463   0.257
 5841SOL    HW218423   4.866   1.486   0.358
 5842SOL     OW18424   3.280   1.270   0.774
 5842SOL    HW118425   3.359   1.228   0.730
 5842SOL    HW218426   3.196   1.231   0.736
 5843SOL     OW18427   1.741   3.362   1.274
 5843SOL    HW118428   1.715   3.274   1.312
 5843SOL    HW218429   1.790   3.348   1.187
 5844SOL     OW18430   0.895   0.753   4.814
 5844SOL    HW118431   0.812   0.781   4.864
 5844SOL    HW218432   0.871   0.733   4.720
 5845SOL     OW18433   0.589   5.728   1.980
 5845SOL    HW118434   0.567   5.772   1.893
 5845SOL    HW218435   0.595   5.798   2.052
 5846SOL     OW18436   6.464   3.666   5.863
 5846SOL    HW118437   6.468   3.669   5.963
 5846SOL    HW218438   6.524   3.592   5.830
 5847SOL     OW18439   2.948   3.187   0.549
 5847SOL    HW118440   3.043   3.180   0.520
 5847SOL    HW218441   2.894   3.233   0.478
 5848SOL     OW18442   1.742   6.004   3.696
 5848SOL    HW118443   1.771   5.961   3.782
 5848SOL    HW218444   1.677   6.077   3.715
 5849SOL     OW18445   2.362   6.223   5.600
 5849SOL    HW118446   2.313   6.196   5.517
 5849SOL    HW218447   2.432   6.290   5.577
 5850SOL     OW18448   1.465   1.966   1.753
 5850SOL    HW118449   1.504   1.934   1.667
 5850SOL    HW218450   1.365   1.970   1.745
 5851SOL     OW18451   5.535   2.824   4.632
 5851SOL    HW118452   5.539   2.782   4.723
 5851SOL    HW218453   5.450   2.875   4.623
 5852SOL     OW18454   5.229   5.169   3.366
 5852SOL    HW118455   5.176   5.100   3.317
 5852SOL    HW218456   5.290   5.215   3.301
 5853SOL     OW18457   3.854   5.020   5.673
 5853SOL    HW118458   3.825   5.017   5.578
 5853SOL    HW218459   3.928   5.087   5.683
 5854SOL     OW18460   2.478   5.021   6.009
 5854SOL    HW118461   2.504   4.968   6.089
 5854SOL    HW218462   2.554   5.079   5.981
 5855SOL     OW18463   2.054   2.674   3.824
 5855SOL    HW118464   2.146   2.713   3.833
 5855SOL    HW218465   1.987   2.748   3.811
 5856SOL     OW18466   1.851   0.314   3.024
 5856SOL    HW118467   1.901   0.229   3.006
 5856SOL    HW218468   1.755   0.301   2.998
 5857SOL     OW18469   0.662   4.150   6.408
 5857SOL    HW118470   0.622   4.111   6.325
 5857SOL    HW218471   0.754   4.112   6.421
 5858SOL     OW18472   1.866   2.181   3.405
 5858SOL    HW118473   1.808   2.258   3.432
 5858SOL    HW218474   1.928   2.209   3.332
 5859SOL     OW18475   6.178   0.321   2.762
 5859SOL    HW118476   6.235   0.239   2.775
 5859SOL    HW218477   6.156   0.331   2.666
 5860SOL     OW18478   0.036   3.167   3.593
 5860SOL    HW118479   0.107   3.202   3.531
 5860SOL    HW218480   0.079   3.122   3.671
 5861SOL     OW18481   5.775   1.407   5.015
 5861SOL    HW118482   5.866   1.410   5.057
 5861SOL    HW218483   5.758   1.316   4.979
 5862SOL     OW18484   0.062   5.387   3.032
 5862SOL    HW118485   7.005   5.343   2.994
 5862SOL    HW218486   0.110   5.437   2.961
 5863SOL     OW18487   3.565   0.133   5.004
 5863SOL    HW118488   3.498   0.098   4.938
 5863SOL    HW218489   3.655   0.138   4.960
 5864SOL     OW18490   3.257   4.102   3.059
 5864SOL    HW118491   3.189   4.084   2.988
 5864SOL    HW218492   3.339   4.142   3.018
 5865SOL     OW18493   5.960   1.223   5.489
 5865SOL    HW118494   5.888   1.163   5.454
 5865SOL    HW218495   6.028   1.168   5.537
 5866SOL     OW18496   4.154   3.258   2.119
 5866SOL    HW118497   4.236   3.202   2.113
 5866SOL    HW218498   4.143   3.291   2.213
 5867SOL     OW18499   2.814   2.215   1.561
 5867SOL    HW118500   2.862   2.296   1.594
 5867SOL    HW218501   2.724   2.240   1.528
 5868SOL     OW18502   0.424   1.766   6.240
 5868SOL    HW118503   0.387   1.822   6.315
 5868SOL    HW218504   0.430   1.671   6.270
 5869SOL     OW18505   1.158   4.511   4.193
 5869SOL    HW118506   1.150   4.414   4.213
 5869SOL    HW218507   1.217   4.524   4.113
 5870SOL     OW18508   4.421   4.748   5.263
 5870SOL    HW118509   4.349   4.802   5.307
 5870SOL    HW218510   4.446   4.790   5.176
 5871SOL     OW18511   2.899   3.446   3.233
 5871SOL    HW118512   2.870   3.383   3.161
 5871SOL    HW218513   2.978   3.499   3.202
 5872SOL     OW18514   4.566   6.428   2.147
 5872SOL    HW118515   4.534   6.390   2.234
 5872SOL    HW218516   4.529   6.521   2.136
 5873SOL     OW18517   3.782   4.825   2.881
 5873SOL    HW118518   3.759   4.919   2.853
 5873SOL    HW218519   3.780   4.765   2.801
 5874SOL     OW18520   2.061   4.053   5.725
 5874SOL    HW118521   2.076   4.147   5.694
 5874SOL    HW218522   2.128   3.993   5.681
 5875SOL     OW18523   3.429   1.690   0.145
 5875SOL    HW118524   3.438   1.703   0.047
 5875SOL    HW218525   3.344   1.733   0.177
 5876SOL     OW18526   3.935   3.104   2.076
 5876SOL    HW118527   4.026   3.129   2.108
 5876SOL    HW218528   3.866   3.139   2.141
 5877SOL     OW18529   6.013   5.712   1.014
 5877SOL    HW118530   5.940   5.658   0.972
 5877SOL    HW218531   6.046   5.779   0.948
 5878SOL     OW18532   1.979   5.072   2.743
 5878SOL    HW118533   1.927   5.085   2.828
 5878SOL    HW218534   2.046   4.999   2.757
 5879SOL     OW18535   6.316   3.975   0.102
 5879SOL    HW118536   6.330   4.012   0.194
 5879SOL    HW218537   6.297   3.877   0.107
 5880SOL     OW18538   2.927   6.482   1.272
 5880SOL    HW118539   2.961   6.456   1.362
 5880SOL    HW218540   2.941   6.580   1.258
 5881SOL     OW18541   0.703   4.716   3.770
 5881SOL    HW118542   0.744   4.651   3.834
 5881SOL    HW218543   0.635   4.771   3.818
 5882SOL     OW18544   5.325   0.667   1.067
 5882SOL    HW118545   5.391   0.715   1.009
 5882SOL    HW218546   5.257   0.732   1.100
 5883SOL     OW18547   6.504   2.665   6.451
 5883SOL    HW118548   6.599   2.667   6.482
 5883SOL    HW218549   6.446   2.626   6.523
 5884SOL     OW18550   0.904   1.126   3.357
 5884SOL    HW118551   0.914   1.047   3.297
 5884SOL    HW218552   0.905   1.209   3.302
 5885SOL     OW18553   6.689   6.541   1.260
 5885SOL    HW118554   6.623   6.507   1.328
 5885SOL    HW218555   6.695   6.641   1.268
 5886SOL     OW18556   0.473   2.550   5.281
 5886SOL    HW118557   0.504   2.610   5.355
 5886SOL    HW218558   0.515   2.460   5.290
 5887SOL     OW18559   3.029   0.952   4.193
 5887SOL    HW118560   2.973   1.034   4.197
 5887SOL    HW218561   3.079   0.941   4.280
 5888SOL     OW18562   1.604   6.438   2.930
 5888SOL    HW118563   1.533   6.372   2.952
 5888SOL    HW218564   1.571   6.499   2.858
 5889SOL     OW18565   2.286   0.511   0.964
 5889SOL    HW118566   2.379   0.546   0.980
 5889SOL    HW218567   2.286   0.452   0.883
 5890SOL     OW18568   1.462   6.352   4.945
 5890SOL    HW118569   1.394   6.345   4.872
 5890SOL    HW218570   1.458   6.443   4.986
 5891SOL     OW18571   4.069   3.097   6.927
 5891SOL    HW118572   4.049   3.140   6.839
 5891SOL    HW218573   4.095   3.167   6.993
 5892SOL     OW18574   0.976   5.871   1.316
 5892SOL    HW118575   1.011   5.959   1.347
 5892SOL    HW218576   1.035   5.797   1.348
 5893SOL     OW18577   1.393   2.488   3.653
 5893SOL    HW118578   1.357   2.577   3.626
 5893SOL    HW218579   1.477   2.501   3.705
 5894SOL     OW18580   1.772   4.620   3.550
 5894SOL    HW118581   1.711   4.558   3.598
 5894SOL    HW218582   1.833   4.665   3.616
 5895SOL     OW18583   5.090   2.807   4.430
 5895SOL    HW118584   5.056   2.771   4.343
 5895SOL    HW218585   5.116   2.903   4.418
 5896SOL     OW18586   3.754   2.405   6.307
 5896SOL    HW118587   3.666   2.383   6.348
 5896SOL    HW218588   3.828   2.379   6.369
 5897SOL     OW18589   4.006   0.579   1.166
 5897SOL    HW118590   3.947   0.502   1.190
 5897SOL    HW218591   3.957   0.665   1.180
 5898SOL     OW18592   1.487   0.023   1.538
 5898SOL    HW118593   1.527   0.110   1.568
 5898SOL    HW218594   1.516   0.004   1.444
 5899SOL     OW18595   5.783   6.991   5.081
 5899SOL    HW118596   5.833   6.960   5.000
 5899SOL    HW218597   5.726   0.045   5.057
 5900SOL     OW18598   4.990   4.801   2.921
 5900SOL    HW118599   5.023   4.825   3.012
 5900SOL    HW218600   4.947   4.711   2.923
 5901SOL     OW18601   2.265   6.566   6.564
 5901SOL    HW118602   2.229   6.532   6.477
 5901SOL    HW218603   2.237   6.505   6.638
 5902SOL     OW18604   6.820   2.414   0.902
 5902SOL    HW118605   6.746   2.353   0.872
 5902SOL    HW218606   6.895   2.412   0.836
 5903SOL     OW18607   5.844   4.725   0.244
 5903SOL    HW118608   5.910   4.752   0.315
 5903SOL    HW218609   5.773   4.668   0.285
 5904SOL     OW18610   0.387   3.399   2.349
 5904SOL    HW118611   0.291   3.396   2.323
 5904SOL    HW218612   0.395   3.431   2.443
 5905SOL     OW18613   6.765   6.318   2.790
 5905SOL    HW118614   6.668   6.324   2.817
 5905SOL    HW218615   6.771   6.304   2.692
 5906SOL     OW18616   5.611   0.884   4.041
 5906SOL    HW118617   5.515   0.911   4.034
 5906SOL    HW218618   5.658   0.905   3.955
 5907SOL     OW18619   1.182   6.361   0.818
 5907SOL    HW118620   1.083   6.349   0.827
 5907SOL    HW218621   1.203   6.412   0.735
 5908SOL     OW18622   0.830   2.353   5.828
 5908SOL    HW118623   0.762   2.374   5.758
 5908SOL    HW218624   0.893   2.429   5.838
 5909SOL     OW18625   1.289   5.919   0.289
 5909SOL    HW118626   1.216   5.987   0.278
 5909SOL    HW218627   1.324   5.894   0.199
 5910SOL     OW18628   1.107   2.727   3.297
 5910SOL    HW118629   1.070   2.647   3.345
 5910SOL    HW218630   1.204   2.738   3.320
 5911SOL     OW18631   6.505   5.605   6.465
 5911SOL    HW118632   6.514   5.601   6.366
 5911SOL    HW218633   6.485   5.513   6.500
 5912SOL     OW18634   6.442   1.375   5.743
 5912SOL    HW118635   6.518   1.310   5.738
 5912SOL    HW218636   6.460   1.440   5.817
 5913SOL     OW18637   5.619   2.911   0.347
 5913SOL    HW118638   5.560   2.886   0.271
 5913SOL    HW218639   5.638   3.009   0.344
 5914SOL     OW18640   0.715   6.557   6.239
 5914SOL    HW118641   0.736   6.642   6.190
 5914SOL    HW218642   0.633   6.570   6.295
 5915SOL     OW18643   2.984   6.675   0.205
 5915SOL    HW118644   2.955   6.642   0.295
 5915SOL    HW218645   2.997   6.597   0.144
 5916SOL     OW18646   0.984   6.514   1.668
 5916SOL    HW118647   1.053   6.579   1.700
 5916SOL    HW218648   1.024   6.423   1.660
 5917SOL     OW18649   3.220   4.438   6.482
 5917SOL    HW118650   3.307   4.390   6.479
 5917SOL    HW218651   3.161   4.404   6.409
 5918SOL     OW18652   2.464   5.727   5.771
 5918SOL    HW118653   2.368   5.712   5.791
 5918SOL    HW218654   2.478   5.820   5.738
 5919SOL     OW18655   3.244   3.468   3.658
 5919SOL    HW118656   3.221   3.464   3.560
 5919SOL    HW218657   3.273   3.378   3.689
 5920SOL     OW18658   5.620   1.115   6.003
 5920SOL    HW118659   5.681   1.045   6.040
 5920SOL    HW218660   5.661   1.206   6.017
 5921SOL     OW18661   3.964   4.594   6.967
 5921SOL    HW118662   4.042   4.563   7.022
 5921SOL    HW218663   3.931   4.681   7.002
 5922SOL     OW18664   6.531   3.994   3.917
 5922SOL    HW118665   6.439   4.032   3.908
 5922SOL    HW218666   6.582   4.010   3.833
 5923SOL     OW18667   6.172   1.129   1.719
 5923SOL    HW118668   6.138   1.045   1.763
 5923SOL    HW218669   6.154   1.207   1.779
 5924SOL     OW18670   5.154   6.773   2.858
 5924SOL    HW118671   5.193   6.849   2.806
 5924SOL    HW218672   5.070   6.803   2.904
 5925SOL     OW18673   4.445   5.298   1.540
 5925SOL    HW118674   4.374   5.368   1.529
 5925SOL    HW218675   4.533   5.336   1.511
 5926SOL     OW18676   4.024   4.981   3.462
 5926SOL    HW118677   4.098   4.918   3.440
 5926SOL    HW218678   4.004   4.976   3.560
 5927SOL     OW18679   1.655   3.944   2.002
 5927SOL    HW118680   1.595   4.023   2.000
 5927SOL    HW218681   1.713   3.944   1.920
 5928SOL     OW18682   4.548   0.279   1.079
 5928SOL    HW118683   4.561   0.278   0.980
 5928SOL    HW218684   4.451   0.266   1.100
 5929SOL     OW18685   6.465   0.448   5.403
 5929SOL    HW118686   6.377   0.490   5.379
 5929SOL    HW218687   6.477   0.364   5.350
 5930SOL     OW18688   1.499   3.014   1.227
 5930SOL    HW118689   1.567   3.033   1.156
 5930SOL    HW218690   1.408   3.023   1.188
 5931SOL     OW18691   5.525   6.217   2.819
 5931SOL    HW118692   5.483   6.192   2.732
 5931SOL    HW218693   5.515   6.316   2.833
 5932SOL     OW18694   3.310   6.977   6.587
 5932SOL    HW118695   3.344   0.046   6.596
 5932SOL    HW218696   3.227   6.966   6.641
 5933SOL     OW18697   0.146   5.604   4.406
 5933SOL    HW118698   0.214   5.668   4.370
 5933SOL    HW218699   0.114   5.545   4.333
 5934SOL     OW18700   3.522   3.876   5.570
 5934SOL    HW118701   3.433   3.878   5.615
 5934SOL    HW218702   3.593   3.851   5.636
 5935SOL     OW18703   0.135   5.802   5.776
 5935SOL    HW118704   0.196   5.873   5.811
 5935SOL    HW218705   0.189   5.729   5.735
 5936SOL     OW18706   3.216   2.970   2.672
 5936SOL    HW118707   3.204   2.954   2.574
 5936SOL    HW218708   3.305   2.933   2.701
 5937SOL     OW18709   0.131   2.339   2.097
 5937SOL    HW118710   0.052   2.319   2.040
 5937SOL    HW218711   0.141   2.438   2.107
 5938SOL     OW18712   5.670   5.619   4.995
 5938SOL    HW118713   5.661   5.525   4.965
 5938SOL    HW218714   5.579   5.657   5.014
 5939SOL     OW18715   3.544   6.376   4.248
 5939SOL    HW118716   3.618   6.386   4.314
 5939SOL    HW218717   3.579   6.393   4.156
 5940SOL     OW18718   4.850   5.262   3.246
 5940SOL    HW118719   4.848   5.273   3.146
 5940SOL    HW218720   4.846   5.165   3.269
 5941SOL     OW18721   6.117   2.438   2.276
 5941SOL    HW118722   6.055   2.485   2.213
 5941SOL    HW218723   6.210   2.473   2.264
 5942SOL     OW18724   6.248   3.197   5.818
 5942SOL    HW118725   6.326   3.250   5.851
 5942SOL    HW218726   6.186   3.256   5.767
 5943SOL     OW18727   4.377   3.646   0.445
 5943SOL    HW118728   4.326   3.637   0.531
 5943SOL    HW218729   4.475   3.644   0.465
 5944SOL     OW18730   0.657   2.739   6.891
 5944SOL    HW118731   0.573   2.782   6.927
 5944SOL    HW218732   0.674   2.654   6.941
 5945SOL     OW18733   0.588   6.267   4.858
 5945SOL    HW118734   0.522   6.193   4.864
 5945SOL    HW218735   0.640   6.259   4.773
 5946SOL     OW18736   3.677   4.624   6.524
 5946SOL    HW118737   3.590   4.665   6.497
 5946SOL    HW218738   3.687   4.630   6.623
 5947SOL     OW18739   3.188   3.004   4.517
 5947SOL    HW118740   3.112   2.950   4.482
 5947SOL    HW218741   3.263   3.003   4.451
 5948SOL     OW18742   4.753   4.145   2.190
 5948SOL    HW118743   4.775   4.052   2.162
 5948SOL    HW218744   4.752   4.204   2.109
 5949SOL     OW18745   5.578   5.386   1.248
 5949SOL    HW118746   5.630   5.317   1.299
 5949SOL    HW218747   5.630   5.415   1.168
 5950SOL     OW18748   5.223   2.351   5.333
 5950SOL    HW118749   5.287   2.418   5.369
 5950SOL    HW218750   5.173   2.308   5.408
 5951SOL     OW18751   0.607   5.310   5.193
 5951SOL    HW118752   0.619   5.221   5.149
 5951SOL    HW218753   0.694   5.359   5.194
 5952SOL     OW18754   3.967   5.402   2.210
 5952SOL    HW118755   4.024   5.322   2.232
 5952SOL    HW218756   3.873   5.372   2.192
 5953SOL     OW18757   6.335   2.980   4.874
 5953SOL    HW118758   6.346   2.881   4.878
 5953SOL    HW218759   6.424   3.024   4.886
 5954SOL     OW18760   0.199   5.574   5.592
 5954SOL    HW118761   0.166   5.625   5.513
 5954SOL    HW218762   0.258   5.500   5.562
 5955SOL     OW18763   4.868   4.810   1.416
 5955SOL    HW118764   4.922   4.739   1.371
 5955SOL    HW218765   4.813   4.769   1.489
 5956SOL     OW18766   5.364   2.471   4.195
 5956SOL    HW118767   5.304   2.406   4.242
 5956SOL    HW218768   5.312   2.552   4.168
 5957SOL     OW18769   1.384   1.017   3.150
 5957SOL    HW118770   1.442   0.997   3.071
 5957SOL    HW218771   1.296   1.052   3.119
 5958SOL     OW18772   3.811   0.122   3.053
 5958SOL    HW118773   3.885   0.175   3.013
 5958SOL    HW218774   3.741   0.104   2.985
 5959SOL     OW18775   4.820   2.379   5.653
 5959SOL    HW118776   4.790   2.432   5.732
 5959SOL    HW218777   4.756   2.392   5.578
 5960SOL     OW18778   2.987   6.491   4.726
 5960SOL    HW118779   2.992   6.422   4.654
 5960SOL    HW218780   2.905   6.475   4.782
 5961SOL     OW18781   4.038   1.867   2.142
 5961SOL    HW118782   4.037   1.811   2.060
 5961SOL    HW218783   3.986   1.951   2.127
 5962SOL     OW18784   4.886   6.125   6.225
 5962SOL    HW118785   4.871   6.164   6.134
 5962SOL    HW218786   4.941   6.189   6.279
 5963SOL     OW18787   3.323   4.522   6.714
 5963SOL    HW118788   3.281   4.608   6.744
 5963SOL    HW218789   3.296   4.503   6.620
 5964SOL     OW18790   2.350   0.109   2.878
 5964SOL    HW118791   2.408   0.138   2.954
 5964SOL    HW218792   2.288   0.037   2.909
 5965SOL     OW18793   1.896   0.561   6.676
 5965SOL    HW118794   1.863   0.574   6.582
 5965SOL    HW218795   1.973   0.497   6.676
 5966SOL     OW18796   1.692   6.813   5.726
 5966SOL    HW118797   1.651   6.887   5.674
 5966SOL    HW218798   1.648   6.726   5.703
 5967SOL     OW18799   2.516   2.013   5.179
 5967SOL    HW118800   2.614   2.014   5.197
 5967SOL    HW218801   2.492   2.087   5.116
 5968SOL     OW18802   5.506   2.247   0.232
 5968SOL    HW118803   5.427   2.187   0.245
 5968SOL    HW218804   5.484   2.339   0.265
 5969SOL     OW18805   4.880   0.256   6.625
 5969SOL    HW118806   4.925   0.317   6.560
 5969SOL    HW218807   4.784   0.280   6.632
 5970SOL     OW18808   0.282   4.104   0.880
 5970SOL    HW118809   0.379   4.107   0.857
 5970SOL    HW218810   0.248   4.010   0.871
 5971SOL     OW18811   5.796   0.362   2.435
 5971SOL    HW118812   5.722   0.408   2.385
 5971SOL    HW218813   5.789   0.263   2.420
 5972SOL     OW18814   5.143   5.313   6.971
 5972SOL    HW118815   5.215   5.298   0.014
 5972SOL    HW218816   5.098   5.227   6.949
 5973SOL     OW18817   2.153   3.668   2.698
 5973SOL    HW118818   2.127   3.714   2.783
 5973SOL    HW218819   2.249   3.643   2.702
 5974SOL     OW18820   4.478   0.833   6.952
 5974SOL    HW118821   4.535   0.884   7.017
 5974SOL    HW218822   4.383   0.835   6.982
 5975SOL     OW18823   5.005   4.855   1.088
 5975SOL    HW118824   5.030   4.786   1.020
 5975SOL    HW218825   5.088   4.899   1.122
 5976SOL     OW18826   3.440   3.570   5.791
 5976SOL    HW118827   3.430   3.474   5.816
 5976SOL    HW218828   3.521   3.581   5.733
 5977SOL     OW18829   0.802   5.472   0.267
 5977SOL    HW118830   0.745   5.469   0.349
 5977SOL    HW218831   0.772   5.549   0.210
 5978SOL     OW18832   3.763   5.183   0.431
 5978SOL    HW118833   3.850   5.163   0.476
 5978SOL    HW218834   3.776   5.259   0.367
 5979SOL     OW18835   6.286   0.495   2.364
 5979SOL    HW118836   6.244   0.433   2.431
 5979SOL    HW218837   6.250   0.587   2.377
 5980SOL     OW18838   3.380   2.984   2.062
 5980SOL    HW118839   3.474   3.006   2.035
 5980SOL    HW218840   3.337   2.928   1.991
 5981SOL     OW18841   4.834   2.509   0.305
 5981SOL    HW118842   4.821   2.461   0.218
 5981SOL    HW218843   4.751   2.502   0.360
 5982SOL     OW18844   5.599   2.017   2.040
 5982SOL    HW118845   5.560   2.074   2.113
 5982SOL    HW218846   5.595   2.066   1.953
 5983SOL     OW18847   0.596   0.546   4.122
 5983SOL    HW118848   0.614   0.585   4.032
 5983SOL    HW218849   0.498   0.537   4.136
 5984SOL     OW18850   5.737   6.621   3.160
 5984SOL    HW118851   5.651   6.613   3.111
 5984SOL    HW218852   5.801   6.676   3.106
 5985SOL     OW18853   6.423   2.173   3.885
 5985SOL    HW118854   6.413   2.173   3.985
 5985SOL    HW218855   6.478   2.252   3.858
 5986SOL     OW18856   4.185   3.737   5.557
 5986SOL    HW118857   4.259   3.688   5.511
 5986SOL    HW218858   4.212   3.832   5.573
 5987SOL     OW18859   6.431   1.014   4.279
 5987SOL    HW118860   6.439   0.937   4.343
 5987SOL    HW218861   6.511   1.016   4.219
 5988SOL     OW18862   3.061   1.134   6.660
 5988SOL    HW118863   3.146   1.089   6.633
 5988SOL    HW218864   3.053   1.134   6.760
 5989SOL     OW18865   1.289   5.640   6.454
 5989SOL    HW118866   1.212   5.576   6.456
 5989SOL    HW218867   1.368   5.594   6.413
 5990SOL     OW18868   4.402   3.968   1.078
 5990SOL    HW118869   4.419   3.878   1.038
 5990SOL    HW218870   4.319   4.007   1.037
 5991SOL     OW18871   4.420   5.690   0.266
 5991SOL    HW118872   4.366   5.614   0.303
 5991SOL    HW218873   4.451   5.748   0.342
 5992SOL     OW18874   3.122   0.102   2.393
 5992SOL    HW118875   3.154   0.177   2.451
 5992SOL    HW218876   3.042   0.059   2.434
 5993SOL     OW18877   6.475   3.501   6.672
 5993SOL    HW118878   6.494   3.599   6.670
 5993SOL    HW218879   6.418   3.480   6.752
 5994SOL     OW18880   0.061   3.327   0.873
 5994SOL    HW118881   0.074   3.234   0.908
 5994SOL    HW218882   6.989   3.350   0.873
 5995SOL     OW18883   4.366   3.312   1.405
 5995SOL    HW118884   4.282   3.354   1.439
 5995SOL    HW218885   4.444   3.368   1.431
 5996SOL     OW18886   2.252   5.826   1.251
 5996SOL    HW118887   2.287   5.882   1.326
 5996SOL    HW218888   2.324   5.813   1.183
 5997SOL     OW18889   6.971   6.891   3.329
 5997SOL    HW118890   7.023   6.839   3.397
 5997SOL    HW218891   6.909   6.830   3.280
 5998SOL     OW18892   5.619   0.412   1.591
 5998SOL    HW118893   5.562   0.423   1.509
 5998SOL    HW218894   5.560   0.417   1.672
 5999SOL     OW18895   4.094   3.240   0.956
 5999SOL    HW118896   4.095   3.174   0.881
 5999SOL    HW218897   4.078   3.192   1.043
 6000SOL     OW18898   0.149   5.708   0.403
 6000SOL    HW118899   0.163   5.611   0.384
 6000SOL    HW218900   0.203   5.735   0.483
 6001SOL     OW18901   5.439   6.130   6.430
 6001SOL    HW118902   5.341   6.112   6.423
 6001SOL    HW218903   5.466   6.193   6.356
 6002SOL     OW18904   7.002   6.820   4.822
 6002SOL    HW118905   6.942   6.838   4.900
 6002SOL    HW218906   0.007   6.906   4.783
 6003SOL     OW18907   6.747   2.487   4.713
 6003SOL    HW118908   6.802   2.408   4.686
 6003SOL    HW218909   6.662   2.457   4.756
 6004SOL     OW18910   5.849   2.409   3.184
 6004SOL    HW118911   5.795   2.430   3.266
 6004SOL    HW218912   5.841   2.484   3.119
 6005SOL     OW18913   5.416   4.252   5.253
 6005SOL    HW118914   5.355   4.178   5.224
 6005SOL    HW218915   5.373   4.340   5.232
 6006SOL     OW18916   3.306   7.008   4.986
 6006SOL    HW118917   3.271   0.011   4.897
 6006SOL    HW218918   3.285   0.054   5.054
 6007SOL     OW18919   0.154   3.735   6.896
 6007SOL    HW118920   0.190   3.655   6.847
 6007SOL    HW218921   0.156   3.718   6.994
 6008SOL     OW18922   2.108   4.579   5.735
 6008SOL    HW118923   2.111   4.618   5.826
 6008SOL    HW218924   2.058   4.640   5.674
 6009SOL     OW18925   5.131   5.837   3.226
 6009SOL    HW118926   5.074   5.912   3.194
 6009SOL    HW218927   5.079   5.780   3.290
 6010SOL     OW18928   0.250   3.812   4.445
 6010SOL    HW118929   0.334   3.793   4.394
 6010SOL    HW218930   0.203   3.726   4.466
 6011SOL     OW18931   4.681   2.277   2.583
 6011SOL    HW118932   4.695   2.227   2.497
 6011SOL    HW218933   4.606   2.342   2.572
 6012SOL     OW18934   5.695   0.495   6.742
 6012SOL    HW118935   5.678   0.397   6.734
 6012SOL    HW218936   5.685   0.523   6.838
 6013SOL     OW18937   4.923   1.335   2.547
 6013SOL    HW118938   4.933   1.422   2.499
 6013SOL    HW218939   4.833   1.330   2.590
 6014SOL     OW18940   3.418   3.526   3.881
 6014SOL    HW118941   3.458   3.555   3.794
 6014SOL    HW218942   3.318   3.533   3.875
 6015SOL     OW18943   6.006   2.990   4.491
 6015SOL    HW118944   5.937   2.926   4.524
 6015SOL    HW218945   5.982   3.021   4.400
 6016SOL     OW18946   4.811   2.077   5.499
 6016SOL    HW118947   4.773   2.169   5.500
 6016SOL    HW218948   4.807   2.041   5.405
 6017SOL     OW18949   0.341   3.862   4.741
 6017SOL    HW118950   0.334   3.860   4.642
 6017SOL    HW218951   0.356   3.956   4.772
 6018SOL     OW18952   3.312   1.249   4.327
 6018SOL    HW118953   3.374   1.322   4.298
 6018SOL    HW218954   3.299   1.185   4.251
 6019SOL     OW18955   0.866   3.796   6.035
 6019SOL    HW118956   0.947   3.747   6.066
 6019SOL    HW218957   0.795   3.791   6.106
 6020SOL     OW18958   1.059   5.076   1.076
 6020SOL    HW118959   1.056   4.985   1.037
 6020SOL    HW218960   1.003   5.138   1.021
 6021SOL     OW18961   4.440   0.242   2.663
 6021SOL    HW118962   4.539   0.252   2.656
 6021SOL    HW218963   4.414   0.240   2.759
 6022SOL     OW18964   6.496   1.991   3.249
 6022SOL    HW118965   6.398   1.996   3.268
 6022SOL    HW218966   6.531   2.083   3.231
 6023SOL     OW18967   5.350   0.180   1.530
 6023SOL    HW118968   5.368   0.266   1.483
 6023SOL    HW218969   5.394   0.105   1.481
 6024SOL     OW18970   0.576   4.750   0.690
 6024SOL    HW118971   0.637   4.829   0.697
 6024SOL    HW218972   0.587   4.692   0.771
 6025SOL     OW18973   2.478   1.573   3.553
 6025SOL    HW118974   2.543   1.643   3.584
 6025SOL    HW218975   2.526   1.503   3.502
 6026SOL     OW18976   6.479   4.769   4.509
 6026SOL    HW118977   6.428   4.843   4.553
 6026SOL    HW218978   6.424   4.686   4.508
 6027SOL     OW18979   6.159   3.469   5.990
 6027SOL    HW118980   6.079   3.433   6.038
 6027SOL    HW218981   6.236   3.406   6.000
 6028SOL     OW18982   5.443   5.096   1.545
 6028SOL    HW118983   5.539   5.079   1.525
 6028SOL    HW218984   5.386   5.054   1.474
 6029SOL     OW18985   2.167   6.832   3.358
 6029SOL    HW118986   2.114   6.765   3.306
 6029SOL    HW218987   2.124   6.922   3.351
 6030SOL     OW18988   4.977   3.659   4.756
 6030SOL    HW118989   4.941   3.616   4.673
 6030SOL    HW218990   4.913   3.645   4.831
 6031SOL     OW18991   1.413   5.947   3.947
 6031SOL    HW118992   1.369   5.936   3.858
 6031SOL    HW218993   1.444   6.041   3.957
 6032SOL     OW18994   3.164   5.822   3.803
 6032SOL    HW118995   3.262   5.821   3.824
 6032SOL    HW218996   3.151   5.817   3.704
 6033SOL     OW18997   2.381   2.770   2.659
 6033SOL    HW118998   2.318   2.738   2.588
 6033SOL    HW218999   2.415   2.691   2.711
 6034SOL     OW19000   0.741   0.414   6.452
 6034SOL    HW119001   0.748   0.321   6.418
 6034SOL    HW219002   0.804   0.427   6.528
 6035SOL     OW19003   0.930   1.427   2.734
 6035SOL    HW119004   0.932   1.407   2.636
 6035SOL    HW219005   0.846   1.475   2.757
 6036SOL     OW19006   6.256   5.004   1.885
 6036SOL    HW119007   6.355   5.018   1.883
 6036SOL    HW219008   6.231   4.936   1.816
 6037SOL     OW19009   4.220   0.867   1.079
 6037SOL    HW119010   4.135   0.815   1.093
 6037SOL    HW219011   4.204   0.938   1.010
 6038SOL     OW19012   0.210   2.443   6.567
 6038SOL    HW119013   0.168   2.353   6.553
 6038SOL    HW219014   0.240   2.451   6.663
 6039SOL     OW19015   4.137   3.491   3.980
 6039SOL    HW119016   4.160   3.519   3.887
 6039SOL    HW219017   4.089   3.403   3.977
 6040SOL     OW19018   1.807   1.535   0.468
 6040SOL    HW119019   1.734   1.476   0.433
 6040SOL    HW219020   1.896   1.492   0.450
 6041SOL     OW19021   3.130   3.085   5.563
 6041SOL    HW119022   3.101   3.177   5.539
 6041SOL    HW219023   3.078   3.018   5.509
 6042SOL     OW19024   4.304   5.985   3.100
 6042SOL    HW119025   4.228   5.920   3.103
 6042SOL    HW219026   4.388   5.939   3.130
 6043SOL     OW19027   1.436   0.927   4.083
 6043SOL    HW119028   1.440   0.827   4.086
 6043SOL    HW219029   1.464   0.963   4.172
 6044SOL     OW19030   2.051   1.628   1.933
 6044SOL    HW119031   2.031   1.585   1.845
 6044SOL    HW219032   2.125   1.579   1.978
 6045SOL     OW19033   4.887   3.067   3.806
 6045SOL    HW119034   4.901   3.110   3.717
 6045SOL    HW219035   4.922   3.126   3.878
 6046SOL     OW19036   3.238   2.849   1.176
 6046SOL    HW119037   3.327   2.846   1.130
 6046SOL    HW219038   3.175   2.907   1.124
 6047SOL     OW19039   5.508   2.388   0.741
 6047SOL    HW119040   5.433   2.453   0.734
 6047SOL    HW219041   5.492   2.325   0.816
 6048SOL     OW19042   5.461   4.963   5.020
 6048SOL    HW119043   5.454   5.038   5.086
 6048SOL    HW219044   5.457   5.001   4.927
 6049SOL     OW19045   5.519   4.538   6.066
 6049SOL    HW119046   5.514   4.606   5.993
 6049SOL    HW219047   5.540   4.449   6.027
 6050SOL     OW19048   2.895   5.177   0.642
 6050SOL    HW119049   2.929   5.243   0.708
 6050SOL    HW219050   2.886   5.220   0.552
 6051SOL     OW19051   0.827   1.023   2.611
 6051SOL    HW119052   0.910   1.008   2.557
 6051SOL    HW219053   0.778   0.937   2.622
 6052SOL     OW19054   5.437   0.420   1.397
 6052SOL    HW119055   5.344   0.450   1.376
 6052SOL    HW219056   5.501   0.465   1.335
 6053SOL     OW19057   4.394   0.583   6.115
 6053SOL    HW119058   4.384   0.576   6.215
 6053SOL    HW219059   4.316   0.539   6.071
 6054SOL     OW19060   3.640   5.042   0.888
 6054SOL    HW119061   3.650   5.113   0.818
 6054SOL    HW219062   3.724   5.035   0.941
 6055SOL     OW19063   3.555   5.100   6.607
 6055SOL    HW119064   3.492   5.023   6.598
 6055SOL    HW219065   3.612   5.106   6.525
 6056SOL     OW19066   5.971   3.004   4.918
 6056SOL    HW119067   5.949   3.032   5.012
 6056SOL    HW219068   5.970   2.905   4.912
 6057SOL     OW19069   5.529   0.393   2.356
 6057SOL    HW119070   5.492   0.485   2.368
 6057SOL    HW219071   5.557   0.381   2.261
 6058SOL     OW19072   6.147   3.499   0.478
 6058SOL    HW119073   6.106   3.584   0.511
 6058SOL    HW219074   6.085   3.423   0.495
 6059SOL     OW19075   4.984   3.889   5.358
 6059SOL    HW119076   4.903   3.927   5.402
 6059SOL    HW219077   5.007   3.802   5.400
 6060SOL     OW19078   3.191   3.070   0.470
 6060SOL    HW119079   3.180   3.126   0.388
 6060SOL    HW219080   3.288   3.058   0.489
 6061SOL     OW19081   4.627   4.620   0.154
 6061SOL    HW119082   4.528   4.629   0.164
 6061SOL    HW219083   4.654   4.646   0.061
 6062SOL     OW19084   2.628   1.823   6.825
 6062SOL    HW119085   2.660   1.826   6.920
 6062SOL    HW219086   2.695   1.776   6.768
 6063SOL     OW19087   3.703   4.230   5.487
 6063SOL    HW119088   3.730   4.134   5.472
 6063SOL    HW219089   3.609   4.233   5.521
 6064SOL     OW19090   0.528   0.396   0.962
 6064SOL    HW119091   0.548   0.357   1.052
 6064SOL    HW219092   0.531   0.323   0.893
 6065SOL     OW19093   0.903   5.110   1.295
 6065SOL    HW119094   0.964   5.098   1.217
 6065SOL    HW219095   0.875   5.020   1.330
 6066SOL     OW19096   5.253   1.461   3.776
 6066SOL    HW119097   5.266   1.535   3.711
 6066SOL    HW219098   5.177   1.403   3.746
 6067SOL     OW19099   5.498   0.414   6.102
 6067SOL    HW119100   5.470   0.411   6.006
 6067SOL    HW219101   5.418   0.406   6.161
 6068SOL     OW19102   5.118   2.374   4.891
 6068SOL    HW119103   5.100   2.282   4.927
 6068SOL    HW219104   5.192   2.369   4.823
 6069SOL     OW19105   6.661   2.945   6.071
 6069SOL    HW119106   6.744   2.946   6.016
 6069SOL    HW219107   6.667   3.016   6.141
 6070SOL     OW19108   3.557   2.308   1.601
 6070SOL    HW119109   3.607   2.328   1.686
 6070SOL    HW219110   3.602   2.234   1.552
 6071SOL     OW19111   0.291   6.347   4.289
 6071SOL    HW119112   0.229   6.303   4.354
 6071SOL    HW219113   0.242   6.368   4.205
 6072SOL     OW19114   6.555   1.732   1.025
 6072SOL    HW119115   6.633   1.677   1.054
 6072SOL    HW219116   6.526   1.703   0.934
 6073SOL     OW19117   5.196   2.795   1.085
 6073SOL    HW119118   5.202   2.857   1.163
 6073SOL    HW219119   5.288   2.775   1.051
 6074SOL     OW19120   1.691   0.316   2.215
 6074SOL    HW119121   1.649   0.382   2.152
 6074SOL    HW219122   1.645   0.321   2.304
 6075SOL     OW19123   4.645   6.919   5.827
 6075SOL    HW119124   4.613   7.013   5.815
 6075SOL    HW219125   4.729   6.905   5.775
 6076SOL     OW19126   2.564   5.643   3.676
 6076SOL    HW119127   2.469   5.612   3.683
 6076SOL    HW219128   2.574   5.731   3.723
 6077SOL     OW19129   5.798   6.755   1.006
 6077SOL    HW119130   5.832   6.849   1.000
 6077SOL    HW219131   5.876   6.692   1.012
 6078SOL     OW19132   4.622   4.383   1.020
 6078SOL    HW119133   4.594   4.472   0.987
 6078SOL    HW219134   4.555   4.349   1.086
 6079SOL     OW19135   4.788   4.549   6.726
 6079SOL    HW119136   4.872   4.576   6.678
 6079SOL    HW219137   4.765   4.455   6.702
 6080SOL     OW19138   0.490   5.177   1.518
 6080SOL    HW119139   0.537   5.265   1.524
 6080SOL    HW219140   0.535   5.111   1.578
 6081SOL     OW19141   0.585   3.343   5.796
 6081SOL    HW119142   0.651   3.344   5.721
 6081SOL    HW219143   0.522   3.266   5.784
 6082SOL     OW19144   3.332   6.827   1.849
 6082SOL    HW119145   3.392   6.892   1.804
 6082SOL    HW219146   3.246   6.820   1.800
 6083SOL     OW19147   5.326   6.223   0.045
 6083SOL    HW119148   5.298   6.135   0.007
 6083SOL    HW219149   5.408   6.255   7.024
 6084SOL     OW19150   0.583   6.212   2.141
 6084SOL    HW119151   0.608   6.204   2.237
 6084SOL    HW219152   0.666   6.206   2.085
 6085SOL     OW19153   5.795   5.949   6.185
 6085SOL    HW119154   5.718   5.925   6.244
 6085SOL    HW219155   5.809   6.048   6.189
 6086SOL     OW19156   3.962   3.161   6.180
 6086SOL    HW119157   3.889   3.096   6.204
 6086SOL    HW219158   4.044   3.110   6.156
 6087SOL     OW19159   5.127   6.288   1.137
 6087SOL    HW119160   5.054   6.221   1.141
 6087SOL    HW219161   5.179   6.286   1.222
 6088SOL     OW19162   5.947   6.294   5.148
 6088SOL    HW119163   5.876   6.362   5.130
 6088SOL    HW219164   5.908   6.218   5.200
 6089SOL     OW19165   6.618   2.073   2.345
 6089SOL    HW119166   6.652   2.012   2.416
 6089SOL    HW219167   6.569   2.150   2.386
 6090SOL     OW19168   2.756   4.996   4.381
 6090SOL    HW119169   2.751   4.899   4.359
 6090SOL    HW219170   2.834   5.014   4.440
 6091SOL     OW19171   2.795   1.552   1.045
 6091SOL    HW119172   2.884   1.510   1.025
 6091SOL    HW219173   2.810   1.640   1.090
 6092SOL     OW19174   4.250   0.856   1.949
 6092SOL    HW119175   4.165   0.879   1.901
 6092SOL    HW219176   4.229   0.817   2.038
 6093SOL     OW19177   2.316   1.901   2.490
 6093SOL    HW119178   2.245   1.880   2.424
 6093SOL    HW219179   2.368   1.981   2.460
 6094SOL     OW19180   1.448   6.417   3.649
 6094SOL    HW119181   1.526   6.470   3.683
 6094SOL    HW219182   1.436   6.435   3.551
 6095SOL     OW19183   4.712   5.350   6.733
 6095SOL    HW119184   4.754   5.349   6.642
 6095SOL    HW219185   4.648   5.273   6.740
 6096SOL     OW19186   5.481   6.399   2.152
 6096SOL    HW119187   5.546   6.391   2.076
 6096SOL    HW219188   5.521   6.452   2.226
 6097SOL     OW19189   1.206   5.569   1.933
 6097SOL    HW119190   1.154   5.610   1.857
 6097SOL    HW219191   1.151   5.573   2.016
 6098SOL     OW19192   5.954   0.518   5.809
 6098SOL    HW119193   5.982   0.600   5.759
 6098SOL    HW219194   5.999   0.517   5.898
 6099SOL     OW19195   4.421   6.085   5.629
 6099SOL    HW119196   4.402   6.141   5.548
 6099SOL    HW219197   4.477   6.138   5.693
 6100SOL     OW19198   0.171   5.506   1.865
 6100SOL    HW119199   0.182   5.590   1.918
 6100SOL    HW219200   0.259   5.480   1.825
 6101SOL     OW19201   5.894   2.794   2.647
 6101SOL    HW119202   5.964   2.724   2.651
 6101SOL    HW219203   5.926   2.871   2.592
 6102SOL     OW19204   4.041   5.682   2.918
 6102SOL    HW119205   4.077   5.589   2.920
 6102SOL    HW219206   4.092   5.736   2.851
 6103SOL     OW19207   6.236   1.083   1.306
 6103SOL    HW119208   6.242   1.032   1.392
 6103SOL    HW219209   6.306   1.154   1.304
 6104SOL     OW19210   6.184   1.164   5.073
 6104SOL    HW119211   6.278   1.177   5.103
 6104SOL    HW219212   6.142   1.254   5.058
 6105SOL     OW19213   2.547   5.681   5.500
 6105SOL    HW119214   2.462   5.732   5.484
 6105SOL    HW219215   2.553   5.656   5.596
 6106SOL     OW19216   1.289   4.877   0.535
 6106SOL    HW119217   1.369   4.932   0.509
 6106SOL    HW219218   1.213   4.938   0.558
 6107SOL     OW19219   4.797   5.618   4.166
 6107SOL    HW119220   4.835   5.550   4.103
 6107SOL    HW219221   4.806   5.584   4.260
 6108SOL     OW19222   1.043   2.014   2.974
 6108SOL    HW119223   0.959   2.042   2.927
 6108SOL    HW219224   1.077   2.090   3.030
 6109SOL     OW19225   4.968   1.033   4.471
 6109SOL    HW119226   5.055   1.066   4.435
 6109SOL    HW219227   4.983   0.987   4.559
 6110SOL     OW19228   1.500   2.503   6.816
 6110SOL    HW119229   1.519   2.560   6.737
 6110SOL    HW219230   1.541   2.412   6.803
 6111SOL     OW19231   1.385   3.323   1.620
 6111SOL    HW119232   1.444   3.245   1.643
 6111SOL    HW219233   1.309   3.292   1.564
 6112SOL     OW19234   4.388   0.096   2.219
 6112SOL    HW119235   4.342   0.092   2.307
 6112SOL    HW219236   4.379   0.008   2.172
 6113SOL     OW19237   2.743   4.061   6.421
 6113SOL    HW119238   2.770   3.977   6.468
 6113SOL    HW219239   2.808   4.080   6.348
 6114SOL     OW19240   5.164   2.742   2.299
 6114SOL    HW119241   5.200   2.810   2.363
 6114SOL    HW219242   5.074   2.712   2.329
 6115SOL     OW19243   0.053   1.569   5.167
 6115SOL    HW119244   6.987   1.572   5.207
 6115SOL    HW219245   0.064   1.644   5.101
 6116SOL     OW19246   4.114   2.525   5.555
 6116SOL    HW119247   4.070   2.443   5.592
 6116SOL    HW219248   4.052   2.572   5.493
 6117SOL     OW19249   0.971   1.558   3.453
 6117SOL    HW119250   0.965   1.494   3.377
 6117SOL    HW219251   1.066   1.589   3.463
 6118SOL     OW19252   5.821   1.210   1.723
 6118SOL    HW119253   5.806   1.125   1.673
 6118SOL    HW219254   5.745   1.225   1.786
 6119SOL     OW19255   0.684   2.835   0.360
 6119SOL    HW119256   0.673   2.886   0.445
 6119SOL    HW219257   0.781   2.831   0.336
 6120SOL     OW19258   1.577   6.585   5.711
 6120SOL    HW119259   1.569   6.609   5.808
 6120SOL    HW219260   1.593   6.486   5.703
 6121SOL     OW19261   0.692   4.304   5.707
 6121SOL    HW119262   0.737   4.225   5.664
 6121SOL    HW219263   0.593   4.299   5.691
 6122SOL     OW19264   4.954   5.531   6.352
 6122SOL    HW119265   4.979   5.516   6.256
 6122SOL    HW219266   4.877   5.595   6.357
 6123SOL     OW19267   5.236   0.792   5.363
 6123SOL    HW119268   5.176   0.742   5.425
 6123SOL    HW219269   5.299   0.849   5.415
 6124SOL     OW19270   0.952   6.680   5.620
 6124SOL    HW119271   0.899   6.751   5.574
 6124SOL    HW219272   1.022   6.645   5.558
 6125SOL     OW19273   2.440   3.632   7.008
 6125SOL    HW119274   2.414   3.720   6.967
 6125SOL    HW219275   2.367   3.566   6.994
 6126SOL     OW19276   0.856   2.066   5.490
 6126SOL    HW119277   0.821   2.023   5.407
 6126SOL    HW219278   0.951   2.038   5.505
 6127SOL     OW19279   4.409   1.062   1.423
 6127SOL    HW119280   4.425   1.049   1.521
 6127SOL    HW219281   4.488   1.105   1.381
 6128SOL     OW19282   5.723   5.392   0.492
 6128SOL    HW119283   5.661   5.469   0.478
 6128SOL    HW219284   5.816   5.419   0.469
 6129SOL     OW19285   1.413   4.190   3.271
 6129SOL    HW119286   1.502   4.232   3.287
 6129SOL    HW219287   1.345   4.262   3.256
 6130SOL     OW19288   6.438   2.465   2.977
 6130SOL    HW119289   6.459   2.407   3.056
 6130SOL    HW219290   6.470   2.558   2.995
 6131SOL     OW19291   0.953   2.102   2.013
 6131SOL    HW119292   0.912   2.092   2.104
 6131SOL    HW219293   0.914   2.182   1.968
 6132SOL     OW19294   3.708   1.924   6.448
 6132SOL    HW119295   3.730   1.891   6.540
 6132SOL    HW219296   3.792   1.935   6.396
 6133SOL     OW19297   1.142   2.239   3.411
 6133SOL    HW119298   1.176   2.259   3.503
 6133SOL    HW219299   1.214   2.255   3.344
 6134SOL     OW19300   4.453   0.048   6.408
 6134SOL    HW119301   4.458   0.070   6.505
 6134SOL    HW219302   4.361   0.015   6.386
 6135SOL     OW19303   5.487   6.540   0.375
 6135SOL    HW119304   5.543   6.614   0.337
 6135SOL    HW219305   5.393   6.571   0.384
 6136SOL     OW19306   1.719   2.152   1.255
 6136SOL    HW119307   1.817   2.136   1.270
 6136SOL    HW219308   1.704   2.248   1.232
 6137SOL     OW19309   0.634   3.902   2.446
 6137SOL    HW119310   0.708   3.900   2.380
 6137SOL    HW219311   0.668   3.876   2.536
 6138SOL     OW19312   3.748   0.231   2.021
 6138SOL    HW119313   3.720   0.136   2.036
 6138SOL    HW219314   3.761   0.248   1.924
 6139SOL     OW19315   0.596   6.989   5.326
 6139SOL    HW119316   0.504   6.951   5.315
 6139SOL    HW219317   0.602   0.052   5.279
 6140SOL     OW19318   0.627   0.773   3.259
 6140SOL    HW119319   0.611   0.865   3.224
 6140SOL    HW219320   0.607   0.770   3.357
 6141SOL     OW19321   1.063   0.671   5.963
 6141SOL    HW119322   1.019   0.760   5.973
 6141SOL    HW219323   1.026   0.625   5.882
 6142SOL     OW19324   0.960   0.515   5.753
 6142SOL    HW119325   1.042   0.531   5.698
 6142SOL    HW219326   0.880   0.547   5.702
 6143SOL     OW19327   6.914   4.420   1.018
 6143SOL    HW119328   6.950   4.352   0.953
 6143SOL    HW219329   6.989   4.455   1.074
 6144SOL     OW19330   5.176   4.171   3.232
 6144SOL    HW119331   5.263   4.214   3.256
 6144SOL    HW219332   5.176   4.147   3.135
 6145SOL     OW19333   5.735   4.551   3.998
 6145SOL    HW119334   5.799   4.475   3.989
 6145SOL    HW219335   5.781   4.636   3.973
 6146SOL     OW19336   3.645   6.431   3.986
 6146SOL    HW119337   3.606   6.352   3.939
 6146SOL    HW219338   3.642   6.510   3.925
 6147SOL     OW19339   1.819   2.888   4.700
 6147SOL    HW119340   1.781   2.798   4.717
 6147SOL    HW219341   1.896   2.905   4.763
 6148SOL     OW19342   3.876   5.236   6.673
 6148SOL    HW119343   3.819   5.213   6.594
 6148SOL    HW219344   3.938   5.311   6.649
 6149SOL     OW19345   1.839   6.865   1.659
 6149SOL    HW119346   1.939   6.858   1.668
 6149SOL    HW219347   1.816   6.892   1.566
 6150SOL     OW19348   5.890   4.117   6.783
 6150SOL    HW119349   5.836   4.051   6.835
 6150SOL    HW219350   5.830   4.185   6.742
 6151SOL     OW19351   5.229   4.931   4.085
 6151SOL    HW119352   5.291   4.900   4.013
 6151SOL    HW219353   5.139   4.889   4.072
 6152SOL     OW19354   0.773   5.658   4.470
 6152SOL    HW119355   0.685   5.660   4.422
 6152SOL    HW219356   0.822   5.574   4.446
 6153SOL     OW19357   4.707   5.253   0.971
 6153SOL    HW119358   4.776   5.185   0.947
 6153SOL    HW219359   4.617   5.209   0.974
 6154SOL     OW19360   5.571   3.289   2.965
 6154SOL    HW119361   5.537   3.324   2.878
 6154SOL    HW219362   5.559   3.190   2.968
 6155SOL     OW19363   2.967   0.799   2.909
 6155SOL    HW119364   3.005   0.781   2.818
 6155SOL    HW219365   2.924   0.890   2.910
 6156SOL     OW19366   5.136   3.912   1.692
 6156SOL    HW119367   5.039   3.886   1.683
 6156SOL    HW219368   5.144   3.990   1.754
 6157SOL     OW19369   0.624   2.166   3.080
 6157SOL    HW119370   0.652   2.083   3.030
 6157SOL    HW219371   0.539   2.148   3.130
 6158SOL     OW19372   2.964   2.185   0.006
 6158SOL    HW119373   3.034   2.187   6.960
 6158SOL    HW219374   2.875   2.205   6.991
 6159SOL     OW19375   5.476   3.372   0.523
 6159SOL    HW119376   5.576   3.371   0.528
 6159SOL    HW219377   5.442   3.455   0.566
 6160SOL     OW19378   6.852   6.801   0.071
 6160SOL    HW119379   6.932   6.845   0.030
 6160SOL    HW219380   6.859   6.702   0.061
 6161SOL     OW19381   4.989   1.584   7.019
 6161SOL    HW119382   5.032   1.555   0.080
 6161SOL    HW219383   5.043   1.658   6.978
 6162SOL     OW19384   6.050   6.687   3.820
 6162SOL    HW119385   6.096   6.622   3.760
 6162SOL    HW219386   6.115   6.758   3.849
 6163SOL     OW19387   5.543   5.843   2.464
 6163SOL    HW119388   5.589   5.850   2.552
 6163SOL    HW219389   5.595   5.893   2.395
 6164SOL     OW19390   3.498   3.735   4.592
 6164SOL    HW119391   3.504   3.822   4.641
 6164SOL    HW219392   3.585   3.686   4.600
 6165SOL     OW19393   3.920   2.053   5.949
 6165SOL    HW119394   3.939   2.143   5.988
 6165SOL    HW219395   3.824   2.030   5.964
 6166SOL     OW19396   6.394   1.776   0.292
 6166SOL    HW119397   6.349   1.775   0.202
 6166SOL    HW219398   6.325   1.767   0.364
 6167SOL     OW19399   0.887   4.432   3.061
 6167SOL    HW119400   0.815   4.371   3.093
 6167SOL    HW219401   0.850   4.493   2.991
 6168SOL     OW19402   0.408   2.474   3.312
 6168SOL    HW119403   0.421   2.475   3.213
 6168SOL    HW219404   0.486   2.430   3.356
 6169SOL     OW19405   0.725   1.248   6.305
 6169SOL    HW119406   0.720   1.266   6.207
 6169SOL    HW219407   0.816   1.212   6.328
 6170SOL     OW19408   3.446   4.294   6.444
 6170SOL    HW119409   3.449   4.223   6.373
 6170SOL    HW219410   3.521   4.358   6.431
 6171SOL     OW19411   1.273   3.725   1.884
 6171SOL    HW119412   1.257   3.632   1.917
 6171SOL    HW219413   1.301   3.722   1.788
 6172SOL     OW19414   0.183   0.358   2.465
 6172SOL    HW119415   0.278   0.346   2.494
 6172SOL    HW219416   0.181   0.389   2.370
 6173SOL     OW19417   0.050   5.180   2.552
 6173SOL    HW119418   0.067   5.139   2.463
 6173SOL    HW219419   0.055   5.109   2.623
 6174SOL     OW19420   5.726   4.750   3.030
 6174SOL    HW119421   5.718   4.847   3.052
 6174SOL    HW219422   5.797   4.738   2.960
 6175SOL     OW19423   5.320   0.325   3.127
 6175SOL    HW119424   5.311   0.391   3.202
 6175SOL    HW219425   5.407   0.339   3.080
 6176SOL     OW19426   6.425   3.151   6.840
 6176SOL    HW119427   6.430   3.137   6.741
 6176SOL    HW219428   6.430   3.062   6.886
 6177SOL     OW19429   5.426   1.767   1.315
 6177SOL    HW119430   5.506   1.708   1.332
 6177SOL    HW219431   5.450   1.861   1.339
 6178SOL     OW19432   5.211   5.421   1.642
 6178SOL    HW119433   5.159   5.336   1.657
 6178SOL    HW219434   5.165   5.497   1.688
 6179SOL     OW19435   0.066   3.732   4.812
 6179SOL    HW119436   0.064   3.799   4.738
 6179SOL    HW219437   0.155   3.734   4.857
 6180SOL     OW19438   3.111   6.667   6.186
 6180SOL    HW119439   3.151   6.657   6.094
 6180SOL    HW219440   3.055   6.587   6.206
 6181SOL     OW19441   4.856   6.589   0.662
 6181SOL    HW119442   4.943   6.590   0.711
 6181SOL    HW219443   4.862   6.526   0.584
 6182SOL     OW19444   5.335   5.031   5.770
 6182SOL    HW119445   5.429   5.036   5.736
 6182SOL    HW219446   5.272   5.028   5.692
 6183SOL     OW19447   2.184   0.270   2.700
 6183SOL    HW119448   2.249   0.338   2.663
 6183SOL    HW219449   2.230   0.215   2.769
 6184SOL     OW19450   2.123   6.573   5.619
 6184SOL    HW119451   2.094   6.614   5.706
 6184SOL    HW219452   2.135   6.475   5.631
 6185SOL     OW19453   1.738   4.008   0.102
 6185SOL    HW119454   1.667   3.963   0.157
 6185SOL    HW219455   1.790   3.938   0.052
 6186SOL     OW19456   5.621   0.383   3.904
 6186SOL    HW119457   5.661   0.463   3.860
 6186SOL    HW219458   5.526   0.401   3.929
 6187SOL     OW19459   4.842   4.403   4.031
 6187SOL    HW119460   4.837   4.498   4.002
 6187SOL    HW219461   4.807   4.344   3.957
 6188SOL     OW19462   2.453   6.089   1.063
 6188SOL    HW119463   2.552   6.106   1.060
 6188SOL    HW219464   2.436   5.991   1.057
 6189SOL     OW19465   4.499   4.654   3.894
 6189SOL    HW119466   4.416   4.658   3.839
 6189SOL    HW219467   4.510   4.563   3.932
 6190SOL     OW19468   5.933   3.687   5.924
 6190SOL    HW119469   6.019   3.638   5.916
 6190SOL    HW219470   5.911   3.732   5.837
 6191SOL     OW19471   4.901   2.757   0.594
 6191SOL    HW119472   4.819   2.709   0.624
 6191SOL    HW219473   4.955   2.698   0.534
 6192SOL     OW19474   4.061   3.637   0.513
 6192SOL    HW119475   4.053   3.673   0.606
 6192SOL    HW219476   4.102   3.546   0.516
 6193SOL     OW19477   3.880   0.703   2.531
 6193SOL    HW119478   3.832   0.713   2.619
 6193SOL    HW219479   3.869   0.787   2.478
 6194SOL     OW19480   1.776   6.754   6.965
 6194SOL    HW119481   1.754   6.685   0.009
 6194SOL    HW219482   1.724   6.837   6.983
 6195SOL     OW19483   3.589   5.651   5.380
 6195SOL    HW119484   3.583   5.662   5.479
 6195SOL    HW219485   3.685   5.637   5.354
 6196SOL     OW19486   6.087   2.217   0.713
 6196SOL    HW119487   6.176   2.224   0.758
 6196SOL    HW219488   6.058   2.309   0.685
 6197SOL     OW19489   4.806   3.504   0.467
 6197SOL    HW119490   4.813   3.428   0.402
 6197SOL    HW219491   4.769   3.470   0.554
 6198SOL     OW19492   3.432   5.381   2.556
 6198SOL    HW119493   3.487   5.417   2.631
 6198SOL    HW219494   3.339   5.364   2.588
 6199SOL     OW19495   0.174   0.169   1.486
 6199SOL    HW119496   0.215   0.161   1.577
 6199SOL    HW219497   0.218   0.104   1.424
 6200SOL     OW19498   2.441   1.256   5.897
 6200SOL    HW119499   2.380   1.240   5.819
 6200SOL    HW219500   2.457   1.354   5.907
 6201SOL     OW19501   2.241   3.865   5.877
 6201SOL    HW119502   2.304   3.790   5.854
 6201SOL    HW219503   2.246   3.936   5.808
 6202SOL     OW19504   3.841   1.684   1.526
 6202SOL    HW119505   3.889   1.612   1.476
 6202SOL    HW219506   3.745   1.657   1.539
 6203SOL     OW19507   4.962   0.361   3.937
 6203SOL    HW119508   5.016   0.278   3.918
 6203SOL    HW219509   5.024   0.438   3.951
 6204SOL     OW19510   0.938   4.886   5.201
 6204SOL    HW119511   0.931   4.926   5.109
 6204SOL    HW219512   0.911   4.953   5.269
 6205SOL     OW19513   5.794   6.880   6.726
 6205SOL    HW119514   5.735   6.933   6.665
 6205SOL    HW219515   5.738   6.838   6.798
 6206SOL     OW19516   6.524   0.374   2.811
 6206SOL    HW119517   6.513   0.403   2.716
 6206SOL    HW219518   6.583   0.292   2.814
 6207SOL     OW19519   1.640   3.970   4.985
 6207SOL    HW119520   1.642   3.873   5.013
 6207SOL    HW219521   1.590   4.023   5.054
 6208SOL     OW19522   6.207   0.015   6.449
 6208SOL    HW119523   6.184   0.107   6.418
 6208SOL    HW219524   6.255   0.020   6.536
 6209SOL     OW19525   4.591   5.662   6.893
 6209SOL    HW119526   4.605   5.590   6.960
 6209SOL    HW219527   4.659   5.654   6.820
 6210SOL     OW19528   5.495   4.570   3.523
 6210SOL    HW119529   5.441   4.631   3.465
 6210SOL    HW219530   5.445   4.485   3.538
 6211SOL     OW19531   3.199   6.480   4.912
 6211SOL    HW119532   3.122   6.489   4.848
 6211SOL    HW219533   3.164   6.480   5.006
 6212SOL     OW19534   1.016   5.381   3.075
 6212SOL    HW119535   0.979   5.393   2.982
 6212SOL    HW219536   0.941   5.377   3.140
 6213SOL     OW19537   5.145   0.122   6.293
 6213SOL    HW119538   5.198   0.203   6.315
 6213SOL    HW219539   5.076   0.145   6.224
 6214SOL     OW19540   6.165   5.242   3.493
 6214SOL    HW119541   6.199   5.160   3.445
 6214SOL    HW219542   6.240   5.306   3.506
 6215SOL     OW19543   3.412   1.536   6.795
 6215SOL    HW119544   3.415   1.447   6.840
 6215SOL    HW219545   3.447   1.528   6.702
 6216SOL     OW19546   6.392   2.524   2.308
 6216SOL    HW119547   6.473   2.471   2.283
 6216SOL    HW219548   6.417   2.621   2.315
 6217SOL     OW19549   5.955   2.940   2.044
 6217SOL    HW119550   6.011   2.885   1.982
 6217SOL    HW219551   5.961   2.902   2.137
 6218SOL     OW19552   3.318   5.160   4.428
 6218SOL    HW119553   3.337   5.209   4.514
 6218SOL    HW219554   3.253   5.213   4.374
 6219SOL     OW19555   0.465   1.348   4.539
 6219SOL    HW119556   0.512   1.421   4.588
 6219SOL    HW219557   0.372   1.378   4.516
 6220SOL     OW19558   1.504   4.197   5.738
 6220SOL    HW119559   1.596   4.195   5.777
 6220SOL    HW219560   1.499   4.134   5.661
 6221SOL     OW19561   6.142   5.187   5.904
 6221SOL    HW119562   6.124   5.187   5.805
 6221SOL    HW219563   6.071   5.133   5.950
 6222SOL     OW19564   0.587   6.604   1.372
 6222SOL    HW119565   0.648   6.567   1.303
 6222SOL    HW219566   0.640   6.639   1.449
 6223SOL     OW19567   0.133   3.580   4.419
 6223SOL    HW119568   0.073   3.557   4.342
 6223SOL    HW219569   0.226   3.550   4.399
 6224SOL     OW19570   1.709   2.142   6.062
 6224SOL    HW119571   1.676   2.156   6.155
 6224SOL    HW219572   1.669   2.211   6.001
 6225SOL     OW19573   2.757   3.118   1.328
 6225SOL    HW119574   2.827   3.142   1.396
 6225SOL    HW219575   2.802   3.091   1.242
 6226SOL     OW19576   5.179   1.849   4.214
 6226SOL    HW119577   5.273   1.816   4.208
 6226SOL    HW219578   5.139   1.852   4.123
 6227SOL     OW19579   3.729   5.104   6.417
 6227SOL    HW119580   3.761   5.010   6.412
 6227SOL    HW219581   3.774   5.159   6.346
 6228SOL     OW19582   0.111   2.611   2.154
 6228SOL    HW119583   0.069   2.692   2.196
 6228SOL    HW219584   0.158   2.558   2.224
 6229SOL     OW19585   1.064   2.781   2.410
 6229SOL    HW119586   1.003   2.755   2.485
 6229SOL    HW219587   1.088   2.700   2.356
 6230SOL     OW19588   1.213   1.184   4.432
 6230SOL    HW119589   1.193   1.143   4.521
 6230SOL    HW219590   1.310   1.168   4.409
 6231SOL     OW19591   6.721   4.625   1.696
 6231SOL    HW119592   6.649   4.565   1.661
 6231SOL    HW219593   6.808   4.600   1.654
 6232SOL     OW19594   6.092   1.709   0.837
 6232SOL    HW119595   6.043   1.676   0.757
 6232SOL    HW219596   6.092   1.638   0.908
 6233SOL     OW19597   5.124   1.214   0.188
 6233SOL    HW119598   5.103   1.312   0.192
 6233SOL    HW219599   5.187   1.190   0.261
 6234SOL     OW19600   0.006   1.213   5.530
 6234SOL    HW119601   6.950   1.258   5.569
 6234SOL    HW219602   0.009   1.230   5.432
 6235SOL     OW19603   1.408   0.185   2.217
 6235SOL    HW119604   1.460   0.109   2.180
 6235SOL    HW219605   1.437   0.204   2.310
 6236SOL     OW19606   0.872   5.246   0.087
 6236SOL    HW119607   0.840   5.328   0.135
 6236SOL    HW219608   0.799   5.179   0.083
 6237SOL     OW19609   3.598   6.483   0.691
 6237SOL    HW119610   3.624   6.406   0.633
 6237SOL    HW219611   3.669   6.554   0.686
 6238SOL     OW19612   4.458   4.687   3.266
 6238SOL    HW119613   4.474   4.784   3.249
 6238SOL    HW219614   4.499   4.661   3.353
 6239SOL     OW19615   2.854   6.558   1.545
 6239SOL    HW119616   2.781   6.624   1.528
 6239SOL    HW219617   2.867   6.546   1.643
 6240SOL     OW19618   3.052   2.334   0.219
 6240SOL    HW119619   3.149   2.356   0.225
 6240SOL    HW219620   3.035   2.285   0.133
 6241SOL     OW19621   2.539   0.959   2.708
 6241SOL    HW119622   2.561   0.994   2.799
 6241SOL    HW219623   2.441   0.969   2.691
 6242SOL     OW19624   5.345   0.954   3.564
 6242SOL    HW119625   5.356   1.053   3.573
 6242SOL    HW219626   5.337   0.913   3.655
 6243SOL     OW19627   5.514   6.819   3.095
 6243SOL    HW119628   5.501   6.912   3.129
 6243SOL    HW219629   5.428   6.768   3.103
 6244SOL     OW19630   1.828   2.177   1.768
 6244SOL    HW119631   1.876   2.156   1.683
 6244SOL    HW219632   1.786   2.268   1.761
 6245SOL     OW19633   2.708   4.503   1.306
 6245SOL    HW119634   2.766   4.435   1.351
 6245SOL    HW219635   2.686   4.576   1.370
 6246SOL     OW19636   2.630   3.061   6.307
 6246SOL    HW119637   2.629   3.158   6.331
 6246SOL    HW219638   2.592   3.008   6.383
 6247SOL     OW19639   0.641   6.354   3.186
 6247SOL    HW119640   0.558   6.319   3.229
 6247SOL    HW219641   0.718   6.343   3.249
 6248SOL     OW19642   2.049   3.879   1.193
 6248SOL    HW119643   2.032   3.975   1.217
 6248SOL    HW219644   2.083   3.830   1.273
 6249SOL     OW19645   0.684   4.654   0.248
 6249SOL    HW119646   0.764   4.654   0.187
 6249SOL    HW219647   0.601   4.666   0.193
 6250SOL     OW19648   6.105   5.906   0.492
 6250SOL    HW119649   6.079   5.811   0.509
 6250SOL    HW219650   6.204   5.913   0.484
 6251SOL     OW19651   3.667   6.863   0.218
 6251SOL    HW119652   3.633   6.874   0.125
 6251SOL    HW219653   3.728   6.784   0.222
 6252SOL     OW19654   1.798   6.664   4.474
 6252SOL    HW119655   1.848   6.635   4.556
 6252SOL    HW219656   1.704   6.689   4.500
 6253SOL     OW19657   1.983   3.823   2.549
 6253SOL    HW119658   2.035   3.826   2.464
 6253SOL    HW219659   2.023   3.755   2.610
 6254SOL     OW19660   5.564   0.949   0.533
 6254SOL    HW119661   5.592   0.894   0.455
 6254SOL    HW219662   5.469   0.929   0.556
 6255SOL     OW19663   1.894   0.861   1.159
 6255SOL    HW119664   1.857   0.802   1.230
 6255SOL    HW219665   1.842   0.946   1.155
 6256SOL     OW19666   3.776   4.903   3.149
 6256SOL    HW119667   3.870   4.935   3.147
 6256SOL    HW219668   3.760   4.841   3.072
 6257SOL     OW19669   5.685   2.285   1.093
 6257SOL    HW119670   5.744   2.239   1.027
 6257SOL    HW219671   5.710   2.257   1.186
 6258SOL     OW19672   4.549   6.972   3.634
 6258SOL    HW119673   4.453   6.947   3.638
 6258SOL    HW219674   4.558   0.040   3.597
 6259SOL     OW19675   2.840   1.831   1.107
 6259SOL    HW119676   2.932   1.843   1.143
 6259SOL    HW219677   2.836   1.864   1.013
 6260SOL     OW19678   2.568   4.263   0.171
 6260SOL    HW119679   2.473   4.231   0.167
 6260SOL    HW219680   2.616   4.235   0.088
 6261SOL     OW19681   2.996   0.200   6.550
 6261SOL    HW119682   3.016   0.131   6.619
 6261SOL    HW219683   3.080   0.249   6.527
 6262SOL     OW19684   1.732   4.087   1.051
 6262SOL    HW119685   1.670   4.143   1.105
 6262SOL    HW219686   1.792   4.146   0.997
 6263SOL     OW19687   0.533   0.555   5.602
 6263SOL    HW119688   0.476   0.563   5.684
 6263SOL    HW219689   0.480   0.581   5.522
 6264SOL     OW19690   1.410   6.742   0.719
 6264SOL    HW119691   1.449   6.781   0.635
 6264SOL    HW219692   1.483   6.703   0.775
 6265SOL     OW19693   3.430   3.827   1.166
 6265SOL    HW119694   3.505   3.798   1.107
 6265SOL    HW219695   3.407   3.753   1.230
 6266SOL     OW19696   4.439   0.737   4.760
 6266SOL    HW119697   4.475   0.782   4.841
 6266SOL    HW219698   4.442   0.638   4.773
 6267SOL     OW19699   3.493   0.398   0.006
 6267SOL    HW119700   3.450   0.370   0.092
 6267SOL    HW219701   3.456   0.345   6.955
 6268SOL     OW19702   3.137   6.456   2.773
 6268SOL    HW119703   3.133   6.555   2.762
 6268SOL    HW219704   3.068   6.428   2.841
 6269SOL     OW19705   6.687   5.871   2.542
 6269SOL    HW119706   6.678   5.776   2.571
 6269SOL    HW219707   6.613   5.925   2.583
 6270SOL     OW19708   1.818   0.399   4.872
 6270SOL    HW119709   1.840   0.417   4.967
 6270SOL    HW219710   1.773   0.479   4.831
 6271SOL     OW19711   6.157   2.333   5.345
 6271SOL    HW119712   6.133   2.237   5.347
 6271SOL    HW219713   6.252   2.343   5.313
 6272SOL     OW19714   0.930   2.723   5.698
 6272SOL    HW119715   0.972   2.685   5.780
 6272SOL    HW219716   0.989   2.705   5.619
 6273SOL     OW19717   1.543   0.737   2.713
 6273SOL    HW119718   1.513   0.783   2.629
 6273SOL    HW219719   1.625   0.683   2.694
 6274SOL     OW19720   2.494   5.523   5.944
 6274SOL    HW119721   2.513   5.612   5.902
 6274SOL    HW219722   2.427   5.474   5.889
 6275SOL     OW19723   2.179   6.345   5.113
 6275SOL    HW119724   2.236   6.268   5.086
 6275SOL    HW219725   2.116   6.368   5.039
 6276SOL     OW19726   1.251   5.285   3.849
 6276SOL    HW119727   1.207   5.307   3.937
 6276SOL    HW219728   1.317   5.211   3.862
 6277SOL     OW19729   5.380   3.155   2.221
 6277SOL    HW119730   5.313   3.133   2.151
 6277SOL    HW219731   5.462   3.099   2.208
 6278SOL     OW19732   4.722   0.291   4.900
 6278SOL    HW119733   4.673   0.360   4.847
 6278SOL    HW219734   4.739   0.325   4.992
 6279SOL     OW19735   3.858   1.011   6.477
 6279SOL    HW119736   3.956   0.989   6.480
 6279SOL    HW219737   3.828   1.021   6.382
 6280SOL     OW19738   0.096   2.476   6.125
 6280SOL    HW119739   0.124   2.440   6.036
 6280SOL    HW219740   0.105   2.404   6.194
 6281SOL     OW19741   2.006   6.020   5.090
 6281SOL    HW119742   2.072   6.019   5.166
 6281SOL    HW219743   1.935   5.953   5.107
 6282SOL     OW19744   1.457   0.346   4.893
 6282SOL    HW119745   1.363   0.339   4.860
 6282SOL    HW219746   1.486   0.441   4.888
 6283SOL     OW19747   6.176   3.189   4.900
 6283SOL    HW119748   6.084   3.157   4.879
 6283SOL    HW219749   6.240   3.113   4.894
 6284SOL     OW19750   2.086   5.621   4.756
 6284SOL    HW119751   2.088   5.693   4.825
 6284SOL    HW219752   2.004   5.565   4.768
 6285SOL     OW19753   1.647   2.869   3.835
 6285SOL    HW119754   1.661   2.771   3.853
 6285SOL    HW219755   1.613   2.913   3.918
 6286SOL     OW19756   6.096   2.049   4.068
 6286SOL    HW119757   6.132   2.107   4.142
 6286SOL    HW219758   6.172   2.003   4.022
 6287SOL     OW19759   4.128   4.702   2.886
 6287SOL    HW119760   4.098   4.786   2.840
 6287SOL    HW219761   4.172   4.642   2.819
 6288SOL     OW19762   5.893   4.397   2.183
 6288SOL    HW119763   5.914   4.306   2.147
 6288SOL    HW219764   5.862   4.456   2.108
 6289SOL     OW19765   1.310   3.981   2.522
 6289SOL    HW119766   1.364   4.065   2.510
 6289SOL    HW219767   1.349   3.927   2.597
 6290SOL     OW19768   5.978   4.011   4.252
 6290SOL    HW119769   5.968   3.914   4.274
 6290SOL    HW219770   5.923   4.065   4.315
 6291SOL     OW19771   3.656   3.037   3.278
 6291SOL    HW119772   3.643   2.979   3.198
 6291SOL    HW219773   3.753   3.048   3.296
 6292SOL     OW19774   0.688   2.650   3.296
 6292SOL    HW119775   0.771   2.687   3.338
 6292SOL    HW219776   0.707   2.560   3.257
 6293SOL     OW19777   4.046   6.850   0.004
 6293SOL    HW119778   4.109   6.917   6.990
 6293SOL    HW219779   4.087   6.809   0.086
 6294SOL     OW19780   3.424   4.936   3.960
 6294SOL    HW119781   3.383   4.972   4.044
 6294SOL    HW219782   3.516   4.901   3.980
 6295SOL     OW19783   5.177   5.058   5.550
 6295SOL    HW119784   5.126   5.108   5.480
 6295SOL    HW219785   5.181   4.961   5.525
 6296SOL     OW19786   6.701   6.260   4.594
 6296SOL    HW119787   6.728   6.211   4.677
 6296SOL    HW219788   6.695   6.358   4.614
 6297SOL     OW19789   4.993   6.821   5.180
 6297SOL    HW119790   4.950   6.898   5.134
 6297SOL    HW219791   5.077   6.852   5.226
 6298SOL     OW19792   1.471   2.551   5.763
 6298SOL    HW119793   1.396   2.589   5.818
 6298SOL    HW219794   1.441   2.543   5.668
 6299SOL     OW19795   5.098   2.047   0.428
 6299SOL    HW119796   5.058   2.109   0.496
 6299SOL    HW219797   5.195   2.066   0.418
 6300SOL     OW19798   5.112   1.332   5.011
 6300SOL    HW119799   5.042   1.403   5.020
 6300SOL    HW219800   5.194   1.359   5.060
 6301SOL     OW19801   2.593   0.421   0.973
 6301SOL    HW119802   2.692   0.425   0.982
 6301SOL    HW219803   2.552   0.497   1.023
 6302SOL     OW19804   1.605   1.646   4.444
 6302SOL    HW119805   1.520   1.689   4.473
 6302SOL    HW219806   1.680   1.712   4.449
 6303SOL     OW19807   2.432   0.919   4.470
 6303SOL    HW119808   2.516   0.895   4.520
 6303SOL    HW219809   2.446   1.006   4.423
 6304SOL     OW19810   1.992   1.150   0.974
 6304SOL    HW119811   2.069   1.170   1.035
 6304SOL    HW219812   1.910   1.133   1.028
 6305SOL     OW19813   6.536   6.774   0.523
 6305SOL    HW119814   6.631   6.797   0.500
 6305SOL    HW219815   6.520   6.793   0.620
 6306SOL     OW19816   1.062   4.150   4.514
 6306SOL    HW119817   0.980   4.108   4.477
 6306SOL    HW219818   1.142   4.098   4.487
 6307SOL     OW19819   4.265   4.021   5.603
 6307SOL    HW119820   4.214   4.106   5.588
 6307SOL    HW219821   4.361   4.034   5.579
 6308SOL     OW19822   1.549   1.929   4.935
 6308SOL    HW119823   1.606   1.986   4.995
 6308SOL    HW219824   1.513   1.985   4.861
 6309SOL     OW19825   4.903   3.829   4.467
 6309SOL    HW119826   4.866   3.906   4.416
 6309SOL    HW219827   4.828   3.771   4.500
 6310SOL     OW19828   1.945   5.327   4.195
 6310SOL    HW119829   2.034   5.370   4.180
 6310SOL    HW219830   1.873   5.389   4.163
 6311SOL     OW19831   5.940   0.557   5.432
 6311SOL    HW119832   5.937   0.648   5.473
 6311SOL    HW219833   5.856   0.507   5.457
 6312SOL     OW19834   5.630   5.096   5.676
 6312SOL    HW119835   5.618   5.179   5.623
 6312SOL    HW219836   5.692   5.034   5.628
 6313SOL     OW19837   1.406   6.272   3.088
 6313SOL    HW119838   1.346   6.352   3.091
 6313SOL    HW219839   1.371   6.207   3.021
 6314SOL     OW19840   4.102   6.797   1.594
 6314SOL    HW119841   4.094   6.698   1.593
 6314SOL    HW219842   4.041   6.837   1.525
 6315SOL     OW19843   3.934   2.988   6.699
 6315SOL    HW119844   4.012   2.942   6.656
 6315SOL    HW219845   3.849   2.958   6.654
 6316SOL     OW19846   4.749   2.143   6.306
 6316SOL    HW119847   4.692   2.196   6.368
 6316SOL    HW219848   4.820   2.096   6.358
 6317SOL     OW19849   5.453   5.399   3.650
 6317SOL    HW119850   5.483   5.487   3.687
 6317SOL    HW219851   5.454   5.402   3.550
 6318SOL     OW19852   2.757   1.837   5.070
 6318SOL    HW119853   2.784   1.839   5.166
 6318SOL    HW219854   2.832   1.871   5.013
 6319SOL     OW19855   0.034   2.567   3.150
 6319SOL    HW119856   0.075   2.497   3.093
 6319SOL    HW219857   0.065   2.556   3.245
 6320SOL     OW19858   6.044   4.920   4.226
 6320SOL    HW119859   6.107   4.937   4.302
 6320SOL    HW219860   5.953   4.955   4.250
 6321SOL     OW19861   3.387   5.191   0.871
 6321SOL    HW119862   3.480   5.156   0.882
 6321SOL    HW219863   3.345   5.203   0.961
 6322SOL     OW19864   1.508   2.350   6.431
 6322SOL    HW119865   1.456   2.430   6.461
 6322SOL    HW219866   1.515   2.285   6.507
 6323SOL     OW19867   3.543   2.651   0.975
 6323SOL    HW119868   3.548   2.559   1.014
 6323SOL    HW219869   3.517   2.645   0.879
 6324SOL     OW19870   4.727   0.787   5.952
 6324SOL    HW119871   4.740   0.838   5.867
 6324SOL    HW219872   4.806   0.729   5.969
 6325SOL     OW19873   1.341   1.895   2.116
 6325SOL    HW119874   1.297   1.903   2.205
 6325SOL    HW219875   1.402   1.816   2.115
 6326SOL     OW19876   5.168   6.167   1.534
 6326SOL    HW119877   5.087   6.143   1.481
 6326SOL    HW219878   5.239   6.202   1.473
 6327SOL     OW19879   6.892   0.307   5.302
 6327SOL    HW119880   6.831   0.384   5.320
 6327SOL    HW219881   6.842   0.237   5.250
 6328SOL     OW19882   1.735   3.614   0.426
 6328SOL    HW119883   1.799   3.658   0.362
 6328SOL    HW219884   1.786   3.568   0.498
 6329SOL     OW19885   1.980   2.925   3.223
 6329SOL    HW119886   2.054   2.954   3.162
 6329SOL    HW219887   2.006   2.839   3.268
 6330SOL     OW19888   4.851   0.675   1.592
 6330SOL    HW119889   4.788   0.647   1.664
 6330SOL    HW219890   4.892   0.763   1.617
 6331SOL     OW19891   5.736   2.163   0.391
 6331SOL    HW119892   5.669   2.205   0.329
 6331SOL    HW219893   5.742   2.217   0.474
 6332SOL     OW19894   0.045   4.419   2.357
 6332SOL    HW119895   0.125   4.390   2.409
 6332SOL    HW219896   0.070   4.428   2.260
 6333SOL     OW19897   3.611   5.025   4.232
 6333SOL    HW119898   3.668   4.958   4.186
 6333SOL    HW219899   3.525   4.982   4.259
 6334SOL     OW19900   2.351   0.501   2.574
 6334SOL    HW119901   2.429   0.552   2.538
 6334SOL    HW219902   2.279   0.497   2.504
 6335SOL     OW19903   4.850   1.648   0.608
 6335SOL    HW119904   4.834   1.721   0.541
 6335SOL    HW219905   4.856   1.560   0.561
 6336SOL     OW19906   6.878   1.718   5.872
 6336SOL    HW119907   6.968   1.761   5.884
 6336SOL    HW219908   6.876   1.668   5.786
 6337SOL     OW19909   4.749   3.725   6.415
 6337SOL    HW119910   4.733   3.812   6.368
 6337SOL    HW219911   4.687   3.716   6.492
 6338SOL     OW19912   2.744   2.268   2.852
 6338SOL    HW119913   2.769   2.297   2.760
 6338SOL    HW219914   2.645   2.256   2.858
 6339SOL     OW19915   0.360   2.874   4.022
 6339SOL    HW119916   0.330   2.802   3.959
 6339SOL    HW219917   0.441   2.919   3.984
 6340SOL     OW19918   2.259   5.228   3.220
 6340SOL    HW119919   2.182   5.174   3.254
 6340SOL    HW219920   2.275   5.305   3.281
 6341SOL     OW19921   0.831   4.833   3.104
 6341SOL    HW119922   0.755   4.793   3.154
 6341SOL    HW219923   0.834   4.932   3.121
 6342SOL     OW19924   2.658   1.276   1.625
 6342SOL    HW119925   2.604   1.245   1.548
 6342SOL    HW219926   2.603   1.336   1.683
 6343SOL     OW19927   5.095   2.706   6.721
 6343SOL    HW119928   5.131   2.618   6.751
 6343SOL    HW219929   5.033   2.742   6.790
 6344SOL     OW19930   6.196   3.621   5.756
 6344SOL    HW119931   6.234   3.566   5.681
 6344SOL    HW219932   6.271   3.653   5.815
 6345SOL     OW19933   4.386   1.276   2.103
 6345SOL    HW119934   4.378   1.207   2.031
 6345SOL    HW219935   4.422   1.233   2.186
 6346SOL     OW19936   0.010   3.569   3.488
 6346SOL    HW119937   0.092   3.524   3.523
 6346SOL    HW219938   0.028   3.667   3.478
 6347SOL     OW19939   2.626   0.575   1.275
 6347SOL    HW119940   2.606   0.509   1.348
 6347SOL    HW219941   2.557   0.648   1.276
 6348SOL     OW19942   1.266   3.874   5.304
 6348SOL    HW119943   1.230   3.818   5.229
 6348SOL    HW219944   1.324   3.946   5.266
 6349SOL     OW19945   2.976   0.305   1.292
 6349SOL    HW119946   2.990   0.207   1.280
 6349SOL    HW219947   3.058   0.355   1.262
 6350SOL     OW19948   2.558   4.935   3.846
 6350SOL    HW119949   2.658   4.944   3.857
 6350SOL    HW219950   2.517   4.915   3.935
 6351SOL     OW19951   6.727   3.298   2.501
 6351SOL    HW119952   6.630   3.295   2.477
 6351SOL    HW219953   6.761   3.391   2.492
 6352SOL     OW19954   1.808   5.167   4.566
 6352SOL    HW119955   1.820   5.145   4.663
 6352SOL    HW219956   1.893   5.204   4.529
 6353SOL     OW19957   6.336   0.785   6.010
 6353SOL    HW119958   6.326   0.818   6.104
 6353SOL    HW219959   6.414   0.721   6.005
 6354SOL     OW19960   1.287   0.137   2.569
 6354SOL    HW119961   1.243   0.114   2.482
 6354SOL    HW219962   1.241   0.216   2.609
 6355SOL     OW19963   1.187   4.677   5.564
 6355SOL    HW119964   1.091   4.649   5.575
 6355SOL    HW219965   1.214   4.667   5.468
 6356SOL     OW19966   4.774   5.003   2.138
 6356SOL    HW119967   4.709   4.987   2.212
 6356SOL    HW219968   4.854   4.945   2.150
 6357SOL     OW19969   4.858   2.593   1.567
 6357SOL    HW119970   4.782   2.630   1.620
 6357SOL    HW219971   4.943   2.606   1.617
 6358SOL     OW19972   0.662   2.304   6.054
 6358SOL    HW119973   0.727   2.314   5.979
 6358SOL    HW219974   0.709   2.266   6.134
 6359SOL     OW19975   6.020   7.022   5.965
 6359SOL    HW119976   5.979   7.015   5.874
 6359SOL    HW219977   5.950   0.025   6.031
 6360SOL     OW19978   2.271   4.291   4.111
 6360SOL    HW119979   2.230   4.272   4.022
 6360SOL    HW219980   2.201   4.285   4.182
 6361SOL     OW19981   5.898   0.380   0.214
 6361SOL    HW119982   5.935   0.433   0.138
 6361SOL    HW219983   5.805   0.412   0.233
 6362SOL     OW19984   5.872   5.211   6.346
 6362SOL    HW119985   5.933   5.150   6.398
 6362SOL    HW219986   5.846   5.288   6.404
 6363SOL     OW19987   2.592   4.955   3.102
 6363SOL    HW119988   2.592   5.007   3.188
 6363SOL    HW219989   2.577   4.858   3.122
 6364SOL     OW19990   3.121   0.960   5.598
 6364SOL    HW119991   3.177   0.879   5.580
 6364SOL    HW219992   3.062   0.978   5.520
 6365SOL     OW19993   4.843   6.905   4.179
 6365SOL    HW119994   4.815   6.960   4.101
 6365SOL    HW219995   4.920   6.949   4.225
 6366SOL     OW19996   0.169   6.198   6.581
 6366SOL    HW119997   0.162   6.277   6.520
 6366SOL    HW219998   0.225   6.127   6.536
 6367SOL     OW19999   3.901   0.449   4.051
 6367SOL    HW120000   3.816   0.501   4.066
 6367SOL    HW220001   3.936   0.418   4.139
 6368SOL     OW20002   3.420   0.525   3.402
 6368SOL    HW120003   3.358   0.523   3.481
 6368SOL    HW220004   3.368   0.512   3.318
 6369SOL     OW20005   2.764   5.148   4.703
 6369SOL    HW120006   2.813   5.061   4.690
 6369SOL    HW220007   2.718   5.147   4.791
 6370SOL     OW20008   1.350   3.210   2.652
 6370SOL    HW120009   1.437   3.220   2.701
 6370SOL    HW220010   1.369   3.191   2.555
 6371SOL     OW20011   4.979   3.229   4.006
 6371SOL    HW120012   5.066   3.180   4.013
 6371SOL    HW220013   4.996   3.327   4.016
 6372SOL     OW20014   3.088   6.787   1.726
 6372SOL    HW120015   3.071   6.752   1.634
 6372SOL    HW220016   3.017   6.753   1.789
 6373SOL     OW20017   6.115   4.221   4.091
 6373SOL    HW120018   6.162   4.302   4.124
 6373SOL    HW220019   6.091   4.162   4.168
 6374SOL     OW20020   3.770   3.753   4.350
 6374SOL    HW120021   3.752   3.751   4.448
 6374SOL    HW220022   3.821   3.836   4.326
 6375SOL     OW20023   0.539   1.786   4.036
 6375SOL    HW120024   0.571   1.746   4.122
 6375SOL    HW220025   0.443   1.761   4.022
 6376SOL     OW20026   6.527   2.424   5.514
 6376SOL    HW120027   6.487   2.381   5.433
 6376SOL    HW220028   6.466   2.410   5.592
 6377SOL     OW20029   6.816   1.585   6.102
 6377SOL    HW120030   6.842   1.620   6.012
 6377SOL    HW220031   6.756   1.651   6.148
 6378SOL     OW20032   5.626   4.894   3.641
 6378SOL    HW120033   5.602   4.811   3.691
 6378SOL    HW220034   5.724   4.895   3.625
 6379SOL     OW20035   2.041   4.652   4.364
 6379SOL    HW120036   2.065   4.562   4.399
 6379SOL    HW220037   1.943   4.656   4.345
 6380SOL     OW20038   1.116   1.496   5.574
 6380SOL    HW120039   1.023   1.522   5.602
 6380SOL    HW220040   1.135   1.403   5.604
 6381SOL     OW20041   3.334   3.445   3.108
 6381SOL    HW120042   3.418   3.395   3.088
 6381SOL    HW220043   3.269   3.385   3.154
 6382SOL     OW20044   1.221   2.764   0.510
 6382SOL    HW120045   1.310   2.803   0.529
 6382SOL    HW220046   1.160   2.778   0.588
 6383SOL     OW20047   2.017   2.452   2.872
 6383SOL    HW120048   2.070   2.524   2.918
 6383SOL    HW220049   2.005   2.477   2.776
 6384SOL     OW20050   5.758   4.680   1.379
 6384SOL    HW120051   5.700   4.603   1.407
 6384SOL    HW220052   5.702   4.762   1.366
 6385SOL     OW20053   6.970   5.181   4.155
 6385SOL    HW120054   6.993   5.214   4.064
 6385SOL    HW220055   6.941   5.086   4.151
 6386SOL     OW20056   2.549   4.091   6.757
 6386SOL    HW120057   2.529   4.180   6.716
 6386SOL    HW220058   2.544   4.020   6.686
 6387SOL     OW20059   0.552   1.798   6.726
 6387SOL    HW120060   0.568   1.699   6.736
 6387SOL    HW220061   0.640   1.845   6.720
 6388SOL     OW20062   4.409   4.430   1.730
 6388SOL    HW120063   4.441   4.346   1.775
 6388SOL    HW220064   4.470   4.506   1.754
 6389SOL     OW20065   0.589   5.912   2.193
 6389SOL    HW120066   0.490   5.915   2.209
 6389SOL    HW220067   0.623   6.005   2.180
 6390SOL     OW20068   0.994   2.463   4.249
 6390SOL    HW120069   1.013   2.422   4.338
 6390SOL    HW220070   1.058   2.539   4.233
 6391SOL     OW20071   3.224   0.495   6.132
 6391SOL    HW120072   3.276   0.410   6.128
 6391SOL    HW220073   3.152   0.493   6.062
 6392SOL     OW20074   2.415   6.703   3.246
 6392SOL    HW120075   2.379   6.700   3.153
 6392SOL    HW220076   2.344   6.736   3.309
 6393SOL     OW20077   6.163   6.383   1.447
 6393SOL    HW120078   6.227   6.417   1.378
 6393SOL    HW220079   6.092   6.328   1.402
 6394SOL     OW20080   2.463   3.998   1.292
 6394SOL    HW120081   2.479   4.046   1.378
 6394SOL    HW220082   2.395   4.048   1.238
 6395SOL     OW20083   5.805   2.644   1.695
 6395SOL    HW120084   5.863   2.707   1.642
 6395SOL    HW220085   5.710   2.656   1.667
 6396SOL     OW20086   5.317   2.829   6.574
 6396SOL    HW120087   5.239   2.806   6.632
 6396SOL    HW220088   5.400   2.787   6.612
 6397SOL     OW20089   5.639   1.907   0.101
 6397SOL    HW120090   5.677   1.917   0.193
 6397SOL    HW220091   5.693   1.840   0.049
 6398SOL     OW20092   3.205   0.715   0.556
 6398SOL    HW120093   3.187   0.617   0.552
 6398SOL    HW220094   3.150   0.756   0.628
 6399SOL     OW20095   2.031   4.974   6.162
 6399SOL    HW120096   2.089   4.952   6.083
 6399SOL    HW220097   2.074   4.941   6.246
 6400SOL     OW20098   1.839   5.773   3.371
 6400SOL    HW120099   1.878   5.777   3.279
 6400SOL    HW220100   1.909   5.740   3.435
 6401SOL     OW20101   6.777   4.308   3.525
 6401SOL    HW120102   6.748   4.292   3.619
 6401SOL    HW220103   6.799   4.405   3.514
 6402SOL     OW20104   3.023   0.635   3.154
 6402SOL    HW120105   3.066   0.679   3.233
 6402SOL    HW220106   3.020   0.698   3.077
 6403SOL     OW20107   0.294   6.405   6.833
 6403SOL    HW120108   0.345   6.486   6.863
 6403SOL    HW220109   0.319   6.327   6.892
 6404SOL     OW20110   3.932   1.331   2.817
 6404SOL    HW120111   3.856   1.383   2.779
 6404SOL    HW220112   3.900   1.274   2.893
 6405SOL     OW20113   1.787   1.119   3.636
 6405SOL    HW120114   1.854   1.130   3.709
 6405SOL    HW220115   1.706   1.174   3.657
 6406SOL     OW20116   1.630   2.542   3.923
 6406SOL    HW120117   1.709   2.567   3.980
 6406SOL    HW220118   1.653   2.463   3.867
 6407SOL     OW20119   2.993   6.640   3.014
 6407SOL    HW120120   2.959   6.727   3.050
 6407SOL    HW220121   3.046   6.593   3.085
 6408SOL     OW20122   6.350   2.503   6.959
 6408SOL    HW120123   6.399   2.448   0.003
 6408SOL    HW220124   6.258   2.522   6.991
 6409SOL     OW20125   0.301   4.098   3.478
 6409SOL    HW120126   0.254   4.034   3.417
 6409SOL    HW220127   0.288   4.069   3.573
 6410SOL     OW20128   1.488   1.732   0.690
 6410SOL    HW120129   1.586   1.713   0.690
 6410SOL    HW220130   1.439   1.652   0.725
 6411SOL     OW20131   0.869   2.955   3.031
 6411SOL    HW120132   0.926   2.921   2.957
 6411SOL    HW220133   0.920   2.954   3.117
 6412SOL     OW20134   0.002   3.002   5.601
 6412SOL    HW120135   6.956   3.013   5.671
 6412SOL    HW220136   7.019   3.077   5.535
 6413SOL     OW20137   5.332   4.983   2.920
 6413SOL    HW120138   5.319   4.932   2.836
 6413SOL    HW220139   5.255   5.045   2.934
 6414SOL     OW20140   6.040   0.624   2.047
 6414SOL    HW120141   6.073   0.532   2.024
 6414SOL    HW220142   6.003   0.624   2.140
 6415SOL     OW20143   3.022   2.180   2.851
 6415SOL    HW120144   3.055   2.171   2.757
 6415SOL    HW220145   2.924   2.199   2.850
 6416SOL     OW20146   0.493   0.847   6.120
 6416SOL    HW120147   0.487   0.921   6.187
 6416SOL    HW220148   0.414   0.851   6.059
 6417SOL     OW20149   0.483   4.916   2.759
 6417SOL    HW120150   0.422   4.914   2.680
 6417SOL    HW220151   0.488   5.009   2.796
 6418SOL     OW20152   6.333   4.812   2.420
 6418SOL    HW120153   6.302   4.904   2.395
 6418SOL    HW220154   6.257   4.747   2.409
 6419SOL     OW20155   2.806   5.029   2.590
 6419SOL    HW120156   2.839   5.103   2.649
 6419SOL    HW220157   2.706   5.033   2.586
 6420SOL     OW20158   3.075   3.773   5.551
 6420SOL    HW120159   2.989   3.727   5.570
 6420SOL    HW220160   3.076   3.804   5.455
 6421SOL     OW20161   6.010   1.665   1.623
 6421SOL    HW120162   6.099   1.708   1.615
 6421SOL    HW220163   6.021   1.571   1.655
 6422SOL     OW20164   6.674   0.333   3.832
 6422SOL    HW120165   6.686   0.299   3.738
 6422SOL    HW220166   6.751   0.392   3.856
 6423SOL     OW20167   4.597   4.415   2.221
 6423SOL    HW120168   4.681   4.461   2.192
 6423SOL    HW220169   4.565   4.354   2.148
 6424SOL     OW20170   6.607   5.038   5.649
 6424SOL    HW120171   6.706   5.029   5.660
 6424SOL    HW220172   6.579   5.131   5.675
 6425SOL     OW20173   7.000   5.606   4.043
 6425SOL    HW120174   6.910   5.582   4.006
 6425SOL    HW220175   0.020   5.524   4.078
 6426SOL     OW20176   0.844   4.099   3.582
 6426SOL    HW120177   0.865   4.095   3.679
 6426SOL    HW220178   0.750   4.070   3.566
 6427SOL     OW20179   1.812   3.358   0.055
 6427SOL    HW120180   1.714   3.367   0.039
 6427SOL    HW220181   1.861   3.367   6.993
 6428SOL     OW20182   6.405   3.275   0.666
 6428SOL    HW120183   6.399   3.239   0.759
 6428SOL    HW220184   6.335   3.232   0.609
 6429SOL     OW20185   0.759   1.411   4.842
 6429SOL    HW120186   0.697   1.474   4.794
 6429SOL    HW220187   0.767   1.326   4.790
 6430SOL     OW20188   4.837   1.227   1.973
 6430SOL    HW120189   4.800   1.145   2.016
 6430SOL    HW220190   4.804   1.308   2.021
 6431SOL     OW20191   5.599   0.055   3.305
 6431SOL    HW120192   5.573   0.064   3.401
 6431SOL    HW220193   5.699   0.053   3.298
 6432SOL     OW20194   4.328   4.171   6.919
 6432SOL    HW120195   4.402   4.236   6.936
 6432SOL    HW220196   4.257   4.183   6.987
 6433SOL     OW20197   3.684   4.262   1.096
 6433SOL    HW120198   3.660   4.302   1.007
 6433SOL    HW220199   3.603   4.218   1.136
 6434SOL     OW20200   1.439   3.701   0.548
 6434SOL    HW120201   1.515   3.767   0.550
 6434SOL    HW220202   1.459   3.630   0.480
 6435SOL     OW20203   4.038   5.204   0.130
 6435SOL    HW120204   4.050   5.150   0.047
 6435SOL    HW220205   4.106   5.278   0.132
 6436SOL     OW20206   2.023   3.272   3.933
 6436SOL    HW120207   2.044   3.334   3.857
 6436SOL    HW220208   2.050   3.179   3.908
 6437SOL     OW20209   1.366   0.976   0.814
 6437SOL    HW120210   1.317   0.890   0.827
 6437SOL    HW220211   1.463   0.963   0.836
 6438SOL     OW20212   0.154   4.703   5.791
 6438SOL    HW120213   0.143   4.604   5.799
 6438SOL    HW220214   0.130   4.746   5.878
 6439SOL     OW20215   0.398   6.820   1.575
 6439SOL    HW120216   0.317   6.863   1.614
 6439SOL    HW220217   0.376   6.727   1.545
 6440SOL     OW20218   2.281   1.354   2.283
 6440SOL    HW120219   2.347   1.280   2.276
 6440SOL    HW220220   2.307   1.416   2.357
 6441SOL     OW20221   0.948   0.024   2.481
 6441SOL    HW120222   1.022   0.043   2.416
 6441SOL    HW220223   0.861   0.058   2.444
 6442SOL     OW20224   1.590   1.288   3.710
 6442SOL    HW120225   1.545   1.377   3.706
 6442SOL    HW220226   1.521   1.217   3.729
 6443SOL     OW20227   3.609   2.921   0.447
 6443SOL    HW120228   3.626   2.973   0.531
 6443SOL    HW220229   3.685   2.859   0.430
 6444SOL     OW20230   0.937   2.542   3.889
 6444SOL    HW120231   0.910   2.594   3.970
 6444SOL    HW220232   0.978   2.456   3.917
 6445SOL     OW20233   5.068   2.399   5.948
 6445SOL    HW120234   5.158   2.362   5.926
 6445SOL    HW220235   5.028   2.440   5.866
 6446SOL     OW20236   0.527   2.011   6.146
 6446SOL    HW120237   0.573   2.002   6.058
 6446SOL    HW220238   0.496   1.921   6.177
 6447SOL     OW20239   0.029   6.133   2.428
 6447SOL    HW120240   0.117   6.169   2.459
 6447SOL    HW220241   6.992   6.126   2.506
 6448SOL     OW20242   6.126   4.624   2.341
 6448SOL    HW120243   6.140   4.570   2.258
 6448SOL    HW220244   6.066   4.575   2.404
 6449SOL     OW20245   3.810   4.521   1.352
 6449SOL    HW120246   3.842   4.615   1.365
 6449SOL    HW220247   3.740   4.520   1.280
 6450SOL     OW20248   0.013   3.701   1.494
 6450SOL    HW120249   0.051   3.789   1.463
 6450SOL    HW220250   0.040   3.684   1.589
 6451SOL     OW20251   2.682   5.981   4.961
 6451SOL    HW120252   2.623   5.989   4.881
 6451SOL    HW220253   2.629   5.945   5.038
 6452SOL     OW20254   3.494   6.307   5.346
 6452SOL    HW120255   3.587   6.297   5.312
 6452SOL    HW220256   3.485   6.261   5.434
 6453SOL     OW20257   2.191   5.975   6.770
 6453SOL    HW120258   2.124   5.996   6.699
 6453SOL    HW220259   2.281   6.010   6.743
 6454SOL     OW20260   3.087   0.892   3.597
 6454SOL    HW120261   3.136   0.936   3.672
 6454SOL    HW220262   3.040   0.961   3.542
 6455SOL     OW20263   0.546   2.404   4.465
 6455SOL    HW120264   0.534   2.383   4.368
 6455SOL    HW220265   0.457   2.417   4.507
 6456SOL     OW20266   1.444   0.019   3.824
 6456SOL    HW120267   1.458   0.095   3.760
 6456SOL    HW220268   1.355   7.002   3.808
 6457SOL     OW20269   5.392   1.258   1.132
 6457SOL    HW120270   5.443   1.239   1.216
 6457SOL    HW220271   5.300   1.291   1.156
 6458SOL     OW20272   1.021   6.563   3.135
 6458SOL    HW120273   1.024   6.662   3.150
 6458SOL    HW220274   0.929   6.529   3.157
 6459SOL     OW20275   5.740   5.426   1.017
 6459SOL    HW120276   5.762   5.336   0.978
 6459SOL    HW220277   5.762   5.497   0.950
 6460SOL     OW20278   4.366   5.270   5.809
 6460SOL    HW120279   4.387   5.176   5.784
 6460SOL    HW220280   4.319   5.272   5.898
 6461SOL     OW20281   3.094   4.934   4.860
 6461SOL    HW120282   3.170   4.886   4.903
 6461SOL    HW220283   3.012   4.927   4.918
 6462SOL     OW20284   2.380   2.839   5.351
 6462SOL    HW120285   2.413   2.920   5.302
 6462SOL    HW220286   2.429   2.830   5.438
 6463SOL     OW20287   1.662   4.054   6.641
 6463SOL    HW120288   1.620   4.138   6.607
 6463SOL    HW220289   1.649   3.981   6.574
 6464SOL     OW20290   0.935   4.624   5.157
 6464SOL    HW120291   0.942   4.724   5.160
 6464SOL    HW220292   0.890   4.591   5.240
 6465SOL     OW20293   6.461   2.660   4.117
 6465SOL    HW120294   6.401   2.739   4.104
 6465SOL    HW220295   6.544   2.671   4.062
 6466SOL     OW20296   0.115   1.878   6.293
 6466SOL    HW120297   0.147   1.787   6.268
 6466SOL    HW220298   0.128   1.941   6.216
 6467SOL     OW20299   2.742   1.115   6.846
 6467SOL    HW120300   2.807   1.072   6.908
 6467SOL    HW220301   2.786   1.191   6.799
 6468SOL     OW20302   4.200   5.903   1.407
 6468SOL    HW120303   4.123   5.936   1.461
 6468SOL    HW220304   4.286   5.930   1.450
 6469SOL     OW20305   4.888   0.571   5.295
 6469SOL    HW120306   4.940   0.628   5.358
 6469SOL    HW220307   4.792   0.600   5.295
 6470SOL     OW20308   6.401   5.288   6.175
 6470SOL    HW120309   6.396   5.237   6.261
 6470SOL    HW220310   6.450   5.233   6.107
 6471SOL     OW20311   6.152   5.983   5.861
 6471SOL    HW120312   6.190   5.951   5.947
 6471SOL    HW220313   6.217   6.045   5.817
 6472SOL     OW20314   0.315   4.837   0.636
 6472SOL    HW120315   0.414   4.827   0.630
 6472SOL    HW220316   0.287   4.844   0.732
 6473SOL     OW20317   2.266   1.665   5.394
 6473SOL    HW120318   2.225   1.575   5.379
 6473SOL    HW220319   2.303   1.699   5.307
 6474SOL     OW20320   1.600   3.590   5.934
 6474SOL    HW120321   1.648   3.611   6.019
 6474SOL    HW220322   1.537   3.665   5.912
 6475SOL     OW20323   6.783   5.695   4.772
 6475SOL    HW120324   6.733   5.668   4.690
 6475SOL    HW220325   6.880   5.702   4.751
 6476SOL     OW20326   4.858   3.878   1.683
 6476SOL    HW120327   4.806   3.933   1.748
 6476SOL    HW220328   4.803   3.863   1.601
 6477SOL     OW20329   0.165   5.087   1.083
 6477SOL    HW120330   0.113   5.170   1.062
 6477SOL    HW220331   0.236   5.109   1.150
 6478SOL     OW20332   3.742   5.934   2.277
 6478SOL    HW120333   3.769   5.913   2.371
 6478SOL    HW220334   3.643   5.920   2.267
 6479SOL     OW20335   3.967   5.181   2.840
 6479SOL    HW120336   3.868   5.185   2.826
 6479SOL    HW220337   3.986   5.174   2.938
 6480SOL     OW20338   3.587   2.867   5.741
 6480SOL    HW120339   3.503   2.829   5.780
 6480SOL    HW220340   3.569   2.903   5.650
 6481SOL     OW20341   3.317   2.140   1.709
 6481SOL    HW120342   3.392   2.191   1.666
 6481SOL    HW220343   3.338   2.042   1.707
 6482SOL     OW20344   0.299   1.094   6.119
 6482SOL    HW120345   0.252   1.063   6.037
 6482SOL    HW220346   0.244   1.071   6.200
 6483SOL     OW20347   2.275   5.638   1.518
 6483SOL    HW120348   2.256   5.544   1.548
 6483SOL    HW220349   2.349   5.637   1.451
 6484SOL     OW20350   4.102   0.491   3.071
 6484SOL    HW120351   4.129   0.581   3.038
 6484SOL    HW220352   4.003   0.483   3.069
 6485SOL     OW20353   1.716   3.918   3.597
 6485SOL    HW120354   1.696   3.871   3.511
 6485SOL    HW220355   1.678   3.866   3.673
 6486SOL     OW20356   1.189   4.648   3.934
 6486SOL    HW120357   1.133   4.690   3.863
 6486SOL    HW220358   1.285   4.652   3.908
 6487SOL     OW20359   6.443   5.684   5.103
 6487SOL    HW120360   6.393   5.746   5.043
 6487SOL    HW220361   6.537   5.676   5.071
 6488SOL     OW20362   2.845   5.654   5.178
 6488SOL    HW120363   2.766   5.596   5.198
 6488SOL    HW220364   2.817   5.726   5.114
 6489SOL     OW20365   2.245   3.441   6.983
 6489SOL    HW120366   2.199   3.412   6.899
 6489SOL    HW220367   2.232   3.372   0.029
 6490SOL     OW20368   4.194   2.483   6.425
 6490SOL    HW120369   4.292   2.498   6.432
 6490SOL    HW220370   4.148   2.570   6.406
 6491SOL     OW20371   3.991   1.331   6.687
 6491SOL    HW120372   3.904   1.319   6.640
 6491SOL    HW220373   4.022   1.244   6.724
 6492SOL     OW20374   6.011   6.194   6.974
 6492SOL    HW120375   5.985   6.254   6.898
 6492SOL    HW220376   6.107   6.167   6.963
 6493SOL     OW20377   1.302   6.108   5.376
 6493SOL    HW120378   1.202   6.102   5.386
 6493SOL    HW220379   1.327   6.092   5.281
 6494SOL     OW20380   0.114   0.817   3.201
 6494SOL    HW120381   0.195   0.837   3.257
 6494SOL    HW220382   0.078   0.727   3.225
 6495SOL     OW20383   5.223   5.939   4.284
 6495SOL    HW120384   5.291   5.868   4.302
 6495SOL    HW220385   5.231   5.969   4.189
 6496SOL     OW20386   7.012   6.347   2.110
 6496SOL    HW120387   6.999   6.248   2.120
 6496SOL    HW220388   6.933   6.395   2.148
 6497SOL     OW20389   2.260   3.238   0.138
 6497SOL    HW120390   2.236   3.141   0.134
 6497SOL    HW220391   2.277   3.264   0.233
 6498SOL     OW20392   2.517   4.624   4.249
 6498SOL    HW120393   2.502   4.577   4.162
 6498SOL    HW220394   2.509   4.558   4.324
 6499SOL     OW20395   5.606   1.762   5.105
 6499SOL    HW120396   5.560   1.850   5.104
 6499SOL    HW220397   5.540   1.689   5.086
 6500SOL     OW20398   0.202   4.890   3.817
 6500SOL    HW120399   0.282   4.943   3.792
 6500SOL    HW220400   0.230   4.805   3.863
 6501SOL     OW20401   0.138   2.698   0.812
 6501SOL    HW120402   0.129   2.790   0.850
 6501SOL    HW220403   0.217   2.653   0.853
 6502SOL     OW20404   0.015   3.870   3.618
 6502SOL    HW120405   0.086   3.843   3.683
 6502SOL    HW220406   0.029   3.966   3.592
 6503SOL     OW20407   5.140   0.138   3.869
 6503SOL    HW120408   5.160   0.117   3.773
 6503SOL    HW220409   5.168   0.061   3.926
 6504SOL     OW20410   4.551   6.244   5.805
 6504SOL    HW120411   4.608   6.318   5.768
 6504SOL    HW220412   4.546   6.253   5.905
 6505SOL     OW20413   6.294   4.503   1.780
 6505SOL    HW120414   6.367   4.525   1.716
 6505SOL    HW220415   6.255   4.588   1.817
 6506SOL     OW20416   0.654   3.207   0.656
 6506SOL    HW120417   0.604   3.222   0.571
 6506SOL    HW220418   0.683   3.295   0.693
 6507SOL     OW20419   1.790   5.864   6.753
 6507SOL    HW120420   1.697   5.847   6.786
 6507SOL    HW220421   1.849   5.884   6.831
 6508SOL     OW20422   1.750   2.102   3.884
 6508SOL    HW120423   1.742   2.008   3.851
 6508SOL    HW220424   1.847   2.127   3.891
 6509SOL     OW20425   2.248   2.433   4.920
 6509SOL    HW120426   2.196   2.516   4.900
 6509SOL    HW220427   2.346   2.455   4.921
 6510SOL     OW20428   0.594   5.505   6.821
 6510SOL    HW120429   0.563   5.417   6.785
 6510SOL    HW220430   0.515   5.558   6.852
 6511SOL     OW20431   5.388   0.687   4.681
 6511SOL    HW120432   5.372   0.752   4.606
 6511SOL    HW220433   5.305   0.635   4.699
 6512SOL     OW20434   4.915   0.333   2.774
 6512SOL    HW120435   4.821   0.306   2.795
 6512SOL    HW220436   4.977   0.296   2.843
 6513SOL     OW20437   3.626   5.868   4.012
 6513SOL    HW120438   3.572   5.815   3.947
 6513SOL    HW220439   3.622   5.825   4.102
 6514SOL     OW20440   5.621   0.269   3.102
 6514SOL    HW120441   5.655   0.185   3.143
 6514SOL    HW220442   5.681   0.294   3.025
 6515SOL     OW20443   0.105   5.547   3.753
 6515SOL    HW120444   0.199   5.523   3.780
 6515SOL    HW220445   0.047   5.549   3.834
 6516SOL     OW20446   0.138   2.125   0.682
 6516SOL    HW120447   0.144   2.194   0.609
 6516SOL    HW220448   0.229   2.091   0.703
 6517SOL     OW20449   5.899   1.289   0.633
 6517SOL    HW120450   5.955   1.265   0.713
 6517SOL    HW220451   5.806   1.254   0.646
 6518SOL     OW20452   0.420   6.113   0.187
 6518SOL    HW120453   0.334   6.064   0.199
 6518SOL    HW220454   0.481   6.059   0.129
 6519SOL     OW20455   2.061   2.116   3.572
 6519SOL    HW120456   2.131   2.186   3.557
 6519SOL    HW220457   1.980   2.137   3.518
 6520SOL     OW20458   6.342   5.869   3.528
 6520SOL    HW120459   6.441   5.854   3.520
 6520SOL    HW220460   6.305   5.892   3.438
 6521SOL     OW20461   0.775   1.157   4.731
 6521SOL    HW120462   0.793   1.083   4.796
 6521SOL    HW220463   0.787   1.124   4.638
 6522SOL     OW20464   3.147   4.725   6.755
 6522SOL    HW120465   3.089   4.667   6.698
 6522SOL    HW220466   3.108   4.732   6.847
 6523SOL     OW20467   2.905   1.740   6.498
 6523SOL    HW120468   2.831   1.690   6.453
 6523SOL    HW220469   2.993   1.701   6.469
 6524SOL     OW20470   3.332   2.985   3.347
 6524SOL    HW120471   3.262   2.974   3.418
 6524SOL    HW220472   3.412   2.930   3.370
 6525SOL     OW20473   2.224   3.028   2.598
 6525SOL    HW120474   2.134   2.989   2.579
 6525SOL    HW220475   2.294   2.957   2.586
 6526SOL     OW20476   0.509   6.211   4.555
 6526SOL    HW120477   0.584   6.273   4.576
 6526SOL    HW220478   0.545   6.122   4.528
 6527SOL     OW20479   0.209   1.411   4.486
 6527SOL    HW120480   0.127   1.360   4.508
 6527SOL    HW220481   0.209   1.435   4.389
 6528SOL     OW20482   6.991   0.784   3.518
 6528SOL    HW120483   6.941   0.826   3.593
 6528SOL    HW220484   6.974   0.834   3.433
 6529SOL     OW20485   6.034   1.730   3.691
 6529SOL    HW120486   6.115   1.678   3.665
 6529SOL    HW220487   5.952   1.684   3.658
 6530SOL     OW20488   6.947   3.867   0.802
 6530SOL    HW120489   6.923   3.771   0.818
 6530SOL    HW220490   0.020   3.880   0.818
 6531SOL     OW20491   5.324   3.524   4.125
 6531SOL    HW120492   5.258   3.513   4.051
 6531SOL    HW220493   5.279   3.508   4.213
 6532SOL     OW20494   5.519   1.524   1.109
 6532SOL    HW120495   5.463   1.443   1.094
 6532SOL    HW220496   5.570   1.514   1.194
 6533SOL     OW20497   5.824   5.547   1.955
 6533SOL    HW120498   5.738   5.595   1.937
 6533SOL    HW220499   5.808   5.449   1.960
 6534SOL     OW20500   2.686   4.380   1.644
 6534SOL    HW120501   2.619   4.439   1.600
 6534SOL    HW220502   2.750   4.435   1.698
 6535SOL     OW20503   0.510   3.062   4.706
 6535SOL    HW120504   0.566   2.984   4.733
 6535SOL    HW220505   0.550   3.146   4.742
 6536SOL     OW20506   6.805   2.609   5.944
 6536SOL    HW120507   6.789   2.614   6.043
 6536SOL    HW220508   6.826   2.515   5.918
 6537SOL     OW20509   6.267   5.856   6.803
 6537SOL    HW120510   6.175   5.839   6.767
 6537SOL    HW220511   6.329   5.879   6.729
 6538SOL     OW20512   3.961   4.102   0.288
 6538SOL    HW120513   3.973   4.032   0.359
 6538SOL    HW220514   3.957   4.192   0.331
 6539SOL     OW20515   2.749   1.599   6.318
 6539SOL    HW120516   2.771   1.587   6.221
 6539SOL    HW220517   2.770   1.514   6.367
 6540SOL     OW20518   4.366   1.682   4.664
 6540SOL    HW120519   4.460   1.658   4.686
 6540SOL    HW220520   4.365   1.764   4.608
 6541SOL     OW20521   3.316   2.101   4.614
 6541SOL    HW120522   3.276   2.093   4.705
 6541SOL    HW220523   3.412   2.075   4.617
 6542SOL     OW20524   0.044   4.652   3.277
 6542SOL    HW120525   0.143   4.640   3.290
 6542SOL    HW220526   0.021   4.637   3.181
 6543SOL     OW20527   6.560   4.516   0.185
 6543SOL    HW120528   6.632   4.500   0.117
 6543SOL    HW220529   6.475   4.472   0.155
 6544SOL     OW20530   0.654   6.400   3.940
 6544SOL    HW120531   0.632   6.405   3.843
 6544SOL    HW220532   0.603   6.470   3.989
 6545SOL     OW20533   4.821   2.050   6.047
 6545SOL    HW120534   4.773   2.102   5.976
 6545SOL    HW220535   4.781   2.071   6.136
 6546SOL     OW20536   4.366   4.537   6.264
 6546SOL    HW120537   4.430   4.534   6.340
 6546SOL    HW220538   4.283   4.486   6.287
 6547SOL     OW20539   4.147   1.614   5.821
 6547SOL    HW120540   4.151   1.613   5.721
 6547SOL    HW220541   4.137   1.709   5.852
 6548SOL     OW20542   0.568   4.210   7.004
 6548SOL    HW120543   0.548   4.279   0.050
 6548SOL    HW220544   0.647   4.239   6.951
 6549SOL     OW20545   3.403   1.014   0.965
 6549SOL    HW120546   3.423   1.050   1.056
 6549SOL    HW220547   3.439   1.076   0.896
 6550SOL     OW20548   6.869   6.336   3.155
 6550SOL    HW120549   6.904   6.340   3.249
 6550SOL    HW220550   6.855   6.240   3.129
 6551SOL     OW20551   1.955   4.124   2.688
 6551SOL    HW120552   1.886   4.079   2.746
 6551SOL    HW220553   1.956   4.080   2.598
 6552SOL     OW20554   2.512   6.788   4.419
 6552SOL    HW120555   2.439   6.721   4.411
 6552SOL    HW220556   2.475   6.874   4.454
 6553SOL     OW20557   0.010   2.143   1.301
 6553SOL    HW120558   6.937   2.124   1.316
 6553SOL    HW220559   0.032   2.233   1.338
 6554SOL     OW20560   6.096   1.606   5.973
 6554SOL    HW120561   6.151   1.625   5.892
 6554SOL    HW220562   6.084   1.508   5.985
 6555SOL     OW20563   1.980   0.858   2.936
 6555SOL    HW120564   1.950   0.766   2.962
 6555SOL    HW220565   1.963   0.920   3.013
 6556SOL     OW20566   4.709   4.577   5.269
 6556SOL    HW120567   4.734   4.623   5.354
 6556SOL    HW220568   4.781   4.512   5.244
 6557SOL     OW20569   5.039   5.593   1.256
 6557SOL    HW120570   5.053   5.494   1.252
 6557SOL    HW220571   5.126   5.640   1.241
 6558SOL     OW20572   6.721   5.736   1.507
 6558SOL    HW120573   6.634   5.776   1.535
 6558SOL    HW220574   6.705   5.660   1.445
 6559SOL     OW20575   6.422   3.895   0.526
 6559SOL    HW120576   6.502   3.867   0.474
 6559SOL    HW220577   6.447   3.907   0.623
 6560SOL     OW20578   3.729   2.864   1.780
 6560SOL    HW120579   3.701   2.768   1.773
 6560SOL    HW220580   3.741   2.902   1.689
 6561SOL     OW20581   3.808   4.075   2.552
 6561SOL    HW120582   3.790   4.023   2.636
 6561SOL    HW220583   3.800   4.173   2.572
 6562SOL     OW20584   6.302   4.657   6.659
 6562SOL    HW120585   6.351   4.648   6.572
 6562SOL    HW220586   6.203   4.654   6.642
 6563SOL     OW20587   0.822   6.401   0.123
 6563SOL    HW120588   0.909   6.433   0.160
 6563SOL    HW220589   0.793   6.462   0.049
 6564SOL     OW20590   0.592   3.737   1.866
 6564SOL    HW120591   0.515   3.675   1.884
 6564SOL    HW220592   0.579   3.821   1.918
 6565SOL     OW20593   6.540   2.135   4.711
 6565SOL    HW120594   6.640   2.143   4.710
 6565SOL    HW220595   6.505   2.134   4.617
 6566SOL     OW20596   3.602   6.617   1.080
 6566SOL    HW120597   3.509   6.608   1.117
 6566SOL    HW220598   3.617   6.710   1.049
 6567SOL     OW20599   4.238   2.185   1.471
 6567SOL    HW120600   4.296   2.150   1.545
 6567SOL    HW220601   4.201   2.108   1.419
 6568SOL     OW20602   4.947   5.226   2.187
 6568SOL    HW120603   4.952   5.132   2.154
 6568SOL    HW220604   4.869   5.272   2.144
 6569SOL     OW20605   3.047   4.702   1.075
 6569SOL    HW120606   3.139   4.692   1.037
 6569SOL    HW220607   3.014   4.613   1.107
 6570SOL     OW20608   4.998   0.007   1.585
 6570SOL    HW120609   4.999   7.006   1.682
 6570SOL    HW220610   5.074   6.985   1.539
 6571SOL     OW20611   2.055   6.686   2.153
 6571SOL    HW120612   1.999   6.706   2.234
 6571SOL    HW220613   2.138   6.741   2.157
 6572SOL     OW20614   6.275   5.011   4.950
 6572SOL    HW120615   6.367   5.020   4.910
 6572SOL    HW220616   6.271   5.063   5.035
 6573SOL     OW20617   3.250   1.449   3.174
 6573SOL    HW120618   3.234   1.454   3.076
 6573SOL    HW220619   3.214   1.531   3.219
 6574SOL     OW20620   2.899   6.026   2.116
 6574SOL    HW120621   2.899   5.947   2.055
 6574SOL    HW220622   2.978   6.020   2.178
 6575SOL     OW20623   0.927   1.316   1.598
 6575SOL    HW120624   0.997   1.371   1.553
 6575SOL    HW220625   0.837   1.357   1.583
 6576SOL     OW20626   1.577   6.251   6.273
 6576SOL    HW120627   1.625   6.187   6.333
 6576SOL    HW220628   1.614   6.343   6.285
 6577SOL     OW20629   0.443   1.432   3.419
 6577SOL    HW120630   0.423   1.527   3.393
 6577SOL    HW220631   0.485   1.431   3.510
 6578SOL     OW20632   0.055   4.971   2.984
 6578SOL    HW120633   6.991   5.012   2.965
 6578SOL    HW220634   0.105   5.027   3.050
 6579SOL     OW20635   0.073   4.027   4.396
 6579SOL    HW120636   0.141   3.958   4.421
 6579SOL    HW220637   0.024   3.997   4.314
 6580SOL     OW20638   5.911   1.108   1.204
 6580SOL    HW120639   5.879   1.062   1.287
 6580SOL    HW220640   6.006   1.135   1.216
 6581SOL     OW20641   3.806   1.039   6.204
 6581SOL    HW120642   3.884   1.101   6.203
 6581SOL    HW220643   3.823   0.962   6.144
 6582SOL     OW20644   1.524   0.249   1.878
 6582SOL    HW120645   1.546   0.151   1.872
 6582SOL    HW220646   1.542   0.281   1.971
 6583SOL     OW20647   4.094   0.927   5.896
 6583SOL    HW120648   4.144   0.950   5.980
 6583SOL    HW220649   3.998   0.956   5.905
 6584SOL     OW20650   5.316   1.130   0.362
 6584SOL    HW120651   5.401   1.179   0.381
 6584SOL    HW220652   5.334   1.031   0.366
 6585SOL     OW20653   6.453   0.862   0.637
 6585SOL    HW120654   6.429   0.956   0.661
 6585SOL    HW220655   6.440   0.803   0.717
 6586SOL     OW20656   6.204   2.215   5.893
 6586SOL    HW120657   6.113   2.212   5.853
 6586SOL    HW220658   6.226   2.125   5.931
 6587SOL     OW20659   2.882   5.894   4.262
 6587SOL    HW120660   2.784   5.892   4.282
 6587SOL    HW220661   2.897   5.867   4.166
 6588SOL     OW20662   1.817   4.058   1.781
 6588SOL    HW120663   1.871   4.042   1.698
 6588SOL    HW220664   1.721   4.068   1.757
 6589SOL     OW20665   4.485   0.604   6.659
 6589SOL    HW120666   4.483   0.531   6.727
 6589SOL    HW220667   4.564   0.663   6.675
 6590SOL     OW20668   0.619   1.922   5.892
 6590SOL    HW120669   0.675   1.848   5.930
 6590SOL    HW220670   0.678   1.988   5.846
 6591SOL     OW20671   5.691   5.964   2.260
 6591SOL    HW120672   5.657   6.055   2.286
 6591SOL    HW220673   5.707   5.961   2.161
 6592SOL     OW20674   4.985   6.873   3.716
 6592SOL    HW120675   5.013   6.868   3.812
 6592SOL    HW220676   4.891   6.839   3.707
 6593SOL     OW20677   2.225   2.518   3.618
 6593SOL    HW120678   2.320   2.543   3.635
 6593SOL    HW220679   2.181   2.493   3.704
 6594SOL     OW20680   4.221   1.212   0.500
 6594SOL    HW120681   4.199   1.189   0.405
 6594SOL    HW220682   4.138   1.212   0.555
 6595SOL     OW20683   0.541   4.186   1.245
 6595SOL    HW120684   0.509   4.281   1.244
 6595SOL    HW220685   0.639   4.183   1.225
 6596SOL     OW20686   3.997   0.061   5.018
 6596SOL    HW120687   4.072   0.044   4.954
 6596SOL    HW220688   3.954   0.149   4.997
 6597SOL     OW20689   1.068   6.468   3.463
 6597SOL    HW120690   1.113   6.531   3.401
 6597SOL    HW220691   1.082   6.498   3.557
 6598SOL     OW20692   1.821   6.200   5.300
 6598SOL    HW120693   1.866   6.247   5.224
 6598SOL    HW220694   1.825   6.257   5.382
 6599SOL     OW20695   4.073   5.374   5.448
 6599SOL    HW120696   4.134   5.420   5.512
 6599SOL    HW220697   4.003   5.438   5.417
 6600SOL     OW20698   5.140   4.993   4.928
 6600SOL    HW120699   5.234   5.006   4.959
 6600SOL    HW220700   5.118   4.895   4.926
 6601SOL     OW20701   1.076   0.421   0.746
 6601SOL    HW120702   1.170   0.397   0.767
 6601SOL    HW220703   1.019   0.409   0.828
 6602SOL     OW20704   6.979   1.666   1.521
 6602SOL    HW120705   6.976   1.734   1.594
 6602SOL    HW220706   0.049   1.640   1.504
 6603SOL     OW20707   1.318   2.930   4.239
 6603SOL    HW120708   1.389   3.001   4.238
 6603SOL    HW220709   1.319   2.882   4.326
 6604SOL     OW20710   3.002   6.290   1.543
 6604SOL    HW120711   3.081   6.262   1.488
 6604SOL    HW220712   3.033   6.344   1.620
 6605SOL     OW20713   4.797   4.836   0.745
 6605SOL    HW120714   4.822   4.875   0.656
 6605SOL    HW220715   4.830   4.896   0.818
 6606SOL     OW20716   5.002   6.369   2.232
 6606SOL    HW120717   4.925   6.310   2.210
 6606SOL    HW220718   5.074   6.357   2.163
 6607SOL     OW20719   2.291   1.449   1.760
 6607SOL    HW120720   2.373   1.488   1.719
 6607SOL    HW220721   2.297   1.455   1.860
 6608SOL     OW20722   5.421   4.842   2.451
 6608SOL    HW120723   5.366   4.888   2.382
 6608SOL    HW220724   5.517   4.871   2.443
 6609SOL     OW20725   4.773   1.042   6.005
 6609SOL    HW120726   4.727   0.954   6.015
 6609SOL    HW220727   4.838   1.038   5.929
 6610SOL     OW20728   2.346   0.317   6.698
 6610SOL    HW120729   2.396   0.394   6.735
 6610SOL    HW220730   2.256   0.347   6.666
 6611SOL     OW20731   6.822   2.238   2.792
 6611SOL    HW120732   6.884   2.167   2.760
 6611SOL    HW220733   6.799   2.300   2.716
 6612SOL     OW20734   0.496   3.957   6.942
 6612SOL    HW120735   0.538   4.046   6.961
 6612SOL    HW220736   0.404   3.971   6.904
 6613SOL     OW20737   6.065   6.166   3.466
 6613SOL    HW120738   6.058   6.241   3.401
 6613SOL    HW220739   5.996   6.177   3.537
 6614SOL     OW20740   4.575   6.434   6.581
 6614SOL    HW120741   4.551   6.339   6.600
 6614SOL    HW220742   4.496   6.483   6.546
 6615SOL     OW20743   0.749   3.719   4.865
 6615SOL    HW120744   0.832   3.775   4.865
 6615SOL    HW220745   0.745   3.665   4.949
 6616SOL     OW20746   4.128   1.228   5.703
 6616SOL    HW120747   4.159   1.138   5.734
 6616SOL    HW220748   4.113   1.226   5.605
 6617SOL     OW20749   3.208   6.309   3.313
 6617SOL    HW120750   3.142   6.293   3.386
 6617SOL    HW220751   3.301   6.294   3.348
 6618SOL     OW20752   0.999   3.289   2.607
 6618SOL    HW120753   1.090   3.311   2.571
 6618SOL    HW220754   0.940   3.259   2.531
 6619SOL     OW20755   6.111   0.171   4.483
 6619SOL    HW120756   6.091   0.094   4.543
 6619SOL    HW220757   6.134   0.138   4.391
 6620SOL     OW20758   1.716   2.894   5.436
 6620SOL    HW120759   1.748   2.862   5.526
 6620SOL    HW220760   1.739   2.990   5.425
 6621SOL     OW20761   2.962   3.522   0.605
 6621SOL    HW120762   2.987   3.570   0.521
 6621SOL    HW220763   2.931   3.588   0.673
 6622SOL     OW20764   6.366   6.155   1.723
 6622SOL    HW120765   6.297   6.103   1.673
 6622SOL    HW220766   6.327   6.242   1.753
 6623SOL     OW20767   3.537   3.263   1.819
 6623SOL    HW120768   3.442   3.230   1.819
 6623SOL    HW220769   3.592   3.206   1.881
 6624SOL     OW20770   2.569   6.749   4.153
 6624SOL    HW120771   2.558   6.775   4.249
 6624SOL    HW220772   2.594   6.830   4.099
 6625SOL     OW20773   5.494   2.103   6.243
 6625SOL    HW120774   5.577   2.049   6.245
 6625SOL    HW220775   5.506   2.186   6.298
 6626SOL     OW20776   3.532   4.951   3.240
 6626SOL    HW120777   3.618   4.934   3.193
 6626SOL    HW220778   3.538   4.917   3.334
 6627SOL     OW20779   2.322   0.611   5.649
 6627SOL    HW120780   2.282   0.700   5.672
 6627SOL    HW220781   2.365   0.615   5.559
 6628SOL     OW20782   5.115   5.441   3.468
 6628SOL    HW120783   5.107   5.459   3.370
 6628SOL    HW220784   5.140   5.345   3.482
 6629SOL     OW20785   3.101   6.511   0.669
 6629SOL    HW120786   3.188   6.545   0.704
 6629SOL    HW220787   3.029   6.527   0.737
 6630SOL     OW20788   3.730   2.049   1.070
 6630SOL    HW120789   3.672   2.061   1.151
 6630SOL    HW220790   3.694   2.105   0.995
 6631SOL     OW20791   4.421   0.351   2.307
 6631SOL    HW120792   4.476   0.332   2.388
 6631SOL    HW220793   4.386   0.265   2.269
 6632SOL     OW20794   6.799   1.044   1.778
 6632SOL    HW120795   6.713   1.084   1.809
 6632SOL    HW220796   6.800   0.947   1.801
 6633SOL     OW20797   1.320   5.607   5.846
 6633SOL    HW120798   1.345   5.591   5.941
 6633SOL    HW220799   1.330   5.704   5.824
 6634SOL     OW20800   5.744   3.475   5.649
 6634SOL    HW120801   5.764   3.499   5.555
 6634SOL    HW220802   5.732   3.558   5.704
 6635SOL     OW20803   4.280   5.172   3.067
 6635SOL    HW120804   4.282   5.094   3.005
 6635SOL    HW220805   4.342   5.243   3.034
 6636SOL     OW20806   1.951   2.317   5.837
 6636SOL    HW120807   1.891   2.394   5.816
 6636SOL    HW220808   2.041   2.350   5.862
 6637SOL     OW20809   1.201   0.527   7.003
 6637SOL    HW120810   1.254   0.610   7.020
 6637SOL    HW220811   1.245   0.474   6.931
 6638SOL     OW20812   3.962   4.803   5.204
 6638SOL    HW120813   3.995   4.883   5.154
 6638SOL    HW220814   4.039   4.747   5.233
 6639SOL     OW20815   5.472   6.213   5.901
 6639SOL    HW120816   5.473   6.266   5.816
 6639SOL    HW220817   5.517   6.125   5.885
 6640SOL     OW20818   0.130   1.945   5.095
 6640SOL    HW120819   0.210   1.995   5.062
 6640SOL    HW220820   0.100   1.984   5.181
 6641SOL     OW20821   2.326   2.975   6.352
 6641SOL    HW120822   2.346   3.034   6.430
 6641SOL    HW220823   2.305   3.031   6.272
 6642SOL     OW20824   2.883   4.830   0.310
 6642SOL    HW120825   2.948   4.756   0.290
 6642SOL    HW220826   2.931   4.905   0.356
 6643SOL     OW20827   6.733   4.607   6.947
 6643SOL    HW120828   6.826   4.582   6.920
 6643SOL    HW220829   6.667   4.556   6.893
 6644SOL     OW20830   3.079   4.775   2.001
 6644SOL    HW120831   3.056   4.862   1.956
 6644SOL    HW220832   2.995   4.726   2.025
 6645SOL     OW20833   6.384   5.004   0.557
 6645SOL    HW120834   6.397   4.923   0.613
 6645SOL    HW220835   6.465   5.018   0.500
 6646SOL     OW20836   4.326   5.684   4.180
 6646SOL    HW120837   4.260   5.658   4.109
 6646SOL    HW220838   4.279   5.733   4.253
 6647SOL     OW20839   3.416   1.478   2.541
 6647SOL    HW120840   3.422   1.516   2.633
 6647SOL    HW220841   3.321   1.478   2.510
 6648SOL     OW20842   3.653   5.981   1.840
 6648SOL    HW120843   3.719   6.008   1.770
 6648SOL    HW220844   3.683   6.014   1.930
 6649SOL     OW20845   5.012   1.670   6.409
 6649SOL    HW120846   4.984   1.728   6.486
 6649SOL    HW220847   5.056   1.587   6.443
 6650SOL     OW20848   3.839   1.501   4.063
 6650SOL    HW120849   3.884   1.557   3.994
 6650SOL    HW220850   3.903   1.479   4.136
 6651SOL     OW20851   1.422   1.752   0.056
 6651SOL    HW120852   1.348   1.731   0.119
 6651SOL    HW220853   1.391   1.820   7.015
 6652SOL     OW20854   6.470   4.636   0.403
 6652SOL    HW120855   6.540   4.589   0.350
 6652SOL    HW220856   6.379   4.613   0.368
 6653SOL     OW20857   3.940   3.076   3.028
 6653SOL    HW120858   3.979   3.110   2.942
 6653SOL    HW220859   3.887   2.993   3.010
 6654SOL     OW20860   2.430   2.784   1.230
 6654SOL    HW120861   2.349   2.767   1.174
 6654SOL    HW220862   2.512   2.754   1.180
 6655SOL     OW20863   2.553   6.719   1.793
 6655SOL    HW120864   2.589   6.783   1.861
 6655SOL    HW220865   2.591   6.628   1.810
 6656SOL     OW20866   6.256   1.475   3.056
 6656SOL    HW120867   6.291   1.476   3.150
 6656SOL    HW220868   6.255   1.569   3.021
 6657SOL     OW20869   4.533   6.327   6.094
 6657SOL    HW120870   4.601   6.392   6.060
 6657SOL    HW220871   4.456   6.377   6.132
 6658SOL     OW20872   6.035   1.454   5.128
 6658SOL    HW120873   6.109   1.520   5.119
 6658SOL    HW220874   5.993   1.463   5.219
 6659SOL     OW20875   2.708   2.075   0.265
 6659SOL    HW120876   2.789   2.133   0.271
 6659SOL    HW220877   2.678   2.050   0.358
 6660SOL     OW20878   0.164   6.241   1.217
 6660SOL    HW120879   0.083   6.299   1.227
 6660SOL    HW220880   0.246   6.297   1.215
 6661SOL     OW20881   0.516   4.873   3.918
 6661SOL    HW120882   0.575   4.925   3.981
 6661SOL    HW220883   0.484   4.934   3.845
 6662SOL     OW20884   1.615   0.665   7.000
 6662SOL    HW120885   1.665   0.735   6.948
 6662SOL    HW220886   1.521   0.660   6.967
 6663SOL     OW20887   7.023   5.951   3.147
 6663SOL    HW120888   0.020   5.899   3.230
 6663SOL    HW220889   0.023   5.896   3.067
 6664SOL     OW20890   1.512   0.013   1.261
 6664SOL    HW120891   1.506   0.088   1.194
 6664SOL    HW220892   1.487   6.952   1.216
 6665SOL     OW20893   1.914   0.739   3.234
 6665SOL    HW120894   1.981   0.813   3.239
 6665SOL    HW220895   1.957   0.660   3.189
 6666SOL     OW20896   5.699   1.884   5.349
 6666SOL    HW120897   5.668   1.823   5.276
 6666SOL    HW220898   5.633   1.882   5.424
 6667SOL     OW20899   6.898   4.906   4.886
 6667SOL    HW120900   6.989   4.948   4.882
 6667SOL    HW220901   6.869   4.883   4.793
 6668SOL     OW20902   6.726   6.123   2.336
 6668SOL    HW120903   6.690   6.136   2.243
 6668SOL    HW220904   6.761   6.030   2.345
 6669SOL     OW20905   1.952   3.601   3.638
 6669SOL    HW120906   1.936   3.691   3.678
 6669SOL    HW220907   2.033   3.604   3.580
 6670SOL     OW20908   3.448   3.808   6.721
 6670SOL    HW120909   3.406   3.867   6.652
 6670SOL    HW220910   3.525   3.759   6.681
 6671SOL     OW20911   6.005   5.255   0.787
 6671SOL    HW120912   6.080   5.206   0.741
 6671SOL    HW220913   6.036   5.345   0.815
 6672SOL     OW20914   0.887   1.183   5.185
 6672SOL    HW120915   0.975   1.194   5.139
 6672SOL    HW220916   0.877   1.253   5.255
 6673SOL     OW20917   4.431   5.508   3.076
 6673SOL    HW120918   4.478   5.454   3.145
 6673SOL    HW220919   4.349   5.549   3.116
 6674SOL     OW20920   0.790   5.224   6.079
 6674SOL    HW120921   0.723   5.290   6.112
 6674SOL    HW220922   0.769   5.133   6.115
 6675SOL     OW20923   4.948   4.183   1.606
 6675SOL    HW120924   4.991   4.192   1.516
 6675SOL    HW220925   4.871   4.120   1.601
 6676SOL     OW20926   0.447   3.621   5.794
 6676SOL    HW120927   0.392   3.655   5.870
 6676SOL    HW220928   0.503   3.544   5.824
 6677SOL     OW20929   0.219   3.143   0.242
 6677SOL    HW120930   0.239   3.238   0.267
 6677SOL    HW220931   0.228   3.133   0.143
 6678SOL     OW20932   1.298   2.604   7.005
 6678SOL    HW120933   1.206   2.565   7.016
 6678SOL    HW220934   1.348   2.554   6.936
 6679SOL     OW20935   1.884   1.642   4.862
 6679SOL    HW120936   1.930   1.590   4.934
 6679SOL    HW220937   1.922   1.616   4.773
 6680SOL     OW20938   4.197   5.738   5.986
 6680SOL    HW120939   4.257   5.796   5.930
 6680SOL    HW220940   4.155   5.668   5.928
 6681SOL     OW20941   4.849   5.180   0.164
 6681SOL    HW120942   4.851   5.090   0.122
 6681SOL    HW220943   4.819   5.248   0.097
 6682SOL     OW20944   0.677   4.209   2.455
 6682SOL    HW120945   0.682   4.223   2.553
 6682SOL    HW220946   0.661   4.112   2.435
 6683SOL     OW20947   5.260   2.321   5.756
 6683SOL    HW120948   5.187   2.310   5.688
 6683SOL    HW220949   5.338   2.366   5.714
 6684SOL     OW20950   1.705   6.493   1.119
 6684SOL    HW120951   1.745   6.550   1.191
 6684SOL    HW220952   1.687   6.549   1.038
 6685SOL     OW20953   5.450   1.670   6.144
 6685SOL    HW120954   5.383   1.640   6.076
 6685SOL    HW220955   5.427   1.632   6.233
 6686SOL     OW20956   5.903   4.922   3.646
 6686SOL    HW120957   5.951   4.841   3.612
 6686SOL    HW220958   5.969   4.995   3.664
 6687SOL     OW20959   0.779   1.910   1.375
 6687SOL    HW120960   0.823   1.842   1.434
 6687SOL    HW220961   0.714   1.865   1.314
 6688SOL     OW20962   0.450   4.279   1.816
 6688SOL    HW120963   0.431   4.325   1.903
 6688SOL    HW220964   0.366   4.236   1.782
 6689SOL     OW20965   4.213   2.538   0.451
 6689SOL    HW120966   4.298   2.534   0.400
 6689SOL    HW220967   4.220   2.479   0.532
 6690SOL     OW20968   2.722   0.953   1.845
 6690SOL    HW120969   2.800   1.016   1.839
 6690SOL    HW220970   2.747   0.866   1.802
 6691SOL     OW20971   3.111   5.600   0.985
 6691SOL    HW120972   3.200   5.639   1.009
 6691SOL    HW220973   3.065   5.569   1.068
 6692SOL     OW20974   2.882   4.888   5.038
 6692SOL    HW120975   2.882   4.913   5.135
 6692SOL    HW220976   2.860   4.790   5.028
 6693SOL     OW20977   5.189   3.358   6.378
 6693SOL    HW120978   5.202   3.393   6.470
 6693SOL    HW220979   5.162   3.433   6.317
 6694SOL     OW20980   4.547   5.857   0.091
 6694SOL    HW120981   4.496   5.790   0.145
 6694SOL    HW220982   4.544   5.832   7.019
 6695SOL     OW20983   0.648   2.136   6.668
 6695SOL    HW120984   0.615   2.101   6.581
 6695SOL    HW220985   0.722   2.078   6.702
 6696SOL     OW20986   1.760   2.573   0.670
 6696SOL    HW120987   1.752   2.505   0.597
 6696SOL    HW220988   1.677   2.572   0.725
 6697SOL     OW20989   4.567   2.492   2.982
 6697SOL    HW120990   4.581   2.591   2.973
 6697SOL    HW220991   4.517   2.473   3.067
 6698SOL     OW20992   3.775   2.507   0.354
 6698SOL    HW120993   3.871   2.480   0.346
 6698SOL    HW220994   3.732   2.504   0.263
 6699SOL     OW20995   3.606   4.462   0.000
 6699SOL    HW120996   3.510   4.436   7.014
 6699SOL    HW220997   3.663   4.407   6.963
 6700SOL     OW20998   0.745   5.645   0.932
 6700SOL    HW120999   0.780   5.734   0.960
 6700SOL    HW221000   0.815   5.597   0.879
 6701SOL     OW21001   6.082   2.889   1.296
 6701SOL    HW121002   6.168   2.935   1.274
 6701SOL    HW221003   6.034   2.865   1.212
 6702SOL     OW21004   2.776   2.400   6.843
 6702SOL    HW121005   2.683   2.409   6.807
 6702SOL    HW221006   2.781   2.443   6.933
 6703SOL     OW21007   6.044   1.736   6.778
 6703SOL    HW121008   6.045   1.735   6.678
 6703SOL    HW221009   6.117   1.796   6.811
 6704SOL     OW21010   4.199   2.281   2.608
 6704SOL    HW121011   4.160   2.326   2.688
 6704SOL    HW221012   4.128   2.269   2.539
 6705SOL     OW21013   0.130   1.887   1.923
 6705SOL    HW121014   0.228   1.907   1.935
 6705SOL    HW221015   0.076   1.944   1.985
 6706SOL     OW21016   1.528   4.597   0.582
 6706SOL    HW121017   1.444   4.595   0.527
 6706SOL    HW221018   1.587   4.522   0.553
 6707SOL     OW21019   6.333   5.844   4.863
 6707SOL    HW121020   6.257   5.876   4.919
 6707SOL    HW221021   6.330   5.891   4.774
 6708SOL     OW21022   1.716   6.001   2.454
 6708SOL    HW121023   1.709   6.056   2.537
 6708SOL    HW221024   1.752   5.910   2.477
 6709SOL     OW21025   3.347   5.964   1.117
 6709SOL    HW121026   3.257   6.007   1.120
 6709SOL    HW221027   3.352   5.892   1.186
 6710SOL     OW21028   2.591   2.046   6.062
 6710SOL    HW121029   2.677   1.997   6.078
 6710SOL    HW221030   2.515   1.993   6.101
 6711SOL     OW21031   5.768   4.346   6.659
 6711SOL    HW121032   5.822   4.300   6.589
 6711SOL    HW221033   5.702   4.407   6.615
 6712SOL     OW21034   4.533   5.400   0.539
 6712SOL    HW121035   4.484   5.484   0.563
 6712SOL    HW221036   4.625   5.424   0.507
 6713SOL     OW21037   2.457   1.535   1.448
 6713SOL    HW121038   2.501   1.523   1.537
 6713SOL    HW221039   2.527   1.547   1.377
 6714SOL     OW21040   5.298   0.211   5.369
 6714SOL    HW121041   5.342   0.207   5.280
 6714SOL    HW221042   5.326   0.295   5.416
 6715SOL     OW21043   0.097   0.924   6.989
 6715SOL    HW121044   0.033   0.925   0.041
 6715SOL    HW221045   0.065   0.988   6.919
 6716SOL     OW21046   1.680   6.427   1.426
 6716SOL    HW121047   1.777   6.400   1.421
 6716SOL    HW221048   1.626   6.370   1.365
 6717SOL     OW21049   4.504   3.161   0.769
 6717SOL    HW121050   4.570   3.126   0.835
 6717SOL    HW221051   4.550   3.222   0.705
 6718SOL     OW21052   4.154   5.864   6.642
 6718SOL    HW121053   4.205   5.840   6.559
 6718SOL    HW221054   4.082   5.796   6.658
 6719SOL     OW21055   0.523   0.367   6.005
 6719SOL    HW121056   0.560   0.436   6.068
 6719SOL    HW221057   0.586   0.290   5.999
 6720SOL     OW21058   2.621   6.151   1.737
 6720SOL    HW121059   2.587   6.244   1.720
 6720SOL    HW221060   2.580   6.089   1.670
 6721SOL     OW21061   5.459   6.618   4.345
 6721SOL    HW121062   5.510   6.672   4.413
 6721SOL    HW221063   5.474   6.657   4.254
 6722SOL     OW21064   5.406   3.358   0.880
 6722SOL    HW121065   5.435   3.370   0.975
 6722SOL    HW221066   5.330   3.420   0.860
 6723SOL     OW21067   2.242   6.948   3.069
 6723SOL    HW121068   2.301   6.975   3.145
 6723SOL    HW221069   2.214   6.853   3.080
 6724SOL     OW21070   1.853   4.423   5.777
 6724SOL    HW121071   1.784   4.405   5.707
 6724SOL    HW221072   1.834   4.511   5.820
 6725SOL     OW21073   1.150   4.552   2.458
 6725SOL    HW121074   1.059   4.549   2.500
 6725SOL    HW221075   1.213   4.601   2.518
 6726SOL     OW21076   1.724   2.341   4.884
 6726SOL    HW121077   1.701   2.395   4.965
 6726SOL    HW221078   1.641   2.297   4.849
 6727SOL     OW21079   5.559   3.899   6.224
 6727SOL    HW121080   5.630   3.950   6.175
 6727SOL    HW221081   5.592   3.807   6.243
 6728SOL     OW21082   4.524   1.498   4.492
 6728SOL    HW121083   4.572   1.543   4.568
 6728SOL    HW221084   4.480   1.568   4.435
 6729SOL     OW21085   6.567   1.207   2.483
 6729SOL    HW121086   6.470   1.220   2.507
 6729SOL    HW221087   6.624   1.226   2.563
 6730SOL     OW21088   2.476   6.831   6.807
 6730SOL    HW121089   2.413   6.819   6.884
 6730SOL    HW221090   2.509   6.741   6.777
 6731SOL     OW21091   2.940   4.455   1.144
 6731SOL    HW121092   2.890   4.474   1.228
 6731SOL    HW221093   3.012   4.388   1.161
 6732SOL     OW21094   2.870   5.784   0.059
 6732SOL    HW121095   2.810   5.751   0.132
 6732SOL    HW221096   2.950   5.724   0.051
 6733SOL     OW21097   4.397   5.527   6.519
 6733SOL    HW121098   4.470   5.467   6.485
 6733SOL    HW221099   4.376   5.504   6.614
 6734SOL     OW21100   0.937   3.149   5.734
 6734SOL    HW121101   0.888   3.144   5.647
 6734SOL    HW221102   1.034   3.133   5.719
 6735SOL     OW21103   0.637   5.003   5.220
 6735SOL    HW121104   0.626   4.955   5.307
 6735SOL    HW221105   0.589   4.953   5.148
 6736SOL     OW21106   2.044   3.750   0.539
 6736SOL    HW121107   2.017   3.844   0.560
 6736SOL    HW221108   2.143   3.742   0.542
 6737SOL     OW21109   2.100   1.355   1.590
 6737SOL    HW121110   2.150   1.385   1.671
 6737SOL    HW221111   2.162   1.350   1.512
 6738SOL     OW21112   1.958   2.466   2.583
 6738SOL    HW121113   2.027   2.451   2.511
 6738SOL    HW221114   1.903   2.384   2.593
 6739SOL     OW21115   3.261   5.706   5.486
 6739SOL    HW121116   3.190   5.758   5.533
 6739SOL    HW221117   3.256   5.610   5.515
 6740SOL     OW21118   1.717   1.215   4.373
 6740SOL    HW121119   1.705   1.241   4.469
 6740SOL    HW221120   1.786   1.273   4.331
 6741SOL     OW21121   4.799   1.794   5.887
 6741SOL    HW121122   4.814   1.892   5.900
 6741SOL    HW221123   4.705   1.778   5.858
 6742SOL     OW21124   0.341   5.876   4.589
 6742SOL    HW121125   0.310   5.972   4.590
 6742SOL    HW221126   0.440   5.873   4.581
 6743SOL     OW21127   3.966   3.651   6.718
 6743SOL    HW121128   4.047   3.710   6.720
 6743SOL    HW221129   3.894   3.695   6.664
 6744SOL     OW21130   3.658   5.087   5.873
 6744SOL    HW121131   3.599   5.020   5.917
 6744SOL    HW221132   3.729   5.041   5.819
 6745SOL     OW21133   0.944   5.276   2.799
 6745SOL    HW121134   1.014   5.215   2.761
 6745SOL    HW221135   0.920   5.345   2.731
 6746SOL     OW21136   0.884   1.063   1.718
 6746SOL    HW121137   0.971   1.014   1.730
 6746SOL    HW221138   0.903   1.161   1.708
 6747SOL     OW21139   5.216   6.424   4.464
 6747SOL    HW121140   5.118   6.405   4.456
 6747SOL    HW221141   5.269   6.351   4.422
 6748SOL     OW21142   1.074   1.143   2.199
 6748SOL    HW121143   1.160   1.191   2.219
 6748SOL    HW221144   1.003   1.210   2.181
 6749SOL     OW21145   3.500   0.656   6.876
 6749SOL    HW121146   3.593   0.677   6.845
 6749SOL    HW221147   3.504   0.592   6.953
 6750SOL     OW21148   2.779   2.068   4.182
 6750SOL    HW121149   2.798   1.983   4.232
 6750SOL    HW221150   2.856   2.130   4.190
 6751SOL     OW21151   2.615   2.149   3.995
 6751SOL    HW121152   2.537   2.088   3.985
 6751SOL    HW221153   2.674   2.117   4.069
 6752SOL     OW21154   6.185   2.618   1.277
 6752SOL    HW121155   6.099   2.666   1.265
 6752SOL    HW221156   6.167   2.521   1.294
 6753SOL     OW21157   4.173   1.505   6.261
 6753SOL    HW121158   4.174   1.438   6.335
 6753SOL    HW221159   4.152   1.460   6.174
 6754SOL     OW21160   6.571   2.045   6.371
 6754SOL    HW121161   6.635   2.100   6.424
 6754SOL    HW221162   6.500   2.104   6.332
 6755SOL     OW21163   5.058   1.543   3.354
 6755SOL    HW121164   5.155   1.551   3.374
 6755SOL    HW221165   5.014   1.632   3.366
 6756SOL     OW21166   4.807   4.094   4.377
 6756SOL    HW121167   4.904   4.102   4.355
 6756SOL    HW221168   4.756   4.163   4.327
 6757SOL     OW21169   4.522   5.919   0.701
 6757SOL    HW121170   4.536   5.995   0.764
 6757SOL    HW221171   4.574   5.839   0.732
 6758SOL     OW21172   5.310   3.819   2.074
 6758SOL    HW121173   5.295   3.767   2.159
 6758SOL    HW221174   5.271   3.769   1.997
 6759SOL     OW21175   1.648   4.545   3.143
 6759SOL    HW121176   1.736   4.573   3.105
 6759SOL    HW221177   1.578   4.612   3.117
 6760SOL     OW21178   0.635   4.905   4.800
 6760SOL    HW121179   0.718   4.879   4.850
 6760SOL    HW221180   0.576   4.825   4.789
 6761SOL     OW21181   5.456   2.490   5.432
 6761SOL    HW121182   5.550   2.465   5.452
 6761SOL    HW221183   5.415   2.532   5.513
 6762SOL     OW21184   6.462   4.829   3.414
 6762SOL    HW121185   6.533   4.759   3.412
 6762SOL    HW221186   6.497   4.911   3.458
 6763SOL     OW21187   6.132   5.999   4.985
 6763SOL    HW121188   6.081   5.962   4.908
 6763SOL    HW221189   6.073   6.003   5.066
 6764SOL     OW21190   2.902   3.831   6.114
 6764SOL    HW121191   2.838   3.763   6.150
 6764SOL    HW221192   2.903   3.826   6.014
 6765SOL     OW21193   6.725   4.675   3.328
 6765SOL    HW121194   6.769   4.635   3.408
 6765SOL    HW221195   6.678   4.604   3.276
 6766SOL     OW21196   1.797   0.591   6.213
 6766SOL    HW121197   1.719   0.584   6.151
 6766SOL    HW221198   1.864   0.655   6.174
 6767SOL     OW21199   0.337   2.529   0.119
 6767SOL    HW121200   0.276   2.559   0.193
 6767SOL    HW221201   0.408   2.598   0.105
 6768SOL     OW21202   0.622   0.175   3.832
 6768SOL    HW121203   0.709   0.221   3.852
 6768SOL    HW221204   0.629   0.078   3.856
 6769SOL     OW21205   2.876   2.119   5.272
 6769SOL    HW121206   2.867   2.024   5.300
 6769SOL    HW221207   2.886   2.124   5.172
 6770SOL     OW21208   0.447   2.647   3.554
 6770SOL    HW121209   0.546   2.652   3.543
 6770SOL    HW221210   0.410   2.575   3.495
 6771SOL     OW21211   3.697   2.081   3.512
 6771SOL    HW121212   3.743   2.076   3.423
 6771SOL    HW221213   3.749   2.140   3.574
 6772SOL     OW21214   6.129   1.503   2.638
 6772SOL    HW121215   6.147   1.489   2.541
 6772SOL    HW221216   6.072   1.429   2.673
 6773SOL     OW21217   0.075   5.975   1.618
 6773SOL    HW121218   7.003   5.959   1.597
 6773SOL    HW221219   0.083   6.014   1.710
 6774SOL     OW21220   1.447   1.907   5.193
 6774SOL    HW121221   1.504   1.855   5.256
 6774SOL    HW221222   1.467   1.879   5.099
 6775SOL     OW21223   0.835   1.733   4.444
 6775SOL    HW121224   0.825   1.770   4.537
 6775SOL    HW221225   0.926   1.756   4.409
 6776SOL     OW21226   3.965   4.167   1.566
 6776SOL    HW121227   3.992   4.258   1.534
 6776SOL    HW221228   3.865   4.162   1.570
 6777SOL     OW21229   4.617   5.593   1.566
 6777SOL    HW121230   4.594   5.611   1.662
 6777SOL    HW221231   4.715   5.576   1.558
 6778SOL     OW21232   6.109   3.797   2.692
 6778SOL    HW121233   6.053   3.811   2.610
 6778SOL    HW221234   6.182   3.866   2.694
 6779SOL     OW21235   5.894   4.298   5.850
 6779SOL    HW121236   5.795   4.294   5.862
 6779SOL    HW221237   5.926   4.392   5.864
 6780SOL     OW21238   2.678   2.441   3.258
 6780SOL    HW121239   2.632   2.525   3.228
 6780SOL    HW221240   2.657   2.425   3.354
 6781SOL     OW21241   6.588   1.471   4.215
 6781SOL    HW121242   6.563   1.558   4.257
 6781SOL    HW221243   6.506   1.422   4.187
 6782SOL     OW21244   6.747   2.029   3.989
 6782SOL    HW121245   6.766   1.951   3.929
 6782SOL    HW221246   6.810   2.103   3.969
 6783SOL     OW21247   1.216   4.920   5.330
 6783SOL    HW121248   1.206   4.906   5.428
 6783SOL    HW221249   1.126   4.916   5.286
 6784SOL     OW21250   1.784   3.699   1.267
 6784SOL    HW121251   1.746   3.780   1.311
 6784SOL    HW221252   1.813   3.633   1.336
 6785SOL     OW21253   5.473   4.720   4.628
 6785SOL    HW121254   5.382   4.751   4.599
 6785SOL    HW221255   5.539   4.793   4.613
 6786SOL     OW21256   6.611   2.271   0.796
 6786SOL    HW121257   6.610   2.175   0.769
 6786SOL    HW221258   6.524   2.313   0.770
 6787SOL     OW21259   3.588   2.439   6.822
 6787SOL    HW121260   3.602   2.537   6.835
 6787SOL    HW221261   3.676   2.392   6.832
 6788SOL     OW21262   0.616   3.919   3.825
 6788SOL    HW121263   0.552   3.996   3.826
 6788SOL    HW221264   0.587   3.853   3.756
 6789SOL     OW21265   6.638   3.739   4.002
 6789SOL    HW121266   6.593   3.819   3.964
 6789SOL    HW221267   6.622   3.660   3.943
 6790SOL     OW21268   0.936   4.617   6.358
 6790SOL    HW121269   0.959   4.616   6.261
 6790SOL    HW221270   0.875   4.693   6.377
 6791SOL     OW21271   4.292   1.337   3.965
 6791SOL    HW121272   4.378   1.353   4.014
 6791SOL    HW221273   4.307   1.270   3.893
 6792SOL     OW21274   4.216   0.056   5.260
 6792SOL    HW121275   4.186   0.079   5.167
 6792SOL    HW221276   4.298   7.025   5.255
 6793SOL     OW21277   2.214   3.384   0.377
 6793SOL    HW121278   2.277   3.445   0.330
 6793SOL    HW221279   2.124   3.390   0.334
 6794SOL     OW21280   4.584   1.519   5.679
 6794SOL    HW121281   4.665   1.483   5.726
 6794SOL    HW221282   4.507   1.522   5.742
 6795SOL     OW21283   0.938   0.819   1.485
 6795SOL    HW121284   0.975   0.907   1.514
 6795SOL    HW221285   1.011   0.766   1.441
 6796SOL     OW21286   5.838   1.495   2.307
 6796SOL    HW121287   5.826   1.404   2.266
 6796SOL    HW221288   5.798   1.497   2.398
 6797SOL     OW21289   0.419   1.946   1.902
 6797SOL    HW121290   0.454   1.980   1.814
 6797SOL    HW221291   0.495   1.936   1.966
 6798SOL     OW21292   5.567   0.392   2.086
 6798SOL    HW121293   5.569   0.479   2.036
 6798SOL    HW221294   5.497   0.332   2.047
 6799SOL     OW21295   5.018   0.272   3.454
 6799SOL    HW121296   5.078   0.202   3.494
 6799SOL    HW221297   5.014   0.351   3.515
 6800SOL     OW21298   0.065   1.297   1.442
 6800SOL    HW121299   0.136   1.228   1.429
 6800SOL    HW221300   0.019   1.282   1.530
 6801SOL     OW21301   1.214   6.162   4.918
 6801SOL    HW121302   1.130   6.213   4.936
 6801SOL    HW221303   1.258   6.139   5.005
 6802SOL     OW21304   3.355   5.836   1.390
 6802SOL    HW121305   3.278   5.872   1.444
 6802SOL    HW221306   3.440   5.877   1.423
 6803SOL     OW21307   4.976   4.585   6.523
 6803SOL    HW121308   5.058   4.554   6.475
 6803SOL    HW221309   4.991   4.678   6.558
 6804SOL     OW21310   2.567   4.552   2.767
 6804SOL    HW121311   2.655   4.589   2.737
 6804SOL    HW221312   2.526   4.498   2.693
 6805SOL     OW21313   0.150   4.293   5.621
 6805SOL    HW121314   0.109   4.204   5.600
 6805SOL    HW221315   0.088   4.365   5.589
 6806SOL     OW21316   6.869   0.900   3.216
 6806SOL    HW121317   6.967   0.887   3.201
 6806SOL    HW221318   6.826   0.926   3.130
 6807SOL     OW21319   3.443   3.567   1.821
 6807SOL    HW121320   3.350   3.571   1.858
 6807SOL    HW221321   3.487   3.482   1.851
 6808SOL     OW21322   4.032   1.602   4.489
 6808SOL    HW121323   4.078   1.527   4.537
 6808SOL    HW221324   4.099   1.651   4.433
 6809SOL     OW21325   5.813   4.110   2.162
 6809SOL    HW121326   5.765   4.122   2.075
 6809SOL    HW221327   5.749   4.119   2.238
 6810SOL     OW21328   2.589   1.191   3.758
 6810SOL    HW121329   2.503   1.173   3.806
 6810SOL    HW221330   2.633   1.104   3.734
 6811SOL     OW21331   6.302   1.853   2.180
 6811SOL    HW121332   6.240   1.821   2.108
 6811SOL    HW221333   6.256   1.846   2.269
 6812SOL     OW21334   2.959   3.929   5.010
 6812SOL    HW121335   2.912   4.012   4.983
 6812SOL    HW221336   3.040   3.952   5.065
 6813SOL     OW21337   5.860   3.613   1.903
 6813SOL    HW121338   5.777   3.662   1.876
 6813SOL    HW221339   5.900   3.656   1.983
 6814SOL     OW21340   4.771   1.675   6.188
 6814SOL    HW121341   4.768   1.724   6.101
 6814SOL    HW221342   4.833   1.722   6.250
 6815SOL     OW21343   2.453   5.194   6.331
 6815SOL    HW121344   2.517   5.189   6.408
 6815SOL    HW221345   2.490   5.254   6.260
 6816SOL     OW21346   0.521   2.052   3.956
 6816SOL    HW121347   0.526   1.960   3.995
 6816SOL    HW221348   0.592   2.063   3.887
 6817SOL     OW21349   3.525   2.011   2.122
 6817SOL    HW121350   3.586   2.069   2.067
 6817SOL    HW221351   3.557   2.009   2.217
 6818SOL     OW21352   2.144   6.472   6.326
 6818SOL    HW121353   2.077   6.466   6.252
 6818SOL    HW221354   2.131   6.396   6.389
 6819SOL     OW21355   4.410   4.610   2.305
 6819SOL    HW121356   4.470   4.532   2.289
 6819SOL    HW221357   4.455   4.677   2.363
 6820SOL     OW21358   2.715   6.179   1.084
 6820SOL    HW121359   2.684   6.267   1.122
 6820SOL    HW221360   2.714   6.184   0.984
 6821SOL     OW21361   4.523   2.914   5.296
 6821SOL    HW121362   4.584   2.979   5.251
 6821SOL    HW221363   4.445   2.963   5.335
 6822SOL     OW21364   6.740   2.408   6.499
 6822SOL    HW121365   6.824   2.447   6.537
 6822SOL    HW221366   6.709   2.465   6.423
 6823SOL     OW21367   5.729   3.431   6.862
 6823SOL    HW121368   5.690   3.457   6.774
 6823SOL    HW221369   5.729   3.331   6.871
 6824SOL     OW21370   0.989   2.367   6.546
 6824SOL    HW121371   1.066   2.324   6.594
 6824SOL    HW221372   0.905   2.349   6.597
 6825SOL     OW21373   6.119   5.865   2.053
 6825SOL    HW121374   6.141   5.774   2.017
 6825SOL    HW221375   6.190   5.894   2.117
 6826SOL     OW21376   0.726   3.412   3.600
 6826SOL    HW121377   0.798   3.359   3.556
 6826SOL    HW221378   0.680   3.357   3.669
 6827SOL     OW21379   4.362   6.210   4.686
 6827SOL    HW121380   4.445   6.246   4.642
 6827SOL    HW221381   4.342   6.118   4.650
 6828SOL     OW21382   3.353   1.811   2.703
 6828SOL    HW121383   3.409   1.839   2.781
 6828SOL    HW221384   3.288   1.741   2.732
 6829SOL     OW21385   5.511   6.784   4.620
 6829SOL    HW121386   5.423   6.744   4.595
 6829SOL    HW221387   5.504   6.828   4.709
 6830SOL     OW21388   5.068   0.308   3.018
 6830SOL    HW121389   5.001   0.277   3.087
 6830SOL    HW221390   5.157   0.321   3.062
 6831SOL     OW21391   1.407   1.565   6.576
 6831SOL    HW121392   1.321   1.514   6.578
 6831SOL    HW221393   1.406   1.629   6.500
 6832SOL     OW21394   3.151   2.395   0.581
 6832SOL    HW121395   3.081   2.404   0.510
 6832SOL    HW221396   3.235   2.359   0.540
 6833SOL     OW21397   3.033   5.264   5.982
 6833SOL    HW121398   3.039   5.219   6.071
 6833SOL    HW221399   2.957   5.329   5.983
 6834SOL     OW21400   4.999   6.944   0.413
 6834SOL    HW121401   4.979   6.848   0.390
 6834SOL    HW221402   5.078   6.975   0.359
 6835SOL     OW21403   2.542   2.186   4.591
 6835SOL    HW121404   2.509   2.227   4.506
 6835SOL    HW221405   2.495   2.099   4.607
 6836SOL     OW21406   1.838   5.048   6.523
 6836SOL    HW121407   1.775   5.056   6.446
 6836SOL    HW221408   1.791   5.006   6.601
 6837SOL     OW21409   0.894   0.404   1.872
 6837SOL    HW121410   0.827   0.460   1.921
 6837SOL    HW221411   0.866   0.396   1.776
 6838SOL     OW21412   2.744   4.731   5.300
 6838SOL    HW121413   2.679   4.667   5.341
 6838SOL    HW221414   2.809   4.682   5.243
 6839SOL     OW21415   5.563   2.685   3.791
 6839SOL    HW121416   5.527   2.748   3.723
 6839SOL    HW221417   5.515   2.697   3.877
 6840SOL     OW21418   2.677   6.826   4.960
 6840SOL    HW121419   2.728   6.807   5.044
 6840SOL    HW221420   2.580   6.806   4.975
 6841SOL     OW21421   4.267   5.560   1.436
 6841SOL    HW121422   4.333   5.601   1.372
 6841SOL    HW221423   4.195   5.515   1.385
 6842SOL     OW21424   0.588   4.222   6.649
 6842SOL    HW121425   0.664   4.239   6.712
 6842SOL    HW221426   0.617   4.158   6.577
 6843SOL     OW21427   4.099   2.171   1.938
 6843SOL    HW121428   4.069   2.246   1.879
 6843SOL    HW221429   4.033   2.157   2.011
 6844SOL     OW21430   4.780   5.064   4.016
 6844SOL    HW121431   4.821   4.975   3.997
 6844SOL    HW221432   4.756   5.109   3.929
 6845SOL     OW21433   4.477   5.059   2.293
 6845SOL    HW121434   4.520   5.126   2.354
 6845SOL    HW221435   4.441   5.106   2.212
 6846SOL     OW21436   3.555   3.157   2.774
 6846SOL    HW121437   3.654   3.164   2.773
 6846SOL    HW221438   3.518   3.208   2.696
 6847SOL     OW21439   5.335   3.757   1.581
 6847SOL    HW121440   5.349   3.662   1.607
 6847SOL    HW221441   5.252   3.792   1.626
 6848SOL     OW21442   0.829   5.523   4.168
 6848SOL    HW121443   0.896   5.523   4.094
 6848SOL    HW221444   0.794   5.616   4.183
 6849SOL     OW21445   3.448   5.747   3.830
 6849SOL    HW121446   3.485   5.793   3.749
 6849SOL    HW221447   3.447   5.648   3.814
 6850SOL     OW21448   5.488   2.404   2.932
 6850SOL    HW121449   5.554   2.366   2.867
 6850SOL    HW221450   5.406   2.433   2.883
 6851SOL     OW21451   1.760   5.164   5.916
 6851SOL    HW121452   1.772   5.078   5.867
 6851SOL    HW221453   1.740   5.146   6.012
 6852SOL     OW21454   1.434   4.144   1.986
 6852SOL    HW121455   1.342   4.121   1.954
 6852SOL    HW221456   1.435   4.148   2.085
 6853SOL     OW21457   0.689   4.516   5.861
 6853SOL    HW121458   0.705   4.430   5.812
 6853SOL    HW221459   0.772   4.572   5.856
 6854SOL     OW21460   0.081   2.082   5.936
 6854SOL    HW121461   0.092   1.992   5.893
 6854SOL    HW221462   0.152   2.094   6.005
 6855SOL     OW21463   3.409   6.712   2.603
 6855SOL    HW121464   3.433   6.739   2.510
 6855SOL    HW221465   3.375   6.618   2.603
 6856SOL     OW21466   6.097   3.918   4.550
 6856SOL    HW121467   6.024   3.983   4.526
 6856SOL    HW221468   6.183   3.947   4.508
 6857SOL     OW21469   2.751   2.345   5.947
 6857SOL    HW121470   2.657   2.350   5.980
 6857SOL    HW221471   2.752   2.306   5.855
 6858SOL     OW21472   3.979   3.691   4.708
 6858SOL    HW121473   4.018   3.755   4.642
 6858SOL    HW221474   4.024   3.602   4.699
 6859SOL     OW21475   2.713   6.779   0.749
 6859SOL    HW121476   2.675   6.861   0.793
 6859SOL    HW221477   2.680   6.773   0.655
 6860SOL     OW21478   5.886   4.665   1.146
 6860SOL    HW121479   5.971   4.716   1.153
 6860SOL    HW221480   5.838   4.667   1.234
 6861SOL     OW21481   5.812   6.119   6.642
 6861SOL    HW121482   5.803   6.192   6.710
 6861SOL    HW221483   5.726   6.069   6.636
 6862SOL     OW21484   3.138   5.487   4.979
 6862SOL    HW121485   3.059   5.442   4.938
 6862SOL    HW221486   3.138   5.471   5.078
 6863SOL     OW21487   5.334   1.837   3.872
 6863SOL    HW121488   5.374   1.895   3.800
 6863SOL    HW221489   5.370   1.866   3.961
 6864SOL     OW21490   2.881   6.182   3.211
 6864SOL    HW121491   2.885   6.082   3.198
 6864SOL    HW221492   2.939   6.208   3.288
 6865SOL     OW21493   6.529   4.194   4.624
 6865SOL    HW121494   6.621   4.211   4.589
 6865SOL    HW221495   6.491   4.279   4.661
 6866SOL     OW21496   6.620   3.714   2.264
 6866SOL    HW121497   6.675   3.788   2.225
 6866SOL    HW221498   6.523   3.738   2.260
 6867SOL     OW21499   2.392   4.372   2.197
 6867SOL    HW121500   2.294   4.382   2.212
 6867SOL    HW221501   2.420   4.278   2.219
 6868SOL     OW21502   2.106   6.082   4.841
 6868SOL    HW121503   2.074   6.069   4.934
 6868SOL    HW221504   2.062   6.163   4.802
 6869SOL     OW21505   5.241   1.817   5.771
 6869SOL    HW121506   5.289   1.872   5.840
 6869SOL    HW221507   5.168   1.871   5.731
 6870SOL     OW21508   5.661   3.743   2.991
 6870SOL    HW121509   5.617   3.747   2.901
 6870SOL    HW221510   5.760   3.733   2.980
 6871SOL     OW21511   6.130   4.829   1.191
 6871SOL    HW121512   6.205   4.894   1.208
 6871SOL    HW221513   6.161   4.759   1.126
 6872SOL     OW21514   2.162   2.992   0.787
 6872SOL    HW121515   2.256   2.967   0.764
 6872SOL    HW221516   2.099   2.933   0.736
 6873SOL     OW21517   5.794   3.016   5.810
 6873SOL    HW121518   5.738   2.951   5.862
 6873SOL    HW221519   5.770   3.109   5.838
 6874SOL     OW21520   0.144   2.978   3.799
 6874SOL    HW121521   0.223   2.971   3.859
 6874SOL    HW221522   0.167   2.941   3.709
 6875SOL     OW21523   1.804   1.447   2.654
 6875SOL    HW121524   1.800   1.369   2.716
 6875SOL    HW221525   1.765   1.422   2.566
 6876SOL     OW21526   3.724   5.599   0.080
 6876SOL    HW121527   3.788   5.674   0.096
 6876SOL    HW221528   3.758   5.516   0.125
 6877SOL     OW21529   2.361   3.881   6.862
 6877SOL    HW121530   2.282   3.918   6.912
 6877SOL    HW221531   2.430   3.953   6.853
 6878SOL     OW21532   1.820   1.786   5.234
 6878SOL    HW121533   1.833   1.701   5.183
 6878SOL    HW221534   1.743   1.776   5.297
 6879SOL     OW21535   0.148   2.158   6.527
 6879SOL    HW121536   0.073   2.092   6.524
 6879SOL    HW221537   0.229   2.115   6.565
 6880SOL     OW21538   2.175   4.038   5.281
 6880SOL    HW121539   2.201   4.044   5.377
 6880SOL    HW221540   2.257   4.035   5.223
 6881SOL     OW21541   0.210   4.542   1.610
 6881SOL    HW121542   0.294   4.594   1.624
 6881SOL    HW221543   0.226   4.472   1.541
 6882SOL     OW21544   2.010   0.725   5.273
 6882SOL    HW121545   2.087   0.725   5.336
 6882SOL    HW221546   1.925   0.708   5.324
 6883SOL     OW21547   3.854   0.360   1.171
 6883SOL    HW121548   3.791   0.313   1.232
 6883SOL    HW221549   3.817   0.360   1.078
 6884SOL     OW21550   2.430   4.497   4.828
 6884SOL    HW121551   2.446   4.523   4.923
 6884SOL    HW221552   2.383   4.408   4.825
 6885SOL     OW21553   2.705   6.248   3.540
 6885SOL    HW121554   2.750   6.169   3.583
 6885SOL    HW221555   2.765   6.286   3.469
 6886SOL     OW21556   5.294   0.962   2.568
 6886SOL    HW121557   5.198   0.977   2.589
 6886SOL    HW221558   5.349   0.975   2.651
 6887SOL     OW21559   5.824   0.383   5.152
 6887SOL    HW121560   5.764   0.439   5.209
 6887SOL    HW221561   5.916   0.423   5.151
 6888SOL     OW21562   6.168   0.395   4.773
 6888SOL    HW121563   6.216   0.348   4.848
 6888SOL    HW221564   6.222   0.387   4.689
 6889SOL     OW21565   1.280   3.430   6.176
 6889SOL    HW121566   1.237   3.374   6.247
 6889SOL    HW221567   1.323   3.510   6.218
 6890SOL     OW21568   2.504   0.138   1.050
 6890SOL    HW121569   2.423   0.145   1.108
 6890SOL    HW221570   2.517   0.223   0.999
 6891SOL     OW21571   2.192   3.928   4.554
 6891SOL    HW121572   2.131   3.856   4.520
 6891SOL    HW221573   2.195   3.924   4.654
 6892SOL     OW21574   3.841   0.160   4.035
 6892SOL    HW121575   3.899   0.110   3.971
 6892SOL    HW221576   3.780   0.221   3.983
 6893SOL     OW21577   5.429   5.821   3.534
 6893SOL    HW121578   5.487   5.822   3.453
 6893SOL    HW221579   5.352   5.884   3.520
 6894SOL     OW21580   5.941   5.631   0.140
 6894SOL    HW121581   5.874   5.703   0.158
 6894SOL    HW221582   6.033   5.669   0.146
 6895SOL     OW21583   2.825   3.715   0.210
 6895SOL    HW121584   2.901   3.652   0.189
 6895SOL    HW221585   2.772   3.678   0.287
 6896SOL     OW21586   3.630   0.956   3.348
 6896SOL    HW121587   3.711   0.899   3.361
 6896SOL    HW221588   3.646   1.021   3.273
 6897SOL     OW21589   3.431   3.582   0.535
 6897SOL    HW121590   3.376   3.498   0.528
 6897SOL    HW221591   3.493   3.587   0.457
 6898SOL     OW21592   4.010   0.934   1.787
 6898SOL    HW121593   4.073   1.010   1.800
 6898SOL    HW221594   4.014   0.902   1.692
 6899SOL     OW21595   4.897   6.779   6.135
 6899SOL    HW121596   4.969   6.777   6.205
 6899SOL    HW221597   4.825   6.842   6.163
 6900SOL     OW21598   5.433   0.915   5.917
 6900SOL    HW121599   5.494   0.993   5.932
 6900SOL    HW221600   5.431   0.859   6.000
 6901SOL     OW21601   1.191   0.116   6.184
 6901SOL    HW121602   1.209   0.150   6.276
 6901SOL    HW221603   1.166   0.193   6.124
 6902SOL     OW21604   0.737   6.562   6.960
 6902SOL    HW121605   0.671   6.550   6.886
 6902SOL    HW221606   0.713   6.644   7.013
 6903SOL     OW21607   3.760   3.858   0.454
 6903SOL    HW121608   3.846   3.903   0.479
 6903SOL    HW221609   3.775   3.804   0.371
 6904SOL     OW21610   6.298   0.880   4.023
 6904SOL    HW121611   6.319   0.898   4.119
 6904SOL    HW221612   6.371   0.826   3.982
 6905SOL     OW21613   6.393   6.311   1.211
 6905SOL    HW121614   6.462   6.260   1.160
 6905SOL    HW221615   6.422   6.322   1.306
 6906SOL     OW21616   3.829   1.250   3.804
 6906SOL    HW121617   3.798   1.259   3.899
 6906SOL    HW221618   3.778   1.314   3.746
 6907SOL     OW21619   3.658   0.991   1.858
 6907SOL    HW121620   3.689   0.904   1.821
 6907SOL    HW221621   3.582   0.975   1.922
 6908SOL     OW21622   1.216   6.642   5.488
 6908SOL    HW121623   1.205   6.543   5.493
 6908SOL    HW221624   1.314   6.665   5.488
 6909SOL     OW21625   4.442   4.511   0.706
 6909SOL    HW121626   4.522   4.474   0.659
 6909SOL    HW221627   4.462   4.604   0.737
 6910SOL     OW21628   6.340   1.773   1.845
 6910SOL    HW121629   6.254   1.747   1.891
 6910SOL    HW221630   6.356   1.871   1.858
 6911SOL     OW21631   4.384   0.139   3.799
 6911SOL    HW121632   4.372   0.075   3.875
 6911SOL    HW221633   4.410   0.228   3.834
 6912SOL     OW21634   4.742   4.790   1.111
 6912SOL    HW121635   4.841   4.806   1.104
 6912SOL    HW221636   4.698   4.874   1.143
 6913SOL     OW21637   4.766   4.842   4.215
 6913SOL    HW121638   4.685   4.896   4.194
 6913SOL    HW221639   4.789   4.853   4.311
 6914SOL     OW21640   6.078   5.041   6.468
 6914SOL    HW121641   6.166   5.079   6.438
 6914SOL    HW221642   6.084   4.942   6.474
 6915SOL     OW21643   0.714   4.499   2.517
 6915SOL    HW121644   0.740   4.433   2.447
 6915SOL    HW221645   0.796   4.535   2.561
 6916SOL     OW21646   6.787   4.247   6.968
 6916SOL    HW121647   6.696   4.248   7.008
 6916SOL    HW221648   6.784   4.289   6.877
 6917SOL     OW21649   3.865   6.300   6.028
 6917SOL    HW121650   3.945   6.315   5.971
 6917SOL    HW221651   3.866   6.206   6.063
 6918SOL     OW21652   0.381   4.077   4.019
 6918SOL    HW121653   0.331   3.991   4.028
 6918SOL    HW221654   0.423   4.101   4.106
 6919SOL     OW21655   2.446   6.208   2.462
 6919SOL    HW121656   2.510   6.268   2.413
 6919SOL    HW221657   2.363   6.259   2.484
 6920SOL     OW21658   5.251   5.202   4.309
 6920SOL    HW121659   5.177   5.164   4.253
 6920SOL    HW221660   5.242   5.167   4.402
 6921SOL     OW21661   6.121   6.602   3.538
 6921SOL    HW121662   6.196   6.667   3.528
 6921SOL    HW221663   6.135   6.525   3.476
 6922SOL     OW21664   2.279   6.319   6.728
 6922SOL    HW121665   2.214   6.271   6.786
 6922SOL    HW221666   2.372   6.286   6.747
 6923SOL     OW21667   4.395   6.715   3.803
 6923SOL    HW121668   4.439   6.665   3.878
 6923SOL    HW221669   4.314   6.762   3.838
 6924SOL     OW21670   1.114   4.891   0.244
 6924SOL    HW121671   1.207   4.855   0.244
 6924SOL    HW221672   1.056   4.835   0.185
 6925SOL     OW21673   4.346   5.877   3.574
 6925SOL    HW121674   4.276   5.826   3.624
 6925SOL    HW221675   4.435   5.833   3.587
 6926SOL     OW21676   3.998   3.828   3.738
 6926SOL    HW121677   3.913   3.779   3.752
 6926SOL    HW221678   4.002   3.861   3.643
 6927SOL     OW21679   5.135   3.471   6.623
 6927SOL    HW121680   5.089   3.466   6.712
 6927SOL    HW221681   5.067   3.491   6.552
 6928SOL     OW21682   4.202   0.577   6.652
 6928SOL    HW121683   4.302   0.582   6.661
 6928SOL    HW221684   4.171   0.648   6.589
 6929SOL     OW21685   4.683   5.989   6.837
 6929SOL    HW121686   4.742   5.910   6.856
 6929SOL    HW221687   4.641   5.978   6.747
 6930SOL     OW21688   0.818   6.468   1.904
 6930SOL    HW121689   0.886   6.504   1.840
 6930SOL    HW221690   0.729   6.509   1.885
 6931SOL     OW21691   0.607   0.291   1.637
 6931SOL    HW121692   0.702   0.318   1.617
 6931SOL    HW221693   0.584   0.318   1.731
 6932SOL     OW21694   2.458   1.195   6.902
 6932SOL    HW121695   2.543   1.202   6.848
 6932SOL    HW221696   2.446   1.278   6.955
 6933SOL     OW21697   3.539   5.798   4.994
 6933SOL    HW121698   3.494   5.709   5.005
 6933SOL    HW221699   3.635   5.784   4.970
 6934SOL     OW21700   5.184   2.658   0.055
 6934SOL    HW121701   5.217   2.724   7.013
 6934SOL    HW221702   5.136   2.584   0.008
 6935SOL     OW21703   4.098   5.930   3.768
 6935SOL    HW121704   4.107   5.933   3.867
 6935SOL    HW221705   4.076   6.021   3.734
 6936SOL     OW21706   0.539   2.309   1.964
 6936SOL    HW121707   0.497   2.293   1.875
 6936SOL    HW221708   0.477   2.278   2.036
 6937SOL     OW21709   4.065   6.380   5.838
 6937SOL    HW121710   3.990   6.419   5.784
 6937SOL    HW221711   4.133   6.340   5.776
 6938SOL     OW21712   5.057   3.402   5.994
 6938SOL    HW121713   5.022   3.451   6.074
 6938SOL    HW221714   5.147   3.439   5.969
 6939SOL     OW21715   0.315   4.621   2.173
 6939SOL    HW121716   0.371   4.594   2.252
 6939SOL    HW221717   0.367   4.684   2.115
 6940SOL     OW21718   4.680   0.526   6.229
 6940SOL    HW121719   4.653   0.437   6.266
 6940SOL    HW221720   4.602   0.566   6.181
 6941SOL     OW21721   3.178   2.952   2.385
 6941SOL    HW121722   3.096   2.906   2.353
 6941SOL    HW221723   3.240   2.967   2.308
 6942SOL     OW21724   0.449   2.643   0.624
 6942SOL    HW121725   0.423   2.561   0.676
 6942SOL    HW221726   0.512   2.616   0.550
 6943SOL     OW21727   5.202   6.212   6.009
 6943SOL    HW121728   5.291   6.239   5.973
 6943SOL    HW221729   5.195   6.112   6.010
 6944SOL     OW21730   0.889   5.734   5.606
 6944SOL    HW121731   0.819   5.688   5.661
 6944SOL    HW221732   0.967   5.673   5.591
 6945SOL     OW21733   6.166   3.381   6.285
 6945SOL    HW121734   6.124   3.360   6.196
 6945SOL    HW221735   6.115   3.333   6.357
 6946SOL     OW21736   5.957   4.813   3.183
 6946SOL    HW121737   5.871   4.779   3.220
 6946SOL    HW221738   5.947   4.909   3.156
 6947SOL     OW21739   3.620   6.657   3.473
 6947SOL    HW121740   3.535   6.696   3.439
 6947SOL    HW221741   3.684   6.646   3.396
 6948SOL     OW21742   5.149   0.429   0.441
 6948SOL    HW121743   5.200   0.398   0.521
 6948SOL    HW221744   5.062   0.470   0.471
 6949SOL     OW21745   4.621   6.382   3.377
 6949SOL    HW121746   4.534   6.355   3.337
 6949SOL    HW221747   4.689   6.394   3.304
 6950SOL     OW21748   2.209   0.657   3.616
 6950SOL    HW121749   2.214   0.594   3.539
 6950SOL    HW221750   2.114   0.666   3.646
 6951SOL     OW21751   6.432   6.281   5.904
 6951SOL    HW121752   6.526   6.313   5.898
 6951SOL    HW221753   6.378   6.347   5.956
 6952SOL     OW21754   6.919   5.076   3.516
 6952SOL    HW121755   6.958   5.129   3.441
 6952SOL    HW221756   6.839   5.026   3.484
 6953SOL     OW21757   5.371   0.782   6.150
 6953SOL    HW121758   5.379   0.710   6.219
 6953SOL    HW221759   5.326   0.862   6.190
 6954SOL     OW21760   0.194   2.937   4.384
 6954SOL    HW121761   0.209   3.025   4.338
 6954SOL    HW221762   0.183   2.865   4.315
 6955SOL     OW21763   0.707   6.350   1.545
 6955SOL    HW121764   0.623   6.365   1.596
 6955SOL    HW221765   0.754   6.437   1.531
 6956SOL     OW21766   4.912   5.508   2.012
 6956SOL    HW121767   4.975   5.490   2.088
 6956SOL    HW221768   4.856   5.428   1.996
 6957SOL     OW21769   6.742   4.547   2.016
 6957SOL    HW121770   6.751   4.494   1.931
 6957SOL    HW221771   6.832   4.568   2.052
 6958SOL     OW21772   2.259   2.160   6.130
 6958SOL    HW121773   2.307   2.200   6.052
 6958SOL    HW221774   2.161   2.153   6.109
 6959SOL     OW21775   3.385   1.577   4.840
 6959SOL    HW121776   3.287   1.590   4.855
 6959SOL    HW221777   3.430   1.555   4.927
 6960SOL     OW21778   6.973   4.941   0.296
 6960SOL    HW121779   6.935   5.001   0.226
 6960SOL    HW221780   6.900   4.910   0.357
 6961SOL     OW21781   0.762   2.156   3.549
 6961SOL    HW121782   0.811   2.240   3.570
 6961SOL    HW221783   0.828   2.081   3.537
 6962SOL     OW21784   5.371   5.545   2.871
 6962SOL    HW121785   5.434   5.538   2.948
 6962SOL    HW221786   5.384   5.634   2.826
 6963SOL     OW21787   0.239   5.086   1.696
 6963SOL    HW121788   0.174   5.104   1.770
 6963SOL    HW221789   0.206   5.126   1.611
 6964SOL     OW21790   4.853   4.982   5.335
 6964SOL    HW121791   4.863   4.964   5.237
 6964SOL    HW221792   4.783   4.923   5.373
 6965SOL     OW21793   6.612   3.372   6.260
 6965SOL    HW121794   6.535   3.338   6.314
 6965SOL    HW221795   6.669   3.295   6.231
 6966SOL     OW21796   5.243   2.854   2.540
 6966SOL    HW121797   5.213   2.940   2.499
 6966SOL    HW221798   5.195   2.838   2.626
 6967SOL     OW21799   1.405   2.343   6.175
 6967SOL    HW121800   1.312   2.377   6.160
 6967SOL    HW221801   1.413   2.308   6.269
 6968SOL     OW21802   4.354   6.329   1.333
 6968SOL    HW121803   4.444   6.286   1.337
 6968SOL    HW221804   4.323   6.332   1.238
 6969SOL     OW21805   3.805   1.183   1.743
 6969SOL    HW121806   3.775   1.101   1.792
 6969SOL    HW221807   3.885   1.222   1.789
 6970SOL     OW21808   4.142   4.515   0.721
 6970SOL    HW121809   4.146   4.434   0.662
 6970SOL    HW221810   4.051   4.556   0.716
 6971SOL     OW21811   6.423   2.745   1.616
 6971SOL    HW121812   6.512   2.722   1.656
 6971SOL    HW221813   6.368   2.662   1.607
 6972SOL     OW21814   5.476   4.339   3.837
 6972SOL    HW121815   5.439   4.417   3.888
 6972SOL    HW221816   5.419   4.259   3.852
 6973SOL     OW21817   1.511   4.724   4.628
 6973SOL    HW121818   1.509   4.805   4.569
 6973SOL    HW221819   1.471   4.646   4.578
 6974SOL     OW21820   3.842   3.496   3.177
 6974SOL    HW121821   3.850   3.593   3.155
 6974SOL    HW221822   3.846   3.484   3.276
 6975SOL     OW21823   3.633   0.261   5.612
 6975SOL    HW121824   3.660   0.223   5.524
 6975SOL    HW221825   3.638   0.361   5.608
 6976SOL     OW21826   3.393   4.842   6.675
 6976SOL    HW121827   3.451   4.773   6.719
 6976SOL    HW221828   3.297   4.812   6.678
 6977SOL     OW21829   4.713   1.860   2.175
 6977SOL    HW121830   4.678   1.814   2.094
 6977SOL    HW221831   4.643   1.924   2.210
 6978SOL     OW21832   6.765   0.779   1.916
 6978SOL    HW121833   6.817   0.783   2.001
 6978SOL    HW221834   6.786   0.693   1.868
 6979SOL     OW21835   1.296   5.112   2.124
 6979SOL    HW121836   1.306   5.042   2.053
 6979SOL    HW221837   1.374   5.108   2.186
 6980SOL     OW21838   2.342   1.079   3.390
 6980SOL    HW121839   2.259   1.064   3.336
 6980SOL    HW221840   2.408   1.008   3.368
 6981SOL     OW21841   2.662   4.040   6.987
 6981SOL    HW121842   2.669   3.940   6.990
 6981SOL    HW221843   2.635   4.069   6.895
 6982SOL     OW21844   1.200   1.005   4.187
 6982SOL    HW121845   1.279   0.969   4.139
 6982SOL    HW221846   1.226   1.088   4.237
 6983SOL     OW21847   0.006   0.439   4.437
 6983SOL    HW121848   0.030   0.534   4.457
 6983SOL    HW221849   6.955   0.437   4.371
 6984SOL     OW21850   1.955   1.835   5.489
 6984SOL    HW121851   2.028   1.903   5.499
 6984SOL    HW221852   1.922   1.834   5.395
 6985SOL     OW21853   3.984   5.834   2.199
 6985SOL    HW121854   3.972   5.736   2.216
 6985SOL    HW221855   3.898   5.881   2.217
 6986SOL     OW21856   1.969   6.417   6.116
 6986SOL    HW121857   1.919   6.472   6.050
 6986SOL    HW221858   1.983   6.325   6.080
 6987SOL     OW21859   0.174   2.291   6.294
 6987SOL    HW121860   0.265   2.327   6.314
 6987SOL    HW221861   0.141   2.240   6.374
 6988SOL     OW21862   5.302   1.464   4.551
 6988SOL    HW121863   5.328   1.560   4.560
 6988SOL    HW221864   5.295   1.423   4.642
 6989SOL     OW21865   0.806   1.744   3.563
 6989SOL    HW121866   0.727   1.696   3.602
 6989SOL    HW221867   0.855   1.682   3.502
 6990SOL     OW21868   4.613   2.155   0.258
 6990SOL    HW121869   4.553   2.115   0.327
 6990SOL    HW221870   4.565   2.159   0.170
 6991SOL     OW21871   2.539   4.602   5.084
 6991SOL    HW121872   2.633   4.614   5.054
 6991SOL    HW221873   2.538   4.543   5.165
 6992SOL     OW21874   6.342   6.416   4.567
 6992SOL    HW121875   6.330   6.384   4.661
 6992SOL    HW221876   6.348   6.337   4.505
 6993SOL     OW21877   6.608   6.630   3.373
 6993SOL    HW121878   6.646   6.672   3.455
 6993SOL    HW221879   6.511   6.655   3.365
 6994SOL     OW21880   1.057   3.756   5.750
 6994SOL    HW121881   1.037   3.696   5.828
 6994SOL    HW221882   0.993   3.735   5.676
 6995SOL     OW21883   5.888   5.680   4.650
 6995SOL    HW121884   5.900   5.589   4.612
 6995SOL    HW221885   5.802   5.719   4.617
 6996SOL     OW21886   2.891   0.635   4.939
 6996SOL    HW121887   2.962   0.605   4.876
 6996SOL    HW221888   2.888   0.735   4.942
 6997SOL     OW21889   4.634   6.345   4.841
 6997SOL    HW121890   4.609   6.387   4.754
 6997SOL    HW221891   4.624   6.246   4.834
 6998SOL     OW21892   1.844   2.935   1.552
 6998SOL    HW121893   1.912   2.990   1.600
 6998SOL    HW221894   1.889   2.857   1.508
 6999SOL     OW21895   2.319   1.467   6.293
 6999SOL    HW121896   2.227   1.501   6.278
 6999SOL    HW221897   2.385   1.529   6.250
 7000SOL     OW21898   0.560   6.003   2.609
 7000SOL    HW121899   0.633   6.017   2.675
 7000SOL    HW221900   0.533   6.091   2.569
 7001SOL     OW21901   2.549   2.512   5.510
 7001SOL    HW121902   2.614   2.444   5.475
 7001SOL    HW221903   2.462   2.468   5.528
 7002SOL     OW21904   2.796   4.729   3.546
 7002SOL    HW121905   2.849   4.650   3.515
 7002SOL    HW221906   2.832   4.761   3.634
 7003SOL     OW21907   2.702   0.211   6.628
 7003SOL    HW121908   2.795   0.223   6.593
 7003SOL    HW221909   2.653   0.299   6.622
 7004SOL     OW21910   1.957   4.273   1.901
 7004SOL    HW121911   1.969   4.363   1.859
 7004SOL    HW221912   1.901   4.216   1.843
 7005SOL     OW21913   6.309   6.130   5.670
 7005SOL    HW121914   6.380   6.092   5.611
 7005SOL    HW221915   6.351   6.175   5.749
 7006SOL     OW21916   4.687   4.290   4.849
 7006SOL    HW121917   4.690   4.292   4.749
 7006SOL    HW221918   4.748   4.218   4.882
 7007SOL     OW21919   4.734   6.617   3.006
 7007SOL    HW121920   4.667   6.639   3.076
 7007SOL    HW221921   4.783   6.533   3.032
 7008SOL     OW21922   2.127   4.989   4.784
 7008SOL    HW121923   2.195   4.941   4.728
 7008SOL    HW221924   2.037   4.978   4.744
 7009SOL     OW21925   6.539   5.312   2.717
 7009SOL    HW121926   6.535   5.318   2.817
 7009SOL    HW221927   6.593   5.232   2.690
 7010SOL     OW21928   3.564   4.689   6.075
 7010SOL    HW121929   3.564   4.673   5.977
 7010SOL    HW221930   3.659   4.693   6.108
 7011SOL     OW21931   1.562   6.822   5.263
 7011SOL    HW121932   1.539   6.748   5.327
 7011SOL    HW221933   1.531   6.909   5.299
 7012SOL     OW21934   1.267   0.374   2.052
 7012SOL    HW121935   1.331   0.331   2.115
 7012SOL    HW221936   1.317   0.416   1.977
 7013SOL     OW21937   1.011   6.683   1.098
 7013SOL    HW121938   1.110   6.673   1.102
 7013SOL    HW221939   0.969   6.635   1.175
 7014SOL     OW21940   4.133   4.040   0.953
 7014SOL    HW121941   4.128   4.062   0.856
 7014SOL    HW221942   4.042   4.019   0.988
 7015SOL     OW21943   5.472   3.492   2.345
 7015SOL    HW121944   5.559   3.541   2.346
 7015SOL    HW221945   5.428   3.502   2.256
 7016SOL     OW21946   4.662   5.385   2.120
 7016SOL    HW121947   4.611   5.318   2.068
 7016SOL    HW221948   4.617   5.474   2.114
 7017SOL     OW21949   2.630   1.080   3.274
 7017SOL    HW121950   2.714   1.027   3.283
 7017SOL    HW221951   2.619   1.139   3.353
 7018SOL     OW21952   6.904   4.012   4.949
 7018SOL    HW121953   6.928   3.988   4.856
 7018SOL    HW221954   6.886   3.929   5.002
 7019SOL     OW21955   2.562   4.572   6.721
 7019SOL    HW121956   2.525   4.587   6.813
 7019SOL    HW221957   2.527   4.642   6.659
 7020SOL     OW21958   5.606   0.286   0.480
 7020SOL    HW121959   5.679   0.352   0.498
 7020SOL    HW221960   5.524   0.313   0.531
 7021SOL     OW21961   2.909   0.994   4.548
 7021SOL    HW121962   2.903   1.078   4.601
 7021SOL    HW221963   2.818   0.951   4.543
 7022SOL     OW21964   5.215   3.529   0.845
 7022SOL    HW121965   5.166   3.523   0.757
 7022SOL    HW221966   5.270   3.612   0.846
 7023SOL     OW21967   6.535   2.432   2.680
 7023SOL    HW121968   6.539   2.426   2.779
 7023SOL    HW221969   6.473   2.505   2.653
 7024SOL     OW21970   1.970   5.858   6.338
 7024SOL    HW121971   1.878   5.879   6.304
 7024SOL    HW221972   1.973   5.761   6.364
 7025SOL     OW21973   2.839   2.036   6.495
 7025SOL    HW121974   2.864   1.941   6.512
 7025SOL    HW221975   2.744   2.052   6.523
 7026SOL     OW21976   2.990   1.286   2.355
 7026SOL    HW121977   3.015   1.232   2.275
 7026SOL    HW221978   2.966   1.226   2.430
 7027SOL     OW21979   3.860   5.587   3.202
 7027SOL    HW121980   3.904   5.650   3.138
 7027SOL    HW221981   3.864   5.625   3.295
 7028SOL     OW21982   4.735   6.447   3.880
 7028SOL    HW121983   4.686   6.476   3.798
 7028SOL    HW221984   4.834   6.455   3.864
 7029SOL     OW21985   2.856   6.475   6.402
 7029SOL    HW121986   2.935   6.432   6.358
 7029SOL    HW221987   2.779   6.412   6.402
 7030SOL     OW21988   0.360   3.883   5.678
 7030SOL    HW121989   0.415   3.830   5.742
 7030SOL    HW221990   0.286   3.929   5.727
 7031SOL     OW21991   2.326   6.051   4.061
 7031SOL    HW121992   2.333   6.032   4.159
 7031SOL    HW221993   2.242   6.101   4.042
 7032SOL     OW21994   4.516   6.935   3.051
 7032SOL    HW121995   4.582   6.957   2.979
 7032SOL    HW221996   4.537   6.987   3.134
 7033SOL     OW21997   6.756   1.306   4.030
 7033SOL    HW121998   6.768   1.334   3.935
 7033SOL    HW221999   6.716   1.382   4.082
 7034SOL     OW22000   5.086   0.462   2.368
 7034SOL    HW122001   5.150   0.402   2.416
 7034SOL    HW222002   5.135   0.541   2.331
 7035SOL     OW22003   1.129   6.754   2.561
 7035SOL    HW122004   1.223   6.750   2.527
 7035SOL    HW222005   1.069   6.704   2.498
 7036SOL     OW22006   6.454   5.717   1.783
 7036SOL    HW122007   6.446   5.769   1.698
 7036SOL    HW222008   6.534   5.748   1.834
 7037SOL     OW22009   0.308   6.461   5.975
 7037SOL    HW122010   0.223   6.423   6.009
 7037SOL    HW222011   0.350   6.397   5.910
 7038SOL     OW22012   1.609   4.495   3.985
 7038SOL    HW122013   1.558   4.573   3.951
 7038SOL    HW222014   1.555   4.447   4.054
 7039SOL     OW22015   3.139   6.866   6.997
 7039SOL    HW122016   3.161   6.787   6.940
 7039SOL    HW222017   3.051   6.851   0.017
 7040SOL     OW22018   4.900   2.673   5.829
 7040SOL    HW122019   4.941   2.656   5.740
 7040SOL    HW222020   4.828   2.605   5.846
 7041SOL     OW22021   1.376   1.364   3.281
 7041SOL    HW122022   1.303   1.347   3.215
 7041SOL    HW222023   1.395   1.280   3.332
 7042SOL     OW22024   4.875   5.335   6.494
 7042SOL    HW122025   4.912   5.415   6.447
 7042SOL    HW222026   4.836   5.272   6.427
 7043SOL     OW22027   1.814   3.223   3.156
 7043SOL    HW122028   1.903   3.214   3.201
 7043SOL    HW222029   1.820   3.188   3.063
 7044SOL     OW22030   4.783   4.615   2.952
 7044SOL    HW122031   4.730   4.690   2.991
 7044SOL    HW222032   4.725   4.559   2.894
 7045SOL     OW22033   5.029   6.747   0.908
 7045SOL    HW122034   5.038   6.724   1.005
 7045SOL    HW222035   4.947   6.803   0.894
 7046SOL     OW22036   3.676   1.566   4.304
 7046SOL    HW122037   3.699   1.499   4.374
 7046SOL    HW222038   3.755   1.584   4.246
 7047SOL     OW22039   0.730   1.989   2.867
 7047SOL    HW122040   0.637   1.989   2.830
 7047SOL    HW222041   0.793   2.025   2.799
 7048SOL     OW22042   1.482   5.629   0.855
 7048SOL    HW122043   1.554   5.661   0.793
 7048SOL    HW222044   1.514   5.548   0.904
 7049SOL     OW22045   2.170   0.738   0.854
 7049SOL    HW122046   2.220   0.658   0.886
 7049SOL    HW222047   2.072   0.726   0.870
 7050SOL     OW22048   3.647   4.110   4.083
 7050SOL    HW122049   3.614   4.190   4.034
 7050SOL    HW222050   3.730   4.075   4.037
 7051SOL     OW22051   0.103   0.433   1.411
 7051SOL    HW122052   0.150   0.348   1.435
 7051SOL    HW222053   0.006   0.414   1.395
 7052SOL     OW22054   6.679   1.975   4.944
 7052SOL    HW122055   6.726   2.056   4.908
 7052SOL    HW222056   6.653   1.915   4.868
 7053SOL     OW22057   0.200   3.868   6.611
 7053SOL    HW122058   0.181   3.809   6.689
 7053SOL    HW222059   0.120   3.873   6.552
 7054SOL     OW22060   0.580   6.253   1.308
 7054SOL    HW122061   0.498   6.211   1.345
 7054SOL    HW222062   0.633   6.295   1.382
 7055SOL     OW22063   4.216   6.782   5.797
 7055SOL    HW122064   4.145   6.851   5.811
 7055SOL    HW222065   4.222   6.724   5.878
 7056SOL     OW22066   5.493   4.928   3.367
 7056SOL    HW122067   5.523   4.905   3.459
 7056SOL    HW222068   5.528   5.018   3.342
 7057SOL     OW22069   0.773   4.119   4.645
 7057SOL    HW122070   0.775   4.062   4.562
 7057SOL    HW222071   0.830   4.077   4.715
 7058SOL     OW22072   0.201   5.631   5.330
 7058SOL    HW122073   0.133   5.560   5.309
 7058SOL    HW222074   0.290   5.605   5.292
 7059SOL     OW22075   0.365   0.056   1.865
 7059SOL    HW122076   0.375   6.993   1.911
 7059SOL    HW222077   0.448   0.110   1.879
 7060SOL     OW22078   3.322   0.162   1.775
 7060SOL    HW122079   3.360   0.187   1.864
 7060SOL    HW222080   3.364   0.077   1.744
 7061SOL     OW22081   0.546   2.340   3.498
 7061SOL    HW122082   0.628   2.286   3.483
 7061SOL    HW222083   0.526   2.345   3.596
 7062SOL     OW22084   5.876   2.022   5.615
 7062SOL    HW122085   5.782   1.994   5.632
 7062SOL    HW222086   5.913   2.065   5.698
 7063SOL     OW22087   1.531   6.167   0.656
 7063SOL    HW122088   1.601   6.162   0.584
 7063SOL    HW222089   1.574   6.152   0.745
 7064SOL     OW22090   4.528   2.328   1.707
 7064SOL    HW122091   4.627   2.313   1.707
 7064SOL    HW222092   4.482   2.244   1.678
 7065SOL     OW22093   4.797   4.258   1.242
 7065SOL    HW122094   4.735   4.234   1.167
 7065SOL    HW222095   4.795   4.357   1.256
 7066SOL     OW22096   3.631   0.980   0.392
 7066SOL    HW122097   3.560   0.949   0.456
 7066SOL    HW222098   3.587   1.020   0.311
 7067SOL     OW22099   0.745   3.328   5.566
 7067SOL    HW122100   0.754   3.307   5.468
 7067SOL    HW222101   0.824   3.381   5.597
 7068SOL     OW22102   1.398   2.998   3.118
 7068SOL    HW122103   1.299   3.006   3.112
 7068SOL    HW222104   1.440   3.067   3.058
 7069SOL     OW22105   6.056   3.913   4.822
 7069SOL    HW122106   6.074   4.011   4.830
 7069SOL    HW222107   6.082   3.881   4.731
 7070SOL     OW22108   6.626   5.386   5.190
 7070SOL    HW122109   6.665   5.444   5.118
 7070SOL    HW222110   6.533   5.361   5.165
 7071SOL     OW22111   0.817   6.183   5.446
 7071SOL    HW122112   0.802   6.153   5.540
 7071SOL    HW222113   0.734   6.169   5.393
 7072SOL     OW22114   0.084   6.940   5.915
 7072SOL    HW122115   0.006   6.901   5.865
 7072SOL    HW222116   0.160   6.876   5.913
 7073SOL     OW22117   6.720   0.844   4.768
 7073SOL    HW122118   6.723   0.893   4.856
 7073SOL    HW222119   6.812   0.817   4.741
 7074SOL     OW22120   3.685   3.235   2.181
 7074SOL    HW122121   3.696   3.298   2.104
 7074SOL    HW222122   3.599   3.254   2.228
 7075SOL     OW22123   1.387   6.149   4.483
 7075SOL    HW122124   1.326   6.166   4.406
 7075SOL    HW222125   1.464   6.093   4.452
 7076SOL     OW22126   3.493   1.807   6.884
 7076SOL    HW122127   3.460   1.729   6.831
 7076SOL    HW222128   3.420   1.875   6.894
 7077SOL     OW22129   2.333   5.854   5.437
 7077SOL    HW122130   2.314   5.848   5.339
 7077SOL    HW222131   2.246   5.858   5.487
 7078SOL     OW22132   5.962   0.296   2.918
 7078SOL    HW122133   6.052   0.321   2.884
 7078SOL    HW222134   5.897   0.293   2.843
 7079SOL     OW22135   6.659   6.410   5.878
 7079SOL    HW122136   6.725   6.446   5.944
 7079SOL    HW222137   6.706   6.390   5.792
 7080SOL     OW22138   3.837   2.135   3.825
 7080SOL    HW122139   3.899   2.066   3.787
 7080SOL    HW222140   3.760   2.090   3.870
 7081SOL     OW22141   3.799   1.319   5.355
 7081SOL    HW122142   3.827   1.406   5.394
 7081SOL    HW222143   3.776   1.332   5.258
 7082SOL     OW22144   5.356   6.860   0.508
 7082SOL    HW122145   5.366   6.803   0.590
 7082SOL    HW222146   5.445   6.899   0.483
 7083SOL     OW22147   3.058   1.140   6.266
 7083SOL    HW122148   3.019   1.199   6.195
 7083SOL    HW222149   2.989   1.121   6.336
 7084SOL     OW22150   0.253   6.578   5.342
 7084SOL    HW122151   0.308   6.655   5.311
 7084SOL    HW222152   0.182   6.610   5.405
 7085SOL     OW22153   1.908   1.713   2.948
 7085SOL    HW122154   1.920   1.725   3.047
 7085SOL    HW222155   1.811   1.715   2.926
 7086SOL     OW22156   5.377   1.252   6.037
 7086SOL    HW122157   5.465   1.205   6.024
 7086SOL    HW222158   5.390   1.331   6.096
 7087SOL     OW22159   0.756   2.913   4.718
 7087SOL    HW122160   0.807   2.997   4.736
 7087SOL    HW222161   0.801   2.861   4.647
 7088SOL     OW22162   4.745   2.682   4.095
 7088SOL    HW122163   4.736   2.722   4.004
 7088SOL    HW222164   4.669   2.619   4.111
 7089SOL     OW22165   2.976   2.710   6.340
 7089SOL    HW122166   2.891   2.660   6.357
 7089SOL    HW222167   3.033   2.660   6.275
 7090SOL     OW22168   2.178   1.516   5.919
 7090SOL    HW122169   2.092   1.478   5.953
 7090SOL    HW222170   2.179   1.514   5.819
 7091SOL     OW22171   0.239   1.532   6.477
 7091SOL    HW122172   0.252   1.442   6.518
 7091SOL    HW222173   0.154   1.572   6.511
 7092SOL     OW22174   4.363   3.279   0.366
 7092SOL    HW122175   4.325   3.187   0.378
 7092SOL    HW222176   4.361   3.303   0.269
 7093SOL     OW22177   3.564   3.712   4.201
 7093SOL    HW122178   3.590   3.700   4.105
 7093SOL    HW222179   3.645   3.731   4.256
 7094SOL     OW22180   0.798   6.399   5.635
 7094SOL    HW122181   0.839   6.353   5.556
 7094SOL    HW222182   0.788   6.497   5.614
 7095SOL     OW22183   2.671   2.571   0.012
 7095SOL    HW122184   2.625   2.627   6.967
 7095SOL    HW222185   2.620   2.575   0.097
 7096SOL     OW22186   5.539   1.833   3.573
 7096SOL    HW122187   5.613   1.824   3.640
 7096SOL    HW222188   5.575   1.873   3.489
 7097SOL     OW22189   6.828   0.517   1.789
 7097SOL    HW122190   6.751   0.536   1.728
 7097SOL    HW222191   6.914   0.531   1.739
 7098SOL     OW22192   1.351   5.839   4.928
 7098SOL    HW122193   1.329   5.756   4.876
 7098SOL    HW222194   1.377   5.912   4.865
 7099SOL     OW22195   1.538   1.055   4.940
 7099SOL    HW122196   1.572   1.149   4.936
 7099SOL    HW222197   1.615   0.993   4.958
 7100SOL     OW22198   5.512   3.697   1.058
 7100SOL    HW122199   5.460   3.665   1.137
 7100SOL    HW222200   5.586   3.632   1.040
 7101SOL     OW22201   3.029   0.587   4.366
 7101SOL    HW122202   2.944   0.622   4.406
 7101SOL    HW222203   3.073   0.660   4.314
 7102SOL     OW22204   4.557   0.947   0.736
 7102SOL    HW122205   4.570   1.043   0.760
 7102SOL    HW222206   4.462   0.931   0.711
 7103SOL     OW22207   4.199   5.415   0.178
 7103SOL    HW122208   4.227   5.478   0.105
 7103SOL    HW222209   4.280   5.373   0.219
 7104SOL     OW22210   1.331   3.518   4.258
 7104SOL    HW122211   1.335   3.425   4.293
 7104SOL    HW222212   1.419   3.563   4.273
 7105SOL     OW22213   3.531   3.001   5.468
 7105SOL    HW122214   3.476   3.065   5.522
 7105SOL    HW222215   3.564   3.047   5.386
 7106SOL     OW22216   3.482   3.213   3.412
 7106SOL    HW122217   3.406   3.160   3.377
 7106SOL    HW222218   3.568   3.168   3.388
 7107SOL     OW22219   2.674   1.094   0.783
 7107SOL    HW122220   2.695   1.014   0.726
 7107SOL    HW222221   2.653   1.172   0.724
 7108SOL     OW22222   4.643   6.662   1.005
 7108SOL    HW122223   4.549   6.671   0.974
 7108SOL    HW222224   4.683   6.753   1.015
 7109SOL     OW22225   3.422   0.126   6.278
 7109SOL    HW122226   3.333   0.143   6.318
 7109SOL    HW222227   3.422   0.037   6.233
 7110SOL     OW22228   5.495   5.280   3.917
 7110SOL    HW122229   5.504   5.341   3.838
 7110SOL    HW222230   5.402   5.286   3.953
 7111SOL     OW22231   0.964   3.091   4.768
 7111SOL    HW122232   1.013   3.177   4.783
 7111SOL    HW222233   0.969   3.066   4.672
 7112SOL     OW22234   1.644   5.322   4.381
 7112SOL    HW122235   1.633   5.257   4.306
 7112SOL    HW222236   1.696   5.279   4.455
 7113SOL     OW22237   3.574   4.094   4.446
 7113SOL    HW122238   3.520   4.018   4.410
 7113SOL    HW222239   3.562   4.174   4.388
 7114SOL     OW22240   4.097   0.208   1.615
 7114SOL    HW122241   4.114   0.289   1.670
 7114SOL    HW222242   4.154   0.209   1.533
 7115SOL     OW22243   5.318   2.260   1.701
 7115SOL    HW122244   5.268   2.222   1.624
 7115SOL    HW222245   5.257   2.318   1.756
 7116SOL     OW22246   5.557   3.812   3.380
 7116SOL    HW122247   5.558   3.870   3.462
 7116SOL    HW222248   5.517   3.863   3.304
 7117SOL     OW22249   0.157   6.880   4.198
 7117SOL    HW122250   0.210   6.797   4.219
 7117SOL    HW222251   0.111   6.912   4.281
 7118SOL     OW22252   5.013   2.870   0.844
 7118SOL    HW122253   4.995   2.835   0.752
 7118SOL    HW222254   5.085   2.816   0.887
 7119SOL     OW22255   4.924   1.290   3.185
 7119SOL    HW122256   4.972   1.339   3.113
 7119SOL    HW222257   4.988   1.230   3.233
 7120SOL     OW22258   3.942   1.698   2.361
 7120SOL    HW122259   3.960   1.763   2.287
 7120SOL    HW222260   3.865   1.640   2.335
 7121SOL     OW22261   2.038   0.366   3.262
 7121SOL    HW122262   1.947   0.326   3.275
 7121SOL    HW222263   2.050   0.390   3.165
 7122SOL     OW22264   6.718   0.458   0.058
 7122SOL    HW122265   6.706   0.458   6.983
 7122SOL    HW222266   6.659   0.388   0.098
 7123SOL     OW22267   3.202   5.454   1.299
 7123SOL    HW122268   3.192   5.410   1.388
 7123SOL    HW222269   3.236   5.388   1.232
 7124SOL     OW22270   1.069   4.487   0.594
 7124SOL    HW122271   1.150   4.544   0.582
 7124SOL    HW222272   1.096   4.390   0.593
 7125SOL     OW22273   6.532   6.132   1.084
 7125SOL    HW122274   6.539   6.133   0.984
 7125SOL    HW222275   6.573   6.048   1.120
 7126SOL     OW22276   2.643   3.975   0.792
 7126SOL    HW122277   2.668   3.894   0.845
 7126SOL    HW222278   2.549   4.001   0.813
 7127SOL     OW22279   2.775   5.294   4.291
 7127SOL    HW122280   2.763   5.202   4.327
 7127SOL    HW222281   2.830   5.291   4.208
 7128SOL     OW22282   2.989   4.431   0.288
 7128SOL    HW122283   2.990   4.338   0.326
 7128SOL    HW222284   2.896   4.455   0.262
 7129SOL     OW22285   3.118   0.959   0.982
 7129SOL    HW122286   3.215   0.962   0.961
 7129SOL    HW222287   3.099   1.014   1.063
 7130SOL     OW22288   3.025   5.006   4.458
 7130SOL    HW122289   2.997   4.954   4.539
 7130SOL    HW222290   3.056   5.097   4.486
 7131SOL     OW22291   2.406   1.488   0.553
 7131SOL    HW122292   2.348   1.435   0.614
 7131SOL    HW222293   2.381   1.585   0.559
 7132SOL     OW22294   4.061   3.739   2.335
 7132SOL    HW122295   3.983   3.684   2.307
 7132SOL    HW222296   4.139   3.719   2.274
 7133SOL     OW22297   5.249   4.641   3.381
 7133SOL    HW122298   5.257   4.713   3.311
 7133SOL    HW222299   5.164   4.653   3.431
 7134SOL     OW22300   6.186   5.879   3.768
 7134SOL    HW122301   6.088   5.873   3.784
 7134SOL    HW222302   6.205   5.869   3.671
 7135SOL     OW22303   1.097   1.361   3.849
 7135SOL    HW122304   1.109   1.274   3.897
 7135SOL    HW222305   1.091   1.345   3.751
 7136SOL     OW22306   1.752   1.643   0.693
 7136SOL    HW122307   1.814   1.597   0.757
 7136SOL    HW222308   1.777   1.619   0.600
 7137SOL     OW22309   4.188   1.426   4.612
 7137SOL    HW122310   4.250   1.504   4.604
 7137SOL    HW222311   4.240   1.344   4.637
 7138SOL     OW22312   2.764   2.820   1.225
 7138SOL    HW122313   2.736   2.905   1.270
 7138SOL    HW222314   2.763   2.833   1.126
 7139SOL     OW22315   4.912   3.246   2.100
 7139SOL    HW122316   4.864   3.161   2.084
 7139SOL    HW222317   4.931   3.292   2.013
 7140SOL     OW22318   5.942   3.264   5.147
 7140SOL    HW122319   5.985   3.345   5.107
 7140SOL    HW222320   5.931   3.278   5.245
 7141SOL     OW22321   3.323   0.212   1.043
 7141SOL    HW122322   3.249   0.250   1.098
 7141SOL    HW222323   3.332   0.265   0.958
 7142SOL     OW22324   4.107   6.747   3.393
 7142SOL    HW122325   4.092   6.822   3.329
 7142SOL    HW222326   4.117   6.661   3.342
 7143SOL     OW22327   1.594   3.138   6.215
 7143SOL    HW122328   1.500   3.107   6.229
 7143SOL    HW222329   1.598   3.200   6.137
 7144SOL     OW22330   0.937   0.871   3.256
 7144SOL    HW122331   0.857   0.816   3.280
 7144SOL    HW222332   1.008   0.813   3.219
 7145SOL     OW22333   3.714   6.258   6.347
 7145SOL    HW122334   3.697   6.355   6.335
 7145SOL    HW222335   3.638   6.205   6.308
 7146SOL     OW22336   2.027   0.210   0.305
 7146SOL    HW122337   1.984   0.166   0.226
 7146SOL    HW222338   1.983   0.298   0.324
 7147SOL     OW22339   6.136   0.274   3.856
 7147SOL    HW122340   6.082   0.212   3.801
 7147SOL    HW222341   6.233   0.259   3.838
 7148SOL     OW22342   1.040   5.734   1.735
 7148SOL    HW122343   1.022   5.818   1.685
 7148SOL    HW222344   0.978   5.727   1.813
 7149SOL     OW22345   0.099   0.469   3.398
 7149SOL    HW122346   0.176   0.409   3.376
 7149SOL    HW222347   0.048   0.490   3.315
 7150SOL     OW22348   5.003   3.209   1.494
 7150SOL    HW122349   4.943   3.150   1.548
 7150SOL    HW222350   4.970   3.213   1.399
 7151SOL     OW22351   1.234   5.301   1.072
 7151SOL    HW122352   1.208   5.205   1.081
 7151SOL    HW222353   1.256   5.321   0.977
 7152SOL     OW22354   0.322   2.814   5.835
 7152SOL    HW122355   0.388   2.739   5.831
 7152SOL    HW222356   0.233   2.778   5.863
 7153SOL     OW22357   3.644   6.316   4.892
 7153SOL    HW122358   3.723   6.336   4.835
 7153SOL    HW222359   3.654   6.225   4.932
 7154SOL     OW22360   4.043   5.623   4.711
 7154SOL    HW122361   3.990   5.645   4.629
 7154SOL    HW222362   4.121   5.566   4.685
 7155SOL     OW22363   1.781   6.070   1.642
 7155SOL    HW122364   1.833   6.155   1.651
 7155SOL    HW222365   1.735   6.069   1.553
 7156SOL     OW22366   0.612   4.997   4.517
 7156SOL    HW122367   0.577   4.907   4.491
 7156SOL    HW222368   0.653   4.992   4.608
 7157SOL     OW22369   6.295   5.275   0.901
 7157SOL    HW122370   6.367   5.317   0.956
 7157SOL    HW222371   6.230   5.346   0.871
 7158SOL     OW22372   0.395   7.009   3.599
 7158SOL    HW122373   0.311   7.012   3.653
 7158SOL    HW222374   0.371   7.014   3.502
 7159SOL     OW22375   0.324   4.383   2.033
 7159SOL    HW122376   0.349   4.315   2.102
 7159SOL    HW222377   0.306   4.470   2.077
 7160SOL     OW22378   6.762   0.669   2.689
 7160SOL    HW122379   6.757   0.615   2.773
 7160SOL    HW222380   6.764   0.608   2.610
 7161SOL     OW22381   3.227   4.080   4.192
 7161SOL    HW122382   3.168   4.058   4.115
 7161SOL    HW222383   3.174   4.131   4.261
 7162SOL     OW22384   3.004   5.797   5.637
 7162SOL    HW122385   2.986   5.712   5.587
 7162SOL    HW222386   2.918   5.847   5.649
 7163SOL     OW22387   3.659   0.003   4.174
 7163SOL    HW122388   3.718   0.061   4.118
 7163SOL    HW222389   3.657   0.038   4.268
 7164SOL     OW22390   1.329   1.978   2.863
 7164SOL    HW122391   1.368   2.042   2.929
 7164SOL    HW222392   1.230   1.971   2.877
 7165SOL     OW22393   5.992   0.571   0.997
 7165SOL    HW122394   5.910   0.514   1.001
 7165SOL    HW222395   5.966   0.667   1.004
 7166SOL     OW22396   5.254   4.436   1.281
 7166SOL    HW122397   5.283   4.349   1.322
 7166SOL    HW222398   5.235   4.422   1.184
 7167SOL     OW22399   5.002   3.907   4.904
 7167SOL    HW122400   5.087   3.958   4.892
 7167SOL    HW222401   4.986   3.850   4.823
 7168SOL     OW22402   1.264   1.954   4.282
 7168SOL    HW122403   1.358   1.982   4.304
 7168SOL    HW222404   1.245   1.865   4.323
 7169SOL     OW22405   1.478   3.221   5.231
 7169SOL    HW122406   1.513   3.250   5.320
 7169SOL    HW222407   1.433   3.298   5.186
 7170SOL     OW22408   4.358   5.092   3.312
 7170SOL    HW122409   4.304   5.008   3.321
 7170SOL    HW222410   4.342   5.132   3.222
 7171SOL     OW22411   5.872   3.717   6.195
 7171SOL    HW122412   5.792   3.680   6.242
 7171SOL    HW222413   5.874   3.683   6.101
 7172SOL     OW22414   1.508   0.001   6.694
 7172SOL    HW122415   1.573   0.037   6.762
 7172SOL    HW222416   1.555   6.962   6.634
 7173SOL     OW22417   0.297   4.647   5.150
 7173SOL    HW122418   0.244   4.583   5.205
 7173SOL    HW222419   0.238   4.687   5.080
 7174SOL     OW22420   1.207   5.435   6.831
 7174SOL    HW122421   1.198   5.492   6.913
 7174SOL    HW222422   1.231   5.493   6.753
 7175SOL     OW22423   5.486   2.900   0.989
 7175SOL    HW122424   5.417   2.971   0.973
 7175SOL    HW222425   5.537   2.883   0.905
 7176SOL     OW22426   0.568   5.405   2.688
 7176SOL    HW122427   0.548   5.332   2.754
 7176SOL    HW222428   0.524   5.384   2.601
 7177SOL     OW22429   1.831   6.240   3.994
 7177SOL    HW122430   1.859   6.296   4.072
 7177SOL    HW222431   1.859   6.285   3.909
 7178SOL     OW22432   2.187   2.437   5.939
 7178SOL    HW122433   2.278   2.402   5.917
 7178SOL    HW222434   2.193   2.536   5.955
 7179SOL     OW22435   2.054   3.154   5.805
 7179SOL    HW122436   1.968   3.205   5.798
 7179SOL    HW222437   2.042   3.078   5.868
 7180SOL     OW22438   1.090   5.276   6.062
 7180SOL    HW122439   1.106   5.366   6.104
 7180SOL    HW222440   0.993   5.265   6.044
 7181SOL     OW22441   3.726   0.159   0.556
 7181SOL    HW122442   3.808   0.137   0.608
 7181SOL    HW222443   3.674   0.076   0.539
 7182SOL     OW22444   1.648   3.491   5.666
 7182SOL    HW122445   1.620   3.524   5.757
 7182SOL    HW222446   1.713   3.556   5.626
 7183SOL     OW22447   1.804   4.966   2.526
 7183SOL    HW122448   1.851   5.027   2.590
 7183SOL    HW222449   1.851   4.878   2.522
 7184SOL     OW22450   0.357   0.017   3.316
 7184SOL    HW122451   0.334   0.111   3.293
 7184SOL    HW222452   0.385   6.993   3.234
 7185SOL     OW22453   5.159   2.597   6.396
 7185SOL    HW122454   5.179   2.631   6.304
 7185SOL    HW222455   5.226   2.635   6.460
 7186SOL     OW22456   0.035   6.995   5.271
 7186SOL    HW122457   7.009   6.957   5.348
 7186SOL    HW222458   0.110   0.027   5.305
 7187SOL     OW22459   1.758   4.620   1.715
 7187SOL    HW122460   1.731   4.652   1.806
 7187SOL    HW222461   1.677   4.616   1.656
 7188SOL     OW22462   5.862   7.014   0.792
 7188SOL    HW122463   5.774   0.015   0.831
 7188SOL    HW222464   5.923   6.982   0.865
 7189SOL     OW22465   6.417   1.410   6.607
 7189SOL    HW122466   6.400   1.460   6.692
 7189SOL    HW222467   6.515   1.390   6.600
 7190SOL     OW22468   5.186   3.620   3.548
 7190SOL    HW122469   5.135   3.626   3.462
 7190SOL    HW222470   5.283   3.632   3.530
 7191SOL     OW22471   0.414   3.698   2.724
 7191SOL    HW122472   0.360   3.754   2.661
 7191SOL    HW222473   0.415   3.740   2.814
 7192SOL     OW22474   2.152   6.339   5.375
 7192SOL    HW122475   2.148   6.435   5.403
 7192SOL    HW222476   2.168   6.334   5.276
 7193SOL     OW22477   2.947   2.281   3.772
 7193SOL    HW122478   2.899   2.323   3.848
 7193SOL    HW222479   2.998   2.201   3.804
 7194SOL     OW22480   2.294   1.766   1.180
 7194SOL    HW122481   2.279   1.768   1.279
 7194SOL    HW222482   2.391   1.783   1.161
 7195SOL     OW22483   0.205   4.984   0.220
 7195SOL    HW122484   0.116   4.970   0.262
 7195SOL    HW222485   0.203   4.948   0.126
 7196SOL     OW22486   3.029   3.202   2.651
 7196SOL    HW122487   3.068   3.110   2.657
 7196SOL    HW222488   3.047   3.240   2.560
 7197SOL     OW22489   6.494   2.545   5.944
 7197SOL    HW122490   6.558   2.590   6.007
 7197SOL    HW222491   6.454   2.612   5.882
 7198SOL     OW22492   1.226   0.248   5.882
 7198SOL    HW122493   1.185   0.159   5.865
 7198SOL    HW222494   1.166   0.301   5.943
 7199SOL     OW22495   1.280   0.842   2.207
 7199SOL    HW122496   1.183   0.828   2.231
 7199SOL    HW222497   1.319   0.912   2.267
 7200SOL     OW22498   2.596   0.393   0.087
 7200SOL    HW122499   2.544   0.461   0.139
 7200SOL    HW222500   2.567   0.301   0.114
 7201SOL     OW22501   1.824   5.292   3.125
 7201SOL    HW122502   1.776   5.206   3.110
 7201SOL    HW222503   1.855   5.297   3.220
 7202SOL     OW22504   3.951   0.163   6.403
 7202SOL    HW122505   3.857   0.184   6.375
 7202SOL    HW222506   4.015   0.208   6.340
 7203SOL     OW22507   5.858   0.862   0.704
 7203SOL    HW122508   5.923   0.861   0.779
 7203SOL    HW222509   5.904   0.887   0.619
 7204SOL     OW22510   6.202   6.772   4.300
 7204SOL    HW122511   6.110   6.804   4.280
 7204SOL    HW222512   6.220   6.781   4.398
 7205SOL     OW22513   1.478   5.953   2.942
 7205SOL    HW122514   1.537   5.881   2.903
 7205SOL    HW222515   1.408   5.979   2.876
 7206SOL     OW22516   0.523   1.082   1.300
 7206SOL    HW122517   0.553   1.061   1.393
 7206SOL    HW222518   0.446   1.023   1.275
 7207SOL     OW22519   3.851   0.190   1.385
 7207SOL    HW122520   3.798   0.122   1.435
 7207SOL    HW222521   3.931   0.217   1.439
 7208SOL     OW22522   3.826   6.689   4.207
 7208SOL    HW122523   3.783   6.730   4.127
 7208SOL    HW222524   3.797   6.738   4.290
 7209SOL     OW22525   2.921   3.668   3.533
 7209SOL    HW122526   2.900   3.571   3.527
 7209SOL    HW222527   2.872   3.717   3.461
 7210SOL     OW22528   5.101   1.315   3.557
 7210SOL    HW122529   5.010   1.291   3.591
 7210SOL    HW222530   5.096   1.402   3.508
 7211SOL     OW22531   1.221   6.024   3.338
 7211SOL    HW122532   1.197   6.033   3.434
 7211SOL    HW222533   1.298   6.085   3.317
 7212SOL     OW22534   0.730   5.787   4.216
 7212SOL    HW122535   0.638   5.768   4.249
 7212SOL    HW222536   0.728   5.803   4.117
 7213SOL     OW22537   5.456   6.715   5.064
 7213SOL    HW122538   5.372   6.681   5.106
 7213SOL    HW222539   5.481   6.657   4.986
 7214SOL     OW22540   2.303   5.350   4.548
 7214SOL    HW122541   2.370   5.279   4.527
 7214SOL    HW222542   2.288   5.355   4.646
 7215SOL     OW22543   0.622   3.330   4.769
 7215SOL    HW122544   0.685   3.305   4.843
 7215SOL    HW222545   0.671   3.330   4.682
 7216SOL     OW22546   3.163   5.210   0.220
 7216SOL    HW122547   3.113   5.194   0.135
 7216SOL    HW222548   3.134   5.144   0.289
 7217SOL     OW22549   1.609   4.748   1.914
 7217SOL    HW122550   1.543   4.694   1.966
 7217SOL    HW222551   1.638   4.827   1.969
 7218SOL     OW22552   4.684   2.649   5.542
 7218SOL    HW122553   4.632   2.687   5.619
 7218SOL    HW222554   4.744   2.720   5.505
 7219SOL     OW22555   4.355   6.494   3.155
 7219SOL    HW122556   4.394   6.467   3.066
 7219SOL    HW222557   4.408   6.571   3.192
 7220SOL     OW22558   6.554   6.940   3.550
 7220SOL    HW122559   6.516   6.926   3.642
 7220SOL    HW222560   6.654   6.944   3.556
 7221SOL     OW22561   5.543   4.805   5.339
 7221SOL    HW122562   5.451   4.843   5.330
 7221SOL    HW222563   5.609   4.867   5.298
 7222SOL     OW22564   6.454   6.232   0.631
 7222SOL    HW122565   6.535   6.228   0.689
 7222SOL    HW222566   6.476   6.278   0.545
 7223SOL     OW22567   3.090   1.873   1.178
 7223SOL    HW122568   3.182   1.842   1.154
 7223SOL    HW222569   3.079   1.872   1.277
 7224SOL     OW22570   5.689   2.123   4.675
 7224SOL    HW122571   5.695   2.198   4.608
 7224SOL    HW222572   5.598   2.081   4.668
 7225SOL     OW22573   1.674   5.523   6.761
 7225SOL    HW122574   1.664   5.424   6.751
 7225SOL    HW222575   1.684   5.565   6.671
 7226SOL     OW22576   0.281   0.258   0.632
 7226SOL    HW122577   0.370   0.298   0.607
 7226SOL    HW222578   0.248   0.303   0.715
 7227SOL     OW22579   0.723   2.452   6.990
 7227SOL    HW122580   0.805   2.476   0.017
 7227SOL    HW222581   0.658   2.404   0.024
 7228SOL     OW22582   0.241   0.259   1.744
 7228SOL    HW122583   0.301   0.189   1.783
 7228SOL    HW222584   0.147   0.242   1.774
 7229SOL     OW22585   0.884   0.257   3.959
 7229SOL    HW122586   0.906   0.304   4.044
 7229SOL    HW222587   0.948   0.286   3.888
 7230SOL     OW22588   4.271   5.268   4.701
 7230SOL    HW122589   4.227   5.303   4.618
 7230SOL    HW222590   4.248   5.171   4.713
 7231SOL     OW22591   4.695   1.226   6.786
 7231SOL    HW122592   4.789   1.209   6.758
 7231SOL    HW222593   4.683   1.203   6.882
 7232SOL     OW22594   3.995   5.141   3.113
 7232SOL    HW122595   4.093   5.151   3.094
 7232SOL    HW222596   3.969   5.205   3.185
 7233SOL     OW22597   0.529   2.872   5.029
 7233SOL    HW122598   0.466   2.795   5.041
 7233SOL    HW222599   0.622   2.838   5.013
 7234SOL     OW22600   5.696   2.663   1.963
 7234SOL    HW122601   5.701   2.758   1.996
 7234SOL    HW222602   5.748   2.654   1.878
 7235SOL     OW22603   6.371   3.830   4.143
 7235SOL    HW122604   6.469   3.827   4.125
 7235SOL    HW222605   6.336   3.736   4.151
 7236SOL     OW22606   3.514   1.898   3.287
 7236SOL    HW122607   3.435   1.910   3.226
 7236SOL    HW222608   3.522   1.977   3.347
 7237SOL     OW22609   6.764   6.384   5.295
 7237SOL    HW122610   6.859   6.365   5.321
 7237SOL    HW222611   6.763   6.438   5.211
 7238SOL     OW22612   2.567   1.218   1.954
 7238SOL    HW122613   2.630   1.141   1.941
 7238SOL    HW222614   2.487   1.207   1.895
 7239SOL     OW22615   1.739   1.659   3.520
 7239SOL    HW122616   1.830   1.650   3.561
 7239SOL    HW222617   1.725   1.584   3.455
 7240SOL     OW22618   3.100   4.412   0.704
 7240SOL    HW122619   3.047   4.359   0.770
 7240SOL    HW222620   3.056   4.406   0.614
 7241SOL     OW22621   3.548   0.461   5.965
 7241SOL    HW122622   3.592   0.524   6.029
 7241SOL    HW222623   3.566   0.367   5.992
 7242SOL     OW22624   5.764   4.382   0.016
 7242SOL    HW122625   5.850   4.345   7.005
 7242SOL    HW222626   5.705   4.410   6.965
 7243SOL     OW22627   1.261   4.838   6.519
 7243SOL    HW122628   1.359   4.854   6.528
 7243SOL    HW222629   1.233   4.857   6.425
 7244SOL     OW22630   4.923   1.408   0.503
 7244SOL    HW122631   4.868   1.328   0.525
 7244SOL    HW222632   5.011   1.402   0.551
 7245SOL     OW22633   0.133   2.742   5.129
 7245SOL    HW122634   0.079   2.825   5.110
 7245SOL    HW222635   0.086   2.686   5.196
 7246SOL     OW22636   6.784   6.860   5.011
 7246SOL    HW122637   6.800   6.951   5.050
 7246SOL    HW222638   6.699   6.861   4.957
 7247SOL     OW22639   2.750   6.281   2.038
 7247SOL    HW122640   2.754   6.328   2.127
 7247SOL    HW222641   2.738   6.183   2.052
 7248SOL     OW22642   3.601   1.026   3.942
 7248SOL    HW122643   3.637   1.108   3.986
 7248SOL    HW222644   3.671   0.986   3.883
 7249SOL     OW22645   5.572   4.358   0.974
 7249SOL    HW122646   5.621   4.392   0.894
 7249SOL    HW222647   5.629   4.371   1.055
 7250SOL     OW22648   2.448   4.782   6.587
 7250SOL    HW122649   2.462   4.852   6.657
 7250SOL    HW222650   2.519   4.792   6.516
 7251SOL     OW22651   6.404   6.666   5.383
 7251SOL    HW122652   6.413   6.582   5.330
 7251SOL    HW222653   6.338   6.653   5.456
 7252SOL     OW22654   3.209   3.290   4.722
 7252SOL    HW122655   3.117   3.282   4.683
 7252SOL    HW222656   3.243   3.383   4.710
 7253SOL     OW22657   1.957   5.798   0.594
 7253SOL    HW122658   1.888   5.813   0.664
 7253SOL    HW222659   1.941   5.710   0.550
 7254SOL     OW22660   3.438   5.219   4.142
 7254SOL    HW122661   3.364   5.241   4.205
 7254SOL    HW222662   3.497   5.149   4.184
 7255SOL     OW22663   2.909   2.901   1.706
 7255SOL    HW122664   2.976   2.918   1.779
 7255SOL    HW222665   2.955   2.905   1.617
 7256SOL     OW22666   4.256   4.942   4.719
 7256SOL    HW122667   4.345   4.974   4.686
 7256SOL    HW222668   4.266   4.901   4.809
 7257SOL     OW22669   6.198   2.506   3.173
 7257SOL    HW122670   6.219   2.519   3.076
 7257SOL    HW222671   6.281   2.519   3.227
 7258SOL     OW22672   4.134   0.515   4.483
 7258SOL    HW122673   4.141   0.515   4.383
 7258SOL    HW222674   4.155   0.607   4.517
 7259SOL     OW22675   2.682   3.769   7.003
 7259SOL    HW122676   2.597   3.716   7.008
 7259SOL    HW222677   2.748   3.733   0.045
 7260SOL     OW22678   3.462   2.126   2.864
 7260SOL    HW122679   3.363   2.112   2.875
 7260SOL    HW222680   3.486   2.119   2.768
 7261SOL     OW22681   2.308   3.375   1.646
 7261SOL    HW122682   2.402   3.378   1.614
 7261SOL    HW222683   2.298   3.432   1.728
 7262SOL     OW22684   5.687   2.378   4.531
 7262SOL    HW122685   5.744   2.404   4.453
 7262SOL    HW222686   5.693   2.448   4.602
 7263SOL     OW22687   1.407   5.700   1.578
 7263SOL    HW122688   1.424   5.605   1.603
 7263SOL    HW222689   1.323   5.706   1.523
 7264SOL     OW22690   6.824   1.092   6.757
 7264SOL    HW122691   6.852   1.124   6.848
 7264SOL    HW222692   6.882   1.015   6.730
 7265SOL     OW22693   5.294   5.240   6.142
 7265SOL    HW122694   5.280   5.149   6.105
 7265SOL    HW222695   5.390   5.253   6.166
 7266SOL     OW22696   5.196   0.511   1.395
 7266SOL    HW122697   5.128   0.449   1.356
 7266SOL    HW222698   5.193   0.505   1.495
 7267SOL     OW22699   6.997   3.953   4.705
 7267SOL    HW122700   0.033   4.027   4.677
 7267SOL    HW222701   6.923   3.944   4.638
 7268SOL     OW22702   4.219   5.965   1.814
 7268SOL    HW122703   4.237   5.891   1.749
 7268SOL    HW222704   4.305   6.007   1.841
 7269SOL     OW22705   0.740   5.479   1.883
 7269SOL    HW122706   0.656   5.501   1.933
 7269SOL    HW222707   0.812   5.543   1.910
 7270SOL     OW22708   2.036   1.715   3.365
 7270SOL    HW122709   1.950   1.665   3.372
 7270SOL    HW222710   2.112   1.651   3.368
 7271SOL     OW22711   0.243   3.882   2.622
 7271SOL    HW122712   0.216   3.975   2.648
 7271SOL    HW222713   0.228   3.869   2.524
 7272SOL     OW22714   4.792   2.802   2.645
 7272SOL    HW122715   4.728   2.772   2.716
 7272SOL    HW222716   4.773   2.897   2.620
 7273SOL     OW22717   5.793   4.407   1.807
 7273SOL    HW122718   5.883   4.395   1.766
 7273SOL    HW222719   5.726   4.428   1.735
 7274SOL     OW22720   0.212   5.078   5.867
 7274SOL    HW122721   0.147   5.024   5.920
 7274SOL    HW222722   0.296   5.026   5.854
 7275SOL     OW22723   6.949   0.673   6.907
 7275SOL    HW122724   6.921   0.587   6.949
 7275SOL    HW222725   0.005   0.709   6.954
 7276SOL     OW22726   2.099   2.092   4.100
 7276SOL    HW122727   2.156   2.156   4.152
 7276SOL    HW222728   2.075   2.132   4.012
 7277SOL     OW22729   4.658   1.317   5.477
 7277SOL    HW122730   4.623   1.259   5.551
 7277SOL    HW222731   4.639   1.413   5.498
 7278SOL     OW22732   3.853   1.439   3.449
 7278SOL    HW122733   3.930   1.384   3.483
 7278SOL    HW222734   3.779   1.438   3.516
 7279SOL     OW22735   4.332   4.306   0.565
 7279SOL    HW122736   4.346   4.388   0.620
 7279SOL    HW222737   4.239   4.272   0.580
 7280SOL     OW22738   5.154   2.110   5.227
 7280SOL    HW122739   5.235   2.056   5.248
 7280SOL    HW222740   5.173   2.207   5.243
 7281SOL     OW22741   3.832   6.443   1.205
 7281SOL    HW122742   3.892   6.515   1.240
 7281SOL    HW222743   3.754   6.484   1.157
 7282SOL     OW22744   6.671   5.275   2.175
 7282SOL    HW122745   6.712   5.184   2.181
 7282SOL    HW222746   6.743   5.344   2.170
 7283SOL     OW22747   3.350   5.712   2.493
 7283SOL    HW122748   3.356   5.613   2.504
 7283SOL    HW222749   3.263   5.745   2.528
 7284SOL     OW22750   6.530   2.420   3.919
 7284SOL    HW122751   6.592   2.446   3.844
 7284SOL    HW222752   6.459   2.489   3.929
 7285SOL     OW22753   4.969   2.977   1.885
 7285SOL    HW122754   4.893   2.963   1.948
 7285SOL    HW222755   4.940   3.038   1.811
 7286SOL     OW22756   0.670   1.656   0.750
 7286SOL    HW122757   0.767   1.648   0.728
 7286SOL    HW222758   0.616   1.618   0.675
 7287SOL     OW22759   1.165   2.331   3.734
 7287SOL    HW122760   1.174   2.305   3.829
 7287SOL    HW222761   1.249   2.375   3.703
 7288SOL     OW22762   3.195   2.114   3.053
 7288SOL    HW122763   3.208   2.189   3.117
 7288SOL    HW222764   3.131   2.142   2.981
 7289SOL     OW22765   6.130   2.084   2.020
 7289SOL    HW122766   6.194   2.156   1.995
 7289SOL    HW222767   6.053   2.123   2.072
 7290SOL     OW22768   4.207   1.538   4.904
 7290SOL    HW122769   4.192   1.547   4.805
 7290SOL    HW222770   4.204   1.441   4.929
 7291SOL     OW22771   3.237   0.220   6.895
 7291SOL    HW122772   3.279   0.165   6.968
 7291SOL    HW222773   3.287   0.206   6.810
 7292SOL     OW22774   1.763   0.324   3.330
 7292SOL    HW122775   1.698   0.249   3.328
 7292SOL    HW222776   1.743   0.389   3.257
 7293SOL     OW22777   1.251   0.396   5.603
 7293SOL    HW122778   1.249   0.495   5.616
 7293SOL    HW222779   1.226   0.351   5.689
 7294SOL     OW22780   3.174   4.893   1.571
 7294SOL    HW122781   3.137   4.855   1.486
 7294SOL    HW222782   3.192   4.818   1.635
 7295SOL     OW22783   6.405   5.309   2.080
 7295SOL    HW122784   6.501   5.287   2.098
 7295SOL    HW222785   6.389   5.311   1.982
 7296SOL     OW22786   4.045   4.915   2.779
 7296SOL    HW122787   4.007   5.003   2.809
 7296SOL    HW222788   4.018   4.898   2.684
 7297SOL     OW22789   3.028   6.453   1.782
 7297SOL    HW122790   3.128   6.462   1.787
 7297SOL    HW222791   2.994   6.412   1.867
 7298SOL     OW22792   5.229   5.858   6.297
 7298SOL    HW122793   5.136   5.850   6.331
 7298SOL    HW222794   5.290   5.803   6.354
 7299SOL     OW22795   1.190   3.079   6.933
 7299SOL    HW122796   1.154   3.060   6.842
 7299SOL    HW222797   1.231   2.996   6.971
 7300SOL     OW22798   0.851   4.915   1.586
 7300SOL    HW122799   0.805   4.955   1.665
 7300SOL    HW222800   0.806   4.829   1.561
 7301SOL     OW22801   5.451   6.996   5.428
 7301SOL    HW122802   5.458   6.945   5.513
 7301SOL    HW222803   5.475   0.067   5.444
 7302SOL     OW22804   4.960   2.718   6.120
 7302SOL    HW122805   4.974   2.623   6.149
 7302SOL    HW222806   4.962   2.722   6.020
 7303SOL     OW22807   2.083   1.007   0.759
 7303SOL    HW122808   2.111   0.916   0.788
 7303SOL    HW222809   2.044   1.057   0.836
 7304SOL     OW22810   2.969   5.049   1.749
 7304SOL    HW122811   2.921   5.003   1.823
 7304SOL    HW222812   2.998   4.982   1.681
 7305SOL     OW22813   5.924   2.288   7.000
 7305SOL    HW122814   5.851   2.350   6.971
 7305SOL    HW222815   5.908   2.262   0.071
 7306SOL     OW22816   2.905   0.979   1.485
 7306SOL    HW122817   2.862   0.890   1.497
 7306SOL    HW222818   2.927   1.018   1.575
 7307SOL     OW22819   2.436   6.385   1.422
 7307SOL    HW122820   2.526   6.407   1.386
 7307SOL    HW222821   2.369   6.451   1.388
 7308SOL     OW22822   4.928   0.624   1.970
 7308SOL    HW122823   4.844   0.671   1.997
 7308SOL    HW222824   4.912   0.574   1.885
 7309SOL     OW22825   2.107   5.603   2.575
 7309SOL    HW122826   2.150   5.580   2.662
 7309SOL    HW222827   2.120   5.528   2.510
 7310SOL     OW22828   1.687   2.631   0.005
 7310SOL    HW122829   1.698   2.709   0.067
 7310SOL    HW222830   1.602   2.641   6.978
 7311SOL     OW22831   0.315   0.082   0.371
 7311SOL    HW122832   0.274   0.168   0.399
 7311SOL    HW222833   0.326   0.080   0.272
 7312SOL     OW22834   6.883   2.353   5.881
 7312SOL    HW122835   6.834   2.314   5.804
 7312SOL    HW222836   6.878   2.291   5.959
 7313SOL     OW22837   2.573   0.650   1.677
 7313SOL    HW122838   2.654   0.659   1.736
 7313SOL    HW222839   2.505   0.717   1.705
 7314SOL     OW22840   0.263   4.541   6.906
 7314SOL    HW122841   0.320   4.466   6.874
 7314SOL    HW222842   0.292   4.569   6.997
 7315SOL     OW22843   0.520   5.065   1.986
 7315SOL    HW122844   0.455   5.137   2.010
 7315SOL    HW222845   0.612   5.093   2.012
 7316SOL     OW22846   3.059   2.181   6.560
 7316SOL    HW122847   2.970   2.144   6.533
 7316SOL    HW222848   3.127   2.160   6.490
 7317SOL     OW22849   3.567   1.558   1.594
 7317SOL    HW122850   3.602   1.555   1.687
 7317SOL    HW222851   3.475   1.519   1.591
 7318SOL     OW22852   3.669   6.996   2.060
 7318SOL    HW122853   3.618   6.982   2.145
 7318SOL    HW222854   3.702   6.908   2.026
 7319SOL     OW22855   6.399   4.728   0.639
 7319SOL    HW122856   6.442   4.692   0.556
 7319SOL    HW222857   6.376   4.652   0.700
 7320SOL     OW22858   6.833   3.570   1.046
 7320SOL    HW122859   6.907   3.527   1.097
 7320SOL    HW222860   6.808   3.656   1.090
 7321SOL     OW22861   2.358   5.887   6.327
 7321SOL    HW122862   2.421   5.839   6.388
 7321SOL    HW222863   2.270   5.839   6.325
 7322SOL     OW22864   0.581   1.952   2.152
 7322SOL    HW122865   0.484   1.954   2.176
 7322SOL    HW222866   0.613   1.857   2.151
 7323SOL     OW22867   1.366   1.706   1.153
 7323SOL    HW122868   1.291   1.734   1.213
 7323SOL    HW222869   1.445   1.765   1.169
 7324SOL     OW22870   5.999   4.641   3.573
 7324SOL    HW122871   6.023   4.577   3.646
 7324SOL    HW222872   6.080   4.660   3.518
 7325SOL     OW22873   3.960   0.617   5.990
 7325SOL    HW122874   3.933   0.526   6.021
 7325SOL    HW222875   3.911   0.639   5.905
 7326SOL     OW22876   2.676   0.908   6.513
 7326SOL    HW122877   2.602   0.883   6.575
 7326SOL    HW222878   2.693   0.834   6.449
 7327SOL     OW22879   5.836   3.881   3.539
 7327SOL    HW122880   5.856   3.958   3.479
 7327SOL    HW222881   5.763   3.906   3.603
 7328SOL     OW22882   4.088   5.235   5.123
 7328SOL    HW122883   4.064   5.315   5.179
 7328SOL    HW222884   4.152   5.177   5.174
 7329SOL     OW22885   2.455   2.902   0.630
 7329SOL    HW122886   2.509   2.986   0.629
 7329SOL    HW222887   2.389   2.904   0.555
 7330SOL     OW22888   3.461   2.698   1.708
 7330SOL    HW122889   3.554   2.670   1.733
 7330SOL    HW222890   3.437   2.658   1.619
 7331SOL     OW22891   4.471   0.341   1.693
 7331SOL    HW122892   4.382   0.386   1.691
 7331SOL    HW222893   4.461   0.248   1.729
 7332SOL     OW22894   3.528   3.914   0.173
 7332SOL    HW122895   3.509   3.927   0.270
 7332SOL    HW222896   3.623   3.937   0.154
 7333SOL     OW22897   6.343   2.669   1.901
 7333SOL    HW122898   6.320   2.707   1.811
 7333SOL    HW222899   6.443   2.659   1.908
 7334SOL     OW22900   2.751   0.056   5.247
 7334SOL    HW122901   2.740   0.122   5.173
 7334SOL    HW222902   2.830   7.022   5.227
 7335SOL     OW22903   6.863   3.002   2.886
 7335SOL    HW122904   6.836   3.077   2.825
 7335SOL    HW222905   6.814   3.010   2.973
 7336SOL     OW22906   1.756   5.854   0.760
 7336SOL    HW122907   1.719   5.941   0.792
 7336SOL    HW222908   1.685   5.803   0.711
 7337SOL     OW22909   2.508   2.514   2.174
 7337SOL    HW122910   2.420   2.525   2.127
 7337SOL    HW222911   2.577   2.570   2.128
 7338SOL     OW22912   5.662   3.185   1.364
 7338SOL    HW122913   5.707   3.261   1.409
 7338SOL    HW222914   5.653   3.109   1.428
 7339SOL     OW22915   6.844   5.788   5.394
 7339SOL    HW122916   6.747   5.811   5.403
 7339SOL    HW222917   6.862   5.755   5.301
 7340SOL     OW22918   2.573   0.865   6.772
 7340SOL    HW122919   2.476   0.875   6.750
 7340SOL    HW222920   2.598   0.929   6.845
 7341SOL     OW22921   0.411   5.077   3.766
 7341SOL    HW122922   0.473   5.115   3.698
 7341SOL    HW222923   0.376   5.151   3.824
 7342SOL     OW22924   6.711   0.303   0.329
 7342SOL    HW122925   6.635   0.301   0.264
 7342SOL    HW222926   6.708   0.220   0.385
 7343SOL     OW22927   5.803   4.282   2.586
 7343SOL    HW122928   5.725   4.300   2.646
 7343SOL    HW222929   5.863   4.215   2.629
 7344SOL     OW22930   2.005   6.672   6.775
 7344SOL    HW122931   2.091   6.720   6.758
 7344SOL    HW222932   1.932   6.739   6.788
 7345SOL     OW22933   4.092   5.217   5.750
 7345SOL    HW122934   4.164   5.281   5.726
 7345SOL    HW222935   4.041   5.251   5.828
 7346SOL     OW22936   3.615   4.427   0.893
 7346SOL    HW122937   3.576   4.377   0.816
 7346SOL    HW222938   3.657   4.512   0.860
 7347SOL     OW22939   6.224   2.175   2.454
 7347SOL    HW122940   6.312   2.221   2.442
 7347SOL    HW222941   6.153   2.227   2.406
 7348SOL     OW22942   1.147   2.784   3.900
 7348SOL    HW122943   1.184   2.691   3.895
 7348SOL    HW222944   1.113   2.801   3.993
 7349SOL     OW22945   3.569   2.013   1.305
 7349SOL    HW122946   3.486   2.068   1.314
 7349SOL    HW222947   3.549   1.918   1.330
 7350SOL     OW22948   0.717   2.592   3.650
 7350SOL    HW122949   0.762   2.525   3.708
 7350SOL    HW222950   0.785   2.638   3.592
 7351SOL     OW22951   4.265   4.756   6.145
 7351SOL    HW122952   4.346   4.814   6.153
 7351SOL    HW222953   4.280   4.671   6.196
 7352SOL     OW22954   1.599   1.801   2.483
 7352SOL    HW122955   1.679   1.767   2.533
 7352SOL    HW222956   1.550   1.867   2.539
 7353SOL     OW22957   6.128   1.724   4.807
 7353SOL    HW122958   6.097   1.788   4.878
 7353SOL    HW222959   6.203   1.766   4.756
 7354SOL     OW22960   6.656   0.086   6.330
 7354SOL    HW122961   6.680   0.055   6.238
 7354SOL    HW222962   6.738   0.123   6.375
 7355SOL     OW22963   0.801   5.682   1.611
 7355SOL    HW122964   0.785   5.641   1.521
 7355SOL    HW222965   0.898   5.675   1.635
 7356SOL     OW22966   6.107   1.959   6.489
 7356SOL    HW122967   6.063   1.872   6.511
 7356SOL    HW222968   6.205   1.944   6.474
 7357SOL     OW22969   5.019   1.180   6.876
 7357SOL    HW122970   5.114   1.206   6.891
 7357SOL    HW222971   4.990   1.207   6.784
 7358SOL     OW22972   3.482   2.001   3.892
 7358SOL    HW122973   3.566   2.018   3.944
 7358SOL    HW222974   3.504   1.954   3.807
 7359SOL     OW22975   3.985   3.167   2.785
 7359SOL    HW122976   3.962   3.092   2.723
 7359SOL    HW222977   3.929   3.247   2.763
 7360SOL     OW22978   1.376   2.260   5.458
 7360SOL    HW122979   1.301   2.266   5.523
 7360SOL    HW222980   1.445   2.196   5.492
 7361SOL     OW22981   5.355   6.603   1.154
 7361SOL    HW122982   5.384   6.547   1.231
 7361SOL    HW222983   5.409   6.579   1.073
 7362SOL     OW22984   1.398   6.629   5.027
 7362SOL    HW122985   1.299   6.640   5.037
 7362SOL    HW222986   1.442   6.634   5.116
 7363SOL     OW22987   5.729   2.476   6.949
 7363SOL    HW122988   5.719   2.498   6.852
 7363SOL    HW222989   5.750   2.560   7.000
 7364SOL     OW22990   4.381   6.690   1.033
 7364SOL    HW122991   4.389   6.788   1.054
 7364SOL    HW222992   4.352   6.640   1.115
 7365SOL     OW22993   2.931   0.423   2.652
 7365SOL    HW122994   2.926   0.365   2.570
 7365SOL    HW222995   2.870   0.386   2.722
 7366SOL     OW22996   0.856   5.526   6.575
 7366SOL    HW122997   0.818   5.512   6.483
 7366SOL    HW222998   0.782   5.524   6.642
 7367SOL     OW22999   5.453   3.609   1.339
 7367SOL    HW123000   5.546   3.607   1.376
 7367SOL    HW223001   5.403   3.686   1.379
 7368SOL     OW23002   3.251   3.273   4.387
 7368SOL    HW123003   3.177   3.335   4.413
 7368SOL    HW223004   3.331   3.326   4.359
 7369SOL     OW23005   5.034   4.052   1.038
 7369SOL    HW123006   5.047   4.150   1.051
 7369SOL    HW223007   5.121   4.010   1.013
 7370SOL     OW23008   2.241   6.929   0.374
 7370SOL    HW123009   2.257   6.943   0.277
 7370SOL    HW223010   2.254   7.015   0.423
 7371SOL     OW23011   2.939   5.303   4.032
 7371SOL    HW123012   2.984   5.390   4.011
 7371SOL    HW223013   2.998   5.227   4.002
 7372SOL     OW23014   4.003   0.355   5.272
 7372SOL    HW123015   4.038   0.340   5.179
 7372SOL    HW223016   3.965   0.270   5.307
 7373SOL     OW23017   4.105   0.973   3.658
 7373SOL    HW123018   4.133   0.909   3.586
 7373SOL    HW223019   4.111   0.927   3.747
 7374SOL     OW23020   1.779   2.827   5.723
 7374SOL    HW123021   1.850   2.821   5.793
 7374SOL    HW223022   1.740   2.919   5.723
 7375SOL     OW23023   1.143   1.229   5.117
 7375SOL    HW123024   1.154   1.315   5.166
 7375SOL    HW223025   1.229   1.177   5.121
 7376SOL     OW23026   2.849   3.095   7.005
 7376SOL    HW123027   2.767   3.059   6.961
 7376SOL    HW223028   2.895   3.023   0.031
 7377SOL     OW23029   4.726   4.410   1.862
 7377SOL    HW123030   4.640   4.377   1.900
 7377SOL    HW223031   4.799   4.346   1.884
 7378SOL     OW23032   0.386   2.024   5.042
 7378SOL    HW123033   0.416   2.104   4.990
 7378SOL    HW223034   0.396   2.042   5.140
 7379SOL     OW23035   3.970   1.015   2.079
 7379SOL    HW123036   4.000   1.024   2.174
 7379SOL    HW223037   3.879   0.975   2.076
 7380SOL     OW23038   6.456   2.932   5.863
 7380SOL    HW123039   6.535   2.940   5.924
 7380SOL    HW223040   6.477   2.976   5.776
 7381SOL     OW23041   4.898   2.995   2.287
 7381SOL    HW123042   4.820   2.995   2.224
 7381SOL    HW223043   4.913   3.088   2.321
 7382SOL     OW23044   0.540   4.300   4.565
 7382SOL    HW123045   0.637   4.278   4.565
 7382SOL    HW223046   0.506   4.303   4.659
 7383SOL     OW23047   0.376   6.164   1.912
 7383SOL    HW123048   0.457   6.148   1.968
 7383SOL    HW223049   0.316   6.084   1.915
 7384SOL     OW23050   5.080   0.015   2.441
 7384SOL    HW123051   5.103   0.088   2.377
 7384SOL    HW223052   4.990   7.002   2.418
 7385SOL     OW23053   4.584   5.888   2.102
 7385SOL    HW123054   4.604   5.958   2.170
 7385SOL    HW223055   4.634   5.804   2.125
 7386SOL     OW23056   1.190   2.534   5.973
 7386SOL    HW123057   1.105   2.570   6.011
 7386SOL    HW223058   1.193   2.435   5.985
 7387SOL     OW23059   3.900   5.553   4.257
 7387SOL    HW123060   3.870   5.458   4.250
 7387SOL    HW223061   3.968   5.572   4.186
 7388SOL     OW23062   0.033   5.316   3.943
 7388SOL    HW123063   0.132   5.303   3.949
 7388SOL    HW223064   0.005   5.312   3.847
 7389SOL     OW23065   1.396   4.037   0.015
 7389SOL    HW123066   1.471   4.101   7.021
 7389SOL    HW223067   1.434   3.953   0.055
 7390SOL     OW23068   0.078   1.523   6.822
 7390SOL    HW123069   7.005   1.509   6.810
 7390SOL    HW223070   0.100   1.619   6.803
 7391SOL     OW23071   6.016   3.894   6.351
 7391SOL    HW123072   5.983   3.865   6.261
 7391SOL    HW223073   6.089   3.962   6.340
 7392SOL     OW23074   1.635   5.786   5.476
 7392SOL    HW123075   1.585   5.808   5.560
 7392SOL    HW223076   1.587   5.716   5.425
 7393SOL     OW23077   6.215   5.393   2.252
 7393SOL    HW123078   6.140   5.457   2.236
 7393SOL    HW223079   6.277   5.394   2.173
 7394SOL     OW23080   3.703   3.342   6.555
 7394SOL    HW123081   3.609   3.370   6.532
 7394SOL    HW223082   3.762   3.361   6.477
 7395SOL     OW23083   0.484   0.275   6.365
 7395SOL    HW123084   0.567   0.318   6.400
 7395SOL    HW223085   0.409   0.289   6.430
 7396SOL     OW23086   1.769   0.652   5.883
 7396SOL    HW123087   1.684   0.609   5.912
 7396SOL    HW223088   1.764   0.673   5.785
 7397SOL     OW23089   6.433   4.430   4.721
 7397SOL    HW123090   6.377   4.480   4.654
 7397SOL    HW223091   6.505   4.490   4.754
 7398SOL     OW23092   4.416   5.426   3.743
 7398SOL    HW123093   4.355   5.432   3.822
 7398SOL    HW223094   4.404   5.507   3.685
 7399SOL     OW23095   6.582   4.219   5.668
 7399SOL    HW123096   6.645   4.166   5.724
 7399SOL    HW223097   6.488   4.186   5.683
 7400SOL     OW23098   3.147   4.112   7.000
 7400SOL    HW123099   3.225   4.052   7.014
 7400SOL    HW223100   3.102   4.089   6.914
 7401SOL     OW23101   0.238   1.256   3.936
 7401SOL    HW123102   0.176   1.250   4.015
 7401SOL    HW223103   0.310   1.188   3.945
 7402SOL     OW23104   2.141   6.913   3.825
 7402SOL    HW123105   2.231   6.937   3.863
 7402SOL    HW223106   2.076   6.987   3.845
 7403SOL     OW23107   1.519   3.188   3.547
 7403SOL    HW123108   1.590   3.182   3.618
 7403SOL    HW223109   1.514   3.282   3.514
 7404SOL     OW23110   1.867   0.529   0.774
 7404SOL    HW123111   1.867   0.454   0.840
 7404SOL    HW223112   1.861   0.616   0.823
 7405SOL     OW23113   2.077   5.114   5.129
 7405SOL    HW123114   2.066   5.187   5.062
 7405SOL    HW223115   1.990   5.067   5.142
 7406SOL     OW23116   1.628   3.658   2.261
 7406SOL    HW123117   1.702   3.656   2.195
 7406SOL    HW223118   1.543   3.683   2.216
 7407SOL     OW23119   0.452   5.995   5.085
 7407SOL    HW123120   0.374   6.034   5.037
 7407SOL    HW223121   0.477   5.908   5.042
 7408SOL     OW23122   1.920   3.995   5.972
 7408SOL    HW123123   1.988   3.983   5.900
 7408SOL    HW223124   1.955   4.060   6.040
 7409SOL     OW23125   1.025   1.054   4.927
 7409SOL    HW123126   1.050   1.132   4.984
 7409SOL    HW223127   1.108   1.006   4.898
 7410SOL     OW23128   0.132   4.507   1.114
 7410SOL    HW123129   0.067   4.557   1.170
 7410SOL    HW223130   0.216   4.492   1.166
 7411SOL     OW23131   2.822   6.816   4.334
 7411SOL    HW123132   2.727   6.786   4.341
 7411SOL    HW223133   2.879   6.762   4.395
 7412SOL     OW23134   2.396   0.899   0.896
 7412SOL    HW123135   2.311   0.852   0.873
 7412SOL    HW223136   2.395   0.991   0.857
 7413SOL     OW23137   0.048   3.342   4.032
 7413SOL    HW123138   0.071   3.257   4.079
 7413SOL    HW223139   0.004   3.405   4.097
 7414SOL     OW23140   6.324   0.017   2.146
 7414SOL    HW123141   6.308   6.987   2.064
 7414SOL    HW223142   6.265   0.098   2.144
 7415SOL     OW23143   1.612   3.266   2.748
 7415SOL    HW123144   1.702   3.225   2.767
 7415SOL    HW223145   1.620   3.365   2.747
 7416SOL     OW23146   3.729   1.340   4.445
 7416SOL    HW123147   3.782   1.329   4.530
 7416SOL    HW223148   3.774   1.291   4.371
 7417SOL     OW23149   1.426   6.942   6.293
 7417SOL    HW123150   1.436   6.843   6.307
 7417SOL    HW223151   1.363   6.958   6.217
 7418SOL     OW23152   2.850   4.289   1.424
 7418SOL    HW123153   2.801   4.283   1.511
 7418SOL    HW223154   2.901   4.204   1.409
 7419SOL     OW23155   5.951   2.058   4.635
 7419SOL    HW123156   6.007   2.038   4.714
 7419SOL    HW223157   5.855   2.067   4.663
 7420SOL     OW23158   6.513   6.611   2.004
 7420SOL    HW123159   6.584   6.670   1.965
 7420SOL    HW223160   6.430   6.664   2.018
 7421SOL     OW23161   3.596   4.026   1.525
 7421SOL    HW123162   3.576   3.996   1.618
 7421SOL    HW223163   3.655   4.107   1.528
 7422SOL     OW23164   0.268   3.629   1.144
 7422SOL    HW123165   0.245   3.724   1.122
 7422SOL    HW223166   0.184   3.579   1.167
 7423SOL     OW23167   2.186   4.576   6.404
 7423SOL    HW123168   2.176   4.625   6.491
 7423SOL    HW223169   2.107   4.596   6.345
 7424SOL     OW23170   5.738   1.842   4.493
 7424SOL    HW123171   5.795   1.915   4.455
 7424SOL    HW223172   5.793   1.785   4.554
 7425SOL     OW23173   3.825   4.627   6.138
 7425SOL    HW123174   3.883   4.584   6.068
 7425SOL    HW223175   3.880   4.645   6.220
 7426SOL     OW23176   0.046   2.199   0.002
 7426SOL    HW123177   0.028   2.103   7.006
 7426SOL    HW223178   0.048   2.211   0.102
 7427SOL     OW23179   3.104   6.040   4.647
 7427SOL    HW123180   3.034   6.005   4.709
 7427SOL    HW223181   3.102   5.989   4.561
 7428SOL     OW23182   3.610   2.085   5.381
 7428SOL    HW123183   3.652   2.151   5.444
 7428SOL    HW223184   3.539   2.132   5.328
 7429SOL     OW23185   0.055   0.120   2.529
 7429SOL    HW123186   0.076   0.215   2.506
 7429SOL    HW223187   6.995   0.117   2.583
 7430SOL     OW23188   6.603   4.250   5.134
 7430SOL    HW123189   6.687   4.278   5.088
 7430SOL    HW223190   6.621   4.236   5.231
 7431SOL     OW23191   0.624   3.580   1.611
 7431SOL    HW123192   0.650   3.598   1.516
 7431SOL    HW223193   0.588   3.664   1.652
 7432SOL     OW23194   0.739   6.428   3.670
 7432SOL    HW123195   0.727   6.338   3.629
 7432SOL    HW223196   0.754   6.496   3.598
 7433SOL     OW23197   6.472   5.457   1.052
 7433SOL    HW123198   6.398   5.515   1.086
 7433SOL    HW223199   6.533   5.511   0.995
 7434SOL     OW23200   2.749   1.809   0.081
 7434SOL    HW123201   2.784   1.900   0.104
 7434SOL    HW223202   2.703   1.769   0.160
 7435SOL     OW23203   3.490   6.876   6.183
 7435SOL    HW123204   3.497   6.806   6.112
 7435SOL    HW223205   3.393   6.888   6.208
 7436SOL     OW23206   5.908   3.000   0.044
 7436SOL    HW123207   5.946   2.909   0.026
 7436SOL    HW223208   5.973   3.053   0.099
 7437SOL     OW23209   6.739   5.064   6.159
 7437SOL    HW123210   6.701   5.156   6.172
 7437SOL    HW223211   6.802   5.065   6.081
 7438SOL     OW23212   0.890   4.304   2.027
 7438SOL    HW123213   0.938   4.318   1.941
 7438SOL    HW223214   0.930   4.362   2.098
 7439SOL     OW23215   2.506   0.106   3.764
 7439SOL    HW123216   2.600   0.137   3.781
 7439SOL    HW223217   2.472   0.059   3.846
 7440SOL     OW23218   1.123   3.303   4.788
 7440SOL    HW123219   1.201   3.262   4.741
 7440SOL    HW223220   1.094   3.385   4.738
 7441SOL     OW23221   5.121   1.069   3.750
 7441SOL    HW123222   5.074   1.123   3.680
 7441SOL    HW223223   5.091   0.973   3.743
 7442SOL     OW23224   1.129   1.461   6.503
 7442SOL    HW123225   1.130   1.449   6.404
 7442SOL    HW223226   1.070   1.538   6.527
 7443SOL     OW23227   6.756   1.780   0.755
 7443SOL    HW123228   6.842   1.730   0.745
 7443SOL    HW223229   6.703   1.772   0.671
 7444SOL     OW23230   6.922   3.173   6.488
 7444SOL    HW123231   6.883   3.083   6.504
 7444SOL    HW223232   6.880   3.239   6.550
 7445SOL     OW23233   5.117   1.830   1.548
 7445SOL    HW123234   5.102   1.878   1.461
 7445SOL    HW223235   5.055   1.866   1.617
 7446SOL     OW23236   6.247   4.157   6.953
 7446SOL    HW123237   6.282   4.089   7.017
 7446SOL    HW223238   6.181   4.113   6.891
 7447SOL     OW23239   2.052   4.628   0.215
 7447SOL    HW123240   2.148   4.656   0.206
 7447SOL    HW223241   2.024   4.636   0.310
 7448SOL     OW23242   5.370   6.883   5.960
 7448SOL    HW123243   5.314   6.801   5.948
 7448SOL    HW223244   5.390   6.923   5.870
 7449SOL     OW23245   4.900   2.367   1.953
 7449SOL    HW123246   4.801   2.370   1.969
 7449SOL    HW223247   4.943   2.311   2.024
 7450SOL     OW23248   4.914   2.888   2.961
 7450SOL    HW123249   4.926   2.985   2.984
 7450SOL    HW223250   4.955   2.832   3.032
 7451SOL     OW23251   1.593   0.979   4.535
 7451SOL    HW123252   1.607   0.947   4.441
 7451SOL    HW223253   1.658   0.934   4.596
 7452SOL     OW23254   1.836   0.440   5.150
 7452SOL    HW123255   1.921   0.488   5.173
 7452SOL    HW223256   1.847   0.342   5.166
 7453SOL     OW23257   5.989   6.389   4.853
 7453SOL    HW123258   5.984   6.366   4.950
 7453SOL    HW223259   5.930   6.468   4.834
 7454SOL     OW23260   0.849   3.568   1.223
 7454SOL    HW123261   0.792   3.629   1.278
 7454SOL    HW223262   0.883   3.493   1.279
 7455SOL     OW23263   5.341   2.136   0.806
 7455SOL    HW123264   5.351   2.167   0.900
 7455SOL    HW223265   5.268   2.068   0.800
 7456SOL     OW23266   1.359   2.952   4.737
 7456SOL    HW123267   1.302   2.968   4.656
 7456SOL    HW223268   1.417   3.032   4.754
 7457SOL     OW23269   5.645   0.833   5.491
 7457SOL    HW123270   5.559   0.827   5.541
 7457SOL    HW223271   5.663   0.746   5.444
 7458SOL     OW23272   2.618   6.827   0.328
 7458SOL    HW123273   2.587   6.884   0.404
 7458SOL    HW223274   2.697   6.870   0.285
 7459SOL     OW23275   4.588   0.152   5.750
 7459SOL    HW123276   4.653   0.225   5.773
 7459SOL    HW223277   4.569   0.154   5.652
 7460SOL     OW23278   2.400   5.002   0.962
 7460SOL    HW123279   2.314   5.044   0.990
 7460SOL    HW223280   2.462   4.996   1.040
 7461SOL     OW23281   5.158   1.209   5.855
 7461SOL    HW123282   5.193   1.240   5.766
 7461SOL    HW223283   5.235   1.200   5.919
 7462SOL     OW23284   2.373   2.048   1.710
 7462SOL    HW123285   2.284   2.032   1.752
 7462SOL    HW223286   2.402   2.142   1.729
 7463SOL     OW23287   3.571   3.067   1.325
 7463SOL    HW123288   3.532   3.013   1.399
 7463SOL    HW223289   3.606   3.007   1.254
 7464SOL     OW23290   3.549   6.033   0.391
 7464SOL    HW123291   3.598   6.081   0.318
 7464SOL    HW223292   3.509   5.949   0.355
 7465SOL     OW23293   1.787   0.131   0.950
 7465SOL    HW123294   1.798   0.145   1.048
 7465SOL    HW223295   1.840   0.200   0.901
 7466SOL     OW23296   0.576   0.709   6.502
 7466SOL    HW123297   0.621   0.621   6.487
 7466SOL    HW223298   0.638   0.783   6.477
 7467SOL     OW23299   6.752   2.120   1.159
 7467SOL    HW123300   6.816   2.072   1.099
 7467SOL    HW223301   6.658   2.098   1.131
 7468SOL     OW23302   4.879   2.354   2.261
 7468SOL    HW123303   4.793   2.406   2.260
 7468SOL    HW223304   4.941   2.393   2.329
 7469SOL     OW23305   0.885   6.803   6.111
 7469SOL    HW123306   0.974   6.810   6.156
 7469SOL    HW223307   0.897   6.804   6.012
 7470SOL     OW23308   0.550   2.295   2.843
 7470SOL    HW123309   0.579   2.268   2.934
 7470SOL    HW223310   0.467   2.246   2.818
 7471SOL     OW23311   6.563   6.505   4.742
 7471SOL    HW123312   6.472   6.469   4.765
 7471SOL    HW223313   6.629   6.473   4.810
 7472SOL     OW23314   4.053   6.949   4.433
 7472SOL    HW123315   4.108   6.870   4.406
 7472SOL    HW223316   4.081   6.981   4.523
 7473SOL     OW23317   0.605   3.710   4.009
 7473SOL    HW123318   0.570   3.758   4.089
 7473SOL    HW223319   0.653   3.774   3.950
 7474SOL     OW23320   2.769   0.924   3.726
 7474SOL    HW123321   2.792   0.841   3.674
 7474SOL    HW223322   2.795   0.911   3.822
 7475SOL     OW23323   4.843   0.603   2.290
 7475SOL    HW123324   4.921   0.541   2.295
 7475SOL    HW223325   4.764   0.556   2.251
 7476SOL     OW23326   4.483   5.967   4.907
 7476SOL    HW123327   4.530   5.969   4.818
 7476SOL    HW223328   4.551   5.964   4.980
 7477SOL     OW23329   4.196   0.637   4.259
 7477SOL    HW123330   4.277   0.695   4.271
 7477SOL    HW223331   4.122   0.691   4.218
 7478SOL     OW23332   3.412   3.800   6.262
 7478SOL    HW123333   3.463   3.762   6.184
 7478SOL    HW223334   3.330   3.745   6.278
 7479SOL     OW23335   3.918   1.412   0.603
 7479SOL    HW123336   3.931   1.432   0.700
 7479SOL    HW223337   3.929   1.314   0.587
 7480SOL     OW23338   6.449   5.853   1.552
 7480SOL    HW123339   6.391   5.931   1.572
 7480SOL    HW223340   6.398   5.787   1.497
 7481SOL     OW23341   5.536   5.158   0.951
 7481SOL    HW123342   5.578   5.167   0.860
 7481SOL    HW223343   5.440   5.186   0.946
 7482SOL     OW23344   3.694   0.608   1.692
 7482SOL    HW123345   3.603   0.642   1.716
 7482SOL    HW223346   3.762   0.652   1.750
 7483SOL     OW23347   3.516   1.734   4.095
 7483SOL    HW123348   3.423   1.765   4.116
 7483SOL    HW223349   3.561   1.703   4.179
 7484SOL     OW23350   0.742   6.626   1.591
 7484SOL    HW123351   0.693   6.636   1.677
 7484SOL    HW223352   0.836   6.598   1.610
 7485SOL     OW23353   2.811   6.696   5.544
 7485SOL    HW123354   2.712   6.680   5.539
 7485SOL    HW223355   2.855   6.653   5.465
 7486SOL     OW23356   3.006   6.964   5.162
 7486SOL    HW123357   3.071   0.015   5.152
 7486SOL    HW223358   3.052   6.878   5.144
 7487SOL     OW23359   2.223   6.675   2.750
 7487SOL    HW123360   2.152   6.744   2.752
 7487SOL    HW223361   2.182   6.585   2.732
 7488SOL     OW23362   2.543   6.890   5.286
 7488SOL    HW123363   2.623   6.942   5.256
 7488SOL    HW223364   2.569   6.830   5.362
 7489SOL     OW23365   4.843   2.401   4.923
 7489SOL    HW123366   4.932   2.447   4.922
 7489SOL    HW223367   4.836   2.340   4.844
 7490SOL     OW23368   0.109   0.730   0.541
 7490SOL    HW123369   0.037   0.796   0.520
 7490SOL    HW223370   0.170   0.722   0.462
 7491SOL     OW23371   0.581   5.445   6.079
 7491SOL    HW123372   0.619   5.459   5.988
 7491SOL    HW223373   0.510   5.513   6.097
 7492SOL     OW23374   2.303   2.020   5.802
 7492SOL    HW123375   2.231   1.951   5.798
 7492SOL    HW223376   2.391   1.976   5.820
 7493SOL     OW23377   6.290   4.721   6.059
 7493SOL    HW123378   6.236   4.757   6.135
 7493SOL    HW223379   6.361   4.787   6.034
 7494SOL     OW23380   5.384   0.897   2.326
 7494SOL    HW123381   5.352   0.929   2.415
 7494SOL    HW223382   5.338   0.949   2.253
 7495SOL     OW23383   1.570   1.553   1.001
 7495SOL    HW123384   1.525   1.565   1.090
 7495SOL    HW223385   1.540   1.625   0.938
 7496SOL     OW23386   1.798   4.661   5.933
 7496SOL    HW123387   1.778   4.754   5.900
 7496SOL    HW223388   1.752   4.646   6.020
 7497SOL     OW23389   2.780   5.558   1.837
 7497SOL    HW123390   2.758   5.461   1.843
 7497SOL    HW223391   2.734   5.598   1.758
 7498SOL     OW23392   3.141   0.939   4.438
 7498SOL    HW123393   3.054   0.960   4.482
 7498SOL    HW223394   3.209   1.009   4.462
 7499SOL     OW23395   5.802   0.179   4.018
 7499SOL    HW123396   5.736   0.252   4.003
 7499SOL    HW223397   5.820   0.132   3.932
 7500SOL     OW23398   3.849   5.937   2.554
 7500SOL    HW123399   3.831   5.904   2.647
 7500SOL    HW223400   3.922   5.882   2.513
 7501SOL     OW23401   0.818   3.640   3.699
 7501SOL    HW123402   0.882   3.701   3.654
 7501SOL    HW223403   0.810   3.555   3.647
 7502SOL     OW23404   1.900   1.039   5.440
 7502SOL    HW123405   1.807   1.067   5.464
 7502SOL    HW223406   1.931   0.968   5.503
 7503SOL     OW23407   2.729   0.731   6.312
 7503SOL    HW123408   2.811   0.676   6.298
 7503SOL    HW223409   2.700   0.770   6.224
 7504SOL     OW23410   4.108   6.515   3.594
 7504SOL    HW123411   4.094   6.547   3.500
 7504SOL    HW223412   4.199   6.473   3.602
 7505SOL     OW23413   2.897   0.968   5.113
 7505SOL    HW123414   2.837   1.045   5.091
 7505SOL    HW223415   2.935   0.930   5.029
 7506SOL     OW23416   3.668   0.600   2.409
 7506SOL    HW123417   3.755   0.649   2.404
 7506SOL    HW223418   3.652   0.569   2.502
 7507SOL     OW23419   0.108   6.690   6.581
 7507SOL    HW123420   0.100   6.712   6.483
 7507SOL    HW223421   0.196   6.645   6.597
 7508SOL     OW23422   5.663   6.528   2.320
 7508SOL    HW123423   5.617   6.615   2.339
 7508SOL    HW223424   5.756   6.532   2.355
 7509SOL     OW23425   4.953   4.232   0.713
 7509SOL    HW123426   4.969   4.133   0.716
 7509SOL    HW223427   4.894   4.254   0.635
 7510SOL     OW23428   3.209   4.034   4.536
 7510SOL    HW123429   3.201   4.014   4.634
 7510SOL    HW223430   3.273   3.970   4.494
 7511SOL     OW23431   1.531   0.266   2.439
 7511SOL    HW123432   1.552   0.199   2.510
 7511SOL    HW223433   1.516   0.356   2.480
 7512SOL     OW23434   3.234   3.984   1.510
 7512SOL    HW123435   3.314   3.929   1.531
 7512SOL    HW223436   3.187   3.946   1.430
 7513SOL     OW23437   1.849   2.504   6.858
 7513SOL    HW123438   1.812   2.532   6.769
 7513SOL    HW223439   1.800   2.553   6.930
 7514SOL     OW23440   3.066   6.193   1.972
 7514SOL    HW123441   3.057   6.190   1.873
 7514SOL    HW223442   2.991   6.143   2.015
 7515SOL     OW23443   0.946   0.321   3.075
 7515SOL    HW123444   0.889   0.252   3.030
 7515SOL    HW223445   1.038   0.286   3.086
 7516SOL     OW23446   6.899   6.355   4.425
 7516SOL    HW123447   6.860   6.442   4.393
 7516SOL    HW223448   6.828   6.302   4.471
 7517SOL     OW23449   6.838   3.837   1.162
 7517SOL    HW123450   6.801   3.928   1.147
 7517SOL    HW223451   6.935   3.836   1.137
 7518SOL     OW23452   3.928   5.723   3.695
 7518SOL    HW123453   3.856   5.717   3.764
 7518SOL    HW223454   3.978   5.809   3.707
 7519SOL     OW23455   0.898   6.431   4.306
 7519SOL    HW123456   0.908   6.530   4.315
 7519SOL    HW223457   0.986   6.387   4.322
 7520SOL     OW23458   1.863   0.509   2.493
 7520SOL    HW123459   1.874   0.548   2.402
 7520SOL    HW223460   1.885   0.411   2.490
 7521SOL     OW23461   4.421   4.400   5.451
 7521SOL    HW123462   4.411   4.302   5.432
 7521SOL    HW223463   4.423   4.415   5.550
 7522SOL     OW23464   2.620   1.210   6.582
 7522SOL    HW123465   2.527   1.185   6.556
 7522SOL    HW223466   2.671   1.127   6.607
 7523SOL     OW23467   6.203   6.996   5.456
 7523SOL    HW123468   6.140   0.013   5.390
 7523SOL    HW223469   6.209   0.028   5.538
 7524SOL     OW23470   7.007   1.953   6.525
 7524SOL    HW123471   0.026   1.916   6.443
 7524SOL    HW223472   0.033   1.922   6.606
 7525SOL     OW23473   2.013   6.901   7.001
 7525SOL    HW123474   1.950   6.828   6.975
 7525SOL    HW223475   1.961   6.981   0.007
 7526SOL     OW23476   3.006   3.375   3.950
 7526SOL    HW123477   2.958   3.408   4.031
 7526SOL    HW223478   3.065   3.299   3.975
 7527SOL     OW23479   5.091   4.487   2.008
 7527SOL    HW123480   5.071   4.583   1.991
 7527SOL    HW223481   5.138   4.477   2.095
 7528SOL     OW23482   4.445   2.572   0.244
 7528SOL    HW123483   4.372   2.607   0.185
 7528SOL    HW223484   4.512   2.645   0.260
 7529SOL     OW23485   4.797   1.462   3.445
 7529SOL    HW123486   4.887   1.494   3.414
 7529SOL    HW223487   4.801   1.363   3.459
 7530SOL     OW23488   6.930   3.113   2.327
 7530SOL    HW123489   6.871   3.104   2.246
 7530SOL    HW223490   6.874   3.128   2.408
 7531SOL     OW23491   4.274   1.897   3.885
 7531SOL    HW123492   4.264   1.822   3.820
 7531SOL    HW223493   4.186   1.943   3.896
 7532SOL     OW23494   5.458   5.311   1.871
 7532SOL    HW123495   5.459   5.326   1.772
 7532SOL    HW223496   5.404   5.383   1.915
 7533SOL     OW23497   1.852   1.400   3.269
 7533SOL    HW123498   1.756   1.423   3.249
 7533SOL    HW223499   1.897   1.372   3.184
 7534SOL     OW23500   3.878   6.192   5.064
 7534SOL    HW123501   3.868   6.147   4.975
 7534SOL    HW223502   3.943   6.267   5.056
 7535SOL     OW23503   2.446   1.530   5.949
 7535SOL    HW123504   2.477   1.542   6.043
 7535SOL    HW223505   2.346   1.532   5.947
 7536SOL     OW23506   4.981   4.744   5.240
 7536SOL    HW123507   4.930   4.688   5.305
 7536SOL    HW223508   5.078   4.743   5.263
 7537SOL     OW23509   1.896   4.395   4.967
 7537SOL    HW123510   1.922   4.336   5.042
 7537SOL    HW223511   1.950   4.480   4.971
 7538SOL     OW23512   3.471   3.312   2.302
 7538SOL    HW123513   3.442   3.285   2.394
 7538SOL    HW223514   3.390   3.329   2.245
 7539SOL     OW23515   2.482   2.681   5.147
 7539SOL    HW123516   2.461   2.779   5.153
 7539SOL    HW223517   2.432   2.633   5.219
 7540SOL     OW23518   3.406   0.722   6.519
 7540SOL    HW123519   3.460   0.642   6.548
 7540SOL    HW223520   3.340   0.744   6.590
 7541SOL     OW23521   6.631   3.510   5.694
 7541SOL    HW123522   6.668   3.603   5.686
 7541SOL    HW223523   6.694   3.454   5.747
 7542SOL     OW23524   1.148   0.005   5.917
 7542SOL    HW123525   1.243   7.000   5.909
 7542SOL    HW223526   1.125   0.016   6.014
 7543SOL     OW23527   4.020   1.678   0.545
 7543SOL    HW123528   3.981   1.588   0.561
 7543SOL    HW223529   4.083   1.674   0.467
 7544SOL     OW23530   0.020   2.218   3.178
 7544SOL    HW123531   7.021   2.121   3.178
 7544SOL    HW223532   6.995   2.264   3.105
 7545SOL     OW23533   4.464   6.447   2.925
 7545SOL    HW123534   4.558   6.419   2.907
 7545SOL    HW223535   4.427   6.494   2.845
 7546SOL     OW23536   4.683   0.803   6.782
 7546SOL    HW123537   4.755   0.846   6.837
 7546SOL    HW223538   4.601   0.791   6.838
 7547SOL     OW23539   4.165   6.980   0.476
 7547SOL    HW123540   4.234   0.020   0.508
 7547SOL    HW223541   4.083   0.005   0.447
 7548SOL     OW23542   2.116   1.673   0.423
 7548SOL    HW123543   2.037   1.716   0.378
 7548SOL    HW223544   2.085   1.594   0.475
 7549SOL     OW23545   5.828   1.801   1.931
 7549SOL    HW123546   5.785   1.730   1.987
 7549SOL    HW223547   5.795   1.794   1.837
 7550SOL     OW23548   2.245   6.034   2.469
 7550SOL    HW123549   2.326   6.093   2.477
 7550SOL    HW223550   2.274   5.940   2.454
 7551SOL     OW23551   4.920   3.829   0.219
 7551SOL    HW123552   4.833   3.842   0.266
 7551SOL    HW223553   4.926   3.735   0.186
 7552SOL     OW23554   2.496   5.799   4.008
 7552SOL    HW123555   2.470   5.895   4.004
 7552SOL    HW223556   2.591   5.788   3.978
 7553SOL     OW23557   3.932   4.750   5.691
 7553SOL    HW123558   3.886   4.707   5.613
 7553SOL    HW223559   3.899   4.844   5.701
 7554SOL     OW23560   4.565   2.415   0.468
 7554SOL    HW123561   4.551   2.318   0.485
 7554SOL    HW223562   4.494   2.449   0.406
 7555SOL     OW23563   0.647   5.607   5.360
 7555SOL    HW123564   0.645   5.704   5.338
 7555SOL    HW223565   0.565   5.563   5.322
 7556SOL     OW23566   0.665   3.086   5.831
 7556SOL    HW123567   0.611   3.081   5.916
 7556SOL    HW223568   0.735   3.156   5.841
 7557SOL     OW23569   5.064   3.910   6.232
 7557SOL    HW123570   5.140   3.952   6.183
 7557SOL    HW223571   5.097   3.875   6.320
 7558SOL     OW23572   2.464   2.682   4.038
 7558SOL    HW123573   2.509   2.604   3.995
 7558SOL    HW223574   2.452   2.664   4.136
 7559SOL     OW23575   6.309   5.641   1.427
 7559SOL    HW123576   6.214   5.662   1.448
 7559SOL    HW223577   6.345   5.577   1.495
 7560SOL     OW23578   4.831   6.936   0.046
 7560SOL    HW123579   4.793   6.886   0.123
 7560SOL    HW223580   4.930   6.947   0.058
 7561SOL     OW23581   0.691   3.890   0.570
 7561SOL    HW123582   0.598   3.907   0.537
 7561SOL    HW223583   0.756   3.903   0.495
 7562SOL     OW23584   5.380   6.138   4.399
 7562SOL    HW123585   5.373   6.201   4.322
 7562SOL    HW223586   5.304   6.074   4.398
 7563SOL     OW23587   3.080   6.931   1.411
 7563SOL    HW123588   3.069   6.990   1.491
 7563SOL    HW223589   3.089   6.836   1.440
 7564SOL     OW23590   4.725   0.933   3.263
 7564SOL    HW123591   4.648   0.907   3.206
 7564SOL    HW223592   4.809   0.895   3.225
 7565SOL     OW23593   4.501   4.735   6.568
 7565SOL    HW123594   4.569   4.796   6.528
 7565SOL    HW223595   4.437   4.788   6.624
 7566SOL     OW23596   1.014   4.721   3.739
 7566SOL    HW123597   1.038   4.748   3.645
 7566SOL    HW223598   0.925   4.758   3.763
 7567SOL     OW23599   1.971   3.604   6.131
 7567SOL    HW123600   2.056   3.652   6.112
 7567SOL    HW223601   1.917   3.597   6.047
 7568SOL     OW23602   5.683   5.255   4.144
 7568SOL    HW123603   5.626   5.305   4.079
 7568SOL    HW223604   5.626   5.215   4.215
 7569SOL     OW23605   4.552   5.951   6.622
 7569SOL    HW123606   4.535   5.924   6.527
 7569SOL    HW223607   4.519   6.044   6.637
 7570SOL     OW23608   5.700   4.398   5.335
 7570SOL    HW123609   5.606   4.364   5.342
 7570SOL    HW223610   5.717   4.432   5.243
 7571SOL     OW23611   5.214   4.078   1.937
 7571SOL    HW123612   5.217   3.994   1.991
 7571SOL    HW223613   5.274   4.147   1.979
 7572SOL     OW23614   4.732   0.484   4.201
 7572SOL    HW123615   4.733   0.394   4.156
 7572SOL    HW223616   4.660   0.486   4.270
 7573SOL     OW23617   5.931   6.190   4.041
 7573SOL    HW123618   5.852   6.192   4.102
 7573SOL    HW223619   5.981   6.277   4.047
 7574SOL     OW23620   5.790   1.453   4.085
 7574SOL    HW123621   5.851   1.480   4.159
 7574SOL    HW223622   5.825   1.370   4.041
 7575SOL     OW23623   4.389   0.778   5.728
 7575SOL    HW123624   4.447   0.723   5.788
 7575SOL    HW223625   4.346   0.719   5.659
 7576SOL     OW23626   5.748   5.454   0.073
 7576SOL    HW123627   5.812   5.526   0.098
 7576SOL    HW223628   5.752   5.381   0.142
 7577SOL     OW23629   6.623   7.006   4.729
 7577SOL    HW123630   6.615   0.025   4.640
 7577SOL    HW223631   6.612   0.050   4.801
 7578SOL     OW23632   1.851   6.406   4.258
 7578SOL    HW123633   1.845   6.409   4.357
 7578SOL    HW223634   1.888   6.492   4.223
 7579SOL     OW23635   4.628   2.320   2.053
 7579SOL    HW123636   4.549   2.286   2.004
 7579SOL    HW223637   4.605   2.333   2.149
 7580SOL     OW23638   1.218   3.780   3.416
 7580SOL    HW123639   1.205   3.805   3.320
 7580SOL    HW223640   1.284   3.705   3.423
 7581SOL     OW23641   4.500   1.605   0.447
 7581SOL    HW123642   4.542   1.660   0.519
 7581SOL    HW223643   4.571   1.559   0.393
 7582SOL     OW23644   3.568   1.544   0.987
 7582SOL    HW123645   3.525   1.548   0.897
 7582SOL    HW223646   3.640   1.614   0.993
 7583SOL     OW23647   6.256   3.815   1.872
 7583SOL    HW123648   6.222   3.895   1.921
 7583SOL    HW223649   6.319   3.845   1.800
 7584SOL     OW23650   2.162   6.851   1.065
 7584SOL    HW123651   2.256   6.855   1.098
 7584SOL    HW223652   2.155   6.900   0.978
 7585SOL     OW23653   1.363   4.218   6.088
 7585SOL    HW123654   1.444   4.270   6.063
 7585SOL    HW223655   1.300   4.215   6.010
 7586SOL     OW23656   2.690   0.569   2.489
 7586SOL    HW123657   2.721   0.501   2.423
 7586SOL    HW223658   2.728   0.549   2.579
 7587SOL     OW23659   2.188   1.571   6.660
 7587SOL    HW123660   2.245   1.653   6.670
 7587SOL    HW223661   2.240   1.500   6.613
 7588SOL     OW23662   0.724   4.621   2.034
 7588SOL    HW123663   0.682   4.561   2.102
 7588SOL    HW223664   0.821   4.631   2.053
 7589SOL     OW23665   5.756   5.733   0.550
 7589SOL    HW123666   5.762   5.825   0.512
 7589SOL    HW223667   5.665   5.695   0.532
 7590SOL     OW23668   2.568   1.560   5.640
 7590SOL    HW123669   2.476   1.521   5.651
 7590SOL    HW223670   2.574   1.606   5.552
 7591SOL     OW23671   0.154   5.441   0.399
 7591SOL    HW123672   0.235   5.401   0.441
 7591SOL    HW223673   0.078   5.440   0.465
 7592SOL     OW23674   6.976   4.902   6.800
 7592SOL    HW123675   6.982   4.966   6.723
 7592SOL    HW223676   6.891   4.849   6.793
 7593SOL     OW23677   6.101   2.420   6.704
 7593SOL    HW123678   6.107   2.400   6.802
 7593SOL    HW223679   6.092   2.334   6.653
 7594SOL     OW23680   0.686   5.162   2.500
 7594SOL    HW123681   0.598   5.209   2.489
 7594SOL    HW223682   0.689   5.085   2.436
 7595SOL     OW23683   0.354   2.774   6.634
 7595SOL    HW123684   0.284   2.830   6.589
 7595SOL    HW223685   0.354   2.794   6.732
 7596SOL     OW23686   5.185   5.154   2.596
 7596SOL    HW123687   5.205   5.214   2.673
 7596SOL    HW223688   5.258   5.160   2.528
 7597SOL     OW23689   3.163   5.784   2.147
 7597SOL    HW123690   3.235   5.725   2.110
 7597SOL    HW223691   3.076   5.762   2.103
 7598SOL     OW23692   6.182   0.710   2.947
 7598SOL    HW123693   6.093   0.684   2.909
 7598SOL    HW223694   6.226   0.630   2.987
 7599SOL     OW23695   5.407   1.235   3.603
 7599SOL    HW123696   5.451   1.262   3.688
 7599SOL    HW223697   5.435   1.296   3.529
 7600SOL     OW23698   1.374   0.676   2.019
 7600SOL    HW123699   1.293   0.646   1.970
 7600SOL    HW223700   1.348   0.727   2.101
 7601SOL     OW23701   1.653   5.733   3.655
 7601SOL    HW123702   1.645   5.832   3.660
 7601SOL    HW223703   1.746   5.708   3.625
 7602SOL     OW23704   2.087   4.192   4.646
 7602SOL    HW123705   2.010   4.143   4.686
 7602SOL    HW223706   2.158   4.127   4.617
 7603SOL     OW23707   1.313   6.481   6.463
 7603SOL    HW123708   1.227   6.430   6.470
 7603SOL    HW223709   1.377   6.449   6.533
 7604SOL     OW23710   2.678   6.090   3.983
 7604SOL    HW123711   2.700   6.002   3.940
 7604SOL    HW223712   2.691   6.163   3.917
 7605SOL     OW23713   1.646   5.942   0.160
 7605SOL    HW123714   1.625   6.038   0.141
 7605SOL    HW223715   1.726   5.914   0.107
 7606SOL     OW23716   0.293   2.754   1.893
 7606SOL    HW123717   0.217   2.792   1.945
 7606SOL    HW223718   0.351   2.700   1.954
 7607SOL     OW23719   4.041   0.223   6.885
 7607SOL    HW123720   4.057   0.176   6.972
 7607SOL    HW223721   4.089   0.174   6.812
 7608SOL     OW23722   3.454   3.879   3.814
 7608SOL    HW123723   3.418   3.789   3.790
 7608SOL    HW223724   3.442   3.895   3.912
 7609SOL     OW23725   6.822   3.476   3.288
 7609SOL    HW123726   6.851   3.382   3.270
 7609SOL    HW223727   6.864   3.509   3.373
 7610SOL     OW23728   6.328   0.738   0.846
 7610SOL    HW123729   6.247   0.796   0.843
 7610SOL    HW223730   6.312   0.662   0.909
 7611SOL     OW23731   0.658   2.111   0.315
 7611SOL    HW123732   0.643   2.014   0.293
 7611SOL    HW223733   0.626   2.129   0.408
 7612SOL     OW23734   4.072   1.990   4.347
 7612SOL    HW123735   4.013   2.035   4.414
 7612SOL    HW223736   4.078   2.047   4.265
 7613SOL     OW23737   4.920   2.069   1.595
 7613SOL    HW123738   4.857   2.011   1.544
 7613SOL    HW223739   4.871   2.150   1.629
 7614SOL     OW23740   4.011   2.573   1.686
 7614SOL    HW123741   4.103   2.612   1.682
 7614SOL    HW223742   4.009   2.499   1.753
 7615SOL     OW23743   5.421   4.721   6.505
 7615SOL    HW123744   5.335   4.768   6.484
 7615SOL    HW223745   5.495   4.763   6.452
 7616SOL     OW23746   1.117   4.250   4.245
 7616SOL    HW123747   1.130   4.172   4.184
 7616SOL    HW223748   1.096   4.217   4.337
 7617SOL     OW23749   2.886   5.479   3.310
 7617SOL    HW123750   2.840   5.490   3.398
 7617SOL    HW223751   2.868   5.559   3.253
 7618SOL     OW23752   1.185   2.085   6.599
 7618SOL    HW123753   1.284   2.089   6.615
 7618SOL    HW223754   1.143   2.024   6.666
 7619SOL     OW23755   5.563   3.382   5.354
 7619SOL    HW123756   5.556   3.389   5.254
 7619SOL    HW223757   5.499   3.447   5.396
 7620SOL     OW23758   3.772   6.668   0.803
 7620SOL    HW123759   3.729   6.732   0.867
 7620SOL    HW223760   3.793   6.582   0.851
 7621SOL     OW23761   0.788   1.081   0.433
 7621SOL    HW123762   0.885   1.071   0.455
 7621SOL    HW223763   0.751   0.992   0.407
 7622SOL     OW23764   5.511   3.506   1.803
 7622SOL    HW123765   5.594   3.472   1.760
 7622SOL    HW223766   5.498   3.460   1.891
 7623SOL     OW23767   4.767   5.158   6.311
 7623SOL    HW123768   4.835   5.177   6.240
 7623SOL    HW223769   4.765   5.060   6.331
 7624SOL     OW23770   0.450   2.239   4.246
 7624SOL    HW123771   0.481   2.200   4.159
 7624SOL    HW223772   0.458   2.170   4.318
 7625SOL     OW23773   5.023   0.873   0.778
 7625SOL    HW123774   5.110   0.884   0.826
 7625SOL    HW223775   5.039   0.869   0.680
 7626SOL     OW23776   0.508   6.435   5.245
 7626SOL    HW123777   0.504   6.506   5.316
 7626SOL    HW223778   0.460   6.467   5.164
 7627SOL     OW23779   6.244   2.855   0.623
 7627SOL    HW123780   6.230   2.922   0.696
 7627SOL    HW223781   6.332   2.874   0.578
 7628SOL     OW23782   3.430   0.741   1.112
 7628SOL    HW123783   3.443   0.757   1.210
 7628SOL    HW223784   3.416   0.828   1.065
 7629SOL     OW23785   6.142   6.931   2.563
 7629SOL    HW123786   6.204   7.004   2.590
 7629SOL    HW223787   6.086   6.904   2.641
 7630SOL     OW23788   5.939   6.355   2.197
 7630SOL    HW123789   5.958   6.276   2.256
 7630SOL    HW223790   5.991   6.434   2.229
 7631SOL     OW23791   1.111   1.797   5.758
 7631SOL    HW123792   1.108   1.856   5.677
 7631SOL    HW223793   1.187   1.733   5.750
 7632SOL     OW23794   3.738   2.154   1.457
 7632SOL    HW123795   3.677   2.100   1.399
 7632SOL    HW223796   3.802   2.092   1.504
 7633SOL     OW23797   5.619   2.512   0.323
 7633SOL    HW123798   5.534   2.547   0.283
 7633SOL    HW223799   5.694   2.526   0.259
 7634SOL     OW23800   1.047   1.639   2.162
 7634SOL    HW123801   1.105   1.599   2.233
 7634SOL    HW223802   0.951   1.633   2.190
 7635SOL     OW23803   2.565   5.285   5.287
 7635SOL    HW123804   2.636   5.241   5.232
 7635SOL    HW223805   2.577   5.259   5.383
 7636SOL     OW23806   1.345   1.711   3.798
 7636SOL    HW123807   1.434   1.677   3.771
 7636SOL    HW223808   1.347   1.811   3.802
 7637SOL     OW23809   2.101   6.405   2.730
 7637SOL    HW123810   2.156   6.388   2.649
 7637SOL    HW223811   2.006   6.379   2.712
 7638SOL     OW23812   5.446   5.357   1.567
 7638SOL    HW123813   5.355   5.390   1.591
 7638SOL    HW223814   5.444   5.257   1.558
 7639SOL     OW23815   1.435   1.965   6.898
 7639SOL    HW123816   1.410   1.989   6.805
 7639SOL    HW223817   1.535   1.970   6.908
 7640SOL     OW23818   2.509   2.120   0.067
 7640SOL    HW123819   2.561   2.103   7.008
 7640SOL    HW223820   2.572   2.122   0.145
 7641SOL     OW23821   1.183   4.452   1.984
 7641SOL    HW123822   1.149   4.406   2.066
 7641SOL    HW223823   1.120   4.435   1.908
 7642SOL     OW23824   2.419   2.031   3.292
 7642SOL    HW123825   2.332   2.010   3.247
 7642SOL    HW223826   2.469   2.098   3.237
 7643SOL     OW23827   4.953   2.527   3.369
 7643SOL    HW123828   5.021   2.518   3.442
 7643SOL    HW223829   4.867   2.484   3.397
 7644SOL     OW23830   6.477   2.308   2.435
 7644SOL    HW123831   6.499   2.331   2.530
 7644SOL    HW223832   6.414   2.377   2.398
 7645SOL     OW23833   4.589   4.961   5.952
 7645SOL    HW123834   4.648   5.041   5.949
 7645SOL    HW223835   4.521   4.967   5.878
 7646SOL     OW23836   2.018   2.157   2.398
 7646SOL    HW123837   2.012   2.157   2.498
 7646SOL    HW223838   1.941   2.106   2.360
 7647SOL     OW23839   1.089   3.463   1.056
 7647SOL    HW123840   1.027   3.522   1.106
 7647SOL    HW223841   1.161   3.431   1.118
 7648SOL     OW23842   4.110   2.132   3.865
 7648SOL    HW123843   4.011   2.148   3.869
 7648SOL    HW223844   4.147   2.174   3.783
 7649SOL     OW23845   1.225   0.860   2.610
 7649SOL    HW123846   1.323   0.856   2.591
 7649SOL    HW223847   1.202   0.947   2.652
 7650SOL     OW23848   6.260   3.119   1.781
 7650SOL    HW123849   6.261   3.066   1.696
 7650SOL    HW223850   6.201   3.074   1.848
 7651SOL     OW23851   2.303   0.032   6.190
 7651SOL    HW123852   2.238   0.082   6.248
 7651SOL    HW223853   2.262   6.970   6.161
 7652SOL     OW23854   0.081   3.682   4.131
 7652SOL    HW123855   0.008   3.738   4.093
 7652SOL    HW223856   0.045   3.594   4.160
 7653SOL     OW23857   1.909   1.388   0.861
 7653SOL    HW123858   1.970   1.313   0.886
 7653SOL    HW223859   1.817   1.353   0.844
 7654SOL     OW23860   5.159   2.903   3.131
 7654SOL    HW123861   5.168   2.968   3.207
 7654SOL    HW223862   5.222   2.929   3.058
 7655SOL     OW23863   3.692   0.345   3.849
 7655SOL    HW123864   3.663   0.415   3.915
 7655SOL    HW223865   3.736   0.389   3.771
 7656SOL     OW23866   1.172   5.849   5.955
 7656SOL    HW123867   1.097   5.786   5.975
 7656SOL    HW223868   1.164   5.882   5.861
 7657SOL     OW23869   2.891   2.273   3.136
 7657SOL    HW123870   2.877   2.255   3.038
 7657SOL    HW223871   2.810   2.319   3.172
 7658SOL     OW23872   4.499   6.710   5.701
 7658SOL    HW123873   4.402   6.724   5.723
 7658SOL    HW223874   4.553   6.782   5.743
 7659SOL     OW23875   5.618   6.629   6.608
 7659SOL    HW123876   5.706   6.673   6.626
 7659SOL    HW223877   5.580   6.664   6.522
 7660SOL     OW23878   6.238   6.067   4.245
 7660SOL    HW123879   6.180   6.136   4.288
 7660SOL    HW223880   6.222   6.067   4.147
 7661SOL     OW23881   6.109   1.773   4.134
 7661SOL    HW123882   6.033   1.837   4.147
 7661SOL    HW223883   6.187   1.822   4.095
 7662SOL     OW23884   1.424   2.417   2.274
 7662SOL    HW123885   1.505   2.438   2.218
 7662SOL    HW223886   1.349   2.477   2.248
 7663SOL     OW23887   6.430   6.191   6.325
 7663SOL    HW123888   6.427   6.269   6.262
 7663SOL    HW223889   6.492   6.122   6.288
 7664SOL     OW23890   3.223   0.034   2.771
 7664SOL    HW123891   3.321   0.050   2.783
 7664SOL    HW223892   3.209   6.972   2.722
 7665SOL     OW23893   3.608   0.365   3.499
 7665SOL    HW123894   3.686   0.413   3.540
 7665SOL    HW223895   3.536   0.430   3.477
 7666SOL     OW23896   6.784   6.666   1.597
 7666SOL    HW123897   6.858   6.600   1.616
 7666SOL    HW223898   6.762   6.715   1.681
 7667SOL     OW23899   5.402   5.735   0.661
 7667SOL    HW123900   5.450   5.666   0.714
 7667SOL    HW223901   5.447   5.824   0.673
 7668SOL     OW23902   2.872   4.036   1.083
 7668SOL    HW123903   2.886   4.047   1.182
 7668SOL    HW223904   2.822   4.116   1.048
 7669SOL     OW23905   5.120   1.778   4.987
 7669SOL    HW123906   5.069   1.843   4.931
 7669SOL    HW223907   5.192   1.737   4.933
 7670SOL     OW23908   1.483   5.835   6.518
 7670SOL    HW123909   1.553   5.777   6.560
 7670SOL    HW223910   1.405   5.779   6.491
 7671SOL     OW23911   4.076   1.162   4.316
 7671SOL    HW123912   4.121   1.123   4.396
 7671SOL    HW223913   4.109   1.117   4.234
 7672SOL     OW23914   5.625   6.723   3.619
 7672SOL    HW123915   5.691   6.786   3.659
 7672SOL    HW223916   5.612   6.646   3.681
 7673SOL     OW23917   2.215   4.852   0.702
 7673SOL    HW123918   2.268   4.896   0.775
 7673SOL    HW223919   2.260   4.869   0.614
 7674SOL     OW23920   6.764   2.335   4.397
 7674SOL    HW123921   6.834   2.345   4.326
 7674SOL    HW223922   6.673   2.345   4.355
 7675SOL     OW23923   5.212   0.539   2.942
 7675SOL    HW123924   5.144   0.473   2.974
 7675SOL    HW223925   5.187   0.571   2.850
 7676SOL     OW23926   0.417   2.022   0.628
 7676SOL    HW123927   0.417   1.926   0.604
 7676SOL    HW223928   0.504   2.045   0.673
 7677SOL     OW23929   1.669   3.210   1.747
 7677SOL    HW123930   1.684   3.192   1.650
 7677SOL    HW223931   1.725   3.148   1.801
 7678SOL     OW23932   1.421   1.203   6.191
 7678SOL    HW123933   1.417   1.129   6.258
 7678SOL    HW223934   1.507   1.253   6.200
 7679SOL     OW23935   1.125   6.451   4.838
 7679SOL    HW123936   1.187   6.454   4.917
 7679SOL    HW223937   1.031   6.459   4.870
 7680SOL     OW23938   2.024   3.064   6.935
 7680SOL    HW123939   2.053   3.047   6.841
 7680SOL    HW223940   2.100   3.043   6.997
 7681SOL     OW23941   3.130   0.258   0.128
 7681SOL    HW123942   3.180   0.204   0.060
 7681SOL    HW223943   3.193   0.322   0.172
 7682SOL     OW23944   2.555   0.199   2.013
 7682SOL    HW123945   2.559   0.295   2.041
 7682SOL    HW223946   2.543   0.194   1.914
 7683SOL     OW23947   6.995   2.270   3.599
 7683SOL    HW123948   7.021   2.284   3.503
 7683SOL    HW223949   7.020   2.350   3.653
 7684SOL     OW23950   5.599   2.250   6.990
 7684SOL    HW123951   5.649   2.336   6.987
 7684SOL    HW223952   5.556   2.239   0.056
 7685SOL     OW23953   3.856   2.836   6.917
 7685SOL    HW123954   3.856   2.880   7.007
 7685SOL    HW223955   3.843   2.905   6.846
 7686SOL     OW23956   4.420   0.161   3.324
 7686SOL    HW123957   4.400   0.211   3.239
 7686SOL    HW223958   4.334   0.127   3.363
 7687SOL     OW23959   5.731   5.756   5.354
 7687SOL    HW123960   5.688   5.811   5.282
 7687SOL    HW223961   5.793   5.813   5.407
 7688SOL     OW23962   0.133   0.411   6.460
 7688SOL    HW123963   0.139   0.314   6.437
 7688SOL    HW223964   0.219   0.441   6.502
 7689SOL     OW23965   5.521   5.655   3.735
 7689SOL    HW123966   5.500   5.729   3.671
 7689SOL    HW223967   5.462   5.663   3.815
 7690SOL     OW23968   5.896   5.298   2.344
 7690SOL    HW123969   5.919   5.393   2.321
 7690SOL    HW223970   5.954   5.236   2.292
 7691SOL     OW23971   4.830   2.963   4.391
 7691SOL    HW123972   4.786   3.037   4.341
 7691SOL    HW223973   4.849   2.887   4.328
 7692SOL     OW23974   0.659   0.064   1.295
 7692SOL    HW123975   0.686   0.020   1.381
 7692SOL    HW223976   0.723   0.036   1.223
 7693SOL     OW23977   4.388   0.858   0.422
 7693SOL    HW123978   4.458   0.806   0.471
 7693SOL    HW223979   4.298   0.816   0.439
 7694SOL     OW23980   0.965   4.467   3.997
 7694SOL    HW123981   0.996   4.444   4.089
 7694SOL    HW223982   1.026   4.536   3.957
 7695SOL     OW23983   4.090   0.222   1.162
 7695SOL    HW123984   4.006   0.275   1.165
 7695SOL    HW223985   4.148   0.246   1.240
 7696SOL     OW23986   6.775   1.985   4.508
 7696SOL    HW123987   6.852   2.030   4.463
 7696SOL    HW223988   6.808   1.932   4.586
 7697SOL     OW23989   2.514   0.999   3.025
 7697SOL    HW123990   2.490   0.902   3.017
 7697SOL    HW223991   2.528   1.022   3.122
 7698SOL     OW23992   0.318   2.883   4.622
 7698SOL    HW123993   0.282   2.901   4.531
 7698SOL    HW223994   0.369   2.963   4.654
 7699SOL     OW23995   3.099   5.481   6.769
 7699SOL    HW123996   3.177   5.433   6.810
 7699SOL    HW223997   3.111   5.579   6.778
 7700SOL     OW23998   5.234   6.616   5.568
 7700SOL    HW123999   5.326   6.591   5.600
 7700SOL    HW224000   5.240   6.698   5.512
 7701SOL     OW24001   5.760   1.485   6.576
 7701SOL    HW124002   5.680   1.512   6.629
 7701SOL    HW224003   5.754   1.526   6.484
 7702SOL     OW24004   3.581   5.929   6.115
 7702SOL    HW124005   3.560   5.858   6.047
 7702SOL    HW224006   3.652   5.897   6.176
 7703SOL     OW24007   6.521   1.349   4.846
 7703SOL    HW124008   6.465   1.411   4.792
 7703SOL    HW224009   6.600   1.320   4.792
 7704SOL     OW24010   4.198   4.875   5.388
 7704SOL    HW124011   4.217   4.810   5.461
 7704SOL    HW224012   4.124   4.936   5.415
 7705SOL     OW24013   3.386   4.597   5.615
 7705SOL    HW124014   3.450   4.559   5.549
 7705SOL    HW224015   3.293   4.567   5.593
 7706SOL     OW24016   4.994   1.081   5.513
 7706SOL    HW124017   5.002   1.180   5.501
 7706SOL    HW224018   5.000   1.058   5.610
 7707SOL     OW24019   0.333   5.790   6.741
 7707SOL    HW124020   0.244   5.827   6.768
 7707SOL    HW224021   0.360   5.829   6.654
 7708SOL     OW24022   4.796   6.083   4.726
 7708SOL    HW124023   4.861   6.100   4.651
 7708SOL    HW224024   4.714   6.040   4.689
 7709SOL     OW24025   5.582   3.323   2.029
 7709SOL    HW124026   5.572   3.225   2.013
 7709SOL    HW224027   5.508   3.355   2.088
 7710SOL     OW24028   2.085   0.482   1.157
 7710SOL    HW124029   2.170   0.513   1.114
 7710SOL    HW224030   2.008   0.536   1.123
 7711SOL     OW24031   6.425   6.013   4.646
 7711SOL    HW124032   6.428   6.112   4.665
 7711SOL    HW224033   6.514   5.984   4.611
 7712SOL     OW24034   6.585   4.892   1.293
 7712SOL    HW124035   6.502   4.945   1.303
 7712SOL    HW224036   6.650   4.916   1.365
 7713SOL     OW24037   2.159   4.030   0.945
 7713SOL    HW124038   2.152   3.931   0.937
 7713SOL    HW224039   2.104   4.062   1.022
 7714SOL     OW24040   0.055   5.229   5.122
 7714SOL    HW124041   0.094   5.138   5.111
 7714SOL    HW224042   0.046   5.272   5.032
 7715SOL     OW24043   5.188   1.377   1.276
 7715SOL    HW124044   5.206   1.461   1.328
 7715SOL    HW224045   5.096   1.381   1.237
 7716SOL     OW24046   5.364   3.228   3.231
 7716SOL    HW124047   5.355   3.326   3.249
 7716SOL    HW224048   5.457   3.199   3.253
 7717SOL     OW24049   2.956   1.423   4.536
 7717SOL    HW124050   2.973   1.340   4.483
 7717SOL    HW224051   2.930   1.497   4.475
 7718SOL     OW24052   1.662   2.333   3.771
 7718SOL    HW124053   1.657   2.333   3.671
 7718SOL    HW224054   1.702   2.246   3.802
 7719SOL     OW24055   6.838   3.371   3.837
 7719SOL    HW124056   6.917   3.360   3.896
 7719SOL    HW224057   6.865   3.359   3.741
 7720SOL     OW24058   0.116   6.638   0.474
 7720SOL    HW124059   0.135   6.735   0.459
 7720SOL    HW224060   0.196   6.595   0.516
 7721SOL     OW24061   1.787   3.995   2.903
 7721SOL    HW124062   1.820   4.039   2.987
 7721SOL    HW224063   1.696   4.031   2.881
 7722SOL     OW24064   0.280   5.323   2.612
 7722SOL    HW124065   0.346   5.266   2.564
 7722SOL    HW224066   0.193   5.273   2.620
 7723SOL     OW24067   6.777   4.102   0.831
 7723SOL    HW124068   6.836   4.026   0.858
 7723SOL    HW224069   6.795   4.127   0.736
 7724SOL     OW24070   2.244   4.722   2.134
 7724SOL    HW124071   2.249   4.724   2.233
 7724SOL    HW224072   2.148   4.733   2.105
 7725SOL     OW24073   4.971   2.703   3.172
 7725SOL    HW124074   4.962   2.624   3.232
 7725SOL    HW224075   5.055   2.753   3.196
 7726SOL     OW24076   0.020   4.765   4.087
 7726SOL    HW124077   0.030   4.680   4.139
 7726SOL    HW224078   0.110   4.803   4.067
 7727SOL     OW24079   5.991   1.997   3.305
 7727SOL    HW124080   5.942   1.910   3.305
 7727SOL    HW224081   6.061   1.997   3.376
 7728SOL     OW24082   1.210   3.850   3.154
 7728SOL    HW124083   1.231   3.757   3.125
 7728SOL    HW224084   1.293   3.906   3.149
 7729SOL     OW24085   6.236   2.517   1.645
 7729SOL    HW124086   6.160   2.496   1.585
 7729SOL    HW224087   6.267   2.433   1.691
 7730SOL     OW24088   6.002   5.942   2.537
 7730SOL    HW124089   6.086   5.897   2.569
 7730SOL    HW224090   5.927   5.876   2.534
 7731SOL     OW24091   5.714   1.035   1.019
 7731SOL    HW124092   5.784   1.074   1.079
 7731SOL    HW224093   5.654   1.107   0.986
 7732SOL     OW24094   4.651   6.232   0.592
 7732SOL    HW124095   4.680   6.150   0.541
 7732SOL    HW224096   4.649   6.211   0.690
 7733SOL     OW24097   4.467   6.437   1.747
 7733SOL    HW124098   4.495   6.348   1.712
 7733SOL    HW224099   4.461   6.435   1.847
 7734SOL     OW24100   1.486   3.972   3.139
 7734SOL    HW124101   1.504   4.002   3.045
 7734SOL    HW224102   1.481   4.051   3.199
 7735SOL     OW24103   3.988   4.845   6.711
 7735SOL    HW124104   3.900   4.803   6.693
 7735SOL    HW224105   4.044   4.783   6.766
 7736SOL     OW24106   5.376   4.457   0.458
 7736SOL    HW124107   5.389   4.524   0.531
 7736SOL    HW224108   5.379   4.365   0.496
 7737SOL     OW24109   4.366   1.248   0.804
 7737SOL    HW124110   4.329   1.315   0.739
 7737SOL    HW224111   4.334   1.270   0.896
 7738SOL     OW24112   2.340   5.837   0.181
 7738SOL    HW124113   2.328   5.738   0.189
 7738SOL    HW224114   2.413   5.867   0.242
 7739SOL     OW24115   0.194   1.682   1.326
 7739SOL    HW124116   0.224   1.759   1.383
 7739SOL    HW224117   0.256   1.605   1.339
 7740SOL     OW24118   0.611   0.207   2.824
 7740SOL    HW124119   0.592   0.304   2.842
 7740SOL    HW224120   0.530   0.153   2.846
 7741SOL     OW24121   1.311   5.649   4.748
 7741SOL    HW124122   1.376   5.574   4.740
 7741SOL    HW224123   1.323   5.712   4.671
 7742SOL     OW24124   6.354   1.934   3.768
 7742SOL    HW124125   6.388   2.017   3.812
 7742SOL    HW224126   6.310   1.958   3.681
 7743SOL     OW24127   4.638   3.107   6.102
 7743SOL    HW124128   4.683   3.121   6.190
 7743SOL    HW224129   4.551   3.060   6.115
 7744SOL     OW24130   0.189   6.429   3.998
 7744SOL    HW124131   0.249   6.357   3.961
 7744SOL    HW224132   0.211   6.516   3.953
 7745SOL     OW24133   3.462   2.493   6.041
 7745SOL    HW124134   3.551   2.448   6.050
 7745SOL    HW224135   3.409   2.478   6.124
 7746SOL     OW24136   2.370   0.142   6.891
 7746SOL    HW124137   2.359   0.206   6.815
 7746SOL    HW224138   2.463   0.105   6.889
 7747SOL     OW24139   5.129   6.417   0.893
 7747SOL    HW124140   5.047   6.473   0.905
 7747SOL    HW224141   5.145   6.362   0.975
 7748SOL     OW24142   3.289   4.056   5.466
 7748SOL    HW124143   3.325   3.982   5.409
 7748SOL    HW224144   3.322   4.047   5.559
 7749SOL     OW24145   4.544   3.263   5.869
 7749SOL    HW124146   4.477   3.213   5.814
 7749SOL    HW224147   4.596   3.199   5.925
 7750SOL     OW24148   0.656   6.017   1.087
 7750SOL    HW124149   0.721   6.061   1.025
 7750SOL    HW224150   0.639   6.077   1.165
 7751SOL     OW24151   1.729   1.229   2.145
 7751SOL    HW124152   1.829   1.223   2.148
 7751SOL    HW224153   1.697   1.212   2.052
 7752SOL     OW24154   4.820   0.478   4.680
 7752SOL    HW124155   4.802   0.520   4.770
 7752SOL    HW224156   4.850   0.549   4.616
 7753SOL     OW24157   1.985   1.505   4.635
 7753SOL    HW124158   2.060   1.440   4.621
 7753SOL    HW224159   1.926   1.505   4.555
 7754SOL     OW24160   3.949   6.243   1.372
 7754SOL    HW124161   3.927   6.193   1.288
 7754SOL    HW224162   3.908   6.334   1.368
 7755SOL     OW24163   1.392   3.714   6.143
 7755SOL    HW124164   1.399   3.773   6.063
 7755SOL    HW224165   1.461   3.642   6.138
 7756SOL     OW24166   2.336   6.381   1.031
 7756SOL    HW124167   2.242   6.378   1.067
 7756SOL    HW224168   2.392   6.314   1.080
 7757SOL     OW24169   6.934   4.583   1.513
 7757SOL    HW124170   7.015   4.528   1.497
 7757SOL    HW224171   6.960   4.669   1.556
 7758SOL     OW24172   1.603   0.718   6.416
 7758SOL    HW124173   1.665   0.667   6.356
 7758SOL    HW224174   1.657   0.770   6.483
 7759SOL     OW24175   2.303   2.449   5.606
 7759SOL    HW124176   2.224   2.388   5.604
 7759SOL    HW224177   2.286   2.524   5.670
 7760SOL     OW24178   4.917   1.738   2.326
 7760SOL    HW124179   4.990   1.804   2.344
 7760SOL    HW224180   4.844   1.783   2.273
 7761SOL     OW24181   5.706   4.958   4.132
 7761SOL    HW124182   5.693   5.017   4.053
 7761SOL    HW224183   5.626   4.964   4.192
 7762SOL     OW24184   0.678   0.512   4.406
 7762SOL    HW124185   0.622   0.500   4.325
 7762SOL    HW224186   0.729   0.598   4.399
 7763SOL     OW24187   2.396   0.296   5.224
 7763SOL    HW124188   2.486   0.282   5.182
 7763SOL    HW224189   2.326   0.299   5.153
 7764SOL     OW24190   3.257   3.831   5.267
 7764SOL    HW124191   3.226   3.912   5.217
 7764SOL    HW224192   3.181   3.766   5.275
 7765SOL     OW24193   6.954   3.482   4.243
 7765SOL    HW124194   6.871   3.537   4.255
 7765SOL    HW224195   6.951   3.405   4.308
 7766SOL     OW24196   0.535   4.522   0.502
 7766SOL    HW124197   0.544   4.547   0.405
 7766SOL    HW224198   0.520   4.604   0.557
 7767SOL     OW24199   4.308   6.931   2.044
 7767SOL    HW124200   4.229   6.882   2.078
 7767SOL    HW224201   4.299   6.946   1.945
 7768SOL     OW24202   4.485   4.531   2.730
 7768SOL    HW124203   4.479   4.549   2.828
 7768SOL    HW224204   4.445   4.607   2.679
 7769SOL     OW24205   4.031   2.267   5.219
 7769SOL    HW124206   4.027   2.223   5.130
 7769SOL    HW224207   4.063   2.361   5.209
 7770SOL     OW24208   1.031   3.065   5.115
 7770SOL    HW124209   1.085   3.149   5.112
 7770SOL    HW224210   1.000   3.048   5.209
 7771SOL     OW24211   3.094   2.483   6.227
 7771SOL    HW124212   3.131   2.471   6.134
 7771SOL    HW224213   3.019   2.419   6.241
 7772SOL     OW24214   5.247   0.962   0.905
 7772SOL    HW124215   5.204   1.052   0.901
 7772SOL    HW224216   5.323   0.958   0.840
 7773SOL     OW24217   3.154   6.091   0.200
 7773SOL    HW124218   3.159   6.053   0.292
 7773SOL    HW224219   3.230   6.155   0.187
 7774SOL     OW24220   5.066   2.324   3.197
 7774SOL    HW124221   5.124   2.272   3.260
 7774SOL    HW224222   5.031   2.406   3.244
 7775SOL     OW24223   3.819   0.578   6.908
 7775SOL    HW124224   3.792   0.605   6.816
 7775SOL    HW224225   3.917   0.559   6.910
 7776SOL     OW24226   0.532   6.669   5.430
 7776SOL    HW124227   0.552   6.708   5.520
 7776SOL    HW224228   0.479   6.736   5.377
 7777SOL     OW24229   5.886   5.266   3.786
 7777SOL    HW124230   5.827   5.192   3.818
 7777SOL    HW224231   5.838   5.318   3.715
 7778SOL     OW24232   6.430   3.685   2.984
 7778SOL    HW124233   6.378   3.756   3.032
 7778SOL    HW224234   6.367   3.622   2.940
 7779SOL     OW24235   3.322   6.426   2.583
 7779SOL    HW124236   3.256   6.430   2.658
 7779SOL    HW224237   3.412   6.402   2.619
 7780SOL     OW24238   6.630   5.385   5.892
 7780SOL    HW124239   6.684   5.356   5.813
 7780SOL    HW224240   6.591   5.476   5.874
 7781SOL     OW24241   1.738   2.835   0.193
 7781SOL    HW124242   1.778   2.794   0.275
 7781SOL    HW224243   1.782   2.922   0.174
 7782SOL     OW24244   6.534   4.899   3.068
 7782SOL    HW124245   6.486   4.815   3.046
 7782SOL    HW224246   6.624   4.878   3.104
 7783SOL     OW24247   0.805   6.873   5.474
 7783SOL    HW124248   0.885   6.933   5.472
 7783SOL    HW224249   0.725   6.922   5.438
 7784SOL     OW24250   2.472   2.123   2.374
 7784SOL    HW124251   2.405   2.123   2.300
 7784SOL    HW224252   2.549   2.183   2.350
 7785SOL     OW24253   1.635   6.363   2.304
 7785SOL    HW124254   1.610   6.349   2.400
 7785SOL    HW224255   1.691   6.445   2.296
 7786SOL     OW24256   4.337   0.838   6.561
 7786SOL    HW124257   4.403   0.908   6.590
 7786SOL    HW224258   4.361   0.750   6.602
 7787SOL     OW24259   2.682   3.432   0.574
 7787SOL    HW124260   2.646   3.480   0.654
 7787SOL    HW224261   2.781   3.447   0.569
 7788SOL     OW24262   1.593   5.357   2.022
 7788SOL    HW124263   1.533   5.305   2.083
 7788SOL    HW224264   1.549   5.444   1.999
 7789SOL     OW24265   3.611   0.317   6.624
 7789SOL    HW124266   3.703   0.296   6.658
 7789SOL    HW224267   3.606   0.414   6.601
 7790SOL     OW24268   6.093   5.289   2.701
 7790SOL    HW124269   6.096   5.216   2.769
 7790SOL    HW224270   5.998   5.311   2.680
 7791SOL     OW24271   2.104   5.816   1.666
 7791SOL    HW124272   2.169   5.770   1.604
 7791SOL    HW224273   2.146   5.825   1.756
 7792SOL     OW24274   0.694   1.557   2.798
 7792SOL    HW124275   0.718   1.628   2.864
 7792SOL    HW224276   0.620   1.591   2.739
 7793SOL     OW24277   4.180   1.836   0.032
 7793SOL    HW124278   4.237   1.871   0.106
 7793SOL    HW224279   4.182   1.737   0.031
 7794SOL     OW24280   0.906   5.823   2.758
 7794SOL    HW124281   0.851   5.741   2.745
 7794SOL    HW224282   0.846   5.902   2.771
 7795SOL     OW24283   3.305   5.536   5.835
 7795SOL    HW124284   3.300   5.470   5.761
 7795SOL    HW224285   3.381   5.513   5.896
 7796SOL     OW24286   3.385   3.313   5.871
 7796SOL    HW124287   3.321   3.275   5.937
 7796SOL    HW224288   3.433   3.239   5.824
 7797SOL     OW24289   0.776   5.128   2.953
 7797SOL    HW124290   0.831   5.046   2.939
 7797SOL    HW224291   0.812   5.202   2.895
 7798SOL     OW24292   0.466   1.587   1.832
 7798SOL    HW124293   0.550   1.637   1.811
 7798SOL    HW224294   0.389   1.631   1.787
 7799SOL     OW24295   2.821   6.330   2.789
 7799SOL    HW124296   2.800   6.242   2.832
 7799SOL    HW224297   2.835   6.317   2.691
 7800SOL     OW24298   1.294   5.973   1.036
 7800SOL    HW124299   1.229   5.907   0.999
 7800SOL    HW224300   1.353   5.926   1.103
 7801SOL     OW24301   1.440   2.537   2.557
 7801SOL    HW124302   1.525   2.581   2.531
 7801SOL    HW224303   1.382   2.525   2.476
 7802SOL     OW24304   6.902   4.384   5.783
 7802SOL    HW124305   6.898   4.286   5.762
 7802SOL    HW224306   6.891   4.398   5.881
 7803SOL     OW24307   5.698   2.397   5.858
 7803SOL    HW124308   5.648   2.451   5.926
 7803SOL    HW224309   5.642   2.317   5.833
 7804SOL     OW24310   2.121   2.105   4.487
 7804SOL    HW124311   2.156   2.122   4.579
 7804SOL    HW224312   2.049   2.170   4.466
 7805SOL     OW24313   5.446   2.725   1.874
 7805SOL    HW124314   5.400   2.682   1.796
 7805SOL    HW224315   5.507   2.659   1.918
 7806SOL     OW24316   6.445   2.713   5.537
 7806SOL    HW124317   6.457   2.619   5.506
 7806SOL    HW224318   6.350   2.740   5.525
 7807SOL     OW24319   2.257   4.880   5.967
 7807SOL    HW124320   2.348   4.918   5.983
 7807SOL    HW224321   2.249   4.852   5.871
 7808SOL     OW24322   5.171   4.167   2.927
 7808SOL    HW124323   5.093   4.128   2.878
 7808SOL    HW224324   5.150   4.262   2.950
 7809SOL     OW24325   5.342   4.832   3.855
 7809SOL    HW124326   5.363   4.734   3.851
 7809SOL    HW224327   5.399   4.880   3.789
 7810SOL     OW24328   4.218   6.205   4.939
 7810SOL    HW124329   4.180   6.113   4.952
 7810SOL    HW224330   4.268   6.208   4.852
 7811SOL     OW24331   1.290   5.824   2.241
 7811SOL    HW124332   1.341   5.741   2.218
 7811SOL    HW224333   1.355   5.899   2.257
 7812SOL     OW24334   2.510   2.523   5.836
 7812SOL    HW124335   2.491   2.428   5.861
 7812SOL    HW224336   2.528   2.529   5.738
 7813SOL     OW24337   5.375   2.758   1.383
 7813SOL    HW124338   5.396   2.702   1.304
 7813SOL    HW224339   5.331   2.843   1.354
 7814SOL     OW24340   6.490   3.330   2.059
 7814SOL    HW124341   6.529   3.276   1.985
 7814SOL    HW224342   6.562   3.381   2.106
 7815SOL     OW24343   6.219   2.901   5.533
 7815SOL    HW124344   6.148   2.852   5.584
 7815SOL    HW224345   6.188   2.916   5.439
 7816SOL     OW24346   0.217   1.541   5.372
 7816SOL    HW124347   0.150   1.541   5.298
 7816SOL    HW224348   0.288   1.473   5.353
 7817SOL     OW24349   3.166   3.674   5.974
 7817SOL    HW124350   3.197   3.583   5.946
 7817SOL    HW224351   3.087   3.700   5.918
 7818SOL     OW24352   4.800   1.634   1.626
 7818SOL    HW124353   4.827   1.612   1.720
 7818SOL    HW224354   4.755   1.555   1.585
 7819SOL     OW24355   0.639   3.445   3.990
 7819SOL    HW124356   0.629   3.387   3.909
 7819SOL    HW224357   0.623   3.541   3.965
 7820SOL     OW24358   1.950   0.624   5.611
 7820SOL    HW124359   1.990   0.574   5.688
 7820SOL    HW224360   1.937   0.562   5.534
 7821SOL     OW24361   6.195   5.776   0.178
 7821SOL    HW124362   6.284   5.765   0.221
 7821SOL    HW224363   6.181   5.873   0.156
 7822SOL     OW24364   1.363   1.101   5.160
 7822SOL    HW124365   1.440   1.064   5.109
 7822SOL    HW224366   1.396   1.169   5.226
 7823SOL     OW24367   1.437   4.321   6.781
 7823SOL    HW124368   1.401   4.363   6.864
 7823SOL    HW224369   1.513   4.260   6.805
 7824SOL     OW24370   5.516   2.006   2.963
 7824SOL    HW124371   5.515   1.943   2.885
 7824SOL    HW224372   5.601   2.058   2.963
 7825SOL     OW24373   2.337   3.077   1.190
 7825SOL    HW124374   2.362   3.145   1.259
 7825SOL    HW224375   2.376   2.989   1.214
 7826SOL     OW24376   5.675   0.796   0.193
 7826SOL    HW124377   5.702   0.793   0.097
 7826SOL    HW224378   5.755   0.783   0.251
 7827SOL     OW24379   4.662   4.952   1.888
 7827SOL    HW124380   4.567   4.982   1.884
 7827SOL    HW224381   4.699   4.970   1.979
 7828SOL     OW24382   1.278   6.160   0.491
 7828SOL    HW124383   1.316   6.086   0.436
 7828SOL    HW224384   1.337   6.176   0.570
 7829SOL     OW24385   2.693   3.114   1.728
 7829SOL    HW124386   2.610   3.073   1.692
 7829SOL    HW224387   2.768   3.048   1.724
 7830SOL     OW24388   6.029   3.436   6.527
 7830SOL    HW124389   6.058   3.531   6.520
 7830SOL    HW224390   6.040   3.405   6.621
 7831SOL     OW24391   1.182   3.786   0.448
 7831SOL    HW124392   1.193   3.848   0.371
 7831SOL    HW224393   1.268   3.739   0.466
 7832SOL     OW24394   2.770   1.889   5.344
 7832SOL    HW124395   2.826   1.848   5.416
 7832SOL    HW224396   2.676   1.857   5.353
 7833SOL     OW24397   0.217   7.018   0.701
 7833SOL    HW124398   0.192   6.983   0.611
 7833SOL    HW224399   0.247   0.088   0.692
 7834SOL     OW24400   0.519   0.604   2.335
 7834SOL    HW124401   0.555   0.673   2.272
 7834SOL    HW224402   0.516   0.641   2.427
 7835SOL     OW24403   2.270   2.797   4.869
 7835SOL    HW124404   2.354   2.743   4.855
 7835SOL    HW224405   2.290   2.875   4.928
 7836SOL     OW24406   3.243   6.892   6.313
 7836SOL    HW124407   3.248   6.838   6.398
 7836SOL    HW224408   3.173   6.853   6.253
 7837SOL     OW24409   5.915   6.901   2.715
 7837SOL    HW124410   5.866   6.815   2.705
 7837SOL    HW224411   5.876   6.969   2.652
 7838SOL     OW24412   4.244   6.765   4.291
 7838SOL    HW124413   4.234   6.675   4.333
 7838SOL    HW224414   4.340   6.779   4.264
 7839SOL     OW24415   5.857   4.080   4.486
 7839SOL    HW124416   5.771   4.032   4.498
 7839SOL    HW224417   5.840   4.178   4.473
 7840SOL     OW24418   5.001   2.699   4.217
 7840SOL    HW124419   4.916   2.688   4.165
 7840SOL    HW224420   5.040   2.608   4.234
 7841SOL     OW24421   6.124   2.156   6.832
 7841SOL    HW124422   6.063   2.206   6.894
 7841SOL    HW224423   6.098   2.176   6.738
 7842SOL     OW24424   1.618   1.689   2.982
 7842SOL    HW124425   1.524   1.706   3.011
 7842SOL    HW224426   1.678   1.684   3.063
 7843SOL     OW24427   5.620   3.988   0.856
 7843SOL    HW124428   5.625   3.889   0.865
 7843SOL    HW224429   5.634   4.031   0.945
 7844SOL     OW24430   4.222   1.032   3.389
 7844SOL    HW124431   4.298   1.063   3.332
 7844SOL    HW224432   4.250   1.036   3.485
 7845SOL     OW24433   0.422   0.916   4.150
 7845SOL    HW124434   0.499   0.913   4.086
 7845SOL    HW224435   0.457   0.902   4.243
 7846SOL     OW24436   2.481   0.919   1.724
 7846SOL    HW124437   2.573   0.953   1.743
 7846SOL    HW224438   2.414   0.981   1.765
 7847SOL     OW24439   0.372   0.958   0.621
 7847SOL    HW124440   0.344   0.906   0.702
 7847SOL    HW224441   0.293   1.003   0.581
 7848SOL     OW24442   4.200   4.021   1.512
 7848SOL    HW124443   4.178   3.943   1.453
 7848SOL    HW224444   4.116   4.070   1.535
 7849SOL     OW24445   4.946   3.450   4.300
 7849SOL    HW124446   4.905   3.521   4.244
 7849SOL    HW224447   5.039   3.476   4.324
 7850SOL     OW24448   6.767   1.244   4.359
 7850SOL    HW124449   6.746   1.250   4.261
 7850SOL    HW224450   6.823   1.162   4.375
 7851SOL     OW24451   6.374   6.582   0.466
 7851SOL    HW124452   6.450   6.647   0.460
 7851SOL    HW224453   6.293   6.622   0.422
 7852SOL     OW24454   2.777   6.435   0.144
 7852SOL    HW124455   2.834   6.360   0.178
 7852SOL    HW224456   2.817   6.472   0.061
 7853SOL     OW24457   2.825   1.647   0.697
 7853SOL    HW124458   2.755   1.589   0.738
 7853SOL    HW224459   2.832   1.627   0.599
 7854SOL     OW24460   3.556   3.530   2.410
 7854SOL    HW124461   3.508   3.455   2.363
 7854SOL    HW224462   3.516   3.617   2.382
 7855SOL     OW24463   4.298   5.247   6.063
 7855SOL    HW124464   4.353   5.303   6.125
 7855SOL    HW224465   4.238   5.187   6.116
 7856SOL     OW24466   6.235   4.246   4.583
 7856SOL    HW124467   6.272   4.234   4.675
 7856SOL    HW224468   6.250   4.162   4.530
 7857SOL     OW24469   5.935   2.190   5.822
 7857SOL    HW124470   5.931   2.142   5.909
 7857SOL    HW224471   5.862   2.258   5.818
 7858SOL     OW24472   6.318   4.213   3.607
 7858SOL    HW124473   6.395   4.170   3.560
 7858SOL    HW224474   6.337   4.311   3.618
 7859SOL     OW24475   0.877   4.533   6.672
 7859SOL    HW124476   0.801   4.561   6.731
 7859SOL    HW224477   0.841   4.498   6.586
 7860SOL     OW24478   4.108   6.391   1.954
 7860SOL    HW124479   4.207   6.400   1.943
 7860SOL    HW224480   4.076   6.308   1.909
 7861SOL     OW24481   4.756   5.301   1.424
 7861SOL    HW124482   4.797   5.358   1.495
 7861SOL    HW224483   4.757   5.205   1.454
 7862SOL     OW24484   3.055   4.337   1.716
 7862SOL    HW124485   3.062   4.376   1.624
 7862SOL    HW224486   2.986   4.387   1.768
 7863SOL     OW24487   6.428   6.146   2.859
 7863SOL    HW124488   6.426   6.203   2.942
 7863SOL    HW224489   6.350   6.168   2.801
 7864SOL     OW24490   0.459   5.964   5.513
 7864SOL    HW124491   0.530   5.925   5.454
 7864SOL    HW224492   0.369   5.947   5.473
 7865SOL     OW24493   3.607   6.259   3.528
 7865SOL    HW124494   3.678   6.326   3.549
 7865SOL    HW224495   3.605   6.190   3.600
 7866SOL     OW24496   2.667   1.675   3.267
 7866SOL    HW124497   2.614   1.599   3.303
 7866SOL    HW224498   2.668   1.750   3.334
 7867SOL     OW24499   6.080   6.133   2.373
 7867SOL    HW124500   6.029   6.079   2.439
 7867SOL    HW224501   6.156   6.079   2.336
 7868SOL     OW24502   5.344   6.259   1.319
 7868SOL    HW124503   5.384   6.351   1.325
 7868SOL    HW224504   5.413   6.195   1.284
 7869SOL     OW24505   6.709   3.407   1.368
 7869SOL    HW124506   6.712   3.323   1.314
 7869SOL    HW224507   6.802   3.432   1.396
 7870SOL     OW24508   6.734   5.121   3.873
 7870SOL    HW124509   6.728   5.215   3.908
 7870SOL    HW224510   6.829   5.091   3.878
 7871SOL     OW24511   5.725   3.426   3.505
 7871SOL    HW124512   5.726   3.507   3.446
 7871SOL    HW224513   5.803   3.368   3.484
 7872SOL     OW24514   0.588   3.766   3.585
 7872SOL    HW124515   0.654   3.710   3.634
 7872SOL    HW224516   0.596   3.748   3.487
 7873SOL     OW24517   6.906   0.230   6.193
 7873SOL    HW124518   6.870   0.195   6.107
 7873SOL    HW224519   6.995   0.190   6.211
 7874SOL     OW24520   6.514   1.187   0.293
 7874SOL    HW124521   6.588   1.251   0.315
 7874SOL    HW224522   6.433   1.209   0.347
 7875SOL     OW24523   4.938   4.300   6.942
 7875SOL    HW124524   4.888   4.308   0.004
 7875SOL    HW224525   5.014   4.365   6.942
 7876SOL     OW24526   6.575   0.454   4.649
 7876SOL    HW124527   6.551   0.366   4.607
 7876SOL    HW224528   6.674   0.458   4.664
 7877SOL     OW24529   0.077   2.411   3.381
 7877SOL    HW124530   0.065   2.346   3.306
 7877SOL    HW224531   0.168   2.399   3.421
 7878SOL     OW24532   4.281   4.714   2.581
 7878SOL    HW124533   4.187   4.736   2.556
 7878SOL    HW224534   4.341   4.737   2.504
 7879SOL     OW24535   5.168   6.052   3.388
 7879SOL    HW124536   5.264   6.076   3.406
 7879SOL    HW224537   5.165   5.975   3.325
 7880SOL     OW24538   0.354   6.161   6.955
 7880SOL    HW124539   0.443   6.132   6.920
 7880SOL    HW224540   0.356   6.160   0.030
 7881SOL     OW24541   6.589   3.903   4.740
 7881SOL    HW124542   6.508   3.861   4.781
 7881SOL    HW224543   6.589   4.001   4.758
 7882SOL     OW24544   0.873   2.673   2.651
 7882SOL    HW124545   0.781   2.659   2.687
 7882SOL    HW224546   0.934   2.698   2.726
 7883SOL     OW24547   2.823   1.017   2.876
 7883SOL    HW124548   2.845   1.111   2.901
 7883SOL    HW224549   2.755   0.980   2.939
 7884SOL     OW24550   1.467   4.714   3.880
 7884SOL    HW124551   1.458   4.746   3.786
 7884SOL    HW224552   1.545   4.760   3.923
 7885SOL     OW24553   6.018   5.569   2.661
 7885SOL    HW124554   6.092   5.629   2.693
 7885SOL    HW224555   6.034   5.476   2.693
 7886SOL     OW24556   5.035   3.481   1.544
 7886SOL    HW124557   5.006   3.527   1.460
 7886SOL    HW224558   5.024   3.382   1.533
 7887SOL     OW24559   3.436   3.441   6.163
 7887SOL    HW124560   3.462   3.491   6.081
 7887SOL    HW224561   3.377   3.364   6.138
 7888SOL     OW24562   6.353   1.705   4.266
 7888SOL    HW124563   6.359   1.748   4.176
 7888SOL    HW224564   6.273   1.644   4.269
 7889SOL     OW24565   6.226   5.308   0.556
 7889SOL    HW124566   6.284   5.229   0.538
 7889SOL    HW224567   6.282   5.390   0.566
 7890SOL     OW24568   1.274   2.771   4.479
 7890SOL    HW124569   1.366   2.745   4.508
 7890SOL    HW224570   1.207   2.740   4.547
 7891SOL     OW24571   0.601   2.587   4.186
 7891SOL    HW124572   0.575   2.551   4.096
 7891SOL    HW224573   0.533   2.653   4.217
 7892SOL     OW24574   1.933   2.458   4.751
 7892SOL    HW124575   1.847   2.421   4.786
 7892SOL    HW224576   1.985   2.500   4.825
 7893SOL     OW24577   6.362   0.266   1.979
 7893SOL    HW124578   6.371   0.309   1.890
 7893SOL    HW224579   6.439   0.203   1.994
 7894SOL     OW24580   2.514   1.573   6.549
 7894SOL    HW124581   2.606   1.562   6.587
 7894SOL    HW224582   2.480   1.485   6.516
 7895SOL     OW24583   3.773   5.598   3.893
 7895SOL    HW124584   3.781   5.533   3.817
 7895SOL    HW224585   3.754   5.548   3.978
 7896SOL     OW24586   4.286   2.626   1.676
 7896SOL    HW124587   4.280   2.726   1.678
 7896SOL    HW224588   4.347   2.595   1.750
 7897SOL     OW24589   3.671   4.444   6.318
 7897SOL    HW124590   3.706   4.496   6.240
 7897SOL    HW224591   3.684   4.498   6.401
 7898SOL     OW24592   4.709   0.222   4.410
 7898SOL    HW124593   4.674   0.193   4.320
 7898SOL    HW224594   4.804   0.194   4.419
 7899SOL     OW24595   5.282   5.415   1.339
 7899SOL    HW124596   5.374   5.412   1.300
 7899SOL    HW224597   5.280   5.364   1.425
 7900SOL     OW24598   0.466   4.365   0.708
 7900SOL    HW124599   0.492   4.394   0.615
 7900SOL    HW224600   0.375   4.399   0.729
 7901SOL     OW24601   5.214   1.046   6.126
 7901SOL    HW124602   5.288   1.113   6.118
 7901SOL    HW224603   5.126   1.094   6.124
 7902SOL     OW24604   6.950   6.487   2.940
 7902SOL    HW124605   6.935   6.457   3.034
 7902SOL    HW224606   6.905   6.424   2.877
 7903SOL     OW24607   2.952   1.583   4.142
 7903SOL    HW124608   2.901   1.607   4.059
 7903SOL    HW224609   3.026   1.648   4.155
 7904SOL     OW24610   6.198   0.747   2.433
 7904SOL    HW124611   6.200   0.837   2.390
 7904SOL    HW224612   6.245   0.751   2.521
 7905SOL     OW24613   5.654   1.156   0.681
 7905SOL    HW124614   5.597   1.161   0.763
 7905SOL    HW224615   5.642   1.066   0.639
 7906SOL     OW24616   1.617   4.992   1.751
 7906SOL    HW124617   1.715   4.974   1.757
 7906SOL    HW224618   1.592   5.010   1.656
 7907SOL     OW24619   5.938   0.735   2.761
 7907SOL    HW124620   5.892   0.707   2.845
 7907SOL    HW224621   5.902   0.681   2.684
 7908SOL     OW24622   0.358   1.453   6.829
 7908SOL    HW124623   0.274   1.496   6.860
 7908SOL    HW224624   0.338   1.392   6.752
 7909SOL     OW24625   5.265   4.600   2.779
 7909SOL    HW124626   5.257   4.698   2.762
 7909SOL    HW224627   5.348   4.582   2.831
 7910SOL     OW24628   1.947   3.497   0.588
 7910SOL    HW124629   1.976   3.591   0.570
 7910SOL    HW224630   2.010   3.433   0.543
 7911SOL     OW24631   0.855   3.884   1.515
 7911SOL    HW124632   0.923   3.931   1.459
 7911SOL    HW224633   0.898   3.849   1.598
 7912SOL     OW24634   5.324   5.490   0.157
 7912SOL    HW124635   5.337   5.405   0.107
 7912SOL    HW224636   5.297   5.469   0.251
 7913SOL     OW24637   0.899   4.048   0.883
 7913SOL    HW124638   0.967   4.025   0.814
 7913SOL    HW224639   0.812   4.004   0.860
 7914SOL     OW24640   6.892   4.996   5.733
 7914SOL    HW124641   6.947   4.996   5.650
 7914SOL    HW224642   6.892   4.904   5.773
 7915SOL     OW24643   3.831   0.603   3.120
 7915SOL    HW124644   3.770   0.536   3.162
 7915SOL    HW224645   3.853   0.675   3.186
 7916SOL     OW24646   0.605   0.060   4.590
 7916SOL    HW124647   0.659   7.001   4.597
 7916SOL    HW224648   0.647   0.122   4.525
 7917SOL     OW24649   3.938   2.587   6.571
 7917SOL    HW124650   3.969   2.584   6.666
 7917SOL    HW224651   3.916   2.495   6.540
 7918SOL     OW24652   2.207   1.145   5.224
 7918SOL    HW124653   2.263   1.083   5.278
 7918SOL    HW224654   2.128   1.096   5.187
 7919SOL     OW24655   1.007   5.055   3.577
 7919SOL    HW124656   1.068   4.978   3.560
 7919SOL    HW224657   1.059   5.140   3.582
 7920SOL     OW24658   5.159   0.844   1.695
 7920SOL    HW124659   5.083   0.909   1.694
 7920SOL    HW224660   5.186   0.822   1.601
 7921SOL     OW24661   5.084   1.991   1.308
 7921SOL    HW124662   5.106   2.074   1.360
 7921SOL    HW224663   4.985   1.984   1.297
 7922SOL     OW24664   1.040   6.778   6.456
 7922SOL    HW124665   1.072   6.778   6.551
 7922SOL    HW224666   0.956   6.725   6.449
 7923SOL     OW24667   3.688   2.322   6.009
 7923SOL    HW124668   3.661   2.230   6.039
 7923SOL    HW224669   3.788   2.331   6.014
 7924SOL     OW24670   6.013   6.735   1.237
 7924SOL    HW124671   5.998   6.751   1.335
 7924SOL    HW224672   6.066   6.651   1.226
 7925SOL     OW24673   2.430   6.492   0.386
 7925SOL    HW124674   2.354   6.490   0.321
 7925SOL    HW224675   2.502   6.552   0.353
 7926SOL     OW24676   5.769   0.804   6.353
 7926SOL    HW124677   5.803   0.730   6.295
 7926SOL    HW224678   5.834   0.880   6.352
 7927SOL     OW24679   5.386   6.762   2.058
 7927SOL    HW124680   5.319   6.693   2.087
 7927SOL    HW224681   5.376   6.844   2.115
 7928SOL     OW24682   0.370   0.703   3.289
 7928SOL    HW124683   0.383   0.747   3.378
 7928SOL    HW224684   0.455   0.659   3.261
 7929SOL     OW24685   4.799   3.652   6.794
 7929SOL    HW124686   4.745   3.630   6.713
 7929SOL    HW224687   4.765   3.600   6.873
 7930SOL     OW24688   3.428   5.551   6.413
 7930SOL    HW124689   3.393   5.605   6.338
 7930SOL    HW224690   3.489   5.480   6.378
 7931SOL     OW24691   2.878   2.306   0.457
 7931SOL    HW124692   2.793   2.352   0.485
 7931SOL    HW224693   2.904   2.337   0.365
 7932SOL     OW24694   6.805   5.475   0.924
 7932SOL    HW124695   6.833   5.401   0.985
 7932SOL    HW224696   6.882   5.505   0.868
 7933SOL     OW24697   6.225   0.598   5.406
 7933SOL    HW124698   6.263   0.684   5.372
 7933SOL    HW224699   6.153   0.617   5.472
 7934SOL     OW24700   1.853   4.794   0.783
 7934SOL    HW124701   1.870   4.696   0.798
 7934SOL    HW224702   1.934   4.836   0.743
 7935SOL     OW24703   5.437   4.037   2.167
 7935SOL    HW124704   5.484   4.018   2.253
 7935SOL    HW224705   5.391   3.954   2.135
 7936SOL     OW24706   3.068   6.062   3.823
 7936SOL    HW124707   3.116   5.976   3.804
 7936SOL    HW224708   3.120   6.115   3.889
 7937SOL     OW24709   1.770   6.277   4.985
 7937SOL    HW124710   1.846   6.321   4.937
 7937SOL    HW224711   1.698   6.255   4.920
 7938SOL     OW24712   5.501   0.780   4.941
 7938SOL    HW124713   5.434   0.850   4.969
 7938SOL    HW224714   5.493   0.764   4.843
 7939SOL     OW24715   0.588   1.678   5.398
 7939SOL    HW124716   0.591   1.675   5.298
 7939SOL    HW224717   0.504   1.724   5.428
 7940SOL     OW24718   4.270   1.965   2.298
 7940SOL    HW124719   4.260   1.933   2.203
 7940SOL    HW224720   4.182   1.962   2.344
 7941SOL     OW24721   4.099   6.489   3.311
 7941SOL    HW124722   4.182   6.458   3.266
 7941SOL    HW224723   4.048   6.410   3.346
 7942SOL     OW24724   1.060   2.783   1.806
 7942SOL    HW124725   1.078   2.691   1.841
 7942SOL    HW224726   1.018   2.777   1.715
 7943SOL     OW24727   2.396   4.786   5.692
 7943SOL    HW124728   2.405   4.686   5.687
 7943SOL    HW224729   2.373   4.822   5.601
 7944SOL     OW24730   1.108   2.529   1.389
 7944SOL    HW124731   1.116   2.448   1.330
 7944SOL    HW224732   1.112   2.501   1.485
 7945SOL     OW24733   6.578   5.424   3.254
 7945SOL    HW124734   6.521   5.500   3.285
 7945SOL    HW224735   6.659   5.460   3.208
 7946SOL     OW24736   3.685   0.109   5.368
 7946SOL    HW124737   3.777   0.086   5.401
 7946SOL    HW224738   3.687   0.118   5.268
 7947SOL     OW24739   2.116   2.704   5.197
 7947SOL    HW124740   2.104   2.745   5.288
 7947SOL    HW224741   2.189   2.636   5.201
 7948SOL     OW24742   1.453   4.489   2.251
 7948SOL    HW124743   1.381   4.453   2.311
 7948SOL    HW224744   1.538   4.439   2.267
 7949SOL     OW24745   4.851   4.592   5.736
 7949SOL    HW124746   4.787   4.660   5.699
 7949SOL    HW224747   4.800   4.524   5.788
 7950SOL     OW24748   5.305   5.632   5.479
 7950SOL    HW124749   5.300   5.569   5.557
 7950SOL    HW224750   5.363   5.592   5.408
 7951SOL     OW24751   2.837   5.338   2.478
 7951SOL    HW124752   2.802   5.382   2.395
 7951SOL    HW224753   2.762   5.325   2.543
 7952SOL     OW24754   6.062   3.912   6.946
 7952SOL    HW124755   6.143   3.865   6.980
 7952SOL    HW224756   6.056   3.900   6.847
 7953SOL     OW24757   4.179   1.577   1.040
 7953SOL    HW124758   4.172   1.632   0.956
 7953SOL    HW224759   4.142   1.629   1.117
 7954SOL     OW24760   3.876   3.949   6.638
 7954SOL    HW124761   3.885   3.895   6.554
 7954SOL    HW224762   3.799   4.012   6.630
 7955SOL     OW24763   2.123   1.806   6.096
 7955SOL    HW124764   2.129   1.820   5.997
 7955SOL    HW224765   2.211   1.829   6.137
 7956SOL     OW24766   6.020   1.419   1.731
 7956SOL    HW124767   6.029   1.451   1.825
 7956SOL    HW224768   5.948   1.350   1.726
 7957SOL     OW24769   4.279   0.535   5.588
 7957SOL    HW124770   4.278   0.443   5.626
 7957SOL    HW224771   4.191   0.579   5.603
 7958SOL     OW24772   5.942   3.710   6.529
 7958SOL    HW124773   5.860   3.665   6.494
 7958SOL    HW224774   5.974   3.777   6.464
 7959SOL     OW24775   4.936   0.628   5.981
 7959SOL    HW124776   4.962   0.535   6.004
 7959SOL    HW224777   5.016   0.687   5.982
 7960SOL     OW24778   0.125   1.021   6.354
 7960SOL    HW124779   0.171   1.035   6.441
 7960SOL    HW224780   0.028   1.002   6.370
 7961SOL     OW24781   6.508   6.318   0.363
 7961SOL    HW124782   6.556   6.252   0.306
 7961SOL    HW224783   6.523   6.410   0.327
 7962SOL     OW24784   6.904   0.451   6.364
 7962SOL    HW124785   6.903   0.373   6.301
 7962SOL    HW224786   6.986   0.448   6.421
 7963SOL     OW24787   6.389   4.428   4.340
 7963SOL    HW124788   6.321   4.439   4.267
 7963SOL    HW224789   6.372   4.343   4.388
 7964SOL     OW24790   6.691   3.098   1.471
 7964SOL    HW124791   6.790   3.091   1.486
 7964SOL    HW224792   6.645   3.106   1.559
 7965SOL     OW24793   4.656   2.680   0.003
 7965SOL    HW124794   4.666   2.580   0.009
 7965SOL    HW224795   4.650   2.718   0.095
 7966SOL     OW24796   3.983   3.989   5.726
 7966SOL    HW124797   4.078   3.978   5.696
 7966SOL    HW224798   3.961   4.087   5.729
 7967SOL     OW24799   1.489   5.124   2.323
 7967SOL    HW124800   1.459   5.065   2.398
 7967SOL    HW224801   1.589   5.126   2.320
 7968SOL     OW24802   6.740   1.573   4.816
 7968SOL    HW124803   6.704   1.492   4.770
 7968SOL    HW224804   6.681   1.652   4.797
 7969SOL     OW24805   4.806   6.026   0.426
 7969SOL    HW124806   4.881   6.063   0.371
 7969SOL    HW224807   4.825   5.930   0.448
 7970SOL     OW24808   6.008   3.044   2.543
 7970SOL    HW124809   6.095   3.048   2.495
 7970SOL    HW224810   5.958   3.130   2.530
 7971SOL     OW24811   3.252   1.617   1.581
 7971SOL    HW124812   3.288   1.690   1.522
 7971SOL    HW224813   3.152   1.625   1.586
 7972SOL     OW24814   4.079   3.321   1.869
 7972SOL    HW124815   4.106   3.311   1.965
 7972SOL    HW224816   4.039   3.235   1.837
 7973SOL     OW24817   5.967   3.751   3.819
 7973SOL    HW124818   5.932   3.745   3.726
 7973SOL    HW224819   6.062   3.783   3.817
 7974SOL     OW24820   6.456   1.595   4.983
 7974SOL    HW124821   6.388   1.587   5.056
 7974SOL    HW224822   6.487   1.503   4.957
 7975SOL     OW24823   4.166   1.221   0.239
 7975SOL    HW124824   4.077   1.177   0.225
 7975SOL    HW224825   4.227   1.198   0.163
 7976SOL     OW24826   0.910   0.284   6.152
 7976SOL    HW124827   0.878   0.246   6.238
 7976SOL    HW224828   0.852   0.252   6.077
 7977SOL     OW24829   5.714   6.239   2.426
 7977SOL    HW124830   5.715   6.266   2.330
 7977SOL    HW224831   5.620   6.243   2.461
 7978SOL     OW24832   0.441   3.851   0.952
 7978SOL    HW124833   0.479   3.865   1.043
 7978SOL    HW224834   0.510   3.870   0.883
 7979SOL     OW24835   1.861   3.749   5.083
 7979SOL    HW124836   1.825   3.658   5.065
 7979SOL    HW224837   1.952   3.741   5.123
 7980SOL     OW24838   3.558   4.673   5.797
 7980SOL    HW124839   3.483   4.638   5.741
 7980SOL    HW224840   3.548   4.772   5.808
 7981SOL     OW24841   1.850   5.352   3.378
 7981SOL    HW124842   1.790   5.301   3.439
 7981SOL    HW224843   1.801   5.431   3.340
 7982SOL     OW24844   0.840   1.486   5.978
 7982SOL    HW124845   0.841   1.387   5.993
 7982SOL    HW224846   0.918   1.513   5.922
 7983SOL     OW24847   5.572   1.219   1.338
 7983SOL    HW124848   5.631   1.267   1.403
 7983SOL    HW224849   5.539   1.134   1.380
 7984SOL     OW24850   0.667   1.746   1.766
 7984SOL    HW124851   0.758   1.779   1.790
 7984SOL    HW224852   0.650   1.760   1.668
 7985SOL     OW24853   2.290   2.071   5.313
 7985SOL    HW124854   2.373   2.046   5.262
 7985SOL    HW224855   2.210   2.059   5.254
 7986SOL     OW24856   3.878   1.834   4.940
 7986SOL    HW124857   3.856   1.772   5.015
 7986SOL    HW224858   3.884   1.783   4.855
 7987SOL     OW24859   1.370   3.962   0.729
 7987SOL    HW124860   1.292   3.906   0.701
 7987SOL    HW224861   1.440   3.905   0.771
 7988SOL     OW24862   0.033   0.904   1.812
 7988SOL    HW124863   0.018   0.897   1.714
 7988SOL    HW224864   7.016   0.987   1.847
 7989SOL     OW24865   1.566   3.863   0.286
 7989SOL    HW124866   1.612   3.869   0.374
 7989SOL    HW224867   1.473   3.899   0.294
 7990SOL     OW24868   2.438   6.403   4.836
 7990SOL    HW124869   2.468   6.369   4.747
 7990SOL    HW224870   2.383   6.486   4.823
 7991SOL     OW24871   5.342   1.737   4.608
 7991SOL    HW124872   5.252   1.779   4.601
 7991SOL    HW224873   5.411   1.808   4.621
 7992SOL     OW24874   2.474   0.449   0.514
 7992SOL    HW124875   2.482   0.357   0.476
 7992SOL    HW224876   2.559   0.471   0.563
 7993SOL     OW24877   7.008   0.252   2.145
 7993SOL    HW124878   6.985   0.217   2.236
 7993SOL    HW224879   6.946   0.212   2.077
 7994SOL     OW24880   5.004   0.731   3.400
 7994SOL    HW124881   5.029   0.817   3.443
 7994SOL    HW224882   4.973   0.749   3.306
 7995SOL     OW24883   6.204   4.629   2.822
 7995SOL    HW124884   6.124   4.657   2.874
 7995SOL    HW224885   6.228   4.534   2.846
 7996SOL     OW24886   4.029   0.482   3.806
 7996SOL    HW124887   3.972   0.442   3.878
 7996SOL    HW224888   4.070   0.409   3.752
 7997SOL     OW24889   0.529   1.973   0.031
 7997SOL    HW124890   0.552   2.065   7.023
 7997SOL    HW224891   0.440   1.975   0.076
 7998SOL     OW24892   2.929   0.392   6.771
 7998SOL    HW124893   2.910   0.294   6.775
 7998SOL    HW224894   2.845   0.441   6.748
 7999SOL     OW24895   1.018   1.790   6.068
 7999SOL    HW124896   1.035   1.852   6.145
 7999SOL    HW224897   0.922   1.793   6.043
 8000SOL     OW24898   6.394   6.690   6.465
 8000SOL    HW124899   6.317   6.691   6.401
 8000SOL    HW224900   6.387   6.769   6.527
 8001SOL     OW24901   4.588   6.969   1.055
 8001SOL    HW124902   4.634   0.003   1.121
 8001SOL    HW224903   4.643   6.965   0.971
 8002SOL     OW24904   0.591   1.064   5.450
 8002SOL    HW124905   0.620   1.056   5.546
 8002SOL    HW224906   0.505   1.016   5.437
 8003SOL     OW24907   2.035   0.039   2.142
 8003SOL    HW124908   1.976   0.067   2.217
 8003SOL    HW224909   1.981   0.027   2.059
 8004SOL     OW24910   2.251   3.036   3.410
 8004SOL    HW124911   2.241   3.043   3.310
 8004SOL    HW224912   2.258   2.940   3.436
 8005SOL     OW24913   2.731   6.979   4.061
 8005SOL    HW124914   2.818   7.017   4.093
 8005SOL    HW224915   2.655   0.000   4.107
 8006SOL     OW24916   3.395   5.485   5.029
 8006SOL    HW124917   3.360   5.524   5.114
 8006SOL    HW224918   3.324   5.487   4.959
 8007SOL     OW24919   5.748   1.608   6.335
 8007SOL    HW124920   5.686   1.680   6.367
 8007SOL    HW224921   5.809   1.646   6.265
 8008SOL     OW24922   3.632   6.487   0.210
 8008SOL    HW124923   3.596   6.505   0.118
 8008SOL    HW224924   3.727   6.519   0.214
 8009SOL     OW24925   4.780   1.349   0.994
 8009SOL    HW124926   4.850   1.327   1.062
 8009SOL    HW224927   4.790   1.445   0.965
 8010SOL     OW24928   3.061   2.689   5.566
 8010SOL    HW124929   3.079   2.599   5.606
 8010SOL    HW224930   3.090   2.760   5.629
 8011SOL     OW24931   3.674   1.984   1.774
 8011SOL    HW124932   3.658   2.070   1.823
 8011SOL    HW224933   3.754   1.994   1.715
 8012SOL     OW24934   0.597   2.672   5.834
 8012SOL    HW124935   0.594   2.585   5.785
 8012SOL    HW224936   0.615   2.747   5.769
 8013SOL     OW24937   0.989   2.459   3.349
 8013SOL    HW124938   1.059   2.388   3.337
 8013SOL    HW224939   0.912   2.439   3.287
 8014SOL     OW24940   1.706   6.974   3.619
 8014SOL    HW124941   1.659   6.891   3.589
 8014SOL    HW224942   1.641   0.008   3.667
 8015SOL     OW24943   1.652   0.355   5.921
 8015SOL    HW124944   1.704   0.298   5.985
 8015SOL    HW224945   1.592   0.416   5.972
 8016SOL     OW24946   3.493   1.837   4.825
 8016SOL    HW124947   3.484   1.739   4.844
 8016SOL    HW224948   3.532   1.849   4.734
 8017SOL     OW24949   6.751   6.539   0.329
 8017SOL    HW124950   6.772   6.542   0.231
 8017SOL    HW224951   6.761   6.631   0.368
 8018SOL     OW24952   3.817   2.287   6.820
 8018SOL    HW124953   3.916   2.285   6.829
 8018SOL    HW224954   3.781   2.194   6.820
 8019SOL     OW24955   2.347   3.704   0.598
 8019SOL    HW124956   2.375   3.715   0.693
 8019SOL    HW224957   2.395   3.772   0.542
 8020SOL     OW24958   6.086   6.757   5.946
 8020SOL    HW124959   6.006   6.735   5.891
 8020SOL    HW224960   6.085   6.853   5.971
 8021SOL     OW24961   2.339   2.226   2.166
 8021SOL    HW124962   2.382   2.224   2.075
 8021SOL    HW224963   2.360   2.312   2.211
 8022SOL     OW24964   6.055   0.587   1.274
 8022SOL    HW124965   6.022   0.540   1.193
 8022SOL    HW224966   6.138   0.542   1.308
 8023SOL     OW24967   5.717   5.667   2.808
 8023SOL    HW124968   5.760   5.680   2.719
 8023SOL    HW224969   5.716   5.570   2.831
 8024SOL     OW24970   1.663   6.009   6.387
 8024SOL    HW124971   1.657   5.988   6.289
 8024SOL    HW224972   1.585   5.970   6.435
 8025SOL     OW24973   1.939   4.773   1.524
 8025SOL    HW124974   1.922   4.814   1.613
 8025SOL    HW224975   1.885   4.820   1.455
 8026SOL     OW24976   0.053   4.597   0.822
 8026SOL    HW124977   0.034   4.500   0.806
 8026SOL    HW224978   0.057   4.614   0.921
 8027SOL     OW24979   3.922   6.748   5.263
 8027SOL    HW124980   3.930   6.755   5.363
 8027SOL    HW224981   3.865   6.669   5.240
 8028SOL     OW24982   2.472   6.133   4.344
 8028SOL    HW124983   2.452   6.037   4.325
 8028SOL    HW224984   2.535   6.169   4.274
 8029SOL     OW24985   4.984   1.923   1.885
 8029SOL    HW124986   5.079   1.952   1.881
 8029SOL    HW224987   4.934   1.963   1.808
 8030SOL     OW24988   6.291   4.986   0.956
 8030SOL    HW124989   6.232   4.923   0.905
 8030SOL    HW224990   6.277   5.079   0.922
 8031SOL     OW24991   5.509   0.060   3.556
 8031SOL    HW124992   5.522   0.085   3.652
 8031SOL    HW224993   5.460   6.998   3.551
 8032SOL     OW24994   5.090   3.887   1.426
 8032SOL    HW124995   5.101   3.964   1.363
 8032SOL    HW224996   5.130   3.910   1.514
 8033SOL     OW24997   4.152   3.642   0.229
 8033SOL    HW124998   4.192   3.680   0.312
 8033SOL    HW224999   4.061   3.605   0.250
 8034SOL     OW25000   5.651   0.586   5.294
 8034SOL    HW125001   5.553   0.584   5.275
 8034SOL    HW225002   5.696   0.653   5.236
 8035SOL     OW25003   4.363   0.921   2.567
 8035SOL    HW125004   4.309   0.947   2.647
 8035SOL    HW225005   4.304   0.879   2.498
 8036SOL     OW25006   6.687   2.765   3.881
 8036SOL    HW125007   6.598   2.735   3.848
 8036SOL    HW225008   6.752   2.766   3.805
 8037SOL     OW25009   1.327   2.864   0.012
 8037SOL    HW125010   1.328   2.764   0.010
 8037SOL    HW225011   1.348   2.896   0.104
 8038SOL     OW25012   5.707   6.223   2.133
 8038SOL    HW125013   5.721   6.166   2.052
 8038SOL    HW225014   5.795   6.259   2.163
 8039SOL     OW25015   0.367   2.645   5.053
 8039SOL    HW125016   0.281   2.695   5.065
 8039SOL    HW225017   0.401   2.616   5.143
 8040SOL     OW25018   2.028   6.163   6.007
 8040SOL    HW125019   2.127   6.147   6.016
 8040SOL    HW225020   1.980   6.076   6.008
 8041SOL     OW25021   3.240   1.606   2.856
 8041SOL    HW125022   3.209   1.519   2.816
 8041SOL    HW225023   3.166   1.647   2.907
 8042SOL     OW25024   4.366   4.343   5.724
 8042SOL    HW125025   4.356   4.310   5.818
 8042SOL    HW225026   4.279   4.334   5.676
 8043SOL     OW25027   4.690   5.030   1.466
 8043SOL    HW125028   4.618   4.995   1.527
 8043SOL    HW225029   4.739   4.954   1.424
 8044SOL     OW25030   4.200   3.699   1.077
 8044SOL    HW125031   4.279   3.698   1.017
 8044SOL    HW225032   4.138   3.625   1.053
 8045SOL     OW25033   0.055   1.312   3.001
 8045SOL    HW125034   0.113   1.265   2.935
 8045SOL    HW225035   0.105   1.325   3.087
 8046SOL     OW25036   0.489   4.959   1.703
 8046SOL    HW125037   0.393   4.983   1.686
 8046SOL    HW225038   0.517   4.995   1.792
 8047SOL     OW25039   3.751   6.767   6.225
 8047SOL    HW125040   3.664   6.813   6.207
 8047SOL    HW225041   3.812   6.829   6.274
 8048SOL     OW25042   3.829   2.767   0.448
 8048SOL    HW125043   3.824   2.750   0.547
 8048SOL    HW225044   3.804   2.683   0.399
 8049SOL     OW25045   1.197   6.395   0.306
 8049SOL    HW125046   1.206   6.385   0.405
 8049SOL    HW225047   1.121   6.457   0.286
 8050SOL     OW25048   1.695   4.060   4.399
 8050SOL    HW125049   1.692   4.072   4.300
 8050SOL    HW225050   1.724   4.146   4.442
 8051SOL     OW25051   5.336   5.720   4.400
 8051SOL    HW125052   5.333   5.647   4.332
 8051SOL    HW225053   5.293   5.689   4.485
 8052SOL     OW25054   2.573   1.498   2.055
 8052SOL    HW125055   2.646   1.507   1.987
 8052SOL    HW225056   2.552   1.402   2.070
 8053SOL     OW25057   2.823   3.174   5.503
 8053SOL    HW125058   2.823   3.152   5.601
 8053SOL    HW225059   2.767   3.107   5.455
 8054SOL     OW25060   6.025   4.442   5.227
 8054SOL    HW125061   6.079   4.489   5.297
 8054SOL    HW225062   6.073   4.446   5.140
 8055SOL     OW25063   0.098   0.429   5.390
 8055SOL    HW125064   0.019   0.388   5.344
 8055SOL    HW225065   0.182   0.401   5.343
 8056SOL     OW25066   2.608   6.583   3.633
 8056SOL    HW125067   2.696   6.578   3.680
 8056SOL    HW225068   2.619   6.552   3.539
 8057SOL     OW25069   2.582   1.885   1.968
 8057SOL    HW125070   2.672   1.843   1.984
 8057SOL    HW225071   2.560   1.880   1.871
 8058SOL     OW25072   2.777   6.565   3.140
 8058SOL    HW125073   2.871   6.567   3.105
 8058SOL    HW225074   2.743   6.659   3.149
 8059SOL     OW25075   3.336   1.437   5.491
 8059SOL    HW125076   3.336   1.411   5.588
 8059SOL    HW225077   3.247   1.475   5.467
 8060SOL     OW25078   6.782   0.533   5.904
 8060SOL    HW125079   6.741   0.447   5.875
 8060SOL    HW225080   6.838   0.570   5.830
 8061SOL     OW25081   0.376   0.728   2.566
 8061SOL    HW125082   0.292   0.702   2.613
 8061SOL    HW225083   0.357   0.804   2.503
 8062SOL     OW25084   3.953   5.241   4.516
 8062SOL    HW125085   3.957   5.156   4.568
 8062SOL    HW225086   3.866   5.246   4.466
 8063SOL     OW25087   3.340   0.642   2.771
 8063SOL    HW125088   3.391   0.704   2.831
 8063SOL    HW225089   3.317   0.559   2.821
 8064SOL     OW25090   6.517   2.952   0.601
 8064SOL    HW125091   6.608   2.966   0.561
 8064SOL    HW225092   6.523   2.954   0.701
 8065SOL     OW25093   3.644   0.082   4.427
 8065SOL    HW125094   3.575   0.154   4.430
 8065SOL    HW225095   3.624   0.014   4.498
 8066SOL     OW25096   6.519   0.989   4.659
 8066SOL    HW125097   6.567   0.917   4.710
 8066SOL    HW225098   6.511   0.962   4.563
 8067SOL     OW25099   5.282   3.008   3.615
 8067SOL    HW125100   5.209   2.977   3.676
 8067SOL    HW225101   5.357   3.045   3.669
 8068SOL     OW25102   0.570   5.012   0.954
 8068SOL    HW125103   0.512   4.939   0.988
 8068SOL    HW225104   0.593   4.994   0.858
 8069SOL     OW25105   2.834   5.184   2.083
 8069SOL    HW125106   2.804   5.180   1.988
 8069SOL    HW225107   2.864   5.277   2.105
 8070SOL     OW25108   3.900   4.099   0.737
 8070SOL    HW125109   3.894   4.044   0.820
 8070SOL    HW225110   3.809   4.114   0.700
 8071SOL     OW25111   4.126   6.777   5.087
 8071SOL    HW125112   4.056   6.788   5.158
 8071SOL    HW225113   4.176   6.862   5.076
 8072SOL     OW25114   3.187   2.609   0.281
 8072SOL    HW125115   3.227   2.605   0.189
 8072SOL    HW225116   3.087   2.614   0.273
 8073SOL     OW25117   3.250   0.003   5.815
 8073SOL    HW125118   3.301   0.083   5.785
 8073SOL    HW225119   3.223   6.973   5.735
 8074SOL     OW25120   1.798   1.144   1.143
 8074SOL    HW125121   1.837   1.195   1.219
 8074SOL    HW225122   1.728   1.199   1.097
 8075SOL     OW25123   0.451   6.749   0.459
 8075SOL    HW125124   0.490   6.811   0.527
 8075SOL    HW225125   0.522   6.685   0.429
 8076SOL     OW25126   0.196   0.116   6.428
 8076SOL    HW125127   0.125   0.070   6.375
 8076SOL    HW225128   0.268   0.051   6.451
 8077SOL     OW25129   3.943   6.126   1.940
 8077SOL    HW125130   3.853   6.125   1.985
 8077SOL    HW225131   3.931   6.147   1.843
 8078SOL     OW25132   0.785   1.660   1.040
 8078SOL    HW125133   0.726   1.690   0.965
 8078SOL    HW225134   0.876   1.699   1.029
 8079SOL     OW25135   0.002   1.580   4.243
 8079SOL    HW125136   0.059   1.655   4.277
 8079SOL    HW225137   6.933   1.591   4.275
 8080SOL     OW25138   1.403   2.708   1.958
 8080SOL    HW125139   1.393   2.610   1.940
 8080SOL    HW225140   1.490   2.726   2.002
 8081SOL     OW25141   6.072   4.551   5.807
 8081SOL    HW125142   6.163   4.533   5.844
 8081SOL    HW225143   6.079   4.570   5.709
 8082SOL     OW25144   3.212   0.475   1.960
 8082SOL    HW125145   3.209   0.433   1.870
 8082SOL    HW225146   3.192   0.406   2.030
 8083SOL     OW25147   5.535   2.968   3.822
 8083SOL    HW125148   5.607   2.950   3.889
 8083SOL    HW225149   5.467   3.030   3.862
 8084SOL     OW25150   2.865   0.522   5.338
 8084SOL    HW125151   2.856   0.526   5.437
 8084SOL    HW225152   2.962   0.519   5.313
 8085SOL     OW25153   6.763   6.710   2.881
 8085SOL    HW125154   6.675   6.738   2.842
 8085SOL    HW225155   6.762   6.612   2.899
 8086SOL     OW25156   6.980   0.858   1.537
 8086SOL    HW125157   6.999   0.808   1.453
 8086SOL    HW225158   6.886   0.891   1.537
 8087SOL     OW25159   1.456   0.967   6.374
 8087SOL    HW125160   1.535   0.905   6.378
 8087SOL    HW225161   1.374   0.918   6.403
 8088SOL     OW25162   5.999   0.026   6.817
 8088SOL    HW125163   5.923   7.002   6.775
 8088SOL    HW225164   6.068   6.986   6.847
 8089SOL     OW25165   5.840   2.683   6.259
 8089SOL    HW125166   5.803   2.775   6.243
 8089SOL    HW225167   5.926   2.690   6.309
 8090SOL     OW25168   3.574   1.385   6.233
 8090SOL    HW125169   3.493   1.366   6.178
 8090SOL    HW225170   3.608   1.299   6.271
 8091SOL     OW25171   1.218   4.034   4.097
 8091SOL    HW125172   1.258   3.954   4.053
 8091SOL    HW225173   1.242   4.034   4.194
 8092SOL     OW25174   4.735   2.012   5.244
 8092SOL    HW125175   4.746   1.921   5.284
 8092SOL    HW225176   4.762   2.010   5.148
 8093SOL     OW25177   3.351   5.678   3.036
 8093SOL    HW125178   3.355   5.732   2.952
 8093SOL    HW225179   3.440   5.637   3.054
 8094SOL     OW25180   0.647   3.813   5.686
 8094SOL    HW125181   0.729   3.764   5.658
 8094SOL    HW225182   0.577   3.747   5.714
 8095SOL     OW25183   0.835   5.244   4.785
 8095SOL    HW125184   0.882   5.189   4.716
 8095SOL    HW225185   0.902   5.285   4.847
 8096SOL     OW25186   1.230   0.466   2.419
 8096SOL    HW125187   1.276   0.455   2.507
 8096SOL    HW225188   1.287   0.522   2.359
 8097SOL     OW25189   4.096   0.222   4.727
 8097SOL    HW125190   4.041   0.276   4.664
 8097SOL    HW225191   4.070   0.242   4.821
 8098SOL     OW25192   1.560   6.786   3.525
 8098SOL    HW125193   1.563   6.705   3.584
 8098SOL    HW225194   1.607   6.767   3.439
 8099SOL     OW25195   4.192   6.210   4.426
 8099SOL    HW125196   4.216   6.174   4.336
 8099SOL    HW225197   4.270   6.198   4.488
 8100SOL     OW25198   6.417   1.406   6.878
 8100SOL    HW125199   6.322   1.434   6.864
 8100SOL    HW225200   6.420   1.314   6.916
 8101SOL     OW25201   1.866   5.101   0.949
 8101SOL    HW125202   1.926   5.168   0.994
 8101SOL    HW225203   1.793   5.149   0.901
 8102SOL     OW25204   0.819   3.544   4.177
 8102SOL    HW125205   0.889   3.583   4.118
 8102SOL    HW225206   0.751   3.494   4.122
 8103SOL     OW25207   3.640   0.456   2.083
 8103SOL    HW125208   3.681   0.365   2.082
 8103SOL    HW225209   3.561   0.456   2.144
 8104SOL     OW25210   2.000   0.043   5.333
 8104SOL    HW125211   2.090   0.086   5.337
 8104SOL    HW225212   1.930   0.114   5.322
 8105SOL     OW25213   0.271   2.238   2.744
 8105SOL    HW125214   0.189   2.186   2.721
 8105SOL    HW225215   0.246   2.314   2.804
 8106SOL     OW25216   2.617   6.503   3.375
 8106SOL    HW125217   2.653   6.427   3.320
 8106SOL    HW225218   2.611   6.585   3.319
 8107SOL     OW25219   0.891   5.974   4.322
 8107SOL    HW125220   0.950   5.921   4.383
 8107SOL    HW225221   0.824   5.913   4.279
 8108SOL     OW25222   6.584   1.617   6.935
 8108SOL    HW125223   6.616   1.669   6.856
 8108SOL    HW225224   6.515   1.551   6.905
 8109SOL     OW25225   0.101   4.413   6.569
 8109SOL    HW125226   0.065   4.328   6.532
 8109SOL    HW225227   0.166   4.393   6.643
 8110SOL     OW25228   4.159   4.522   1.723
 8110SOL    HW125229   4.249   4.478   1.729
 8110SOL    HW225230   4.108   4.485   1.646
 8111SOL     OW25231   5.129   1.076   4.187
 8111SOL    HW125232   5.216   1.060   4.140
 8111SOL    HW225233   5.139   1.153   4.251
 8112SOL     OW25234   1.385   3.295   4.391
 8112SOL    HW125235   1.407   3.312   4.488
 8112SOL    HW225236   1.451   3.230   4.353
 8113SOL     OW25237   6.452   3.515   0.507
 8113SOL    HW125238   6.411   3.432   0.546
 8113SOL    HW225239   6.385   3.589   0.508
 8114SOL     OW25240   1.164   3.483   1.915
 8114SOL    HW125241   1.118   3.515   1.997
 8114SOL    HW225242   1.095   3.459   1.846
 8115SOL     OW25243   3.152   6.244   5.711
 8115SOL    HW125244   3.160   6.157   5.661
 8115SOL    HW225245   3.230   6.253   5.773
 8116SOL     OW25246   4.491   5.024   0.266
 8116SOL    HW125247   4.573   5.039   0.321
 8116SOL    HW225248   4.429   4.963   0.315
 8117SOL     OW25249   2.404   0.008   3.272
 8117SOL    HW125250   2.406   0.038   3.367
 8117SOL    HW225251   2.446   0.078   3.214
 8118SOL     OW25252   6.166   4.068   6.688
 8118SOL    HW125253   6.189   4.137   6.619
 8118SOL    HW225254   6.067   4.067   6.702
 8119SOL     OW25255   4.845   6.250   5.984
 8119SOL    HW125256   4.819   6.344   6.005
 8119SOL    HW225257   4.925   6.250   5.924
 8120SOL     OW25258   2.874   4.707   0.573
 8120SOL    HW125259   2.842   4.745   0.486
 8120SOL    HW225260   2.886   4.782   0.639
 8121SOL     OW25261   0.854   4.904   2.343
 8121SOL    HW125262   0.901   4.949   2.267
 8121SOL    HW225263   0.903   4.820   2.367
 8122SOL     OW25264   0.711   4.280   3.199
 8122SOL    HW125265   0.644   4.206   3.199
 8122SOL    HW225266   0.796   4.248   3.243
 8123SOL     OW25267   6.912   1.171   7.020
 8123SOL    HW125268   6.850   1.248   0.013
 8123SOL    HW225269   6.902   1.103   0.067
 8124SOL     OW25270   5.307   6.337   3.514
 8124SOL    HW125271   5.340   6.254   3.469
 8124SOL    HW225272   5.335   6.336   3.610
 8125SOL     OW25273   1.163   1.126   2.667
 8125SOL    HW125274   1.230   1.200   2.665
 8125SOL    HW225275   1.096   1.144   2.739
 8126SOL     OW25276   5.056   4.997   3.642
 8126SOL    HW125277   5.070   4.906   3.605
 8126SOL    HW225278   5.126   5.059   3.606
 8127SOL     OW25279   2.936   2.990   6.357
 8127SOL    HW125280   2.837   2.996   6.346
 8127SOL    HW225281   2.963   2.894   6.363
 8128SOL     OW25282   3.019   2.067   2.130
 8128SOL    HW125283   2.962   2.145   2.105
 8128SOL    HW225284   3.110   2.078   2.091
 8129SOL     OW25285   2.712   2.087   6.883
 8129SOL    HW125286   2.694   1.991   6.860
 8129SOL    HW225287   2.692   2.144   6.803
 8130SOL     OW25288   1.367   6.513   6.829
 8130SOL    HW125289   1.360   6.424   6.783
 8130SOL    HW225290   1.459   6.549   6.817
 8131SOL     OW25291   2.759   1.982   1.417
 8131SOL    HW125292   2.784   1.998   1.322
 8131SOL    HW225293   2.799   2.054   1.474
 8132SOL     OW25294   5.659   6.384   4.733
 8132SOL    HW125295   5.685   6.339   4.648
 8132SOL    HW225296   5.657   6.318   4.807
 8133SOL     OW25297   3.553   5.618   2.145
 8133SOL    HW125298   3.555   5.703   2.197
 8133SOL    HW225299   3.458   5.587   2.135
 8134SOL     OW25300   6.908   1.274   6.459
 8134SOL    HW125301   7.007   1.269   6.472
 8134SOL    HW225302   6.885   1.357   6.409
 8135SOL     OW25303   1.735   0.978   1.403
 8135SOL    HW125304   1.665   0.984   1.332
 8135SOL    HW225305   1.691   0.976   1.493
 8136SOL     OW25306   5.616   5.297   2.354
 8136SOL    HW125307   5.620   5.375   2.416
 8136SOL    HW225308   5.705   5.285   2.311
 8137SOL     OW25309   2.930   1.039   5.415
 8137SOL    HW125310   2.878   1.124   5.409
 8137SOL    HW225311   2.963   1.014   5.324
 8138SOL     OW25312   5.506   0.959   1.409
 8138SOL    HW125313   5.532   0.939   1.314
 8138SOL    HW225314   5.430   0.900   1.436
 8139SOL     OW25315   0.510   1.126   2.241
 8139SOL    HW125316   0.518   1.162   2.334
 8139SOL    HW225317   0.598   1.090   2.211
 8140SOL     OW25318   4.834   1.122   4.813
 8140SOL    HW125319   4.738   1.140   4.836
 8140SOL    HW225320   4.864   1.185   4.742
 8141SOL     OW25321   4.613   5.693   5.920
 8141SOL    HW125322   4.702   5.730   5.891
 8141SOL    HW225323   4.541   5.757   5.894
 8142SOL     OW25324   6.413   5.113   6.903
 8142SOL    HW125325   6.335   5.106   6.840
 8142SOL    HW225326   6.391   5.179   6.975
 8143SOL     OW25327   6.374   4.876   0.044
 8143SOL    HW125328   6.449   4.876   0.111
 8143SOL    HW225329   6.376   4.963   7.018
 8144SOL     OW25330   5.497   0.088   6.923
 8144SOL    HW125331   5.471   0.112   7.017
 8144SOL    HW225332   5.424   0.115   6.861
 8145SOL     OW25333   5.827   5.646   2.489
 8145SOL    HW125334   5.899   5.591   2.532
 8145SOL    HW225335   5.868   5.707   2.421
 8146SOL     OW25336   3.524   1.515   5.064
 8146SOL    HW125337   3.617   1.521   5.029
 8146SOL    HW225338   3.521   1.549   5.158
 8147SOL     OW25339   5.820   2.107   3.099
 8147SOL    HW125340   5.858   2.051   3.173
 8147SOL    HW225341   5.816   2.202   3.128
 8148SOL     OW25342   5.697   4.095   2.394
 8148SOL    HW125343   5.719   4.159   2.467
 8148SOL    HW225344   5.714   4.001   2.426
 8149SOL     OW25345   3.181   5.722   2.712
 8149SOL    HW125346   3.224   5.647   2.762
 8149SOL    HW225347   3.082   5.708   2.712
 8150SOL     OW25348   6.745   4.886   0.443
 8150SOL    HW125349   6.717   4.805   0.494
 8150SOL    HW225350   6.733   4.968   0.499
 8151SOL     OW25351   0.219   2.382   3.004
 8151SOL    HW125352   0.236   2.292   3.042
 8151SOL    HW225353   0.296   2.443   3.024
 8152SOL     OW25354   1.102   1.597   2.916
 8152SOL    HW125355   1.196   1.561   2.916
 8152SOL    HW225356   1.047   1.543   2.852
 8153SOL     OW25357   3.477   0.076   2.766
 8153SOL    HW125358   3.493   0.084   2.667
 8153SOL    HW225359   3.544   0.013   2.805
 8154SOL     OW25360   2.071   5.920   4.420
 8154SOL    HW125361   2.048   5.839   4.366
 8154SOL    HW225362   2.170   5.931   4.423
 8155SOL     OW25363   2.893   3.271   1.935
 8155SOL    HW125364   2.852   3.188   1.897
 8155SOL    HW225365   2.862   3.350   1.883
 8156SOL     OW25366   6.220   0.124   5.675
 8156SOL    HW125367   6.135   0.105   5.725
 8156SOL    HW225368   6.214   0.215   5.634
 8157SOL     OW25369   5.576   5.961   5.927
 8157SOL    HW125370   5.578   5.974   6.026
 8157SOL    HW225371   5.562   5.864   5.907
 8158SOL     OW25372   1.257   5.825   0.609
 8158SOL    HW125373   1.264   5.795   0.514
 8158SOL    HW225374   1.349   5.834   0.647
 8159SOL     OW25375   2.336   5.440   2.204
 8159SOL    HW125376   2.255   5.498   2.211
 8159SOL    HW225377   2.380   5.455   2.115
 8160SOL     OW25378   4.519   1.403   1.117
 8160SOL    HW125379   4.584   1.398   1.041
 8160SOL    HW225380   4.429   1.372   1.086
 8161SOL     OW25381   5.140   0.913   1.164
 8161SOL    HW125382   5.043   0.901   1.143
 8161SOL    HW225383   5.185   0.961   1.089
 8162SOL     OW25384   5.985   6.639   6.735
 8162SOL    HW125385   6.085   6.643   6.726
 8162SOL    HW225386   5.955   6.715   6.793
 8163SOL     OW25387   2.662   4.512   5.637
 8163SOL    HW125388   2.688   4.415   5.636
 8163SOL    HW225389   2.565   4.520   5.659
 8164SOL     OW25390   6.159   3.416   1.057
 8164SOL    HW125391   6.115   3.386   1.142
 8164SOL    HW225392   6.205   3.504   1.072
 8165SOL     OW25393   2.106   4.517   1.228
 8165SOL    HW125394   2.102   4.500   1.327
 8165SOL    HW225395   2.183   4.467   1.189
 8166SOL     OW25396   2.311   1.105   1.794
 8166SOL    HW125397   2.232   1.091   1.854
 8166SOL    HW225398   2.290   1.176   1.727
 8167SOL     OW25399   5.472   2.233   3.760
 8167SOL    HW125400   5.430   2.324   3.760
 8167SOL    HW225401   5.571   2.242   3.765
 8168SOL     OW25402   3.554   1.853   2.367
 8168SOL    HW125403   3.558   1.760   2.332
 8168SOL    HW225404   3.462   1.872   2.403
 8169SOL     OW25405   4.300   3.336   0.774
 8169SOL    HW125406   4.364   3.259   0.767
 8169SOL    HW225407   4.239   3.322   0.852
 8170SOL     OW25408   1.442   5.968   3.547
 8170SOL    HW125409   1.499   6.040   3.587
 8170SOL    HW225410   1.486   5.932   3.466
 8171SOL     OW25411   0.313   2.167   6.942
 8171SOL    HW125412   0.350   2.251   6.902
 8171SOL    HW225413   0.227   2.187   6.988
 8172SOL     OW25414   6.886   0.762   0.771
 8172SOL    HW125415   6.877   0.664   0.752
 8172SOL    HW225416   6.882   0.777   0.870
 8173SOL     OW25417   3.626   2.693   6.938
 8173SOL    HW125418   3.562   2.760   6.901
 8173SOL    HW225419   3.715   2.737   6.951
 8174SOL     OW25420   5.472   1.964   1.123
 8174SOL    HW125421   5.383   1.921   1.141
 8174SOL    HW225422   5.458   2.059   1.095
 8175SOL     OW25423   6.584   2.637   6.906
 8175SOL    HW125424   6.498   2.586   6.906
 8175SOL    HW225425   6.646   2.599   6.975
 8176SOL     OW25426   3.462   5.846   2.272
 8176SOL    HW125427   3.401   5.869   2.196
 8176SOL    HW225428   3.414   5.787   2.337
 8177SOL     OW25429   2.013   6.238   3.536
 8177SOL    HW125430   2.000   6.139   3.529
 8177SOL    HW225431   1.932   6.285   3.502
 8178SOL     OW25432   1.957   0.084   6.160
 8178SOL    HW125433   2.011   0.117   6.238
 8178SOL    HW225434   1.861   0.076   6.187
 8179SOL     OW25435   3.158   3.166   0.028
 8179SOL    HW125436   3.111   3.077   0.026
 8179SOL    HW225437   3.256   3.151   0.026
 8180SOL     OW25438   6.726   0.133   4.062
 8180SOL    HW125439   6.704   0.167   3.971
 8180SOL    HW225440   6.663   0.059   4.087
 8181SOL     OW25441   2.557   2.223   3.135
 8181SOL    HW125442   2.507   2.233   3.049
 8181SOL    HW225443   2.582   2.314   3.169
 8182SOL     OW25444   3.385   1.966   5.662
 8182SOL    HW125445   3.355   2.039   5.601
 8182SOL    HW225446   3.484   1.974   5.678
 8183SOL     OW25447   0.935   3.029   5.427
 8183SOL    HW125448   1.024   2.990   5.449
 8183SOL    HW225449   0.863   2.961   5.442
 8184SOL     OW25450   6.439   0.808   5.619
 8184SOL    HW125451   6.464   0.712   5.633
 8184SOL    HW225452   6.380   0.816   5.539
 8185SOL     OW25453   3.087   0.496   0.349
 8185SOL    HW125454   3.111   0.549   0.268
 8185SOL    HW225455   2.987   0.488   0.355
 8186SOL     OW25456   3.479   6.127   5.604
 8186SOL    HW125457   3.446   6.100   5.695
 8186SOL    HW225458   3.553   6.066   5.576
 8187SOL     OW25459   1.530   1.554   5.267
 8187SOL    HW125460   1.435   1.584   5.266
 8187SOL    HW225461   1.579   1.595   5.190
 8188SOL     OW25462   5.240   1.707   2.439
 8188SOL    HW125463   5.329   1.731   2.402
 8188SOL    HW225464   5.208   1.622   2.397
 8189SOL     OW25465   5.390   4.189   2.447
 8189SOL    HW125466   5.322   4.211   2.376
 8189SOL    HW225467   5.464   4.256   2.443
 8190SOL     OW25468   5.351   4.093   3.924
 8190SOL    HW125469   5.396   4.005   3.942
 8190SOL    HW225470   5.277   4.080   3.858
 8191SOL     OW25471   1.023   5.604   3.959
 8191SOL    HW125472   1.028   5.692   4.006
 8191SOL    HW225473   1.105   5.590   3.904
 8192SOL     OW25474   2.704   5.684   1.160
 8192SOL    HW125475   2.767   5.708   1.085
 8192SOL    HW225476   2.756   5.678   1.246
 8193SOL     OW25477   6.246   6.219   5.115
 8193SOL    HW125478   6.153   6.255   5.121
 8193SOL    HW225479   6.250   6.150   5.042
 8194SOL     OW25480   6.263   1.822   0.051
 8194SOL    HW125481   6.188   1.879   0.086
 8194SOL    HW225482   6.291   1.855   6.986
 8195SOL     OW25483   0.052   0.454   0.584
 8195SOL    HW125484   0.098   0.414   0.663
 8195SOL    HW225485   0.077   0.550   0.576
 8196SOL     OW25486   3.621   6.432   6.062
 8196SOL    HW125487   3.710   6.395   6.034
 8196SOL    HW225488   3.594   6.391   6.149
 8197SOL     OW25489   6.483   0.809   6.466
 8197SOL    HW125490   6.535   0.837   6.546
 8197SOL    HW225491   6.545   0.777   6.395
 8198SOL     OW25492   2.400   6.679   2.558
 8198SOL    HW125493   2.424   6.582   2.565
 8198SOL    HW225494   2.350   6.707   2.640
 8199SOL     OW25495   0.459   3.960   0.399
 8199SOL    HW125496   0.364   3.983   0.422
 8199SOL    HW225497   0.461   3.901   0.318
 8200SOL     OW25498   4.639   4.217   1.632
 8200SOL    HW125499   4.577   4.193   1.706
 8200SOL    HW225500   4.698   4.292   1.660
 8201SOL     OW25501   5.063   1.082   4.968
 8201SOL    HW125502   4.978   1.089   4.916
 8201SOL    HW225503   5.095   1.174   4.993
 8202SOL     OW25504   1.773   5.160   3.773
 8202SOL    HW125505   1.716   5.201   3.845
 8202SOL    HW225506   1.857   5.125   3.814
 8203SOL     OW25507   4.963   3.583   1.285
 8203SOL    HW125508   4.911   3.667   1.292
 8203SOL    HW225509   5.005   3.576   1.194
 8204SOL     OW25510   3.901   6.803   1.996
 8204SOL    HW125511   3.949   6.872   2.050
 8204SOL    HW225512   3.939   6.713   2.015
 8205SOL     OW25513   5.748   5.281   1.950
 8205SOL    HW125514   5.648   5.291   1.947
 8205SOL    HW225515   5.771   5.185   1.968
 8206SOL     OW25516   3.960   2.304   6.033
 8206SOL    HW125517   4.028   2.372   6.007
 8206SOL    HW225518   3.967   2.287   6.132
 8207SOL     OW25519   3.087   4.781   5.746
 8207SOL    HW125520   3.092   4.716   5.822
 8207SOL    HW225521   3.030   4.743   5.673
 8208SOL     OW25522   2.159   5.689   1.924
 8208SOL    HW125523   2.104   5.623   1.873
 8208SOL    HW225524   2.172   5.656   2.018
 8209SOL     OW25525   1.750   0.768   5.389
 8209SOL    HW125526   1.685   0.725   5.326
 8209SOL    HW225527   1.707   0.847   5.432
 8210SOL     OW25528   1.727   0.957   0.657
 8210SOL    HW125529   1.807   0.995   0.612
 8210SOL    HW225530   1.674   0.903   0.591
 8211SOL     OW25531   3.316   3.681   4.189
 8211SOL    HW125532   3.280   3.688   4.095
 8211SOL    HW225533   3.406   3.723   4.192
 8212SOL     OW25534   2.147   6.957   0.828
 8212SOL    HW125535   2.106   7.011   0.754
 8212SOL    HW225536   2.231   6.915   0.795
 8213SOL     OW25537   4.339   4.703   2.071
 8213SOL    HW125538   4.396   4.675   1.994
 8213SOL    HW225539   4.363   4.649   2.152
 8214SOL     OW25540   2.748   5.624   4.063
 8214SOL    HW125541   2.796   5.630   3.975
 8214SOL    HW225542   2.741   5.529   4.091
 8215SOL     OW25543   3.955   6.338   0.076
 8215SOL    HW125544   4.000   6.332   0.165
 8215SOL    HW225545   3.948   6.434   0.049
 8216SOL     OW25546   4.625   6.287   2.670
 8216SOL    HW125547   4.668   6.211   2.621
 8216SOL    HW225548   4.685   6.368   2.665
 8217SOL     OW25549   2.241   4.243   2.922
 8217SOL    HW125550   2.156   4.291   2.899
 8217SOL    HW225551   2.256   4.170   2.855
 8218SOL     OW25552   1.672   0.215   4.455
 8218SOL    HW125553   1.682   0.313   4.473
 8218SOL    HW225554   1.579   0.187   4.476
 8219SOL     OW25555   3.665   3.686   1.945
 8219SOL    HW125556   3.631   3.727   2.029
 8219SOL    HW225557   3.594   3.693   1.874
 8220SOL     OW25558   3.260   4.100   4.880
 8220SOL    HW125559   3.256   4.004   4.852
 8220SOL    HW225560   3.346   4.140   4.847
 8221SOL     OW25561   6.050   3.649   3.466
 8221SOL    HW125562   6.075   3.620   3.374
 8221SOL    HW225563   5.959   3.689   3.466
 8222SOL     OW25564   6.242   2.960   1.552
 8222SOL    HW125565   6.185   2.907   1.489
 8222SOL    HW225566   6.314   2.901   1.589
 8223SOL     OW25567   6.764   5.593   5.564
 8223SOL    HW125568   6.816   5.511   5.543
 8223SOL    HW225569   6.789   5.666   5.501
 8224SOL     OW25570   4.299   1.937   0.587
 8224SOL    HW125571   4.238   1.945   0.665
 8224SOL    HW225572   4.269   1.862   0.528
 8225SOL     OW25573   4.519   1.049   6.657
 8225SOL    HW125574   4.556   1.134   6.696
 8225SOL    HW225575   4.574   0.972   6.687
 8226SOL     OW25576   3.553   1.035   6.600
 8226SOL    HW125577   3.548   1.020   6.501
 8226SOL    HW225578   3.614   0.968   6.641
 8227SOL     OW25579   5.877   1.569   2.751
 8227SOL    HW125580   5.951   1.580   2.685
 8227SOL    HW225581   5.873   1.650   2.810
 8228SOL     OW25582   0.845   1.150   5.565
 8228SOL    HW125583   0.807   1.210   5.496
 8228SOL    HW225584   0.777   1.132   5.636
 8229SOL     OW25585   3.886   4.829   1.298
 8229SOL    HW125586   3.800   4.872   1.270
 8229SOL    HW225587   3.944   4.814   1.217
 8230SOL     OW25588   4.205   0.458   5.966
 8230SOL    HW125589   4.201   0.396   5.888
 8230SOL    HW225590   4.137   0.531   5.954
 8231SOL     OW25591   3.190   0.979   1.853
 8231SOL    HW125592   3.245   1.028   1.921
 8231SOL    HW225593   3.138   0.906   1.898
 8232SOL     OW25594   4.218   0.707   2.169
 8232SOL    HW125595   4.147   0.650   2.210
 8232SOL    HW225596   4.298   0.710   2.229
 8233SOL     OW25597   0.714   0.665   5.322
 8233SOL    HW125598   0.738   0.761   5.332
 8233SOL    HW225599   0.759   0.612   5.395
 8234SOL     OW25600   2.558   3.345   0.127
 8234SOL    HW125601   2.482   3.284   0.103
 8234SOL    HW225602   2.522   3.426   0.174
 8235SOL     OW25603   6.827   5.119   0.121
 8235SOL    HW125604   6.884   5.181   0.067
 8235SOL    HW225605   6.772   5.062   0.060
 8236SOL     OW25606   0.882   6.404   6.069
 8236SOL    HW125607   0.803   6.443   6.117
 8236SOL    HW225608   0.965   6.425   6.121
 8237SOL     OW25609   4.702   5.521   6.112
 8237SOL    HW125610   4.679   5.426   6.091
 8237SOL    HW225611   4.684   5.578   6.031
 8238SOL     OW25612   2.544   4.844   0.766
 8238SOL    HW125613   2.629   4.827   0.815
 8238SOL    HW225614   2.490   4.912   0.817
 8239SOL     OW25615   0.682   1.489   5.627
 8239SOL    HW125616   0.767   1.525   5.666
 8239SOL    HW225617   0.638   1.559   5.571
 8240SOL     OW25618   3.774   3.365   4.491
 8240SOL    HW125619   3.856   3.317   4.522
 8240SOL    HW225620   3.790   3.403   4.400
 8241SOL     OW25621   0.966   3.631   6.569
 8241SOL    HW125622   0.995   3.723   6.543
 8241SOL    HW225623   0.911   3.635   6.652
 8242SOL     OW25624   1.174   3.782   4.774
 8242SOL    HW125625   1.108   3.852   4.800
 8242SOL    HW225626   1.126   3.699   4.748
 8243SOL     OW25627   0.777   4.495   5.363
 8243SOL    HW125628   0.768   4.395   5.362
 8243SOL    HW225629   0.687   4.537   5.356
 8244SOL     OW25630   1.072   0.332   3.764
 8244SOL    HW125631   1.046   0.261   3.698
 8244SOL    HW225632   1.171   0.330   3.778
 8245SOL     OW25633   5.257   1.548   4.039
 8245SOL    HW125634   5.348   1.549   4.081
 8245SOL    HW225635   5.262   1.507   3.948
 8246SOL     OW25636   0.978   4.245   6.668
 8246SOL    HW125637   1.043   4.168   6.667
 8246SOL    HW225638   0.992   4.300   6.586
 8247SOL     OW25639   3.012   5.101   3.650
 8247SOL    HW125640   3.008   5.002   3.638
 8247SOL    HW225641   2.923   5.141   3.628
 8248SOL     OW25642   0.561   5.767   2.844
 8248SOL    HW125643   0.640   5.725   2.799
 8248SOL    HW225644   0.485   5.774   2.779
 8249SOL     OW25645   1.668   1.903   5.921
 8249SOL    HW125646   1.718   1.896   5.835
 8249SOL    HW225647   1.706   1.977   5.976
 8250SOL     OW25648   1.976   1.678   6.509
 8250SOL    HW125649   2.035   1.635   6.577
 8250SOL    HW225650   1.881   1.679   6.542
 8251SOL     OW25651   7.002   2.947   5.024
 8251SOL    HW125652   7.024   3.043   5.008
 8251SOL    HW225653   7.018   2.895   4.940
 8252SOL     OW25654   2.013   2.291   6.405
 8252SOL    HW125655   1.983   2.343   6.325
 8252SOL    HW225656   2.064   2.351   6.467
 8253SOL     OW25657   3.537   6.067   0.062
 8253SOL    HW125658   3.563   6.055   6.990
 8253SOL    HW225659   3.438   6.060   0.070
 8254SOL     OW25660   5.706   5.295   0.736
 8254SOL    HW125661   5.720   5.339   0.647
 8254SOL    HW225662   5.792   5.257   0.769
 8255SOL     OW25663   0.369   6.952   5.653
 8255SOL    HW125664   0.305   0.003   5.665
 8255SOL    HW225665   0.319   6.866   5.657
 8256SOL     OW25666   1.628   6.334   2.582
 8256SOL    HW125667   1.665   6.260   2.639
 8256SOL    HW225668   1.539   6.363   2.617
 8257SOL     OW25669   5.050   4.224   4.010
 8257SOL    HW125670   5.049   4.220   3.910
 8257SOL    HW225671   4.976   4.284   4.041
 8258SOL     OW25672   6.163   3.352   1.925
 8258SOL    HW125673   6.217   3.276   1.886
 8258SOL    HW225674   6.148   3.422   1.855
 8259SOL     OW25675   4.716   2.445   4.459
 8259SOL    HW125676   4.709   2.542   4.484
 8259SOL    HW225677   4.767   2.396   4.529
 8260SOL     OW25678   2.882   0.159   0.558
 8260SOL    HW125679   2.940   0.195   0.631
 8260SOL    HW225680   2.891   0.060   0.553
 8261SOL     OW25681   5.159   0.034   3.589
 8261SOL    HW125682   5.182   7.012   3.504
 8261SOL    HW225683   5.095   7.003   3.641
 8262SOL     OW25684   0.117   3.963   1.437
 8262SOL    HW125685   0.040   4.002   1.387
 8262SOL    HW225686   0.198   4.019   1.422
 8263SOL     OW25687   6.540   2.163   0.095
 8263SOL    HW125688   6.615   2.096   0.106
 8263SOL    HW225689   6.491   2.143   0.010
 8264SOL     OW25690   1.847   6.510   2.785
 8264SOL    HW125691   1.848   6.524   2.686
 8264SOL    HW225692   1.775   6.445   2.808
 8265SOL     OW25693   5.309   0.838   0.645
 8265SOL    HW125694   5.228   0.857   0.589
 8265SOL    HW225695   5.319   0.739   0.656
 8266SOL     OW25696   2.392   6.730   3.708
 8266SOL    HW125697   2.468   6.672   3.678
 8266SOL    HW225698   2.389   6.730   3.808
 8267SOL     OW25699   0.678   3.953   3.037
 8267SOL    HW125700   0.611   3.922   3.104
 8267SOL    HW225701   0.762   3.899   3.045
 8268SOL     OW25702   3.147   3.788   6.521
 8268SOL    HW125703   3.184   3.880   6.535
 8268SOL    HW225704   3.181   3.752   6.433
 8269SOL     OW25705   4.350   2.360   2.871
 8269SOL    HW125706   4.432   2.382   2.924
 8269SOL    HW225707   4.368   2.374   2.774
 8270SOL     OW25708   3.948   6.988   5.604
 8270SOL    HW125709   3.956   0.020   5.686
 8270SOL    HW225710   3.866   6.931   5.611
 8271SOL     OW25711   4.735   6.440   4.372
 8271SOL    HW125712   4.755   6.396   4.285
 8271SOL    HW225713   4.815   6.433   4.432
 8272SOL     OW25714   0.696   6.891   2.004
 8272SOL    HW125715   0.767   6.890   1.934
 8272SOL    HW225716   0.706   6.972   2.061
 8273SOL     OW25717   2.702   6.571   0.366
 8273SOL    HW125718   2.698   6.518   0.281
 8273SOL    HW225719   2.677   6.666   0.347
 8274SOL     OW25720   4.859   5.796   6.835
 8274SOL    HW125721   4.880   5.709   6.881
 8274SOL    HW225722   4.922   5.809   6.759
 8275SOL     OW25723   6.506   0.656   4.221
 8275SOL    HW125724   6.596   0.643   4.264
 8275SOL    HW225725   6.497   0.594   4.144
 8276SOL     OW25726   6.841   3.041   6.809
 8276SOL    HW125727   6.917   2.994   6.763
 8276SOL    HW225728   6.812   2.988   6.888
 8277SOL     OW25729   0.869   6.041   6.073
 8277SOL    HW125730   0.815   6.050   5.989
 8277SOL    HW225731   0.911   5.951   6.077
 8278SOL     OW25732   3.688   1.650   6.657
 8278SOL    HW125733   3.779   1.681   6.683
 8278SOL    HW225734   3.637   1.623   6.739
 8279SOL     OW25735   4.528   5.872   6.349
 8279SOL    HW125736   4.562   5.959   6.315
 8279SOL    HW225737   4.513   5.809   6.273
 8280SOL     OW25738   5.224   2.745   0.633
 8280SOL    HW125739   5.280   2.817   0.675
 8280SOL    HW225740   5.215   2.764   0.535
 8281SOL     OW25741   1.954   5.202   0.136
 8281SOL    HW125742   2.041   5.169   0.172
 8281SOL    HW225743   1.880   5.141   0.167
 8282SOL     OW25744   2.898   3.104   1.120
 8282SOL    HW125745   2.981   3.057   1.090
 8282SOL    HW225746   2.839   3.122   1.041
 8283SOL     OW25747   0.371   5.060   3.471
 8283SOL    HW125748   0.300   5.027   3.533
 8283SOL    HW225749   0.366   5.010   3.384
 8284SOL     OW25750   1.950   1.876   1.994
 8284SOL    HW125751   2.011   1.798   2.010
 8284SOL    HW225752   2.001   1.950   1.949
 8285SOL     OW25753   3.417   4.379   5.927
 8285SOL    HW125754   3.401   4.475   5.950
 8285SOL    HW225755   3.336   4.325   5.949
 8286SOL     OW25756   5.349   1.057   4.763
 8286SOL    HW125757   5.323   1.133   4.703
 8286SOL    HW225758   5.425   1.007   4.722
 8287SOL     OW25759   1.318   0.145   3.428
 8287SOL    HW125760   1.328   0.060   3.478
 8287SOL    HW225761   1.223   0.176   3.433
 8288SOL     OW25762   1.600   1.090   2.625
 8288SOL    HW125763   1.680   1.118   2.677
 8288SOL    HW225764   1.622   1.090   2.527
 8289SOL     OW25765   6.453   1.961   5.702
 8289SOL    HW125766   6.407   1.956   5.791
 8289SOL    HW225767   6.552   1.960   5.716
 8290SOL     OW25768   3.710   2.581   1.722
 8290SOL    HW125769   3.713   2.496   1.775
 8290SOL    HW225770   3.801   2.601   1.686
 8291SOL     OW25771   5.513   6.274   6.201
 8291SOL    HW125772   5.482   6.268   6.106
 8291SOL    HW225773   5.608   6.306   6.204
 8292SOL     OW25774   1.400   4.263   4.812
 8292SOL    HW125775   1.426   4.169   4.788
 8292SOL    HW225776   1.481   4.322   4.807
 8293SOL     OW25777   2.654   5.307   2.704
 8293SOL    HW125778   2.569   5.329   2.655
 8293SOL    HW225779   2.637   5.231   2.767
 8294SOL     OW25780   6.791   3.615   6.263
 8294SOL    HW125781   6.773   3.654   6.353
 8294SOL    HW225782   6.725   3.542   6.244
 8295SOL     OW25783   4.858   4.102   2.619
 8295SOL    HW125784   4.858   4.004   2.641
 8295SOL    HW225785   4.764   4.136   2.615
 8296SOL     OW25786   3.457   6.235   0.733
 8296SOL    HW125787   3.386   6.230   0.803
 8296SOL    HW225788   3.454   6.325   0.689
 8297SOL     OW25789   6.701   4.545   2.761
 8297SOL    HW125790   6.651   4.458   2.765
 8297SOL    HW225791   6.641   4.616   2.725
 8298SOL     OW25792   7.013   0.451   6.678
 8298SOL    HW125793   0.040   0.518   6.732
 8298SOL    HW225794   0.033   0.438   6.589
 8299SOL     OW25795   0.581   3.981   1.495
 8299SOL    HW125796   0.560   4.079   1.493
 8299SOL    HW225797   0.675   3.968   1.525
 8300SOL     OW25798   6.268   5.040   3.329
 8300SOL    HW125799   6.301   5.129   3.296
 8300SOL    HW225800   6.321   4.967   3.284
 8301SOL     OW25801   4.267   6.354   0.714
 8301SOL    HW125802   4.181   6.340   0.763
 8301SOL    HW225803   4.316   6.432   0.754
 8302SOL     OW25804   3.478   6.281   4.607
 8302SOL    HW125805   3.573   6.253   4.595
 8302SOL    HW225806   3.475   6.377   4.637
 8303SOL     OW25807   6.546   0.163   2.314
 8303SOL    HW125808   6.586   0.081   2.355
 8303SOL    HW225809   6.452   0.144   2.285
 8304SOL     OW25810   6.224   3.836   3.873
 8304SOL    HW125811   6.226   3.837   3.973
 8304SOL    HW225812   6.229   3.931   3.840
 8305SOL     OW25813   4.804   5.476   4.393
 8305SOL    HW125814   4.710   5.460   4.423
 8305SOL    HW225815   4.851   5.389   4.381
 8306SOL     OW25816   5.844   1.198   2.374
 8306SOL    HW125817   5.914   1.151   2.321
 8306SOL    HW225818   5.780   1.130   2.412
 8307SOL     OW25819   1.696   4.715   2.265
 8307SOL    HW125820   1.690   4.813   2.248
 8307SOL    HW225821   1.735   4.669   2.186
 8308SOL     OW25822   0.699   5.017   0.082
 8308SOL    HW125823   0.660   5.005   0.173
 8308SOL    HW225824   0.757   4.938   0.060
 8309SOL     OW25825   6.742   4.284   4.474
 8309SOL    HW125826   6.740   4.221   4.396
 8309SOL    HW225827   6.694   4.368   4.450
 8310SOL     OW25828   0.784   6.869   0.442
 8310SOL    HW125829   0.698   6.917   0.458
 8310SOL    HW225830   0.768   6.770   0.444
 8311SOL     OW25831   5.772   6.584   4.318
 8311SOL    HW125832   5.698   6.568   4.252
 8311SOL    HW225833   5.733   6.598   4.409
 8312SOL     OW25834   5.070   0.719   6.646
 8312SOL    HW125835   5.131   0.668   6.707
 8312SOL    HW225836   5.117   0.801   6.613
 8313SOL     OW25837   4.504   0.999   4.425
 8313SOL    HW125838   4.542   1.060   4.356
 8313SOL    HW225839   4.571   0.928   4.448
 8314SOL     OW25840   4.740   6.025   5.574
 8314SOL    HW125841   4.779   6.117   5.561
 8314SOL    HW225842   4.708   6.016   5.669
 8315SOL     OW25843   3.761   2.984   4.442
 8315SOL    HW125844   3.718   2.974   4.532
 8315SOL    HW225845   3.788   2.894   4.407
 8316SOL     OW25846   0.979   2.665   0.064
 8316SOL    HW125847   1.051   2.692   0.128
 8316SOL    HW225848   1.019   2.610   7.016
 8317SOL     OW25849   1.755   2.223   4.178
 8317SOL    HW125850   1.814   2.295   4.215
 8317SOL    HW225851   1.781   2.205   4.083
 8318SOL     OW25852   3.572   6.910   6.493
 8318SOL    HW125853   3.486   6.939   6.535
 8318SOL    HW225854   3.557   6.892   6.396
 8319SOL     OW25855   2.109   0.461   6.156
 8319SOL    HW125856   2.065   0.549   6.175
 8319SOL    HW225857   2.163   0.433   6.236
 8320SOL     OW25858   3.310   3.536   4.637
 8320SOL    HW125859   3.265   3.563   4.552
 8320SOL    HW225860   3.380   3.604   4.660
 8321SOL     OW25861   6.946   6.836   0.323
 8321SOL    HW125862   6.900   6.815   0.236
 8321SOL    HW225863   6.924   6.765   0.389
 8322SOL     OW25864   6.929   0.948   0.186
 8322SOL    HW125865   6.854   0.883   0.196
 8322SOL    HW225866   6.983   0.950   0.270
 8323SOL     OW25867   4.888   4.451   0.885
 8323SOL    HW125868   4.880   4.367   0.832
 8323SOL    HW225869   4.796   4.485   0.908
 8324SOL     OW25870   6.406   6.408   6.540
 8324SOL    HW125871   6.397   6.498   6.498
 8324SOL    HW225872   6.450   6.345   6.476
 8325SOL     OW25873   1.214   5.758   5.353
 8325SOL    HW125874   1.224   5.840   5.409
 8325SOL    HW225875   1.164   5.688   5.405
 8326SOL     OW25876   1.786   3.685   1.695
 8326SOL    HW125877   1.781   3.585   1.699
 8326SOL    HW225878   1.879   3.713   1.672
 8327SOL     OW25879   1.096   0.362   5.090
 8327SOL    HW125880   1.119   0.278   5.040
 8327SOL    HW225881   1.122   0.441   5.035
 8328SOL     OW25882   1.120   6.866   6.212
 8328SOL    HW125883   1.161   6.957   6.207
 8328SOL    HW225884   1.148   6.822   6.298
 8329SOL     OW25885   1.120   2.781   5.477
 8329SOL    HW125886   1.179   2.800   5.555
 8329SOL    HW225887   1.176   2.762   5.396
 8330SOL     OW25888   3.662   0.597   6.623
 8330SOL    HW125889   3.635   0.689   6.654
 8330SOL    HW225890   3.730   0.605   6.551
 8331SOL     OW25891   1.880   2.173   0.060
 8331SOL    HW125892   1.801   2.121   0.093
 8331SOL    HW225893   1.871   2.269   0.088
 8332SOL     OW25894   5.605   4.649   2.263
 8332SOL    HW125895   5.617   4.594   2.180
 8332SOL    HW225896   5.513   4.689   2.264
 8333SOL     OW25897   3.018   4.826   1.326
 8333SOL    HW125898   3.016   4.788   1.234
 8333SOL    HW225899   2.964   4.768   1.387
 8334SOL     OW25900   3.284   2.144   6.363
 8334SOL    HW125901   3.235   2.150   6.276
 8334SOL    HW225902   3.334   2.057   6.367
 8335SOL     OW25903   5.272   3.029   6.039
 8335SOL    HW125904   5.177   3.044   6.012
 8335SOL    HW225905   5.326   3.111   6.020
 8336SOL     OW25906   1.119   3.375   3.105
 8336SOL    HW125907   1.080   3.355   3.016
 8336SOL    HW225908   1.054   3.428   3.160
 8337SOL     OW25909   0.577   0.884   4.511
 8337SOL    HW125910   0.630   0.969   4.510
 8337SOL    HW225911   0.480   0.905   4.523
 8338SOL     OW25912   3.843   5.061   2.288
 8338SOL    HW125913   3.785   4.980   2.301
 8338SOL    HW225914   3.800   5.121   2.220
 8339SOL     OW25915   6.698   0.584   0.400
 8339SOL    HW125916   6.732   0.492   0.380
 8339SOL    HW225917   6.719   0.608   0.494
 8340SOL     OW25918   5.305   2.427   0.415
 8340SOL    HW125919   5.282   2.468   0.503
 8340SOL    HW225920   5.278   2.489   0.341
 8341SOL     OW25921   3.738   0.714   0.159
 8341SOL    HW125922   3.715   0.701   0.255
 8341SOL    HW225923   3.693   0.642   0.105
 8342SOL     OW25924   4.321   6.620   6.932
 8342SOL    HW125925   4.332   6.709   6.976
 8342SOL    HW225926   4.409   6.573   6.928
 8343SOL     OW25927   6.848   4.191   3.814
 8343SOL    HW125928   6.794   4.116   3.775
 8343SOL    HW225929   6.935   4.198   3.766
 8344SOL     OW25930   1.035   5.370   4.916
 8344SOL    HW125931   1.126   5.361   4.956
 8344SOL    HW225932   1.028   5.457   4.868
 8345SOL     OW25933   4.593   0.683   2.601
 8345SOL    HW125934   4.674   0.742   2.597
 8345SOL    HW225935   4.544   0.700   2.687
 8346SOL     OW25936   4.514   2.910   5.674
 8346SOL    HW125937   4.512   2.997   5.624
 8346SOL    HW225938   4.571   2.919   5.755
 8347SOL     OW25939   2.434   0.609   6.140
 8347SOL    HW125940   2.492   0.676   6.095
 8347SOL    HW225941   2.451   0.519   6.101
 8348SOL     OW25942   3.802   6.365   1.744
 8348SOL    HW125943   3.770   6.404   1.657
 8348SOL    HW225944   3.889   6.408   1.769
 8349SOL     OW25945   1.227   6.458   2.158
 8349SOL    HW125946   1.127   6.452   2.163
 8349SOL    HW225947   1.264   6.370   2.127
 8350SOL     OW25948   2.626   0.413   6.405
 8350SOL    HW125949   2.572   0.349   6.350
 8350SOL    HW225950   2.699   0.452   6.349
 8351SOL     OW25951   0.280   4.611   3.910
 8351SOL    HW125952   0.198   4.563   3.879
 8351SOL    HW225953   0.310   4.572   3.997
 8352SOL     OW25954   2.600   5.613   1.589
 8352SOL    HW125955   2.562   5.692   1.636
 8352SOL    HW225956   2.538   5.535   1.596
 8353SOL     OW25957   0.908   3.852   2.349
 8353SOL    HW125958   0.911   3.899   2.260
 8353SOL    HW225959   0.999   3.821   2.374
 8354SOL     OW25960   3.375   6.791   4.054
 8354SOL    HW125961   3.370   6.873   3.997
 8354SOL    HW225962   3.364   6.816   4.150
 8355SOL     OW25963   1.804   6.361   5.515
 8355SOL    HW125964   1.729   6.377   5.579
 8355SOL    HW225965   1.844   6.449   5.489
 8356SOL     OW25966   1.618   5.706   1.335
 8356SOL    HW125967   1.709   5.668   1.349
 8356SOL    HW225968   1.549   5.641   1.366
 8357SOL     OW25969   4.025   5.572   5.823
 8357SOL    HW125970   4.021   5.500   5.893
 8357SOL    HW225971   3.993   5.536   5.736
 8358SOL     OW25972   0.995   2.491   5.342
 8358SOL    HW125973   1.032   2.570   5.390
 8358SOL    HW225974   0.954   2.520   5.256
 8359SOL     OW25975   3.242   1.779   5.001
 8359SOL    HW125976   3.337   1.784   4.971
 8359SOL    HW225977   3.229   1.840   5.079
 8360SOL     OW25978   5.168   6.346   0.247
 8360SOL    HW125979   5.235   6.324   0.176
 8360SOL    HW225980   5.187   6.437   0.284
 8361SOL     OW25981   2.746   0.089   0.035
 8361SOL    HW125982   2.780   0.028   0.106
 8361SOL    HW225983   2.740   0.040   6.973
 8362SOL     OW25984   6.677   3.227   0.668
 8362SOL    HW125985   6.684   3.276   0.755
 8362SOL    HW225986   6.587   3.240   0.628
 8363SOL     OW25987   3.187   1.855   0.144
 8363SOL    HW125988   3.140   1.939   0.171
 8363SOL    HW225989   3.196   1.851   0.045
 8364SOL     OW25990   0.837   2.983   3.848
 8364SOL    HW125991   0.748   2.948   3.879
 8364SOL    HW225992   0.899   2.987   3.926
 8365SOL     OW25993   2.264   2.700   2.432
 8365SOL    HW125994   2.353   2.719   2.392
 8365SOL    HW225995   2.201   2.667   2.361
 8366SOL     OW25996   4.782   5.869   0.975
 8366SOL    HW125997   4.765   5.836   1.067
 8366SOL    HW225998   4.735   5.811   0.908
 8367SOL     OW25999   4.541   5.152   5.028
 8367SOL    HW126000   4.579   5.162   5.120
 8367SOL    HW226001   4.465   5.215   5.016
 8368SOL     OW26002   1.244   6.082   0.003
 8368SOL    HW126003   1.271   6.178   7.016
 8368SOL    HW226004   1.325   6.025   0.015
 8369SOL     OW26005   1.443   1.799   0.424
 8369SOL    HW126006   1.453   1.778   0.521
 8369SOL    HW226007   1.362   1.857   0.411
 8370SOL     OW26008   3.035   2.061   0.234
 8370SOL    HW126009   3.063   2.149   0.273
 8370SOL    HW226010   2.990   2.076   0.146
 8371SOL     OW26011   1.480   3.856   5.915
 8371SOL    HW126012   1.557   3.879   5.975
 8371SOL    HW226013   1.512   3.849   5.821
 8372SOL     OW26014   1.956   6.314   2.231
 8372SOL    HW126015   1.924   6.229   2.190
 8372SOL    HW226016   1.931   6.316   2.328
 8373SOL     OW26017   0.282   0.968   4.457
 8373SOL    HW126018   0.261   1.021   4.375
 8373SOL    HW226019   0.285   1.029   4.537
 8374SOL     OW26020   1.268   0.998   4.823
 8374SOL    HW126021   1.349   1.011   4.880
 8374SOL    HW226022   1.290   0.932   4.751
 8375SOL     OW26023   3.919   1.409   5.762
 8375SOL    HW126024   3.883   1.412   5.669
 8375SOL    HW226025   3.999   1.350   5.765
 8376SOL     OW26026   2.100   0.974   3.244
 8376SOL    HW126027   2.122   1.013   3.155
 8376SOL    HW226028   2.041   1.036   3.295
 8377SOL     OW26029   5.415   5.646   6.820
 8377SOL    HW126030   5.374   5.562   6.783
 8377SOL    HW226031   5.508   5.626   6.851
 8378SOL     OW26032   5.643   6.023   3.541
 8378SOL    HW126033   5.701   5.983   3.611
 8378SOL    HW226034   5.655   5.974   3.455
 8379SOL     OW26035   5.414   1.612   2.180
 8379SOL    HW126036   5.389   1.548   2.108
 8379SOL    HW226037   5.372   1.701   2.162
 8380SOL     OW26038   6.399   5.589   0.097
 8380SOL    HW126039   6.396   5.586   0.197
 8380SOL    HW226040   6.354   5.673   0.065
 8381SOL     OW26041   0.244   1.796   2.674
 8381SOL    HW126042   0.231   1.766   2.768
 8381SOL    HW226043   0.162   1.776   2.620
 8382SOL     OW26044   2.723   6.990   6.789
 8382SOL    HW126045   2.631   6.952   6.793
 8382SOL    HW226046   2.720   0.058   6.751
 8383SOL     OW26047   2.975   6.699   4.520
 8383SOL    HW126048   3.059   6.646   4.507
 8383SOL    HW226049   2.926   6.665   4.600
 8384SOL     OW26050   0.107   1.855   0.967
 8384SOL    HW126051   0.124   1.773   0.912
 8384SOL    HW226052   0.117   1.834   1.064
 8385SOL     OW26053   4.710   3.416   0.722
 8385SOL    HW126054   4.732   3.341   0.660
 8385SOL    HW226055   4.762   3.406   0.806
 8386SOL     OW26056   2.166   6.150   1.702
 8386SOL    HW126057   2.197   6.099   1.622
 8386SOL    HW226058   2.099   6.095   1.752
 8387SOL     OW26059   2.274   1.458   0.991
 8387SOL    HW126060   2.264   1.370   1.036
 8387SOL    HW226061   2.212   1.525   1.032
 8388SOL     OW26062   2.953   6.665   0.490
 8388SOL    HW126063   3.027   6.611   0.531
 8388SOL    HW226064   2.865   6.619   0.508
 8389SOL     OW26065   1.073   2.789   4.687
 8389SOL    HW126066   0.974   2.802   4.675
 8389SOL    HW226067   1.112   2.871   4.729
 8390SOL     OW26068   2.322   0.853   5.929
 8390SOL    HW126069   2.315   0.908   6.013
 8390SOL    HW226070   2.267   0.771   5.939
 8391SOL     OW26071   5.298   5.478   2.032
 8391SOL    HW126072   5.240   5.457   2.111
 8391SOL    HW226073   5.316   5.576   2.029
 8392SOL     OW26074   5.877   5.810   5.029
 8392SOL    HW126075   5.817   5.730   5.030
 8392SOL    HW226076   5.967   5.785   5.066
 8393SOL     OW26077   6.604   6.458   3.146
 8393SOL    HW126078   6.694   6.415   3.158
 8393SOL    HW226079   6.585   6.518   3.224
 8394SOL     OW26080   0.824   1.844   2.570
 8394SOL    HW126081   0.918   1.867   2.596
 8394SOL    HW226082   0.795   1.762   2.618
 8395SOL     OW26083   0.237   6.150   4.625
 8395SOL    HW126084   0.182   6.156   4.542
 8395SOL    HW226085   0.330   6.183   4.606
 8396SOL     OW26086   4.792   4.220   2.974
 8396SOL    HW126087   4.735   4.278   3.031
 8396SOL    HW226088   4.788   4.251   2.879
 8397SOL     OW26089   1.910   6.308   2.495
 8397SOL    HW126090   1.811   6.319   2.506
 8397SOL    HW226091   1.937   6.218   2.529
 8398SOL     OW26092   3.725   1.499   6.971
 8398SOL    HW126093   3.690   1.407   6.957
 8398SOL    HW226094   3.714   1.525   0.043
 8399SOL     OW26095   5.834   5.978   0.384
 8399SOL    HW126096   5.861   6.063   0.338
 8399SOL    HW226097   5.806   5.911   0.315
 8400SOL     OW26098   0.054   0.559   2.871
 8400SOL    HW126099   0.014   0.650   2.861
 8400SOL    HW226100   0.150   0.567   2.898
 8401SOL     OW26101   3.799   3.708   6.151
 8401SOL    HW126102   3.822   3.653   6.071
 8401SOL    HW226103   3.835   3.800   6.139
 8402SOL     OW26104   4.034   2.079   6.548
 8402SOL    HW126105   4.013   2.048   6.456
 8402SOL    HW226106   4.008   2.010   6.615
 8403SOL     OW26107   1.336   1.507   3.960
 8403SOL    HW126108   1.260   1.449   3.930
 8403SOL    HW226109   1.346   1.583   3.897
 8404SOL     OW26110   4.747   6.291   5.353
 8404SOL    HW126111   4.817   6.311   5.284
 8404SOL    HW226112   4.791   6.286   5.443
 8405SOL     OW26113   0.645   2.481   6.571
 8405SOL    HW126114   0.715   2.511   6.635
 8405SOL    HW226115   0.633   2.549   6.499
 8406SOL     OW26116   4.504   1.719   0.849
 8406SOL    HW126117   4.496   1.787   0.922
 8406SOL    HW226118   4.579   1.657   0.871
 8407SOL     OW26119   5.672   4.061   3.861
 8407SOL    HW126120   5.620   4.120   3.923
 8407SOL    HW226121   5.746   4.016   3.912
 8408SOL     OW26122   5.282   0.800   3.794
 8408SOL    HW126123   5.323   0.762   3.877
 8408SOL    HW226124   5.184   0.816   3.809
 8409SOL     OW26125   1.095   1.998   4.089
 8409SOL    HW126126   1.023   1.928   4.094
 8409SOL    HW226127   1.158   1.987   4.165
 8410SOL     OW26128   5.299   6.861   1.826
 8410SOL    HW126129   5.376   6.855   1.762
 8410SOL    HW226130   5.325   6.820   1.913
 8411SOL     OW26131   1.573   5.291   3.939
 8411SOL    HW126132   1.570   5.384   3.903
 8411SOL    HW226133   1.529   5.289   4.029
 8412SOL     OW26134   4.536   2.521   1.450
 8412SOL    HW126135   4.569   2.517   1.544
 8412SOL    HW226136   4.451   2.470   1.442
 8413SOL     OW26137   3.897   4.882   0.763
 8413SOL    HW126138   3.887   4.909   0.859
 8413SOL    HW226139   3.883   4.963   0.705
 8414SOL     OW26140   3.666   6.644   2.440
 8414SOL    HW126141   3.697   6.555   2.408
 8414SOL    HW226142   3.606   6.686   2.372
 8415SOL     OW26143   0.301   4.608   3.591
 8415SOL    HW126144   0.209   4.646   3.577
 8415SOL    HW226145   0.337   4.640   3.678
 8416SOL     OW26146   5.426   4.298   2.076
 8416SOL    HW126147   5.425   4.205   2.112
 8416SOL    HW226148   5.356   4.353   2.121
 8417SOL     OW26149   2.800   6.481   5.771
 8417SOL    HW126150   2.705   6.510   5.775
 8417SOL    HW226151   2.845   6.524   5.692
 8418SOL     OW26152   5.986   5.952   2.887
 8418SOL    HW126153   5.979   5.853   2.873
 8418SOL    HW226154   5.994   5.997   2.798
 8419SOL     OW26155   4.987   0.201   1.965
 8419SOL    HW126156   5.040   0.271   1.917
 8419SOL    HW226157   4.894   0.234   1.980
 8420SOL     OW26158   4.309   0.375   0.114
 8420SOL    HW126159   4.247   0.303   0.082
 8420SOL    HW226160   4.387   0.334   0.161
 8421SOL     OW26161   1.978   0.304   1.833
 8421SOL    HW126162   2.075   0.314   1.811
 8421SOL    HW226163   1.962   0.335   1.927
 8422SOL     OW26164   5.584   6.278   6.973
 8422SOL    HW126165   5.643   6.339   0.000
 8422SOL    HW226166   5.580   6.308   6.878
 8423SOL     OW26167   3.790   5.023   6.961
 8423SOL    HW126168   3.759   4.979   6.877
 8423SOL    HW226169   3.883   5.057   6.948
 8424SOL     OW26170   3.723   2.088   2.372
 8424SOL    HW126171   3.704   1.992   2.393
 8424SOL    HW226172   3.709   2.143   2.455
 8425SOL     OW26173   6.749   5.237   1.389
 8425SOL    HW126174   6.833   5.267   1.344
 8425SOL    HW226175   6.738   5.287   1.475
 8426SOL     OW26176   3.356   3.217   3.675
 8426SOL    HW126177   3.405   3.209   3.589
 8426SOL    HW226178   3.413   3.183   3.750
 8427SOL     OW26179   1.599   4.310   6.474
 8427SOL    HW126180   1.677   4.344   6.528
 8427SOL    HW226181   1.601   4.351   6.383
 8428SOL     OW26182   0.010   4.205   1.935
 8428SOL    HW126183   0.002   4.303   1.918
 8428SOL    HW226184   6.988   4.155   1.861
 8429SOL     OW26185   2.843   4.770   4.104
 8429SOL    HW126186   2.809   4.705   4.036
 8429SOL    HW226187   2.817   4.739   4.195
 8430SOL     OW26188   4.723   4.883   2.613
 8430SOL    HW126189   4.696   4.962   2.668
 8430SOL    HW226190   4.822   4.870   2.621
 8431SOL     OW26191   3.351   4.987   1.279
 8431SOL    HW126192   3.267   4.962   1.326
 8431SOL    HW226193   3.387   4.908   1.230
 8432SOL     OW26194   4.432   5.399   6.218
 8432SOL    HW126195   4.473   5.489   6.204
 8432SOL    HW226196   4.485   5.347   6.284
 8433SOL     OW26197   1.051   2.645   6.542
 8433SOL    HW126198   0.994   2.653   6.624
 8433SOL    HW226199   1.041   2.553   6.503
 8434SOL     OW26200   3.978   6.428   5.557
 8434SOL    HW126201   4.020   6.516   5.578
 8434SOL    HW226202   3.879   6.435   5.573
 8435SOL     OW26203   4.439   2.149   1.298
 8435SOL    HW126204   4.460   2.052   1.309
 8435SOL    HW226205   4.366   2.174   1.361
 8436SOL     OW26206   3.953   4.870   2.521
 8436SOL    HW126207   3.862   4.830   2.520
 8436SOL    HW226208   4.007   4.834   2.444
 8437SOL     OW26209   0.658   1.025   1.548
 8437SOL    HW126210   0.615   0.943   1.586
 8437SOL    HW226211   0.724   1.061   1.614
 8438SOL     OW26212   2.943   4.841   2.465
 8438SOL    HW126213   2.899   4.922   2.503
 8438SOL    HW226214   2.888   4.805   2.390
 8439SOL     OW26215   6.419   5.723   2.193
 8439SOL    HW126216   6.417   5.676   2.105
 8439SOL    HW226217   6.500   5.695   2.244
 8440SOL     OW26218   0.345   0.918   2.372
 8440SOL    HW126219   0.317   0.840   2.316
 8440SOL    HW226220   0.409   0.975   2.321
 8441SOL     OW26221   5.592   5.890   6.364
 8441SOL    HW126222   5.529   5.967   6.350
 8441SOL    HW226223   5.640   5.902   6.451
 8442SOL     OW26224   3.034   3.836   6.965
 8442SOL    HW126225   3.002   3.880   0.023
 8442SOL    HW226226   3.047   3.904   6.893
 8443SOL     OW26227   0.800   0.501   3.321
 8443SOL    HW126228   0.796   0.563   3.400
 8443SOL    HW226229   0.884   0.519   3.269
 8444SOL     OW26230   3.388   6.021   3.938
 8444SOL    HW126231   3.455   5.947   3.951
 8444SOL    HW226232   3.323   6.020   4.014
 8445SOL     OW26233   3.553   5.138   2.617
 8445SOL    HW126234   3.560   5.208   2.546
 8445SOL    HW226235   3.492   5.170   2.689
 8446SOL     OW26236   5.374   6.064   3.009
 8446SOL    HW126237   5.309   6.136   3.032
 8446SOL    HW226238   5.438   6.098   2.939
 8447SOL     OW26239   5.469   2.423   1.908
 8447SOL    HW126240   5.380   2.378   1.901
 8447SOL    HW226241   5.540   2.360   1.877
 8448SOL     OW26242   0.306   3.801   6.248
 8448SOL    HW126243   0.357   3.752   6.319
 8448SOL    HW226244   0.208   3.797   6.269
 8449SOL     OW26245   0.413   3.387   5.101
 8449SOL    HW126246   0.462   3.452   5.042
 8449SOL    HW226247   0.434   3.294   5.073
 8450SOL     OW26248   1.979   6.764   2.853
 8450SOL    HW126249   1.919   6.684   2.861
 8450SOL    HW226250   1.923   6.846   2.839
 8451SOL     OW26251   3.844   2.674   0.695
 8451SOL    HW126252   3.767   2.723   0.735
 8451SOL    HW226253   3.845   2.580   0.729
 8452SOL     OW26254   0.127   6.880   1.668
 8452SOL    HW126255   0.104   6.803   1.726
 8452SOL    HW226256   0.101   6.965   1.713
 8453SOL     OW26257   6.838   4.899   6.457
 8453SOL    HW126258   6.908   4.855   6.399
 8453SOL    HW226259   6.770   4.942   6.399
 8454SOL     OW26260   1.921   6.806   2.369
 8454SOL    HW126261   1.975   6.810   2.453
 8454SOL    HW226262   1.861   6.886   2.364
 8455SOL     OW26263   4.907   1.378   1.225
 8455SOL    HW126264   4.916   1.377   1.325
 8455SOL    HW226265   4.819   1.416   1.200
 8456SOL     OW26266   5.910   5.744   3.889
 8456SOL    HW126267   5.917   5.808   3.965
 8456SOL    HW226268   5.994   5.689   3.883
 8457SOL     OW26269   6.468   7.003   5.467
 8457SOL    HW126270   6.489   6.914   5.506
 8457SOL    HW226271   6.371   7.007   5.443
 8458SOL     OW26272   1.805   1.184   0.242
 8458SOL    HW126273   1.804   1.230   0.153
 8458SOL    HW226274   1.741   1.230   0.304
 8459SOL     OW26275   3.763   6.463   2.274
 8459SOL    HW126276   3.689   6.440   2.211
 8459SOL    HW226277   3.803   6.379   2.310
 8460SOL     OW26278   4.381   2.705   6.557
 8460SOL    HW126279   4.296   2.710   6.610
 8460SOL    HW226280   4.458   2.731   6.615
 8461SOL     OW26281   0.405   3.823   1.669
 8461SOL    HW126282   0.463   3.817   1.751
 8461SOL    HW226283   0.450   3.879   1.600
 8462SOL     OW26284   3.875   3.372   0.560
 8462SOL    HW126285   3.971   3.400   0.561
 8462SOL    HW226286   3.836   3.383   0.651
 8463SOL     OW26287   6.502   2.442   0.162
 8463SOL    HW126288   6.483   2.344   0.153
 8463SOL    HW226289   6.527   2.463   0.256
 8464SOL     OW26290   0.185   3.373   6.248
 8464SOL    HW126291   0.188   3.307   6.323
 8464SOL    HW226292   0.273   3.371   6.199
 8465SOL     OW26293   2.992   2.762   0.749
 8465SOL    HW126294   3.045   2.679   0.772
 8465SOL    HW226295   2.895   2.740   0.750
 8466SOL     OW26296   5.690   0.414   5.510
 8466SOL    HW126297   5.660   0.462   5.428
 8466SOL    HW226298   5.637   0.329   5.520
 8467SOL     OW26299   3.879   0.904   0.452
 8467SOL    HW126300   3.805   0.957   0.411
 8467SOL    HW226301   3.843   0.850   0.529
 8468SOL     OW26302   6.242   3.640   6.287
 8468SOL    HW126303   6.175   3.710   6.262
 8468SOL    HW226304   6.196   3.551   6.294
 8469SOL     OW26305   3.841   2.918   6.275
 8469SOL    HW126306   3.787   2.965   6.345
 8469SOL    HW226307   3.788   2.841   6.239
 8470SOL     OW26308   0.988   4.929   0.512
 8470SOL    HW126309   0.925   4.855   0.533
 8470SOL    HW226310   1.020   4.919   0.417
 8471SOL     OW26311   3.575   0.690   4.831
 8471SOL    HW126312   3.523   0.605   4.819
 8471SOL    HW226313   3.619   0.689   4.921
 8472SOL     OW26314   6.192   1.677   5.708
 8472SOL    HW126315   6.106   1.718   5.679
 8472SOL    HW226316   6.267   1.714   5.653
 8473SOL     OW26317   4.321   4.492   6.888
 8473SOL    HW126318   4.258   4.448   6.951
 8473SOL    HW226319   4.296   4.470   6.794
 8474SOL     OW26320   3.038   3.929   2.932
 8474SOL    HW126321   3.033   3.831   2.908
 8474SOL    HW226322   3.015   3.941   3.028
 8475SOL     OW26323   0.670   3.358   1.372
 8475SOL    HW126324   0.630   3.329   1.286
 8475SOL    HW226325   0.607   3.420   1.420
 8476SOL     OW26326   6.602   0.633   1.044
 8476SOL    HW126327   6.525   0.636   1.107
 8476SOL    HW226328   6.570   0.607   0.953
 8477SOL     OW26329   5.584   5.702   1.914
 8477SOL    HW126330   5.555   5.797   1.912
 8477SOL    HW226331   5.595   5.668   1.821
 8478SOL     OW26332   0.996   0.940   5.671
 8478SOL    HW126333   0.933   1.000   5.623
 8478SOL    HW226334   1.013   0.858   5.616
 8479SOL     OW26335   2.007   2.208   1.259
 8479SOL    HW126336   2.009   2.301   1.296
 8479SOL    HW226337   2.054   2.207   1.171
 8480SOL     OW26338   4.928   2.815   6.910
 8480SOL    HW126339   4.896   2.729   6.950
 8480SOL    HW226340   4.849   2.871   6.885
 8481SOL     OW26341   3.614   2.051   4.611
 8481SOL    HW126342   3.698   2.074   4.661
 8481SOL    HW226343   3.627   1.965   4.562
 8482SOL     OW26344   4.309   1.100   0.052
 8482SOL    HW126345   4.277   1.006   0.038
 8482SOL    HW226346   4.405   1.098   0.078
 8483SOL     OW26347   3.309   6.038   3.471
 8483SOL    HW126348   3.311   6.047   3.372
 8483SOL    HW226349   3.270   6.120   3.512
 8484SOL     OW26350   6.383   6.045   5.283
 8484SOL    HW126351   6.341   6.130   5.250
 8484SOL    HW226352   6.312   5.976   5.299
 8485SOL     OW26353   3.955   2.482   0.060
 8485SOL    HW126354   3.987   2.470   0.154
 8485SOL    HW226355   3.856   2.498   0.061
 8486SOL     OW26356   2.027   1.210   2.210
 8486SOL    HW126357   2.003   1.154   2.289
 8486SOL    HW226358   2.115   1.255   2.227
 8487SOL     OW26359   4.991   1.431   5.957
 8487SOL    HW126360   5.050   1.360   5.918
 8487SOL    HW226361   4.959   1.491   5.884
 8488SOL     OW26362   5.805   5.489   3.120
 8488SOL    HW126363   5.774   5.510   3.213
 8488SOL    HW226364   5.901   5.462   3.123
 8489SOL     OW26365   6.241   0.443   1.667
 8489SOL    HW126366   6.153   0.400   1.646
 8489SOL    HW226367   6.233   0.495   1.752
 8490SOL     OW26368   3.554   6.836   5.711
 8490SOL    HW126369   3.463   6.826   5.672
 8490SOL    HW226370   3.561   6.782   5.795
 8491SOL     OW26371   2.519   6.217   2.797
 8491SOL    HW126372   2.600   6.183   2.844
 8491SOL    HW226373   2.480   6.144   2.741
 8492SOL     OW26374   6.301   4.499   3.606
 8492SOL    HW126375   6.274   4.570   3.541
 8492SOL    HW226376   6.238   4.498   3.684
 8493SOL     OW26377   2.406   1.151   0.350
 8493SOL    HW126378   2.476   1.164   0.280
 8493SOL    HW226379   2.318   1.183   0.315
 8494SOL     OW26380   5.334   4.722   2.033
 8494SOL    HW126381   5.384   4.803   2.003
 8494SOL    HW226382   5.240   4.727   1.999
 8495SOL     OW26383   6.910   5.886   0.835
 8495SOL    HW126384   6.999   5.847   0.810
 8495SOL    HW226385   6.922   5.954   0.907
 8496SOL     OW26386   5.067   1.152   2.330
 8496SOL    HW126387   5.048   1.250   2.330
 8496SOL    HW226388   5.048   1.114   2.420
 8497SOL     OW26389   0.569   0.196   3.565
 8497SOL    HW126390   0.585   0.202   3.663
 8497SOL    HW226391   0.506   0.120   3.546
 8498SOL     OW26392   5.372   0.341   4.007
 8498SOL    HW126393   5.303   0.341   3.935
 8498SOL    HW226394   5.370   0.253   4.055
 8499SOL     OW26395   0.889   5.379   0.581
 8499SOL    HW126396   0.951   5.427   0.519
 8499SOL    HW226397   0.862   5.291   0.542
 8500SOL     OW26398   1.609   6.966   6.024
 8500SOL    HW126399   1.622   7.023   6.105
 8500SOL    HW226400   1.618   7.023   5.942
 8501SOL     OW26401   0.152   2.322   0.486
 8501SOL    HW126402   0.202   2.268   0.419
 8501SOL    HW226403   0.126   2.410   0.446
 8502SOL     OW26404   0.494   2.772   0.179
 8502SOL    HW126405   0.416   2.806   0.231
 8502SOL    HW226406   0.579   2.796   0.226
 8503SOL     OW26407   6.778   5.261   4.964
 8503SOL    HW126408   6.865   5.294   4.930
 8503SOL    HW226409   6.789   5.231   5.059
 8504SOL     OW26410   1.404   5.369   2.313
 8504SOL    HW126411   1.401   5.270   2.308
 8504SOL    HW226412   1.455   5.397   2.395
 8505SOL     OW26413   5.225   3.675   2.285
 8505SOL    HW126414   5.253   3.603   2.349
 8505SOL    HW226415   5.134   3.708   2.311
 8506SOL     OW26416   1.637   1.249   6.727
 8506SOL    HW126417   1.666   1.221   6.635
 8506SOL    HW226418   1.666   1.343   6.743
 8507SOL     OW26419   4.417   0.162   4.885
 8507SOL    HW126420   4.435   0.144   4.789
 8507SOL    HW226421   4.503   0.163   4.936
 8508SOL     OW26422   3.959   1.773   6.103
 8508SOL    HW126423   3.945   1.802   6.008
 8508SOL    HW226424   3.915   1.685   6.118
 8509SOL     OW26425   5.182   6.914   3.344
 8509SOL    HW126426   5.233   6.979   3.288
 8509SOL    HW226427   5.230   6.826   3.345
 8510SOL     OW26428   5.424   2.758   3.537
 8510SOL    HW126429   5.472   2.768   3.450
 8510SOL    HW226430   5.392   2.848   3.568
 8511SOL     OW26431   6.096   3.605   2.330
 8511SOL    HW126432   6.178   3.634   2.281
 8511SOL    HW226433   6.066   3.678   2.391
 8512SOL     OW26434   2.008   0.546   3.031
 8512SOL    HW126435   1.937   0.475   3.028
 8512SOL    HW226436   2.071   0.532   2.955
 8513SOL     OW26437   6.275   6.453   0.076
 8513SOL    HW126438   6.269   6.427   0.172
 8513SOL    HW226439   6.371   6.457   0.048
 8514SOL     OW26440   3.027   6.336   3.016
 8514SOL    HW126441   3.006   6.281   3.097
 8514SOL    HW226442   2.944   6.350   2.963
 8515SOL     OW26443   5.463   2.663   1.140
 8515SOL    HW126444   5.466   2.744   1.081
 8515SOL    HW226445   5.551   2.616   1.138
 8516SOL     OW26446   6.476   1.896   2.771
 8516SOL    HW126447   6.406   1.836   2.732
 8516SOL    HW226448   6.432   1.963   2.831
 8517SOL     OW26449   0.856   2.154   0.150
 8517SOL    HW126450   0.776   2.131   0.206
 8517SOL    HW226451   0.885   2.248   0.168
 8518SOL     OW26452   4.324   5.179   0.539
 8518SOL    HW126453   4.285   5.154   0.628
 8518SOL    HW226454   4.395   5.248   0.553
 8519SOL     OW26455   2.057   5.845   2.287
 8519SOL    HW126456   2.135   5.809   2.338
 8519SOL    HW226457   2.068   5.943   2.273
 8520SOL     OW26458   3.969   1.141   0.612
 8520SOL    HW126459   3.990   1.139   0.710
 8520SOL    HW226460   3.916   1.060   0.588
 8521SOL     OW26461   0.554   6.276   6.298
 8521SOL    HW126462   0.532   6.371   6.319
 8521SOL    HW226463   0.653   6.263   6.303
 8522SOL     OW26464   1.326   6.597   2.850
 8522SOL    HW126465   1.355   6.619   2.757
 8522SOL    HW226466   1.246   6.536   2.847
 8523SOL     OW26467   2.533   0.184   5.807
 8523SOL    HW126468   2.571   0.162   5.717
 8523SOL    HW226469   2.564   0.117   5.874
 8524SOL     OW26470   1.464   3.169   4.880
 8524SOL    HW126471   1.441   3.267   4.884
 8524SOL    HW226472   1.559   3.157   4.910
 8525SOL     OW26473   5.891   3.132   3.077
 8525SOL    HW126474   5.962   3.201   3.061
 8525SOL    HW226475   5.934   3.042   3.085
 8526SOL     OW26476   2.436   2.970   1.621
 8526SOL    HW126477   2.382   2.974   1.706
 8526SOL    HW226478   2.406   2.893   1.565
 8527SOL     OW26479   4.664   0.740   3.925
 8527SOL    HW126480   4.691   0.758   4.020
 8527SOL    HW226481   4.725   0.671   3.886
 8528SOL     OW26482   4.987   3.105   6.408
 8528SOL    HW126483   5.013   3.009   6.411
 8528SOL    HW226484   5.063   3.160   6.374
 8529SOL     OW26485   1.984   5.708   0.190
 8529SOL    HW126486   1.923   5.669   0.121
 8529SOL    HW226487   2.046   5.773   0.147
 8530SOL     OW26488   1.573   4.786   5.471
 8530SOL    HW126489   1.580   4.704   5.528
 8530SOL    HW226490   1.535   4.761   5.382
 8531SOL     OW26491   5.515   4.186   2.986
 8531SOL    HW126492   5.429   4.214   2.944
 8531SOL    HW226493   5.579   4.158   2.914
 8532SOL     OW26494   3.723   4.899   5.206
 8532SOL    HW126495   3.748   4.980   5.153
 8532SOL    HW226496   3.799   4.834   5.205
 8533SOL     OW26497   2.473   1.216   4.462
 8533SOL    HW126498   2.530   1.294   4.486
 8533SOL    HW226499   2.408   1.243   4.390
 8534SOL     OW26500   0.948   3.621   3.140
 8534SOL    HW126501   0.942   3.719   3.153
 8534SOL    HW226502   0.909   3.597   3.050
 8535SOL     OW26503   0.747   2.236   4.799
 8535SOL    HW126504   0.824   2.178   4.772
 8535SOL    HW226505   0.662   2.185   4.787
 8536SOL     OW26506   6.763   2.314   5.313
 8536SOL    HW126507   6.861   2.306   5.328
 8536SOL    HW226508   6.732   2.407   5.333
 8537SOL     OW26509   5.767   0.631   0.811
 8537SOL    HW126510   5.784   0.673   0.901
 8537SOL    HW226511   5.791   0.697   0.739
 8538SOL     OW26512   0.068   0.336   5.013
 8538SOL    HW126513   0.165   0.357   5.006
 8538SOL    HW226514   0.036   0.298   4.927
 8539SOL     OW26515   0.117   2.194   1.684
 8539SOL    HW126516   0.034   2.176   1.737
 8539SOL    HW226517   0.135   2.117   1.623
 8540SOL     OW26518   2.961   1.006   0.263
 8540SOL    HW126519   2.884   0.945   0.283
 8540SOL    HW226520   3.047   0.955   0.269
 8541SOL     OW26521   3.012   1.384   5.143
 8541SOL    HW126522   3.097   1.436   5.154
 8541SOL    HW226523   2.959   1.423   5.068
 8542SOL     OW26524   2.789   4.273   6.931
 8542SOL    HW126525   2.835   4.255   6.844
 8542SOL    HW226526   2.773   4.186   6.978
 8543SOL     OW26527   2.498   2.184   5.505
 8543SOL    HW126528   2.417   2.193   5.447
 8543SOL    HW226529   2.579   2.217   5.455
 8544SOL     OW26530   4.803   3.973   5.152
 8544SOL    HW126531   4.788   3.992   5.249
 8544SOL    HW226532   4.830   4.058   5.106
 8545SOL     OW26533   3.652   6.915   4.603
 8545SOL    HW126534   3.654   6.815   4.605
 8545SOL    HW226535   3.709   6.950   4.677
 8546SOL     OW26536   5.960   0.364   1.645
 8546SOL    HW126537   5.910   0.447   1.672
 8546SOL    HW226538   5.912   0.283   1.679
 8547SOL     OW26539   6.859   6.865   5.805
 8547SOL    HW126540   6.858   6.960   5.775
 8547SOL    HW226541   6.768   6.825   5.793
 8548SOL     OW26542   0.389   2.820   6.305
 8548SOL    HW126543   0.406   2.919   6.309
 8548SOL    HW226544   0.470   2.771   6.337
 8549SOL     OW26545   1.767   0.818   3.705
 8549SOL    HW126546   1.780   0.737   3.761
 8549SOL    HW226547   1.733   0.893   3.761
 8550SOL     OW26548   0.828   4.327   0.226
 8550SOL    HW126549   0.746   4.271   0.214
 8550SOL    HW226550   0.803   4.424   0.223
 8551SOL     OW26551   1.670   2.197   6.302
 8551SOL    HW126552   1.603   2.256   6.347
 8551SOL    HW226553   1.688   2.117   6.359
 8552SOL     OW26554   2.913   1.090   2.546
 8552SOL    HW126555   2.871   1.108   2.635
 8552SOL    HW226556   2.998   1.040   2.559
 8553SOL     OW26557   4.701   3.087   0.948
 8553SOL    HW126558   4.687   2.997   0.990
 8553SOL    HW226559   4.697   3.158   1.019
 8554SOL     OW26560   0.859   6.794   0.902
 8554SOL    HW126561   0.841   6.738   0.821
 8554SOL    HW226562   0.924   6.747   0.961
 8555SOL     OW26563   4.293   1.727   3.562
 8555SOL    HW126564   4.227   1.657   3.535
 8555SOL    HW226565   4.384   1.687   3.567
 8556SOL     OW26566   1.964   6.313   6.569
 8556SOL    HW126567   1.986   6.305   6.667
 8556SOL    HW226568   1.988   6.228   6.523
 8557SOL     OW26569   6.696   0.803   0.247
 8557SOL    HW126570   6.665   0.867   0.317
 8557SOL    HW226571   6.663   0.711   0.270
 8558SOL     OW26572   2.763   4.684   3.169
 8558SOL    HW126573   2.741   4.590   3.142
 8558SOL    HW226574   2.768   4.741   3.087
 8559SOL     OW26575   0.843   5.338   2.199
 8559SOL    HW126576   0.919   5.281   2.231
 8559SOL    HW226577   0.790   5.287   2.131
 8560SOL     OW26578   2.281   5.075   1.394
 8560SOL    HW126579   2.197   5.111   1.433
 8560SOL    HW226580   2.360   5.118   1.439
 8561SOL     OW26581   3.369   0.383   2.864
 8561SOL    HW126582   3.357   0.307   2.800
 8561SOL    HW226583   3.465   0.389   2.891
 8562SOL     OW26584   3.914   1.182   7.012
 8562SOL    HW126585   3.920   1.100   0.044
 8562SOL    HW226586   3.818   1.207   6.999
 8563SOL     OW26587   1.565   5.697   2.799
 8563SOL    HW126588   1.493   5.696   2.730
 8563SOL    HW226589   1.652   5.673   2.756
 8564SOL     OW26590   3.849   6.828   6.832
 8564SOL    HW126591   3.887   6.757   6.772
 8564SOL    HW226592   3.910   6.840   6.911
 8565SOL     OW26593   3.358   5.605   1.121
 8565SOL    HW126594   3.310   5.554   1.192
 8565SOL    HW226595   3.443   5.559   1.097
 8566SOL     OW26596   2.901   1.035   3.230
 8566SOL    HW126597   2.981   1.022   3.171
 8566SOL    HW226598   2.922   1.102   3.301
 8567SOL     OW26599   1.760   1.730   1.388
 8567SOL    HW126600   1.779   1.767   1.479
 8567SOL    HW226601   1.841   1.682   1.354
 8568SOL     OW26602   0.020   1.431   0.534
 8568SOL    HW126603   0.044   1.341   0.569
 8568SOL    HW226604   7.002   1.422   0.444
 8569SOL     OW26605   5.275   2.599   6.092
 8569SOL    HW126606   5.363   2.560   6.064
 8569SOL    HW226607   5.207   2.582   6.021
 8570SOL     OW26608   1.197   2.248   5.235
 8570SOL    HW126609   1.107   2.289   5.251
 8570SOL    HW226610   1.254   2.261   5.316
 8571SOL     OW26611   1.452   1.118   4.302
 8571SOL    HW126612   1.452   1.159   4.211
 8571SOL    HW226613   1.534   1.147   4.351
 8572SOL     OW26614   3.366   3.931   6.006
 8572SOL    HW126615   3.366   3.857   6.073
 8572SOL    HW226616   3.329   3.897   5.920
 8573SOL     OW26617   3.210   6.206   0.872
 8573SOL    HW126618   3.125   6.174   0.829
 8573SOL    HW226619   3.204   6.192   0.970
 8574SOL     OW26620   6.902   6.431   6.127
 8574SOL    HW126621   6.895   6.344   6.176
 8574SOL    HW226622   6.940   6.415   6.036
 8575SOL     OW26623   3.448   6.716   2.880
 8575SOL    HW126624   3.501   6.779   2.936
 8575SOL    HW226625   3.444   6.749   2.786
 8576SOL     OW26626   1.087   3.762   4.323
 8576SOL    HW126627   1.072   3.701   4.245
 8576SOL    HW226628   1.069   3.712   4.408
 8577SOL     OW26629   1.788   1.287   6.270
 8577SOL    HW126630   1.786   1.380   6.308
 8577SOL    HW226631   1.858   1.282   6.199
 8578SOL     OW26632   6.299   6.372   5.435
 8578SOL    HW126633   6.381   6.396   5.487
 8578SOL    HW226634   6.325   6.332   5.348
 8579SOL     OW26635   2.830   5.841   2.581
 8579SOL    HW126636   2.876   5.752   2.574
 8579SOL    HW226637   2.898   5.914   2.576
 8580SOL     OW26638   1.391   6.087   1.363
 8580SOL    HW126639   1.404   6.151   1.287
 8580SOL    HW226640   1.478   6.041   1.382
 8581SOL     OW26641   3.770   5.277   1.323
 8581SOL    HW126642   3.845   5.244   1.382
 8581SOL    HW226643   3.684   5.274   1.374
 8582SOL     OW26644   4.177   4.651   5.604
 8582SOL    HW126645   4.240   4.642   5.682
 8582SOL    HW226646   4.083   4.650   5.637
 8583SOL     OW26647   4.200   0.729   3.002
 8583SOL    HW126648   4.273   0.780   3.047
 8583SOL    HW226649   4.116   0.783   3.005
 8584SOL     OW26650   6.191   1.466   4.714
 8584SOL    HW126651   6.101   1.425   4.721
 8584SOL    HW226652   6.183   1.566   4.718
 8585SOL     OW26653   5.950   2.474   1.534
 8585SOL    HW126654   5.896   2.538   1.589
 8585SOL    HW226655   5.896   2.391   1.518
 8586SOL     OW26656   5.756   5.933   1.125
 8586SOL    HW126657   5.785   5.984   1.044
 8586SOL    HW226658   5.786   5.838   1.117
 8587SOL     OW26659   1.293   1.696   5.499
 8587SOL    HW126660   1.340   1.615   5.534
 8587SOL    HW226661   1.194   1.680   5.501
 8588SOL     OW26662   3.455   1.511   6.505
 8588SOL    HW126663   3.550   1.508   6.475
 8588SOL    HW226664   3.400   1.447   6.452
 8589SOL     OW26665   6.960   3.579   5.816
 8589SOL    HW126666   0.006   3.515   5.786
 8589SOL    HW226667   6.881   3.527   5.850
 8590SOL     OW26668   6.757   1.629   2.611
 8590SOL    HW126669   6.828   1.583   2.665
 8590SOL    HW226670   6.668   1.613   2.653
 8591SOL     OW26671   6.585   4.929   0.226
 8591SOL    HW126672   6.542   5.017   0.244
 8591SOL    HW226673   6.643   4.904   0.304
 8592SOL     OW26674   0.294   2.504   6.876
 8592SOL    HW126675   0.304   2.513   6.975
 8592SOL    HW226676   0.384   2.492   6.835
 8593SOL     OW26677   3.032   0.810   6.525
 8593SOL    HW126678   2.999   0.767   6.440
 8593SOL    HW226679   3.096   0.884   6.502
 8594SOL     OW26680   5.984   3.015   6.203
 8594SOL    HW126681   6.014   3.010   6.108
 8594SOL    HW226682   5.888   2.984   6.209
 8595SOL     OW26683   5.354   0.135   2.889
 8595SOL    HW126684   5.379   0.178   2.976
 8595SOL    HW226685   5.260   0.104   2.893
 8596SOL     OW26686   1.161   3.166   3.589
 8596SOL    HW126687   1.106   3.085   3.611
 8596SOL    HW226688   1.173   3.171   3.490
 8597SOL     OW26689   6.603   3.181   1.038
 8597SOL    HW126690   6.511   3.204   1.071
 8597SOL    HW226691   6.648   3.122   1.104
 8598SOL     OW26692   5.773   1.147   4.954
 8598SOL    HW126693   5.808   1.097   4.875
 8598SOL    HW226694   5.715   1.086   5.009
 8599SOL     OW26695   1.418   3.351   3.312
 8599SOL    HW126696   1.417   3.311   3.221
 8599SOL    HW226697   1.454   3.444   3.308
 8600SOL     OW26698   4.715   3.812   0.848
 8600SOL    HW126699   4.761   3.853   0.927
 8600SOL    HW226700   4.642   3.751   0.880
 8601SOL     OW26701   0.655   1.235   3.955
 8601SOL    HW126702   0.575   1.279   3.914
 8601SOL    HW226703   0.727   1.302   3.970
 8602SOL     OW26704   2.818   6.914   3.790
 8602SOL    HW126705   2.907   6.872   3.807
 8602SOL    HW226706   2.785   6.958   3.873
 8603SOL     OW26707   6.365   0.875   0.373
 8603SOL    HW126708   6.367   0.889   0.472
 8603SOL    HW226709   6.433   0.805   0.348
 8604SOL     OW26710   0.657   3.776   6.209
 8604SOL    HW126711   0.620   3.768   6.302
 8604SOL    HW226712   0.583   3.792   6.145
 8605SOL     OW26713   0.531   4.735   4.487
 8605SOL    HW126714   0.591   4.671   4.439
 8605SOL    HW226715   0.525   4.709   4.584
 8606SOL     OW26716   2.597   2.098   6.572
 8606SOL    HW126717   2.536   2.066   6.644
 8606SOL    HW226718   2.543   2.133   6.495
 8607SOL     OW26719   2.341   4.776   1.358
 8607SOL    HW126720   2.377   4.749   1.269
 8607SOL    HW226721   2.342   4.876   1.365
 8608SOL     OW26722   2.499   4.473   2.493
 8608SOL    HW126723   2.521   4.524   2.410
 8608SOL    HW226724   2.450   4.389   2.469
 8609SOL     OW26725   5.008   1.229   3.939
 8609SOL    HW126726   5.060   1.158   3.892
 8609SOL    HW226727   5.058   1.261   4.019
 8610SOL     OW26728   6.970   6.902   2.857
 8610SOL    HW126729   7.019   6.914   2.943
 8610SOL    HW226730   6.895   6.838   2.870
 8611SOL     OW26731   3.279   1.204   3.627
 8611SOL    HW126732   3.318   1.293   3.648
 8611SOL    HW226733   3.223   1.173   3.704
 8612SOL     OW26734   3.444   2.922   2.807
 8612SOL    HW126735   3.503   3.003   2.804
 8612SOL    HW226736   3.431   2.893   2.902
 8613SOL     OW26737   3.037   2.835   1.475
 8613SOL    HW126738   3.054   2.742   1.443
 8613SOL    HW226739   3.009   2.892   1.397
 8614SOL     OW26740   1.438   2.140   2.062
 8614SOL    HW126741   1.513   2.115   2.001
 8614SOL    HW226742   1.406   2.059   2.111
 8615SOL     OW26743   4.802   2.305   4.056
 8615SOL    HW126744   4.797   2.206   4.060
 8615SOL    HW226745   4.888   2.332   4.012
 8616SOL     OW26746   4.111   5.134   2.301
 8616SOL    HW126747   4.018   5.097   2.303
 8616SOL    HW226748   4.166   5.083   2.234
 8617SOL     OW26749   5.340   6.932   3.921
 8617SOL    HW126750   5.349   6.910   3.824
 8617SOL    HW226751   5.428   6.963   3.956
 8618SOL     OW26752   6.611   3.666   1.270
 8618SOL    HW126753   6.657   3.589   1.314
 8618SOL    HW226754   6.650   3.752   1.304
 8619SOL     OW26755   5.260   4.964   2.252
 8619SOL    HW126756   5.265   5.014   2.166
 8619SOL    HW226757   5.165   4.944   2.274
 8620SOL     OW26758   2.217   0.621   4.724
 8620SOL    HW126759   2.314   0.608   4.700
 8620SOL    HW226760   2.199   0.719   4.733
 8621SOL     OW26761   4.739   2.715   2.010
 8621SOL    HW126762   4.721   2.699   1.913
 8621SOL    HW226763   4.736   2.813   2.029
 8622SOL     OW26764   6.497   5.357   2.438
 8622SOL    HW126765   6.491   5.330   2.534
 8622SOL    HW226766   6.593   5.357   2.409
 8623SOL     OW26767   6.824   3.492   5.107
 8623SOL    HW126768   6.843   3.543   5.024
 8623SOL    HW226769   6.732   3.453   5.102
 8624SOL     OW26770   3.311   3.798   5.713
 8624SOL    HW126771   3.356   3.711   5.736
 8624SOL    HW226772   3.222   3.778   5.671
 8625SOL     OW26773   3.382   1.887   5.301
 8625SOL    HW126774   3.394   1.788   5.291
 8625SOL    HW226775   3.459   1.926   5.351
 8626SOL     OW26776   4.539   2.777   0.537
 8626SOL    HW126777   4.530   2.852   0.603
 8626SOL    HW226778   4.579   2.697   0.583
 8627SOL     OW26779   1.719   1.405   2.379
 8627SOL    HW126780   1.636   1.461   2.375
 8627SOL    HW226781   1.738   1.367   2.288
 8628SOL     OW26782   6.933   6.523   0.116
 8628SOL    HW126783   6.978   6.464   0.183
 8628SOL    HW226784   6.966   6.500   0.024
 8629SOL     OW26785   1.098   0.062   4.502
 8629SOL    HW126786   1.179   0.013   4.532
 8629SOL    HW226787   1.056   0.014   4.425
 8630SOL     OW26788   5.162   3.371   3.695
 8630SOL    HW126789   5.149   3.446   3.630
 8630SOL    HW226790   5.098   3.297   3.673
 8631SOL     OW26791   2.643   5.645   0.123
 8631SOL    HW126792   2.668   5.553   0.154
 8631SOL    HW226793   2.606   5.697   0.201
 8632SOL     OW26794   4.128   4.602   5.312
 8632SOL    HW126795   4.141   4.610   5.411
 8632SOL    HW226796   4.162   4.513   5.282
 8633SOL     OW26797   5.229   3.981   5.633
 8633SOL    HW126798   5.302   4.013   5.572
 8633SOL    HW226799   5.180   3.906   5.588
 8634SOL     OW26800   5.295   4.991   0.453
 8634SOL    HW126801   5.293   4.897   0.486
 8634SOL    HW226802   5.206   5.034   0.468
 8635SOL     OW26803   6.123   3.160   6.816
 8635SOL    HW126804   6.080   3.245   6.845
 8635SOL    HW226805   6.222   3.168   6.822
 8636SOL     OW26806   4.263   5.921   0.632
 8636SOL    HW126807   4.234   6.001   0.581
 8636SOL    HW226808   4.357   5.932   0.662
 8637SOL     OW26809   1.561   1.601   6.776
 8637SOL    HW126810   1.525   1.660   6.849
 8637SOL    HW226811   1.489   1.583   6.709
 8638SOL     OW26812   3.899   2.923   5.330
 8638SOL    HW126813   3.812   2.886   5.298
 8638SOL    HW226814   3.898   3.023   5.324
 8639SOL     OW26815   5.370   3.412   0.064
 8639SOL    HW126816   5.319   3.433   0.147
 8639SOL    HW226817   5.429   3.489   0.041
 8640SOL     OW26818   3.733   2.934   1.100
 8640SOL    HW126819   3.760   2.838   1.109
 8640SOL    HW226820   3.800   2.983   1.045
 8641SOL     OW26821   4.091   5.431   2.956
 8641SOL    HW126822   4.188   5.408   2.965
 8641SOL    HW226823   4.048   5.368   2.891
 8642SOL     OW26824   1.167   6.514   3.715
 8642SOL    HW126825   1.252   6.461   3.713
 8642SOL    HW226826   1.096   6.462   3.763
 8643SOL     OW26827   2.609   0.222   0.448
 8643SOL    HW126828   2.585   0.195   0.355
 8643SOL    HW226829   2.706   0.201   0.465
 8644SOL     OW26830   6.042   2.196   6.569
 8644SOL    HW126831   5.953   2.231   6.539
 8644SOL    HW226832   6.067   2.117   6.512
 8645SOL     OW26833   5.531   4.512   1.369
 8645SOL    HW126834   5.559   4.476   1.280
 8645SOL    HW226835   5.431   4.518   1.372
 8646SOL     OW26836   0.140   2.381   5.842
 8646SOL    HW126837   0.050   2.424   5.837
 8646SOL    HW226838   0.129   2.281   5.845
 8647SOL     OW26839   2.784   5.264   1.064
 8647SOL    HW126840   2.817   5.342   1.118
 8647SOL    HW226841   2.714   5.296   1.000
 8648SOL     OW26842   5.697   6.716   1.289
 8648SOL    HW126843   5.784   6.723   1.240
 8648SOL    HW226844   5.623   6.748   1.231
 8649SOL     OW26845   4.313   6.335   6.901
 8649SOL    HW126846   4.220   6.297   6.893
 8649SOL    HW226847   4.309   6.425   6.944
 8650SOL     OW26848   2.040   0.256   4.207
 8650SOL    HW126849   1.989   0.177   4.241
 8650SOL    HW226850   2.041   0.255   4.107
 8651SOL     OW26851   3.022   1.429   0.988
 8651SOL    HW126852   3.121   1.438   0.989
 8651SOL    HW226853   2.997   1.343   0.943
 8652SOL     OW26854   0.846   4.924   4.257
 8652SOL    HW126855   0.850   5.001   4.320
 8652SOL    HW226856   0.759   4.925   4.209
 8653SOL     OW26857   0.169   1.614   6.206
 8653SOL    HW126858   0.232   1.543   6.178
 8653SOL    HW226859   0.083   1.573   6.236
 8654SOL     OW26860   0.970   4.671   2.096
 8654SOL    HW126861   1.050   4.645   2.149
 8654SOL    HW226862   0.998   4.724   2.017
 8655SOL     OW26863   6.809   1.559   5.239
 8655SOL    HW126864   6.785   1.607   5.155
 8655SOL    HW226865   6.739   1.577   5.308
 8656SOL     OW26866   5.874   6.880   1.919
 8656SOL    HW126867   5.825   6.795   1.934
 8656SOL    HW226868   5.874   6.901   1.821
 8657SOL     OW26869   5.723   0.008   1.119
 8657SOL    HW126870   5.667   6.950   1.110
 8657SOL    HW226871   5.663   0.087   1.129
 8658SOL     OW26872   6.129   5.382   1.557
 8658SOL    HW126873   6.044   5.331   1.568
 8658SOL    HW226874   6.207   5.320   1.564
 8659SOL     OW26875   4.773   2.389   2.835
 8659SOL    HW126876   4.741   2.351   2.748
 8659SOL    HW226877   4.696   2.428   2.884
 8660SOL     OW26878   0.602   2.575   1.666
 8660SOL    HW126879   0.577   2.654   1.610
 8660SOL    HW226880   0.627   2.499   1.606
 8661SOL     OW26881   6.229   3.153   3.343
 8661SOL    HW126882   6.194   3.060   3.354
 8661SOL    HW226883   6.328   3.153   3.357
 8662SOL     OW26884   3.448   5.983   2.545
 8662SOL    HW126885   3.425   5.888   2.526
 8662SOL    HW226886   3.478   6.028   2.461
 8663SOL     OW26887   3.267   5.312   3.357
 8663SOL    HW126888   3.275   5.261   3.442
 8663SOL    HW226889   3.336   5.280   3.291
 8664SOL     OW26890   2.017   6.077   2.632
 8664SOL    HW126891   2.095   6.072   2.570
 8664SOL    HW226892   2.050   6.087   2.726
 8665SOL     OW26893   5.774   4.867   5.690
 8665SOL    HW126894   5.863   4.900   5.721
 8665SOL    HW226895   5.786   4.804   5.613
 8666SOL     OW26896   5.128   0.572   3.991
 8666SOL    HW126897   5.213   0.625   4.001
 8666SOL    HW226898   5.053   0.622   4.034
 8667SOL     OW26899   5.036   1.456   4.472
 8667SOL    HW126900   5.132   1.451   4.498
 8667SOL    HW226901   5.022   1.535   4.412
 8668SOL     OW26902   5.115   3.060   4.306
 8668SOL    HW126903   5.156   3.136   4.356
 8668SOL    HW226904   5.015   3.068   4.309
 8669SOL     OW26905   6.927   6.215   6.337
 8669SOL    HW126906   6.849   6.242   6.394
 8669SOL    HW226907   6.945   6.118   6.349
 8670SOL     OW26908   5.291   4.767   5.816
 8670SOL    HW126909   5.295   4.867   5.816
 8670SOL    HW226910   5.383   4.730   5.804
 8671SOL     OW26911   0.240   2.102   2.160
 8671SOL    HW126912   0.200   2.186   2.122
 8671SOL    HW226913   0.317   2.126   2.219
 8672SOL     OW26914   0.201   0.613   3.622
 8672SOL    HW126915   0.144   0.696   3.628
 8672SOL    HW226916   0.187   0.570   3.532
 8673SOL     OW26917   0.303   1.525   0.450
 8673SOL    HW126918   0.212   1.523   0.492
 8673SOL    HW226919   0.295   1.557   0.355
 8674SOL     OW26920   0.430   4.374   3.559
 8674SOL    HW126921   0.391   4.283   3.548
 8674SOL    HW226922   0.358   4.438   3.588
 8675SOL     OW26923   3.172   1.501   6.022
 8675SOL    HW126924   3.114   1.500   5.941
 8675SOL    HW226925   3.121   1.467   6.100
 8676SOL     OW26926   5.711   0.972   1.612
 8676SOL    HW126927   5.784   0.963   1.544
 8676SOL    HW226928   5.622   0.967   1.566
 8677SOL     OW26929   1.613   6.332   5.731
 8677SOL    HW126930   1.682   6.270   5.769
 8677SOL    HW226931   1.527   6.283   5.722
 8678SOL     OW26932   0.972   0.016   0.518
 8678SOL    HW126933   0.909   6.983   0.467
 8678SOL    HW226934   1.062   0.015   0.473
 8679SOL     OW26935   2.156   1.153   4.002
 8679SOL    HW126936   2.067   1.196   3.984
 8679SOL    HW226937   2.213   1.159   3.921
 8680SOL     OW26938   6.319   2.926   6.097
 8680SOL    HW126939   6.365   2.924   6.008
 8680SOL    HW226940   6.245   2.859   6.098
 8681SOL     OW26941   4.985   6.050   1.378
 8681SOL    HW126942   4.978   6.065   1.280
 8681SOL    HW226943   4.901   6.008   1.412
 8682SOL     OW26944   0.032   0.331   1.101
 8682SOL    HW126945   0.105   0.385   1.143
 8682SOL    HW226946   0.031   0.239   1.141
 8683SOL     OW26947   1.757   3.501   5.031
 8683SOL    HW126948   1.766   3.433   5.103
 8683SOL    HW226949   1.835   3.494   4.968
 8684SOL     OW26950   0.514   3.539   4.897
 8684SOL    HW126951   0.544   3.460   4.844
 8684SOL    HW226952   0.557   3.621   4.862
 8685SOL     OW26953   5.605   2.108   5.914
 8685SOL    HW126954   5.695   2.095   5.955
 8685SOL    HW226955   5.542   2.038   5.948
 8686SOL     OW26956   6.539   6.855   2.798
 8686SOL    HW126957   6.508   6.761   2.786
 8686SOL    HW226958   6.545   6.900   2.709
 8687SOL     OW26959   6.138   3.585   3.184
 8687SOL    HW126960   6.189   3.669   3.166
 8687SOL    HW226961   6.183   3.508   3.140
 8688SOL     OW26962   1.494   3.877   6.485
 8688SOL    HW126963   1.460   3.784   6.478
 8688SOL    HW226964   1.423   3.936   6.523
 8689SOL     OW26965   4.642   3.229   0.540
 8689SOL    HW126966   4.696   3.147   0.522
 8689SOL    HW226967   4.563   3.232   0.479
 8690SOL     OW26968   1.172   2.221   2.728
 8690SOL    HW126969   1.172   2.242   2.630
 8690SOL    HW226970   1.261   2.245   2.767
 8691SOL     OW26971   2.939   1.897   4.833
 8691SOL    HW126972   2.888   1.941   4.759
 8691SOL    HW226973   3.024   1.859   4.797
 8692SOL     OW26974   4.124   1.884   5.856
 8692SOL    HW126975   4.157   1.907   5.764
 8692SOL    HW226976   4.065   1.958   5.889
 8693SOL     OW26977   6.650   0.923   6.654
 8693SOL    HW126978   6.618   0.861   6.726
 8693SOL    HW226979   6.674   1.011   6.695
 8694SOL     OW26980   6.275   3.004   4.291
 8694SOL    HW126981   6.272   2.976   4.387
 8694SOL    HW226982   6.189   2.978   4.247
 8695SOL     OW26983   3.867   3.525   6.377
 8695SOL    HW126984   3.821   3.591   6.317
 8695SOL    HW226985   3.891   3.443   6.324
 8696SOL     OW26986   2.773   5.966   5.663
 8696SOL    HW126987   2.675   5.985   5.671
 8696SOL    HW226988   2.825   6.043   5.699
 8697SOL     OW26989   1.763   4.177   5.838
 8697SOL    HW126990   1.819   4.255   5.810
 8697SOL    HW226991   1.820   4.107   5.881
 8698SOL     OW26992   4.976   5.897   6.369
 8698SOL    HW126993   4.995   5.975   6.309
 8698SOL    HW226994   4.893   5.850   6.338
 8699SOL     OW26995   2.462   2.929   6.098
 8699SOL    HW126996   2.508   2.871   6.030
 8699SOL    HW226997   2.501   2.912   6.189
 8700SOL     OW26998   1.078   0.294   5.375
 8700SOL    HW126999   1.082   0.313   5.276
 8700SOL    HW227000   1.171   0.283   5.410
 8701SOL     OW27001   1.170   1.730   0.207
 8701SOL    HW127002   1.131   1.814   0.245
 8701SOL    HW227003   1.131   1.713   0.117
 8702SOL     OW27004   5.137   4.811   1.564
 8702SOL    HW127005   5.047   4.853   1.555
 8702SOL    HW227006   5.126   4.714   1.584
 8703SOL     OW27007   2.711   4.464   0.271
 8703SOL    HW127008   2.659   4.481   0.355
 8703SOL    HW227009   2.658   4.405   0.211
 8704SOL     OW27010   0.276   2.423   4.253
 8704SOL    HW127011   0.349   2.355   4.246
 8704SOL    HW227012   0.296   2.486   4.329
 8705SOL     OW27013   4.546   2.734   6.775
 8705SOL    HW127014   4.597   2.707   6.857
 8705SOL    HW227015   4.610   2.772   6.708
 8706SOL     OW27016   5.506   2.842   0.099
 8706SOL    HW127017   5.476   2.935   0.077
 8706SOL    HW227018   5.586   2.819   0.043
 8707SOL     OW27019   1.409   1.781   4.546
 8707SOL    HW127020   1.396   1.741   4.637
 8707SOL    HW227021   1.405   1.881   4.552
 8708SOL     OW27022   4.835   2.241   3.684
 8708SOL    HW127023   4.752   2.281   3.724
 8708SOL    HW227024   4.840   2.266   3.587
 8709SOL     OW27025   6.847   0.146   6.975
 8709SOL    HW127026   6.862   0.085   0.027
 8709SOL    HW227027   6.776   0.108   6.915
 8710SOL     OW27028   2.297   1.728   3.860
 8710SOL    HW127029   2.297   1.788   3.780
 8710SOL    HW227030   2.329   1.637   3.833
 8711SOL     OW27031   1.026   1.408   1.990
 8711SOL    HW127032   1.017   1.491   2.045
 8711SOL    HW227033   1.062   1.431   1.900
 8712SOL     OW27034   2.305   2.491   5.284
 8712SOL    HW127035   2.258   2.415   5.239
 8712SOL    HW227036   2.317   2.471   5.381
 8713SOL     OW27037   1.064   4.391   2.230
 8713SOL    HW127038   1.100   4.455   2.298
 8713SOL    HW227039   1.054   4.300   2.271
 8714SOL     OW27040   0.048   6.054   0.362
 8714SOL    HW127041   0.121   6.006   0.313
 8714SOL    HW227042   7.024   6.114   0.298
 8715SOL     OW27043   2.621   1.734   0.302
 8715SOL    HW127044   2.588   1.641   0.318
 8715SOL    HW227045   2.546   1.799   0.315
 8716SOL     OW27046   0.339   6.476   1.413
 8716SOL    HW127047   0.423   6.524   1.437
 8716SOL    HW227048   0.260   6.528   1.447
 8717SOL     OW27049   2.520   3.904   6.555
 8717SOL    HW127050   2.420   3.904   6.552
 8717SOL    HW227051   2.556   3.931   6.465
 8718SOL     OW27052   1.630   3.435   6.341
 8718SOL    HW127053   1.588   3.352   6.303
 8718SOL    HW227054   1.654   3.497   6.268
 8719SOL     OW27055   3.757   1.245   6.562
 8719SOL    HW127056   3.788   1.158   6.522
 8719SOL    HW227057   3.658   1.242   6.575
 8720SOL     OW27058   6.139   4.800   4.823
 8720SOL    HW127059   6.185   4.880   4.861
 8720SOL    HW227060   6.185   4.717   4.854
 8721SOL     OW27061   0.144   5.994   6.787
 8721SOL    HW127062   0.126   6.002   6.885
 8721SOL    HW227063   0.194   6.075   6.756
 8722SOL     OW27064   3.337   0.419   0.836
 8722SOL    HW127065   3.305   0.436   0.743
 8722SOL    HW227066   3.284   0.475   0.900
 8723SOL     OW27067   5.344   0.269   2.001
 8723SOL    HW127068   5.274   0.339   1.989
 8723SOL    HW227069   5.314   0.184   1.957
 8724SOL     OW27070   4.313   0.194   4.142
 8724SOL    HW127071   4.227   0.159   4.179
 8724SOL    HW227072   4.297   0.282   4.096
 8725SOL     OW27073   0.463   6.555   4.539
 8725SOL    HW127074   0.505   6.534   4.451
 8725SOL    HW227075   0.461   6.472   4.595
 8726SOL     OW27076   7.018   1.255   0.300
 8726SOL    HW127077   0.032   1.208   0.379
 8726SOL    HW227078   0.060   1.259   0.226
 8727SOL     OW27079   6.146   6.286   6.591
 8727SOL    HW127080   6.092   6.236   6.524
 8727SOL    HW227081   6.243   6.275   6.569
 8728SOL     OW27082   5.409   1.032   3.160
 8728SOL    HW127083   5.473   1.026   3.237
 8728SOL    HW227084   5.389   0.940   3.126
 8729SOL     OW27085   3.721   5.372   5.824
 8729SOL    HW127086   3.734   5.385   5.725
 8729SOL    HW227087   3.664   5.291   5.840
 8730SOL     OW27088   5.485   4.243   3.258
 8730SOL    HW127089   5.528   4.177   3.320
 8730SOL    HW227090   5.523   4.232   3.166
 8731SOL     OW27091   0.280   2.063   3.065
 8731SOL    HW127092   0.205   1.998   3.060
 8731SOL    HW227093   0.308   2.075   3.160
 8732SOL     OW27094   5.210   5.069   1.103
 8732SOL    HW127095   5.210   5.040   1.008
 8732SOL    HW227096   5.255   5.157   1.112
 8733SOL     OW27097   0.972   5.515   0.816
 8733SOL    HW127098   0.930   5.471   0.737
 8733SOL    HW227099   1.072   5.514   0.807
 8734SOL     OW27100   6.797   3.592   2.441
 8734SOL    HW127101   6.742   3.636   2.370
 8734SOL    HW227102   6.894   3.594   2.413
 8735SOL     OW27103   2.102   3.669   5.671
 8735SOL    HW127104   2.136   3.751   5.717
 8735SOL    HW227105   2.077   3.601   5.740
 8736SOL     OW27106   0.524   5.503   2.080
 8736SOL    HW127107   0.521   5.599   2.052
 8736SOL    HW227108   0.555   5.497   2.175
 8737SOL     OW27109   1.871   5.354   6.514
 8737SOL    HW127110   1.931   5.273   6.508
 8737SOL    HW227111   1.790   5.331   6.567
 8738SOL     OW27112   1.106   3.292   3.977
 8738SOL    HW127113   1.185   3.236   3.953
 8738SOL    HW227114   1.082   3.351   3.900
 8739SOL     OW27115   5.352   3.778   5.353
 8739SOL    HW127116   5.423   3.747   5.290
 8739SOL    HW227117   5.378   3.868   5.390
 8740SOL     OW27118   4.070   2.235   3.144
 8740SOL    HW127119   4.023   2.323   3.135
 8740SOL    HW227120   4.129   2.237   3.224
 8741SOL     OW27121   1.851   0.088   2.344
 8741SOL    HW127122   1.758   0.101   2.377
 8741SOL    HW227123   1.913   0.151   2.391
 8742SOL     OW27124   3.597   0.552   2.666
 8742SOL    HW127125   3.652   0.577   2.747
 8742SOL    HW227126   3.505   0.589   2.677
 8743SOL     OW27127   1.402   0.828   1.720
 8743SOL    HW127128   1.314   0.869   1.744
 8743SOL    HW227129   1.389   0.731   1.700
 8744SOL     OW27130   4.282   3.276   6.802
 8744SOL    HW127131   4.253   3.218   6.726
 8744SOL    HW227132   4.382   3.275   6.809
 8745SOL     OW27133   6.480   1.941   6.630
 8745SOL    HW127134   6.410   1.905   6.568
 8745SOL    HW227135   6.544   1.999   6.579
 8746SOL     OW27136   5.181   5.197   3.944
 8746SOL    HW127137   5.133   5.207   3.857
 8746SOL    HW227138   5.209   5.102   3.957
 8747SOL     OW27139   6.257   1.347   2.080
 8747SOL    HW127140   6.203   1.272   2.118
 8747SOL    HW227141   6.354   1.330   2.097
 8748SOL     OW27142   0.711   1.644   4.214
 8748SOL    HW127143   0.767   1.685   4.286
 8748SOL    HW227144   0.750   1.665   4.124
 8749SOL     OW27145   2.350   1.011   5.536
 8749SOL    HW127146   2.310   0.987   5.448
 8749SOL    HW227147   2.315   0.948   5.606
 8750SOL     OW27148   4.433   2.613   5.789
 8750SOL    HW127149   4.377   2.557   5.850
 8750SOL    HW227150   4.412   2.709   5.803
 8751SOL     OW27151   0.118   6.871   1.148
 8751SOL    HW127152   0.139   6.773   1.145
 8751SOL    HW227153   0.175   6.919   1.081
 8752SOL     OW27154   4.779   3.011   0.187
 8752SOL    HW127155   4.768   3.024   0.286
 8752SOL    HW227156   4.873   3.032   0.161
 8753SOL     OW27157   1.395   3.236   0.256
 8753SOL    HW127158   1.340   3.191   0.327
 8753SOL    HW227159   1.414   3.330   0.284
 8754SOL     OW27160   2.586   4.937   6.288
 8754SOL    HW127161   2.643   4.896   6.359
 8754SOL    HW227162   2.559   5.029   6.317
 8755SOL     OW27163   0.692   1.433   1.561
 8755SOL    HW127164   0.682   1.471   1.469
 8755SOL    HW227165   0.678   1.506   1.628
 8756SOL     OW27166   2.052   3.010   3.894
 8756SOL    HW127167   1.989   2.982   3.822
 8756SOL    HW227168   2.064   2.934   3.959
 8757SOL     OW27169   5.065   6.011   4.967
 8757SOL    HW127170   5.086   6.001   5.064
 8757SOL    HW227171   5.017   6.097   4.952
 8758SOL     OW27172   3.514   0.007   3.371
 8758SOL    HW127173   3.574   0.071   3.418
 8758SOL    HW227174   3.499   6.952   3.428
 8759SOL     OW27175   6.530   0.748   6.818
 8759SOL    HW127176   6.587   0.666   6.816
 8759SOL    HW227177   6.444   0.728   6.863
 8760SOL     OW27178   1.848   1.799   3.813
 8760SOL    HW127179   1.821   1.712   3.854
 8760SOL    HW227180   1.932   1.832   3.857
 8761SOL     OW27181   5.394   1.355   1.720
 8761SOL    HW127182   5.311   1.304   1.696
 8761SOL    HW227183   5.442   1.307   1.794
 8762SOL     OW27184   1.798   5.548   4.138
 8762SOL    HW127185   1.731   5.567   4.066
 8762SOL    HW227186   1.831   5.633   4.177
 8763SOL     OW27187   6.718   0.549   5.278
 8763SOL    HW127188   6.621   0.526   5.274
 8763SOL    HW227189   6.728   0.642   5.313
 8764SOL     OW27190   4.057   5.442   6.081
 8764SOL    HW127191   4.123   5.464   6.153
 8764SOL    HW227192   4.071   5.347   6.051
 8765SOL     OW27193   5.323   0.496   5.017
 8765SOL    HW127194   5.348   0.404   5.049
 8765SOL    HW227195   5.297   0.491   4.921
 8766SOL     OW27196   4.724   4.335   6.168
 8766SOL    HW127197   4.738   4.240   6.198
 8766SOL    HW227198   4.739   4.397   6.244
 8767SOL     OW27199   2.952   0.426   3.555
 8767SOL    HW127200   2.984   0.343   3.600
 8767SOL    HW227201   2.854   0.437   3.570
 8768SOL     OW27202   6.901   2.409   6.922
 8768SOL    HW127203   6.810   2.374   6.898
 8768SOL    HW227204   6.954   2.337   6.966
 8769SOL     OW27205   6.083   0.902   1.862
 8769SOL    HW127206   6.109   0.876   1.956
 8769SOL    HW227207   5.984   0.907   1.856
 8770SOL     OW27208   5.471   3.883   1.868
 8770SOL    HW127209   5.429   3.871   1.958
 8770SOL    HW227210   5.469   3.797   1.818
 8771SOL     OW27211   0.432   3.969   6.624
 8771SOL    HW127212   0.427   4.063   6.659
 8771SOL    HW227213   0.340   3.934   6.608
 8772SOL     OW27214   5.873   0.626   4.843
 8772SOL    HW127215   5.868   0.531   4.873
 8772SOL    HW227216   5.798   0.644   4.779
 8773SOL     OW27217   6.510   2.285   4.163
 8773SOL    HW127218   6.536   2.354   4.096
 8773SOL    HW227219   6.565   2.203   4.151
 8774SOL     OW27220   1.110   6.809   6.725
 8774SOL    HW127221   1.207   6.785   6.731
 8774SOL    HW227222   1.092   6.890   6.780
 8775SOL     OW27223   5.428   2.136   4.385
 8775SOL    HW127224   5.339   2.138   4.431
 8775SOL    HW227225   5.417   2.166   4.290
 8776SOL     OW27226   4.905   2.932   1.105
 8776SOL    HW127227   4.922   2.930   1.203
 8776SOL    HW227228   4.977   2.881   1.057
 8777SOL     OW27229   1.247   3.607   3.029
 8777SOL    HW127230   1.209   3.604   2.937
 8777SOL    HW227231   1.218   3.525   3.079
 8778SOL     OW27232   4.122   4.246   5.563
 8778SOL    HW127233   4.130   4.277   5.468
 8778SOL    HW227234   4.047   4.294   5.608
 8779SOL     OW27235   2.949   5.128   2.812
 8779SOL    HW127236   3.004   5.049   2.785
 8779SOL    HW227237   2.916   5.115   2.905
 8780SOL     OW27238   0.327   5.900   2.233
 8780SOL    HW127239   0.260   5.833   2.266
 8780SOL    HW227240   0.285   5.991   2.232
 8781SOL     OW27241   4.164   6.969   2.645
 8781SOL    HW127242   4.067   6.968   2.670
 8781SOL    HW227243   4.218   6.928   2.718
 8782SOL     OW27244   5.393   0.753   1.957
 8782SOL    HW127245   5.299   0.759   1.989
 8782SOL    HW227246   5.396   0.707   1.868
 8783SOL     OW27247   5.214   3.469   4.365
 8783SOL    HW127248   5.294   3.524   4.391
 8783SOL    HW227249   5.211   3.386   4.420
 8784SOL     OW27250   6.424   6.621   0.894
 8784SOL    HW127251   6.348   6.589   0.837
 8784SOL    HW227252   6.480   6.543   0.922
 8785SOL     OW27253   0.299   5.610   6.308
 8785SOL    HW127254   0.231   5.658   6.253
 8785SOL    HW227255   0.389   5.620   6.267
 8786SOL     OW27256   4.425   2.137   1.965
 8786SOL    HW127257   4.468   2.118   1.877
 8786SOL    HW227258   4.330   2.166   1.951
 8787SOL     OW27259   3.635   0.219   1.750
 8787SOL    HW127260   3.611   0.282   1.676
 8787SOL    HW227261   3.564   0.149   1.757
 8788SOL     OW27262   0.331   0.336   5.220
 8788SOL    HW127263   0.404   0.392   5.261
 8788SOL    HW227264   0.314   0.369   5.127
 8789SOL     OW27265   0.145   4.050   5.358
 8789SOL    HW127266   0.047   4.042   5.377
 8789SOL    HW227267   0.160   4.055   5.259
 8790SOL     OW27268   6.099   2.499   0.048
 8790SOL    HW127269   6.037   2.427   0.017
 8790SOL    HW227270   6.131   2.479   0.140
 8791SOL     OW27271   4.588   6.127   5.177
 8791SOL    HW127272   4.575   6.215   5.132
 8791SOL    HW227273   4.622   6.142   5.270
 8792SOL     OW27274   4.262   4.742   1.448
 8792SOL    HW127275   4.199   4.761   1.523
 8792SOL    HW227276   4.210   4.707   1.370
 8793SOL     OW27277   1.263   5.474   4.092
 8793SOL    HW127278   1.174   5.520   4.087
 8793SOL    HW227279   1.332   5.530   4.046
 8794SOL     OW27280   6.302   1.100   2.660
 8794SOL    HW127281   6.364   1.039   2.709
 8794SOL    HW227282   6.285   1.182   2.715
 8795SOL     OW27283   1.385   5.113   5.168
 8795SOL    HW127284   1.473   5.102   5.214
 8795SOL    HW227285   1.321   5.043   5.200
 8796SOL     OW27286   6.520   3.565   3.572
 8796SOL    HW127287   6.480   3.531   3.487
 8796SOL    HW227288   6.543   3.662   3.562
 8797SOL     OW27289   6.782   0.097   3.183
 8797SOL    HW127290   6.860   0.041   3.213
 8797SOL    HW227291   6.697   0.052   3.212
 8798SOL     OW27292   4.660   6.670   4.858
 8798SOL    HW127293   4.581   6.611   4.842
 8798SOL    HW227294   4.691   6.708   4.770
 8799SOL     OW27295   2.031   5.156   2.065
 8799SOL    HW127296   1.964   5.200   2.005
 8799SOL    HW227297   2.021   5.191   2.158
 8800SOL     OW27298   6.770   6.250   5.681
 8800SOL    HW127299   6.743   6.178   5.744
 8800SOL    HW227300   6.827   6.212   5.608
 8801SOL     OW27301   6.369   2.095   4.917
 8801SOL    HW127302   6.412   2.075   5.005
 8801SOL    HW227303   6.440   2.115   4.849
 8802SOL     OW27304   1.453   5.943   5.975
 8802SOL    HW127305   1.364   5.905   6.003
 8802SOL    HW227306   1.451   6.042   5.985
 8803SOL     OW27307   6.280   0.698   6.953
 8803SOL    HW127308   6.223   0.726   6.875
 8803SOL    HW227309   6.303   0.779   7.007
 8804SOL     OW27310   1.953   5.924   1.004
 8804SOL    HW127311   1.899   5.947   0.923
 8804SOL    HW227312   2.040   5.972   1.001
 8805SOL     OW27313   4.725   5.676   3.258
 8805SOL    HW127314   4.779   5.710   3.335
 8805SOL    HW227315   4.766   5.593   3.222
 8806SOL     OW27316   2.519   6.095   0.303
 8806SOL    HW127317   2.431   6.131   0.272
 8806SOL    HW227318   2.577   6.170   0.333
 8807SOL     OW27319   4.658   2.575   0.661
 8807SOL    HW127320   4.712   2.534   0.734
 8807SOL    HW227321   4.622   2.503   0.602
 8808SOL     OW27322   1.873   2.698   0.407
 8808SOL    HW127323   1.845   2.767   0.474
 8808SOL    HW227324   1.918   2.621   0.454
 8809SOL     OW27325   2.109   3.955   3.520
 8809SOL    HW127326   2.064   3.912   3.597
 8809SOL    HW227327   2.041   3.991   3.457
 8810SOL     OW27328   6.848   1.349   5.748
 8810SOL    HW127329   6.939   1.371   5.782
 8810SOL    HW227330   6.780   1.366   5.821
 8811SOL     OW27331   4.326   6.850   2.856
 8811SOL    HW127332   4.327   6.751   2.844
 8811SOL    HW227333   4.400   6.877   2.917
 8812SOL     OW27334   3.544   1.032   6.326
 8812SOL    HW127335   3.486   1.012   6.246
 8812SOL    HW227336   3.638   1.049   6.296
 8813SOL     OW27337   1.999   4.365   2.818
 8813SOL    HW127338   1.981   4.277   2.775
 8813SOL    HW227339   2.005   4.436   2.747
 8814SOL     OW27340   5.800   6.984   0.231
 8814SOL    HW127341   5.724   0.022   0.218
 8814SOL    HW227342   5.822   6.938   0.144
 8815SOL     OW27343   5.479   0.756   0.854
 8815SOL    HW127344   5.567   0.722   0.820
 8815SOL    HW227345   5.435   0.810   0.782
 8816SOL     OW27346   0.148   6.250   5.992
 8816SOL    HW127347   0.167   6.225   6.087
 8816SOL    HW227348   0.221   6.214   5.933
 8817SOL     OW27349   1.223   3.287   5.093
 8817SOL    HW127350   1.222   3.253   5.000
 8817SOL    HW227351   1.181   3.378   5.097
 8818SOL     OW27352   1.889   6.556   3.857
 8818SOL    HW127353   1.909   6.604   3.942
 8818SOL    HW227354   1.946   6.474   3.851
 8819SOL     OW27355   5.567   4.297   5.905
 8819SOL    HW127356   5.605   4.352   5.830
 8819SOL    HW227357   5.603   4.204   5.899
 8820SOL     OW27358   3.531   1.208   5.154
 8820SOL    HW127359   3.617   1.202   5.103
 8820SOL    HW227360   3.491   1.299   5.141
 8821SOL     OW27361   1.384   4.782   1.218
 8821SOL    HW127362   1.474   4.741   1.237
 8821SOL    HW227363   1.330   4.785   1.302
 8822SOL     OW27364   6.505   6.984   4.153
 8822SOL    HW127365   6.464   6.893   4.160
 8822SOL    HW227366   6.436   0.029   4.175
 8823SOL     OW27367   2.599   1.414   3.303
 8823SOL    HW127368   2.573   1.383   3.211
 8823SOL    HW227369   2.556   1.355   3.371
 8824SOL     OW27370   1.560   0.300   0.720
 8824SOL    HW127371   1.552   0.395   0.750
 8824SOL    HW227372   1.477   0.250   0.745
 8825SOL     OW27373   0.185   0.374   0.858
 8825SOL    HW127374   0.222   0.459   0.897
 8825SOL    HW227375   0.133   0.326   0.928
 8826SOL     OW27376   0.712   3.745   1.030
 8826SOL    HW127377   0.756   3.672   1.083
 8826SOL    HW227378   0.669   3.810   1.093
 8827SOL     OW27379   4.046   0.310   2.401
 8827SOL    HW127380   4.031   0.289   2.305
 8827SOL    HW227381   4.122   0.255   2.436
 8828SOL     OW27382   4.637   3.481   6.078
 8828SOL    HW127383   4.625   3.440   5.987
 8828SOL    HW227384   4.558   3.458   6.135
 8829SOL     OW27385   0.357   1.434   2.417
 8829SOL    HW127386   0.264   1.398   2.420
 8829SOL    HW227387   0.355   1.530   2.389
 8830SOL     OW27388   2.719   1.600   3.026
 8830SOL    HW127389   2.713   1.620   3.123
 8830SOL    HW227390   2.708   1.501   3.012
 8831SOL     OW27391   0.163   2.066   2.579
 8831SOL    HW127392   0.145   2.017   2.494
 8831SOL    HW227393   0.255   2.041   2.612
 8832SOL     OW27394   6.417   0.225   3.835
 8832SOL    HW127395   6.466   0.138   3.842
 8832SOL    HW227396   6.476   0.292   3.789
 8833SOL     OW27397   4.109   2.151   0.993
 8833SOL    HW127398   4.108   2.234   1.049
 8833SOL    HW227399   4.062   2.078   1.042
 8834SOL     OW27400   5.846   3.804   5.696
 8834SOL    HW127401   5.747   3.796   5.685
 8834SOL    HW227402   5.888   3.826   5.608
 8835SOL     OW27403   5.670   0.631   5.831
 8835SOL    HW127404   5.613   0.677   5.763
 8835SOL    HW227405   5.756   0.602   5.788
 8836SOL     OW27406   5.456   2.367   6.777
 8836SOL    HW127407   5.543   2.391   6.820
 8836SOL    HW227408   5.438   2.270   6.790
 8837SOL     OW27409   0.117   6.651   1.842
 8837SOL    HW127410   0.212   6.635   1.868
 8837SOL    HW227411   0.058   6.589   1.893
 8838SOL     OW27412   0.499   4.019   2.848
 8838SOL    HW127413   0.565   4.015   2.924
 8838SOL    HW227414   0.517   3.944   2.784
 8839SOL     OW27415   5.613   5.486   2.555
 8839SOL    HW127416   5.681   5.554   2.528
 8839SOL    HW227417   5.537   5.531   2.602
 8840SOL     OW27418   0.496   0.853   1.658
 8840SOL    HW127419   0.421   0.875   1.720
 8840SOL    HW227420   0.467   0.780   1.596
 8841SOL     OW27421   3.827   0.756   1.880
 8841SOL    HW127422   3.849   0.694   1.955
 8841SOL    HW227423   3.896   0.829   1.876
 8842SOL     OW27424   3.788   3.760   3.963
 8842SOL    HW127425   3.807   3.847   3.918
 8842SOL    HW227426   3.864   3.736   4.023
 8843SOL     OW27427   2.162   3.423   5.552
 8843SOL    HW127428   2.210   3.510   5.543
 8843SOL    HW227429   2.122   3.416   5.644
 8844SOL     OW27430   6.011   1.887   5.014
 8844SOL    HW127431   5.920   1.849   4.998
 8844SOL    HW227432   6.033   1.881   5.112
 8845SOL     OW27433   2.124   5.481   1.227
 8845SOL    HW127434   2.138   5.546   1.302
 8845SOL    HW227435   2.189   5.501   1.153
 8846SOL     OW27436   5.149   4.204   3.735
 8846SOL    HW127437   5.224   4.237   3.678
 8846SOL    HW227438   5.118   4.115   3.700
 8847SOL     OW27439   1.949   2.219   3.023
 8847SOL    HW127440   1.951   2.286   2.949
 8847SOL    HW227441   1.972   2.129   2.986
 8848SOL     OW27442   3.091   1.822   1.435
 8848SOL    HW127443   3.024   1.780   1.496
 8848SOL    HW227444   3.117   1.911   1.472
 8849SOL     OW27445   3.116   5.792   4.499
 8849SOL    HW127446   3.050   5.778   4.425
 8849SOL    HW227447   3.074   5.769   4.587
 8850SOL     OW27448   2.614   1.915   0.727
 8850SOL    HW127449   2.701   1.938   0.770
 8850SOL    HW227450   2.599   1.816   0.732
 8851SOL     OW27451   1.109   4.307   3.160
 8851SOL    HW127452   1.127   4.334   3.255
 8851SOL    HW227453   1.021   4.345   3.131
 8852SOL     OW27454   5.414   2.834   6.257
 8852SOL    HW127455   5.386   2.929   6.270
 8852SOL    HW227456   5.360   2.793   6.184
 8853SOL     OW27457   3.676   1.764   5.441
 8853SOL    HW127458   3.655   1.809   5.527
 8853SOL    HW227459   3.738   1.820   5.387
 8854SOL     OW27460   1.543   0.885   6.092
 8854SOL    HW127461   1.463   0.875   6.033
 8854SOL    HW227462   1.525   0.957   6.160
 8855SOL     OW27463   6.031   5.940   6.683
 8855SOL    HW127464   5.944   5.987   6.667
 8855SOL    HW227465   6.104   5.990   6.636
 8856SOL     OW27466   6.657   0.788   4.474
 8856SOL    HW127467   6.585   0.747   4.530
 8856SOL    HW227468   6.731   0.820   4.532
 8857SOL     OW27469   6.540   1.776   3.453
 8857SOL    HW127470   6.563   1.685   3.418
 8857SOL    HW227471   6.547   1.844   3.380
 8858SOL     OW27472   0.853   4.047   5.934
 8858SOL    HW127473   0.877   4.075   5.841
 8858SOL    HW227474   0.882   3.953   5.949
 8859SOL     OW27475   0.786   6.695   5.278
 8859SOL    HW127476   0.698   6.652   5.296
 8859SOL    HW227477   0.800   6.770   5.343
 8860SOL     OW27478   1.332   2.831   2.550
 8860SOL    HW127479   1.235   2.826   2.525
 8860SOL    HW227480   1.341   2.870   2.641
 8861SOL     OW27481   3.358   2.863   6.986
 8861SOL    HW127482   3.333   2.887   6.892
 8861SOL    HW227483   3.384   2.945   0.012
 8862SOL     OW27484   5.819   1.706   4.961
 8862SOL    HW127485   5.733   1.746   4.990
 8862SOL    HW227486   5.823   1.610   4.990
 8863SOL     OW27487   1.543   5.463   4.801
 8863SOL    HW127488   1.630   5.461   4.752
 8863SOL    HW227489   1.559   5.490   4.896
 8864SOL     OW27490   2.216   3.413   6.534
 8864SOL    HW127491   2.126   3.424   6.491
 8864SOL    HW227492   2.221   3.470   6.616
 8865SOL     OW27493   2.596   1.671   4.800
 8865SOL    HW127494   2.590   1.767   4.827
 8865SOL    HW227495   2.520   1.650   4.738
 8866SOL     OW27496   3.920   6.263   3.415
 8866SOL    HW127497   3.961   6.173   3.406
 8866SOL    HW227498   3.893   6.278   3.510
 8867SOL     OW27499   5.976   2.383   2.488
 8867SOL    HW127500   6.035   2.389   2.408
 8867SOL    HW227501   5.928   2.295   2.488
 8868SOL     OW27502   5.150   3.791   0.398
 8868SOL    HW127503   5.069   3.792   0.339
 8868SOL    HW227504   5.228   3.830   0.350
 8869SOL     OW27505   4.812   4.111   3.289
 8869SOL    HW127506   4.847   4.180   3.226
 8869SOL    HW227507   4.735   4.149   3.340
 8870SOL     OW27508   3.850   1.112   1.007
 8870SOL    HW127509   3.783   1.063   0.951
 8870SOL    HW227510   3.896   1.182   0.951
 8871SOL     OW27511   1.577   1.572   3.711
 8871SOL    HW127512   1.613   1.634   3.642
 8871SOL    HW227513   1.652   1.534   3.765
 8872SOL     OW27514   1.903   4.623   3.900
 8872SOL    HW127515   1.851   4.548   3.941
 8872SOL    HW227516   2.000   4.612   3.919
 8873SOL     OW27517   0.231   6.117   3.082
 8873SOL    HW127518   0.309   6.059   3.060
 8873SOL    HW227519   0.150   6.060   3.096
 8874SOL     OW27520   1.909   6.672   1.245
 8874SOL    HW127521   1.868   6.757   1.279
 8874SOL    HW227522   1.997   6.657   1.291
 8875SOL     OW27523   1.262   2.551   4.663
 8875SOL    HW127524   1.280   2.489   4.587
 8875SOL    HW227525   1.348   2.571   4.711
 8876SOL     OW27526   6.994   0.814   4.732
 8876SOL    HW127527   0.017   0.806   4.819
 8876SOL    HW227528   0.010   0.752   4.665
 8877SOL     OW27529   3.092   0.721   4.113
 8877SOL    HW127530   3.013   0.665   4.089
 8877SOL    HW227531   3.064   0.817   4.124
 8878SOL     OW27532   6.941   4.850   0.766
 8878SOL    HW127533   6.975   4.756   0.769
 8878SOL    HW227534   6.910   4.870   0.673
 8879SOL     OW27535   4.825   5.759   0.533
 8879SOL    HW127536   4.801   5.662   0.534
 8879SOL    HW227537   4.919   5.769   0.498
 8880SOL     OW27538   7.009   5.371   4.545
 8880SOL    HW127539   0.062   5.425   4.576
 8880SOL    HW227540   7.014   5.279   4.585
 8881SOL     OW27541   6.110   1.123   2.946
 8881SOL    HW127542   6.168   1.200   2.918
 8881SOL    HW227543   6.128   1.102   3.042
 8882SOL     OW27544   5.286   0.874   6.622
 8882SOL    HW127545   5.356   0.863   6.552
 8882SOL    HW227546   5.303   0.959   6.673
 8883SOL     OW27547   0.392   1.332   6.136
 8883SOL    HW127548   0.363   1.236   6.131
 8883SOL    HW227549   0.350   1.383   6.061
 8884SOL     OW27550   5.774   6.494   6.240
 8884SOL    HW127551   5.708   6.569   6.233
 8884SOL    HW227552   5.829   6.505   6.322
 8885SOL     OW27553   6.550   3.955   1.386
 8885SOL    HW127554   6.614   3.899   1.438
 8885SOL    HW227555   6.457   3.924   1.401
 8886SOL     OW27556   2.579   6.397   5.540
 8886SOL    HW127557   2.573   6.432   5.446
 8886SOL    HW227558   2.559   6.471   5.604
 8887SOL     OW27559   2.927   1.191   0.879
 8887SOL    HW127560   2.839   1.149   0.858
 8887SOL    HW227561   2.993   1.165   0.808
 8888SOL     OW27562   1.118   2.305   1.202
 8888SOL    HW127563   1.078   2.314   1.110
 8888SOL    HW227564   1.166   2.218   1.208
 8889SOL     OW27565   5.567   6.889   4.879
 8889SOL    HW127566   5.522   6.820   4.936
 8889SOL    HW227567   5.602   6.963   4.937
 8890SOL     OW27568   6.547   5.912   4.340
 8890SOL    HW127569   6.608   5.870   4.274
 8890SOL    HW227570   6.459   5.863   4.340
 8891SOL     OW27571   5.906   3.099   6.657
 8891SOL    HW127572   5.955   3.134   6.737
 8891SOL    HW227573   5.955   3.124   6.574
 8892SOL     OW27574   2.638   6.836   2.973
 8892SOL    HW127575   2.635   6.755   2.914
 8892SOL    HW227576   2.545   6.871   2.986
 8893SOL     OW27577   0.316   1.156   2.024
 8893SOL    HW127578   0.398   1.148   2.081
 8893SOL    HW227579   0.312   1.079   1.960
 8894SOL     OW27580   4.370   3.034   6.205
 8894SOL    HW127581   4.309   2.993   6.137
 8894SOL    HW227582   4.363   2.983   6.291
 8895SOL     OW27583   0.598   6.990   1.531
 8895SOL    HW127584   0.577   0.054   1.573
 8895SOL    HW227585   0.520   6.928   1.545
 8896SOL     OW27586   1.573   3.414   5.421
 8896SOL    HW127587   1.594   3.408   5.518
 8896SOL    HW227588   1.595   3.506   5.388
 8897SOL     OW27589   1.665   1.022   2.362
 8897SOL    HW127590   1.674   1.103   2.305
 8897SOL    HW227591   1.693   0.941   2.310
 8898SOL     OW27592   6.484   3.322   4.532
 8898SOL    HW127593   6.429   3.344   4.612
 8898SOL    HW227594   6.545   3.397   4.511
 8899SOL     OW27595   2.038   4.308   6.787
 8899SOL    HW127596   1.970   4.271   6.850
 8899SOL    HW227597   2.120   4.334   6.838
 8900SOL     OW27598   5.157   3.051   3.358
 8900SOL    HW127599   5.191   3.021   3.447
 8900SOL    HW227600   5.220   3.118   3.319
 8901SOL     OW27601   1.716   0.714   2.983
 8901SOL    HW127602   1.726   0.654   2.904
 8901SOL    HW227603   1.706   0.658   3.066
 8902SOL     OW27604   2.751   5.608   6.620
 8902SOL    HW127605   2.687   5.641   6.550
 8902SOL    HW227606   2.746   5.668   6.700
 8903SOL     OW27607   2.388   1.514   4.092
 8903SOL    HW127608   2.326   1.564   4.032
 8903SOL    HW227609   2.474   1.566   4.101
 8904SOL     OW27610   6.824   5.588   3.608
 8904SOL    HW127611   6.834   5.585   3.707
 8904SOL    HW227612   6.850   5.678   3.574
 8905SOL     OW27613   2.068   3.400   5.138
 8905SOL    HW127614   1.975   3.368   5.154
 8905SOL    HW227615   2.131   3.352   5.199
 8906SOL     OW27616   6.721   6.438   6.816
 8906SOL    HW127617   6.683   6.361   6.764
 8906SOL    HW227618   6.807   6.467   6.773
 8907SOL     OW27619   3.260   2.577   5.360
 8907SOL    HW127620   3.242   2.514   5.284
 8907SOL    HW227621   3.174   2.600   5.405
 8908SOL     OW27622   1.693   2.311   0.586
 8908SOL    HW127623   1.693   2.294   0.685
 8908SOL    HW227624   1.674   2.225   0.538
 8909SOL     OW27625   3.063   0.114   5.485
 8909SOL    HW127626   3.019   0.034   5.526
 8909SOL    HW227627   3.118   0.086   5.406
 8910SOL     OW27628   2.709   3.491   5.863
 8910SOL    HW127629   2.724   3.504   5.961
 8910SOL    HW227630   2.630   3.431   5.850
 8911SOL     OW27631   2.996   2.243   4.177
 8911SOL    HW127632   3.093   2.219   4.183
 8911SOL    HW227633   2.964   2.275   4.266
 8912SOL     OW27634   4.363   1.631   6.106
 8912SOL    HW127635   4.309   1.586   6.177
 8912SOL    HW227636   4.346   1.730   6.108
 8913SOL     OW27637   5.511   3.955   1.517
 8913SOL    HW127638   5.499   4.038   1.572
 8913SOL    HW227639   5.424   3.906   1.511
 8914SOL     OW27640   4.525   1.320   5.095
 8914SOL    HW127641   4.560   1.241   5.146
 8914SOL    HW227642   4.429   1.334   5.116
 8915SOL     OW27643   1.670   3.229   3.785
 8915SOL    HW127644   1.683   3.191   3.876
 8915SOL    HW227645   1.755   3.271   3.754
 8916SOL     OW27646   0.404   4.164   2.201
 8916SOL    HW127647   0.379   4.106   2.278
 8916SOL    HW227648   0.503   4.169   2.193
 8917SOL     OW27649   6.173   5.447   6.638
 8917SOL    HW127650   6.255   5.396   6.614
 8917SOL    HW227651   6.190   5.502   6.719
 8918SOL     OW27652   6.014   6.341   0.165
 8918SOL    HW127653   6.089   6.406   0.154
 8918SOL    HW227654   6.013   6.277   0.089
 8919SOL     OW27655   3.741   3.684   0.722
 8919SOL    HW127656   3.731   3.745   0.644
 8919SOL    HW227657   3.837   3.681   0.750
 8920SOL     OW27658   6.273   5.904   6.089
 8920SOL    HW127659   6.368   5.923   6.062
 8920SOL    HW227660   6.273   5.848   6.173
 8921SOL     OW27661   1.415   1.123   3.405
 8921SOL    HW127662   1.471   1.057   3.455
 8921SOL    HW227663   1.411   1.098   3.308
 8922SOL     OW27664   2.616   4.972   1.168
 8922SOL    HW127665   2.681   4.949   1.096
 8922SOL    HW227666   2.610   4.897   1.234
 8923SOL     OW27667   1.784   3.686   6.947
 8923SOL    HW127668   1.777   3.587   6.957
 8923SOL    HW227669   1.851   3.708   6.876
 8924SOL     OW27670   2.648   5.281   5.808
 8924SOL    HW127671   2.554   5.292   5.842
 8924SOL    HW227672   2.678   5.366   5.764
 8925SOL     OW27673   0.766   0.152   2.091
 8925SOL    HW127674   0.746   0.166   2.188
 8925SOL    HW227675   0.863   0.166   2.074
 8926SOL     OW27676   5.842   2.321   1.869
 8926SOL    HW127677   5.876   2.266   1.792
 8926SOL    HW227678   5.863   2.417   1.853
 8927SOL     OW27679   2.498   2.524   4.933
 8927SOL    HW127680   2.489   2.589   5.008
 8927SOL    HW227681   2.593   2.493   4.926
 8928SOL     OW27682   0.295   0.794   5.659
 8928SOL    HW127683   0.196   0.809   5.668
 8928SOL    HW227684   0.312   0.729   5.585
 8929SOL     OW27685   0.381   3.563   3.932
 8929SOL    HW127686   0.332   3.614   3.862
 8929SOL    HW227687   0.459   3.618   3.963
 8930SOL     OW27688   1.616   5.022   5.291
 8930SOL    HW127689   1.633   5.073   5.376
 8930SOL    HW227690   1.594   4.927   5.314
 8931SOL     OW27691   4.719   2.481   1.237
 8931SOL    HW127692   4.720   2.573   1.197
 8931SOL    HW227693   4.661   2.480   1.318
 8932SOL     OW27694   5.485   6.671   6.350
 8932SOL    HW127695   5.388   6.649   6.340
 8932SOL    HW227696   5.504   6.759   6.305
 8933SOL     OW27697   1.189   0.945   5.333
 8933SOL    HW127698   1.098   0.933   5.294
 8933SOL    HW227699   1.250   0.984   5.264
 8934SOL     OW27700   3.430   5.223   2.842
 8934SOL    HW127701   3.332   5.213   2.829
 8934SOL    HW227702   3.448   5.261   2.933
 8935SOL     OW27703   4.937   3.263   2.391
 8935SOL    HW127704   4.916   3.274   2.294
 8935SOL    HW227705   4.945   3.353   2.434
 8936SOL     OW27706   0.549   3.924   1.175
 8936SOL    HW127707   0.568   4.020   1.195
 8936SOL    HW227708   0.505   3.881   1.254
 8937SOL     OW27709   0.413   0.240   4.216
 8937SOL    HW127710   0.323   0.238   4.172
 8937SOL    HW227711   0.402   0.257   4.314
 8938SOL     OW27712   5.858   0.730   0.393
 8938SOL    HW127713   5.849   0.792   0.471
 8938SOL    HW227714   5.954   0.708   0.379
 8939SOL     OW27715   6.738   2.869   4.831
 8939SOL    HW127716   6.766   2.965   4.830
 8939SOL    HW227717   6.676   2.851   4.755
 8940SOL     OW27718   6.518   3.105   0.355
 8940SOL    HW127719   6.562   3.056   0.431
 8940SOL    HW227720   6.523   3.049   0.272
 8941SOL     OW27721   5.265   2.172   2.091
 8941SOL    HW127722   5.254   2.271   2.102
 8941SOL    HW227723   5.185   2.125   2.129
 8942SOL     OW27724   6.961   5.017   3.780
 8942SOL    HW127725   0.007   4.946   3.786
 8942SOL    HW227726   6.955   5.050   3.686
 8943SOL     OW27727   4.507   3.676   7.021
 8943SOL    HW127728   4.607   3.677   7.023
 8943SOL    HW227729   4.471   3.747   0.056
 8944SOL     OW27730   4.543   5.223   4.259
 8944SOL    HW127731   4.540   5.123   4.251
 8944SOL    HW227732   4.637   5.254   4.267
 8945SOL     OW27733   5.873   3.587   5.208
 8945SOL    HW127734   5.955   3.596   5.264
 8945SOL    HW227735   5.853   3.674   5.163
 8946SOL     OW27736   4.934   0.898   4.088
 8946SOL    HW127737   4.839   0.889   4.119
 8946SOL    HW227738   4.979   0.972   4.139
 8947SOL     OW27739   1.132   4.749   6.743
 8947SOL    HW127740   1.059   4.684   6.719
 8947SOL    HW227741   1.185   4.770   6.662
 8948SOL     OW27742   6.008   0.012   4.132
 8948SOL    HW127743   5.952   0.093   4.118
 8948SOL    HW227744   5.951   6.962   4.166
 8949SOL     OW27745   3.674   6.230   0.233
 8949SOL    HW127746   3.660   6.329   0.226
 8949SOL    HW227747   3.623   6.184   0.160
 8950SOL     OW27748   4.529   3.888   1.333
 8950SOL    HW127749   4.561   3.963   1.392
 8950SOL    HW227750   4.525   3.919   1.238
 8951SOL     OW27751   2.318   1.300   4.246
 8951SOL    HW127752   2.231   1.257   4.221
 8951SOL    HW227753   2.328   1.386   4.196
 8952SOL     OW27754   2.136   4.738   3.258
 8952SOL    HW127755   2.039   4.760   3.263
 8952SOL    HW227756   2.178   4.752   3.348
 8953SOL     OW27757   2.457   5.190   2.359
 8953SOL    HW127758   2.375   5.155   2.314
 8953SOL    HW227759   2.476   5.134   2.441
 8954SOL     OW27760   1.231   5.651   4.377
 8954SOL    HW127761   1.151   5.597   4.403
 8954SOL    HW227762   1.203   5.746   4.362
 8955SOL     OW27763   6.160   3.132   2.764
 8955SOL    HW127764   6.084   3.124   2.700
 8955SOL    HW227765   6.189   3.040   2.793
 8956SOL     OW27766   0.650   6.607   6.591
 8956SOL    HW127767   0.738   6.573   6.556
 8956SOL    HW227768   0.614   6.676   6.528
 8957SOL     OW27769   1.455   5.613   2.207
 8957SOL    HW127770   1.444   5.518   2.236
 8957SOL    HW227771   1.449   5.617   2.107
 8958SOL     OW27772   1.538   3.806   5.647
 8958SOL    HW127773   1.596   3.820   5.567
 8958SOL    HW227774   1.457   3.753   5.620
 8959SOL     OW27775   0.700   3.236   1.969
 8959SOL    HW127776   0.682   3.327   2.008
 8959SOL    HW227777   0.796   3.229   1.944
 8960SOL     OW27778   6.699   3.570   4.209
 8960SOL    HW127779   6.689   3.643   4.142
 8960SOL    HW227780   6.667   3.484   4.169
 8961SOL     OW27781   2.548   6.375   4.570
 8961SOL    HW127782   2.563   6.279   4.593
 8961SOL    HW227783   2.496   6.381   4.485
 8962SOL     OW27784   1.149   5.647   1.285
 8962SOL    HW127785   1.236   5.661   1.237
 8962SOL    HW227786   1.085   5.600   1.224
 8963SOL     OW27787   3.556   6.010   4.382
 8963SOL    HW127788   3.506   5.924   4.379
 8963SOL    HW227789   3.499   6.083   4.345
 8964SOL     OW27790   6.241   3.849   3.535
 8964SOL    HW127791   6.199   3.910   3.603
 8964SOL    HW227792   6.175   3.778   3.510
 8965SOL     OW27793   4.400   4.904   0.521
 8965SOL    HW127794   4.351   4.987   0.546
 8965SOL    HW227795   4.334   4.829   0.512
 8966SOL     OW27796   4.984   5.083   6.166
 8966SOL    HW127797   5.015   5.016   6.098
 8966SOL    HW227798   5.002   5.048   6.258
 8967SOL     OW27799   3.335   0.725   2.520
 8967SOL    HW127800   3.326   0.697   2.616
 8967SOL    HW227801   3.404   0.796   2.513
 8968SOL     OW27802   2.797   4.724   1.484
 8968SOL    HW127803   2.847   4.730   1.570
 8968SOL    HW227804   2.703   4.694   1.503
 8969SOL     OW27805   6.602   0.629   3.201
 8969SOL    HW127806   6.647   0.614   3.288
 8969SOL    HW227807   6.507   0.599   3.207
 8970SOL     OW27808   0.955   1.534   6.223
 8970SOL    HW127809   1.046   1.569   6.204
 8970SOL    HW227810   0.908   1.515   6.136
 8971SOL     OW27811   4.338   6.085   0.987
 8971SOL    HW127812   4.357   6.006   1.046
 8971SOL    HW227813   4.246   6.078   0.950
 8972SOL     OW27814   5.792   5.268   0.264
 8972SOL    HW127815   5.754   5.306   0.348
 8972SOL    HW227816   5.873   5.214   0.285
 8973SOL     OW27817   1.192   2.227   1.968
 8973SOL    HW127818   1.115   2.179   2.009
 8973SOL    HW227819   1.266   2.233   2.035
 8974SOL     OW27820   2.337   4.230   4.412
 8974SOL    HW127821   2.368   4.267   4.325
 8974SOL    HW227822   2.321   4.131   4.403
 8975SOL     OW27823   0.505   0.186   6.681
 8975SOL    HW127824   0.560   0.265   6.654
 8975SOL    HW227825   0.419   0.217   6.721
 8976SOL     OW27826   6.457   7.000   1.695
 8976SOL    HW127827   6.364   6.968   1.674
 8976SOL    HW227828   6.473   0.062   1.650
 8977SOL     OW27829   0.059   5.065   6.173
 8977SOL    HW127830   0.109   5.122   6.239
 8977SOL    HW227831   0.042   5.118   6.090
 8978SOL     OW27832   5.883   5.904   5.517
 8978SOL    HW127833   5.942   5.982   5.539
 8978SOL    HW227834   5.858   5.857   5.602
 8979SOL     OW27835   0.572   5.658   6.548
 8979SOL    HW127836   0.530   5.743   6.515
 8979SOL    HW227837   0.530   5.632   6.635
 8980SOL     OW27838   4.075   1.627   5.143
 8980SOL    HW127839   4.093   1.724   5.160
 8980SOL    HW227840   4.128   1.597   5.063
 8981SOL     OW27841   4.564   2.288   6.479
 8981SOL    HW127842   4.506   2.209   6.500
 8981SOL    HW227843   4.517   2.347   6.414
 8982SOL     OW27844   6.537   1.061   1.967
 8982SOL    HW127845   6.466   0.991   1.963
 8982SOL    HW227846   6.505   1.143   1.921
 8983SOL     OW27847   1.151   5.101   2.707
 8983SOL    HW127848   1.133   5.079   2.611
 8983SOL    HW227849   1.215   5.178   2.712
 8984SOL     OW27850   6.092   0.595   4.332
 8984SOL    HW127851   6.039   0.517   4.300
 8984SOL    HW227852   6.069   0.614   4.428
 8985SOL     OW27853   4.567   1.872   0.596
 8985SOL    HW127854   4.478   1.908   0.570
 8985SOL    HW227855   4.563   1.833   0.688
 8986SOL     OW27856   6.379   4.303   1.959
 8986SOL    HW127857   6.438   4.358   2.018
 8986SOL    HW227858   6.369   4.349   1.871
 8987SOL     OW27859   2.443   6.870   1.134
 8987SOL    HW127860   2.418   6.855   1.230
 8987SOL    HW227861   2.486   6.960   1.124
 8988SOL     OW27862   2.348   5.513   1.058
 8988SOL    HW127863   2.298   5.549   0.980
 8988SOL    HW227864   2.409   5.440   1.028
 8989SOL     OW27865   5.244   2.500   2.813
 8989SOL    HW127866   5.248   2.404   2.841
 8989SOL    HW227867   5.158   2.540   2.844
 8990SOL     OW27868   3.813   6.159   1.161
 8990SOL    HW127869   3.802   6.258   1.150
 8990SOL    HW227870   3.800   6.115   1.072
 8991SOL     OW27871   2.079   2.256   0.718
 8991SOL    HW127872   2.088   2.222   0.624
 8991SOL    HW227873   2.043   2.184   0.777
 8992SOL     OW27874   0.582   3.100   0.228
 8992SOL    HW127875   0.609   3.086   0.132
 8992SOL    HW227876   0.498   3.049   0.246
 8993SOL     OW27877   5.235   2.151   3.409
 8993SOL    HW127878   5.240   2.118   3.503
 8993SOL    HW227879   5.208   2.076   3.348
 8994SOL     OW27880   1.658   5.578   3.889
 8994SOL    HW127881   1.658   5.610   3.795
 8994SOL    HW227882   1.573   5.605   3.935
 8995SOL     OW27883   1.884   3.332   5.529
 8995SOL    HW127884   1.882   3.432   5.529
 8995SOL    HW227885   1.800   3.296   5.570
 8996SOL     OW27886   0.475   3.965   1.973
 8996SOL    HW127887   0.512   4.008   2.055
 8996SOL    HW227888   0.382   3.997   1.958
 8997SOL     OW27889   4.679   1.312   5.969
 8997SOL    HW127890   4.632   1.367   6.037
 8997SOL    HW227891   4.733   1.241   6.015
 8998SOL     OW27892   1.445   3.062   5.473
 8998SOL    HW127893   1.380   3.123   5.428
 8998SOL    HW227894   1.399   2.979   5.503
 8999SOL     OW27895   5.216   1.623   5.991
 8999SOL    HW127896   5.139   1.560   5.978
 8999SOL    HW227897   5.226   1.680   5.910
 9000SOL     OW27898   3.267   3.801   0.453
 9000SOL    HW127899   3.254   3.773   0.358
 9000SOL    HW227900   3.316   3.729   0.502
 9001SOL     OW27901   2.160   4.995   3.633
 9001SOL    HW127902   2.240   4.955   3.589
 9001SOL    HW227903   2.151   5.091   3.607
 9002SOL     OW27904   5.794   4.686   5.482
 9002SOL    HW127905   5.821   4.595   5.512
 9002SOL    HW227906   5.703   4.681   5.439
 9003SOL     OW27907   6.357   2.918   0.182
 9003SOL    HW127908   6.428   2.863   0.226
 9003SOL    HW227909   6.281   2.931   0.246
 9004SOL     OW27910   5.097   6.716   1.190
 9004SOL    HW127911   5.044   6.645   1.235
 9004SOL    HW227912   5.183   6.678   1.157
 9005SOL     OW27913   4.594   2.204   3.217
 9005SOL    HW127914   4.574   2.162   3.129
 9005SOL    HW227915   4.544   2.157   3.289
 9006SOL     OW27916   1.618   4.916   0.872
 9006SOL    HW127917   1.706   4.887   0.834
 9006SOL    HW227918   1.555   4.838   0.872
 9007SOL     OW27919   3.111   5.572   4.079
 9007SOL    HW127920   3.169   5.557   3.999
 9007SOL    HW227921   3.093   5.670   4.089
 9008SOL     OW27922   0.211   4.036   1.966
 9008SOL    HW127923   0.131   4.089   1.938
 9008SOL    HW227924   0.226   4.047   2.064
 9009SOL     OW27925   2.353   6.724   0.534
 9009SOL    HW127926   2.326   6.785   0.459
 9009SOL    HW227927   2.396   6.642   0.496
 9010SOL     OW27928   0.449   6.512   4.817
 9010SOL    HW127929   0.492   6.425   4.843
 9010SOL    HW227930   0.351   6.498   4.803
 9011SOL     OW27931   3.989   1.936   1.111
 9011SOL    HW127932   4.004   1.837   1.117
 9011SOL    HW227933   3.891   1.954   1.104
 9012SOL     OW27934   0.982   4.839   1.325
 9012SOL    HW127935   0.944   4.802   1.410
 9012SOL    HW227936   1.077   4.868   1.341
 9013SOL     OW27937   6.142   6.484   4.330
 9013SOL    HW127938   6.167   6.571   4.289
 9013SOL    HW227939   6.084   6.501   4.410
 9014SOL     OW27940   0.969   0.935   0.602
 9014SOL    HW127941   0.895   0.956   0.667
 9014SOL    HW227942   0.949   0.848   0.557
 9015SOL     OW27943   0.064   1.431   5.822
 9015SOL    HW127944   0.078   1.507   5.757
 9015SOL    HW227945   0.103   1.347   5.783
 9016SOL     OW27946   6.505   6.033   6.011
 9016SOL    HW127947   6.470   6.124   5.988
 9016SOL    HW227948   6.589   6.016   5.960
 9017SOL     OW27949   5.772   2.234   3.742
 9017SOL    HW127950   5.801   2.166   3.809
 9017SOL    HW227951   5.843   2.245   3.672
 9018SOL     OW27952   3.195   1.552   5.146
 9018SOL    HW127953   3.214   1.558   5.244
 9018SOL    HW227954   3.235   1.631   5.099
 9019SOL     OW27955   2.819   6.025   0.509
 9019SOL    HW127956   2.763   6.106   0.491
 9019SOL    HW227957   2.870   6.039   0.594
 9020SOL     OW27958   1.932   4.765   2.865
 9020SOL    HW127959   1.925   4.677   2.912
 9020SOL    HW227960   2.015   4.812   2.896
 9021SOL     OW27961   0.003   5.934   4.346
 9021SOL    HW127962   6.970   5.867   4.391
 9021SOL    HW227963   0.054   5.890   4.272
 9022SOL     OW27964   2.869   0.371   0.116
 9022SOL    HW127965   2.791   0.318   0.083
 9022SOL    HW227966   2.942   0.309   0.143
 9023SOL     OW27967   3.641   3.681   3.455
 9023SOL    HW127968   3.567   3.620   3.427
 9023SOL    HW227969   3.661   3.667   3.553
 9024SOL     OW27970   1.534   6.208   6.011
 9024SOL    HW127971   1.620   6.199   5.960
 9024SOL    HW227972   1.553   6.205   6.109
 9025SOL     OW27973   6.050   5.171   1.968
 9025SOL    HW127974   6.068   5.260   1.924
 9025SOL    HW227975   6.131   5.113   1.958
 9026SOL     OW27976   3.655   2.941   4.094
 9026SOL    HW127977   3.650   2.888   4.178
 9026SOL    HW227978   3.746   2.981   4.085
 9027SOL     OW27979   2.196   1.875   3.192
 9027SOL    HW127980   2.119   1.853   3.252
 9027SOL    HW227981   2.254   1.794   3.181
 9028SOL     OW27982   2.509   4.482   5.957
 9028SOL    HW127983   2.510   4.581   5.970
 9028SOL    HW227984   2.577   4.440   6.017
 9029SOL     OW27985   4.945   5.369   3.780
 9029SOL    HW127986   4.846   5.379   3.781
 9029SOL    HW227987   4.981   5.382   3.872
 9030SOL     OW27988   2.223   0.777   2.372
 9030SOL    HW127989   2.172   0.765   2.457
 9030SOL    HW227990   2.315   0.809   2.393
 9031SOL     OW27991   2.581   6.177   5.938
 9031SOL    HW127992   2.678   6.198   5.945
 9031SOL    HW227993   2.559   6.101   5.999
 9032SOL     OW27994   2.649   2.296   1.966
 9032SOL    HW127995   2.647   2.256   2.058
 9032SOL    HW227996   2.731   2.352   1.957
 9033SOL     OW27997   1.806   3.701   4.018
 9033SOL    HW127998   1.815   3.692   4.117
 9033SOL    HW227999   1.853   3.784   3.987
 9034SOL     OW28000   2.623   6.520   5.280
 9034SOL    HW128001   2.681   6.446   5.247
 9034SOL    HW228002   2.544   6.530   5.220
 9035SOL     OW28003   6.940   0.100   4.542
 9035SOL    HW128004   6.994   0.018   4.521
 9035SOL    HW228005   6.917   0.148   4.458
 9036SOL     OW28006   1.757   2.354   5.423
 9036SOL    HW128007   1.832   2.408   5.462
 9036SOL    HW228008   1.673   2.407   5.427
 9037SOL     OW28009   2.257   3.856   6.500
 9037SOL    HW128010   2.224   3.773   6.455
 9037SOL    HW228011   2.211   3.935   6.461
 9038SOL     OW28012   5.392   0.438   5.493
 9038SOL    HW128013   5.324   0.488   5.546
 9038SOL    HW228014   5.405   0.483   5.405
 9039SOL     OW28015   2.372   4.819   5.385
 9039SOL    HW128016   2.448   4.872   5.346
 9039SOL    HW228017   2.345   4.748   5.320
 9040SOL     OW28018   2.786   1.438   2.705
 9040SOL    HW128019   2.798   1.503   2.630
 9040SOL    HW228020   2.699   1.390   2.696
 9041SOL     OW28021   1.055   2.453   1.631
 9041SOL    HW128022   1.035   2.355   1.631
 9041SOL    HW228023   1.036   2.491   1.722
 9042SOL     OW28024   3.060   5.270   3.204
 9042SOL    HW128025   3.001   5.347   3.226
 9042SOL    HW228026   3.148   5.281   3.251
 9043SOL     OW28027   1.253   2.589   6.221
 9043SOL    HW128028   1.185   2.659   6.245
 9043SOL    HW228029   1.262   2.584   6.122
 9044SOL     OW28030   5.860   0.262   0.689
 9044SOL    HW128031   5.887   0.177   0.734
 9044SOL    HW228032   5.783   0.303   0.739
 9045SOL     OW28033   3.682   0.378   3.203
 9045SOL    HW128034   3.647   0.381   3.297
 9045SOL    HW228035   3.715   0.286   3.183
 9046SOL     OW28036   3.279   4.278   5.306
 9046SOL    HW128037   3.296   4.198   5.364
 9046SOL    HW228038   3.362   4.300   5.254
 9047SOL     OW28039   1.597   4.079   4.120
 9047SOL    HW128040   1.536   4.000   4.119
 9047SOL    HW228041   1.617   4.108   4.027
 9048SOL     OW28042   1.915   3.943   5.265
 9048SOL    HW128043   1.883   3.881   5.193
 9048SOL    HW228044   2.014   3.951   5.261
 9049SOL     OW28045   5.157   5.951   6.040
 9049SOL    HW128046   5.060   5.933   6.026
 9049SOL    HW228047   5.184   5.920   6.131
 9050SOL     OW28048   0.081   5.289   0.102
 9050SOL    HW128049   0.087   5.307   0.200
 9050SOL    HW228050   0.164   5.243   0.071
 9051SOL     OW28051   4.878   6.385   0.494
 9051SOL    HW128052   4.909   6.397   0.400
 9051SOL    HW228053   4.821   6.304   0.502
 9052SOL     OW28054   2.756   4.722   4.368
 9052SOL    HW128055   2.761   4.723   4.468
 9052SOL    HW228056   2.670   4.680   4.339
 9053SOL     OW28057   1.897   3.358   3.683
 9053SOL    HW128058   1.976   3.304   3.651
 9053SOL    HW228059   1.907   3.452   3.652
 9054SOL     OW28060   1.658   0.575   1.558
 9054SOL    HW128061   1.717   0.494   1.559
 9054SOL    HW228062   1.688   0.639   1.629
 9055SOL     OW28063   0.645   3.021   4.425
 9055SOL    HW128064   0.614   2.930   4.454
 9055SOL    HW228065   0.583   3.057   4.355
 9056SOL     OW28066   5.125   0.169   2.214
 9056SOL    HW128067   5.176   0.252   2.235
 9056SOL    HW228068   5.074   0.181   2.129
 9057SOL     OW28069   6.080   5.578   6.889
 9057SOL    HW128070   6.063   5.498   6.947
 9057SOL    HW228071   6.069   5.662   6.942
 9058SOL     OW28072   2.039   2.655   4.942
 9058SOL    HW128073   2.116   2.705   4.900
 9058SOL    HW228074   2.034   2.677   5.039
 9059SOL     OW28075   6.666   0.999   3.387
 9059SOL    HW128076   6.731   0.959   3.322
 9059SOL    HW228077   6.669   1.099   3.379
 9060SOL     OW28078   6.457   3.305   2.462
 9060SOL    HW128079   6.388   3.295   2.389
 9060SOL    HW228080   6.416   3.353   2.539
 9061SOL     OW28081   4.569   5.995   3.351
 9061SOL    HW128082   4.534   5.905   3.325
 9061SOL    HW228083   4.493   6.059   3.360
 9062SOL     OW28084   1.381   4.394   3.037
 9062SOL    HW128085   1.350   4.485   3.065
 9062SOL    HW228086   1.303   4.330   3.041
 9063SOL     OW28087   3.146   1.757   2.519
 9063SOL    HW128088   3.232   1.797   2.550
 9063SOL    HW228089   3.069   1.814   2.551
 9064SOL     OW28090   0.072   4.235   3.666
 9064SOL    HW128091   0.158   4.210   3.713
 9064SOL    HW228092   0.085   4.229   3.567
 9065SOL     OW28093   2.880   6.115   5.136
 9065SOL    HW128094   2.913   6.034   5.186
 9065SOL    HW228095   2.811   6.087   5.069
 9066SOL     OW28096   6.717   6.339   6.487
 9066SOL    HW128097   6.657   6.288   6.550
 9066SOL    HW228098   6.698   6.437   6.495
 9067SOL     OW28099   6.960   6.660   4.453
 9067SOL    HW128100   6.961   6.601   4.372
 9067SOL    HW228101   6.872   6.707   4.458
 9068SOL     OW28102   5.329   0.236   5.752
 9068SOL    HW128103   5.243   0.244   5.700
 9068SOL    HW228104   5.312   0.186   5.837
 9069SOL     OW28105   4.434   2.406   2.573
 9069SOL    HW128106   4.348   2.357   2.563
 9069SOL    HW228107   4.416   2.504   2.581
 9070SOL     OW28108   1.653   1.944   6.395
 9070SOL    HW128109   1.645   1.878   6.320
 9070SOL    HW228110   1.689   1.897   6.476
 9071SOL     OW28111   4.387   1.485   5.868
 9071SOL    HW128112   4.318   1.540   5.914
 9071SOL    HW228113   4.372   1.388   5.890
 9072SOL     OW28114   5.507   6.867   1.655
 9072SOL    HW128115   5.491   6.926   1.576
 9072SOL    HW228116   5.587   6.809   1.638
 9073SOL     OW28117   4.462   0.046   0.317
 9073SOL    HW128118   4.544   7.016   0.335
 9073SOL    HW228119   4.418   0.013   0.233
 9074SOL     OW28120   1.408   0.344   1.116
 9074SOL    HW128121   1.445   0.274   1.055
 9074SOL    HW228122   1.481   0.381   1.173
 9075SOL     OW28123   6.711   1.028   2.201
 9075SOL    HW128124   6.670   1.035   2.110
 9075SOL    HW228125   6.739   1.118   2.232
 9076SOL     OW28126   4.666   1.393   3.133
 9076SOL    HW128127   4.757   1.356   3.115
 9076SOL    HW228128   4.668   1.448   3.216
 9077SOL     OW28129   4.985   1.005   5.823
 9077SOL    HW128130   5.036   1.091   5.822
 9077SOL    HW228131   5.043   0.931   5.857
 9078SOL     OW28132   5.039   5.124   6.631
 9078SOL    HW128133   5.028   5.100   6.727
 9078SOL    HW228134   4.970   5.191   6.605
 9079SOL     OW28135   1.588   0.550   5.235
 9079SOL    HW128136   1.671   0.502   5.207
 9079SOL    HW228137   1.543   0.499   5.309
 9080SOL     OW28138   6.257   3.456   0.193
 9080SOL    HW128139   6.173   3.436   0.244
 9080SOL    HW228140   6.313   3.374   0.186
 9081SOL     OW28141   4.146   1.739   1.364
 9081SOL    HW128142   4.234   1.709   1.401
 9081SOL    HW228143   4.092   1.659   1.336
 9082SOL     OW28144   2.948   6.919   5.596
 9082SOL    HW128145   2.986   6.915   5.688
 9082SOL    HW228146   2.893   6.837   5.579
 9083SOL     OW28147   4.717   4.737   6.060
 9083SOL    HW128148   4.643   4.684   6.018
 9083SOL    HW228149   4.702   4.835   6.041
 9084SOL     OW28150   0.375   2.563   5.617
 9084SOL    HW128151   0.332   2.484   5.661
 9084SOL    HW228152   0.304   2.628   5.590
 9085SOL     OW28153   3.087   5.037   0.440
 9085SOL    HW128154   3.184   5.044   0.463
 9085SOL    HW228155   3.032   5.080   0.511
 9086SOL     OW28156   6.082   4.355   1.096
 9086SOL    HW128157   6.068   4.290   1.171
 9086SOL    HW228158   6.027   4.326   1.017
 9087SOL     OW28159   5.753   3.099   2.811
 9087SOL    HW128160   5.782   3.009   2.779
 9087SOL    HW228161   5.771   3.107   2.909
 9088SOL     OW28162   6.127   0.380   1.988
 9088SOL    HW128163   6.222   0.347   1.992
 9088SOL    HW228164   6.066   0.304   1.969
 9089SOL     OW28165   4.206   5.231   4.036
 9089SOL    HW128166   4.256   5.294   4.095
 9089SOL    HW228167   4.217   5.258   3.941
 9090SOL     OW28168   4.945   6.356   4.488
 9090SOL    HW128169   4.945   6.414   4.570
 9090SOL    HW228170   4.981   6.266   4.512
 9091SOL     OW28171   3.377   2.299   0.425
 9091SOL    HW128172   3.438   2.366   0.466
 9091SOL    HW228173   3.390   2.298   0.326
 9092SOL     OW28174   1.551   0.569   6.089
 9092SOL    HW128175   1.475   0.506   6.100
 9092SOL    HW228176   1.518   0.663   6.097
 9093SOL     OW28177   1.632   6.565   6.800
 9093SOL    HW128178   1.702   6.633   6.822
 9093SOL    HW228179   1.668   6.499   6.734
 9094SOL     OW28180   0.110   6.271   1.710
 9094SOL    HW128181   0.118   6.220   1.795
 9094SOL    HW228182   0.200   6.275   1.665
 9095SOL     OW28183   5.591   3.525   6.554
 9095SOL    HW128184   5.524   3.583   6.601
 9095SOL    HW228185   5.571   3.429   6.574
 9096SOL     OW28186   5.266   3.502   2.545
 9096SOL    HW128187   5.304   3.451   2.623
 9096SOL    HW228188   5.329   3.496   2.467
 9097SOL     OW28189   0.982   3.654   0.292
 9097SOL    HW128190   1.031   3.625   0.210
 9097SOL    HW228191   1.045   3.662   0.369
 9098SOL     OW28192   4.374   3.388   1.096
 9098SOL    HW128193   4.322   3.337   1.165
 9098SOL    HW228194   4.470   3.359   1.100
 9099SOL     OW28195   3.359   3.444   0.914
 9099SOL    HW128196   3.433   3.377   0.925
 9099SOL    HW228197   3.281   3.400   0.871
 9100SOL     OW28198   0.994   2.496   2.144
 9100SOL    HW128199   0.908   2.479   2.097
 9100SOL    HW228200   0.978   2.500   2.243
 9101SOL     OW28201   2.135   3.270   2.692
 9101SOL    HW128202   2.086   3.301   2.611
 9101SOL    HW228203   2.194   3.192   2.668
 9102SOL     OW28204   3.707   6.170   2.083
 9102SOL    HW128205   3.639   6.242   2.094
 9102SOL    HW228206   3.719   6.122   2.170
 9103SOL     OW28207   0.148   3.487   0.495
 9103SOL    HW128208   0.079   3.415   0.497
 9103SOL    HW228209   0.222   3.459   0.434
 9104SOL     OW28210   4.406   6.289   1.969
 9104SOL    HW128211   4.462   6.327   2.042
 9104SOL    HW228212   4.428   6.192   1.957
 9105SOL     OW28213   1.996   0.532   0.328
 9105SOL    HW128214   2.018   0.624   0.361
 9105SOL    HW228215   1.917   0.537   0.266
 9106SOL     OW28216   6.330   3.716   0.269
 9106SOL    HW128217   6.315   3.617   0.269
 9106SOL    HW228218   6.408   3.737   0.329
 9107SOL     OW28219   4.416   6.625   6.474
 9107SOL    HW128220   4.453   6.700   6.420
 9107SOL    HW228221   4.364   6.661   6.551
 9108SOL     OW28222   4.867   4.324   5.144
 9108SOL    HW128223   4.911   4.300   5.231
 9108SOL    HW228224   4.887   4.254   5.076
 9109SOL     OW28225   1.728   2.429   2.738
 9109SOL    HW128226   1.715   2.422   2.837
 9109SOL    HW228227   1.783   2.511   2.718
 9110SOL     OW28228   2.466   4.437   4.018
 9110SOL    HW128229   2.450   4.449   3.920
 9110SOL    HW228230   2.394   4.379   4.056
 9111SOL     OW28231   4.162   3.379   0.533
 9111SOL    HW128232   4.197   3.344   0.619
 9111SOL    HW228233   4.234   3.377   0.464
 9112SOL     OW28234   0.369   4.276   4.336
 9112SOL    HW128235   0.273   4.275   4.362
 9112SOL    HW228236   0.426   4.260   4.417
 9113SOL     OW28237   4.683   0.551   0.360
 9113SOL    HW128238   4.656   0.460   0.329
 9113SOL    HW228239   4.742   0.593   0.291
 9114SOL     OW28240   1.546   5.047   2.595
 9114SOL    HW128241   1.630   4.996   2.577
 9114SOL    HW228242   1.521   5.036   2.692
 9115SOL     OW28243   0.223   5.906   5.329
 9115SOL    HW128244   0.212   5.807   5.342
 9115SOL    HW228245   0.287   5.922   5.254
 9116SOL     OW28246   6.582   1.762   0.529
 9116SOL    HW128247   6.525   1.729   0.453
 9116SOL    HW228248   6.528   1.824   0.586
 9117SOL     OW28249   6.048   2.683   6.608
 9117SOL    HW128250   6.093   2.759   6.654
 9117SOL    HW228251   6.084   2.596   6.641
 9118SOL     OW28252   5.722   6.097   0.624
 9118SOL    HW128253   5.688   6.184   0.588
 9118SOL    HW228254   5.770   6.047   0.552
 9119SOL     OW28255   5.470   1.534   2.655
 9119SOL    HW128256   5.493   1.583   2.571
 9119SOL    HW228257   5.536   1.460   2.669
 9120SOL     OW28258   5.498   2.879   5.587
 9120SOL    HW128259   5.411   2.870   5.538
 9120SOL    HW228260   5.571   2.838   5.534
 9121SOL     OW28261   0.842   2.791   6.269
 9121SOL    HW128262   0.755   2.815   6.224
 9121SOL    HW228263   0.869   2.866   6.330
 9122SOL     OW28264   1.761   2.467   1.769
 9122SOL    HW128265   1.760   2.503   1.676
 9122SOL    HW228266   1.842   2.501   1.817
 9123SOL     OW28267   3.576   0.375   4.199
 9123SOL    HW128268   3.559   0.372   4.297
 9123SOL    HW228269   3.490   0.388   4.150
 9124SOL     OW28270   5.861   6.669   5.265
 9124SOL    HW128271   5.907   6.635   5.347
 9124SOL    HW228272   5.778   6.718   5.291
 9125SOL     OW28273   4.807   4.062   3.585
 9125SOL    HW128274   4.785   3.981   3.640
 9125SOL    HW228275   4.867   4.035   3.510
 9126SOL     OW28276   5.705   1.609   2.099
 9126SOL    HW128277   5.760   1.573   2.174
 9126SOL    HW228278   5.608   1.596   2.119
 9127SOL     OW28279   6.220   0.734   6.493
 9127SOL    HW128280   6.192   0.680   6.413
 9127SOL    HW228281   6.316   0.759   6.485
 9128SOL     OW28282   3.405   2.210   5.198
 9128SOL    HW128283   3.334   2.281   5.190
 9128SOL    HW228284   3.416   2.164   5.110
 9129SOL     OW28285   2.069   2.964   1.221
 9129SOL    HW128286   2.057   2.996   1.127
 9129SOL    HW228287   2.148   3.011   1.262
 9130SOL     OW28288   7.013   3.269   0.491
 9130SOL    HW128289   6.982   3.218   0.411
 9130SOL    HW228290   6.938   3.323   0.528
 9131SOL     OW28291   6.977   4.074   5.728
 9131SOL    HW128292   0.049   4.054   5.739
 9131SOL    HW228293   6.931   4.067   5.816
 9132SOL     OW28294   0.302   4.708   4.320
 9132SOL    HW128295   0.289   4.778   4.249
 9132SOL    HW228296   0.376   4.736   4.381
 9133SOL     OW28297   2.920   5.429   1.232
 9133SOL    HW128298   3.018   5.426   1.251
 9133SOL    HW228299   2.876   5.496   1.292
 9134SOL     OW28300   3.362   6.595   0.759
 9134SOL    HW128301   3.452   6.561   0.731
 9134SOL    HW228302   3.338   6.675   0.704
 9135SOL     OW28303   6.354   6.339   2.079
 9135SOL    HW128304   6.299   6.405   2.028
 9135SOL    HW228305   6.328   6.341   2.175
 9136SOL     OW28306   4.667   5.219   5.258
 9136SOL    HW128307   4.726   5.283   5.209
 9136SOL    HW228308   4.660   5.246   5.354
 9137SOL     OW28309   4.833   1.766   1.099
 9137SOL    HW128310   4.820   1.861   1.128
 9137SOL    HW228311   4.920   1.732   1.136
 9138SOL     OW28312   6.032   4.805   5.440
 9138SOL    HW128313   6.046   4.846   5.530
 9138SOL    HW228314   5.942   4.764   5.436
 9139SOL     OW28315   2.315   1.554   4.674
 9139SOL    HW128316   2.285   1.630   4.731
 9139SOL    HW228317   2.268   1.558   4.585
 9140SOL     OW28318   6.102   3.341   2.956
 9140SOL    HW128319   6.186   3.346   3.011
 9140SOL    HW228320   6.108   3.263   2.893
 9141SOL     OW28321   5.520   0.331   6.496
 9141SOL    HW128322   5.556   0.296   6.582
 9141SOL    HW228323   5.540   0.265   6.423
 9142SOL     OW28324   0.505   2.330   0.471
 9142SOL    HW128325   0.550   2.415   0.445
 9142SOL    HW228326   0.445   2.346   0.550
 9143SOL     OW28327   5.286   3.965   1.013
 9143SOL    HW128328   5.361   4.011   1.061
 9143SOL    HW228329   5.318   3.878   0.975
 9144SOL     OW28330   2.136   5.389   5.520
 9144SOL    HW128331   2.210   5.323   5.537
 9144SOL    HW228332   2.087   5.406   5.605
 9145SOL     OW28333   6.562   5.369   0.462
 9145SOL    HW128334   6.565   5.336   0.557
 9145SOL    HW228335   6.650   5.352   0.418
 9146SOL     OW28336   5.237   2.119   2.431
 9146SOL    HW128337   5.154   2.066   2.415
 9146SOL    HW228338   5.216   2.216   2.420
 9147SOL     OW28339   5.563   6.998   4.080
 9147SOL    HW128340   5.651   6.953   4.090
 9147SOL    HW228341   5.554   0.044   4.151
 9148SOL     OW28342   5.301   6.764   0.877
 9148SOL    HW128343   5.349   6.685   0.839
 9148SOL    HW228344   5.204   6.741   0.890
 9149SOL     OW28345   5.396   3.238   3.791
 9149SOL    HW128346   5.334   3.304   3.748
 9149SOL    HW228347   5.462   3.287   3.848
 9150SOL     OW28348   3.531   5.085   3.721
 9150SOL    HW128349   3.459   5.133   3.671
 9150SOL    HW228350   3.493   5.044   3.804
 9151SOL     OW28351   1.672   4.281   3.285
 9151SOL    HW128352   1.702   4.300   3.379
 9151SOL    HW228353   1.686   4.362   3.229
 9152SOL     OW28354   2.448   4.901   4.953
 9152SOL    HW128355   2.366   4.861   4.994
 9152SOL    HW228356   2.443   4.895   4.853
 9153SOL     OW28357   1.274   3.058   1.017
 9153SOL    HW128358   1.217   3.021   1.090
 9153SOL    HW228359   1.262   3.157   1.013
 9154SOL     OW28360   4.433   5.162   6.653
 9154SOL    HW128361   4.399   5.075   6.616
 9154SOL    HW228362   4.378   5.188   6.732
 9155SOL     OW28363   1.166   2.783   0.948
 9155SOL    HW128364   1.220   2.700   0.936
 9155SOL    HW228365   1.227   2.861   0.960
 9156SOL     OW28366   2.183   2.483   0.085
 9156SOL    HW128367   2.275   2.444   0.083
 9156SOL    HW228368   2.158   2.512   7.017
 9157SOL     OW28369   6.049   4.671   6.549
 9157SOL    HW128370   6.010   4.613   6.621
 9157SOL    HW228371   5.993   4.664   6.467
 9158SOL     OW28372   5.715   3.297   4.770
 9158SOL    HW128373   5.800   3.245   4.759
 9158SOL    HW228374   5.682   3.327   4.681
 9159SOL     OW28375   1.595   0.206   3.006
 9159SOL    HW128376   1.625   0.113   2.987
 9159SOL    HW228377   1.517   0.204   3.069
 9160SOL     OW28378   6.300   0.134   4.725
 9160SOL    HW128379   6.209   0.103   4.696
 9160SOL    HW228380   6.364   0.126   4.649
 9161SOL     OW28381   4.739   4.317   4.579
 9161SOL    HW128382   4.698   4.340   4.491
 9161SOL    HW228383   4.797   4.237   4.569
 9162SOL     OW28384   4.542   1.431   4.093
 9162SOL    HW128385   4.546   1.491   4.172
 9162SOL    HW228386   4.551   1.336   4.123
 9163SOL     OW28387   2.059   3.346   4.578
 9163SOL    HW128388   2.037   3.256   4.541
 9163SOL    HW228389   2.105   3.336   4.666
 9164SOL     OW28390   2.519   0.504   6.842
 9164SOL    HW128391   2.588   0.520   6.771
 9164SOL    HW228392   2.564   0.492   6.930
 9165SOL     OW28393   6.081   1.852   5.300
 9165SOL    HW128394   6.011   1.802   5.350
 9165SOL    HW228395   6.171   1.815   5.323
 9166SOL     OW28396   4.609   6.137   0.856
 9166SOL    HW128397   4.561   6.150   0.943
 9166SOL    HW228398   4.700   6.178   0.861
 9167SOL     OW28399   1.713   2.583   6.598
 9167SOL    HW128400   1.740   2.652   6.531
 9167SOL    HW228401   1.654   2.515   6.555
 9168SOL     OW28402   0.821   0.611   6.817
 9168SOL    HW128403   0.783   0.702   6.798
 9168SOL    HW228404   0.878   0.616   6.900
 9169SOL     OW28405   5.955   1.491   5.419
 9169SOL    HW128406   6.034   1.543   5.451
 9169SOL    HW228407   5.965   1.395   5.445
 9170SOL     OW28408   1.503   5.010   0.392
 9170SOL    HW128409   1.479   5.014   0.295
 9170SOL    HW228410   1.543   4.921   0.413
 9171SOL     OW28411   3.535   4.867   0.687
 9171SOL    HW128412   3.611   4.822   0.642
 9171SOL    HW228413   3.569   4.923   0.763
 9172SOL     OW28414   3.435   0.590   4.541
 9172SOL    HW128415   3.344   0.578   4.580
 9172SOL    HW228416   3.503   0.586   4.614
 9173SOL     OW28417   6.389   3.837   4.951
 9173SOL    HW128418   6.295   3.804   4.958
 9173SOL    HW228419   6.390   3.936   4.962
 9174SOL     OW28420   5.970   4.650   1.543
 9174SOL    HW128421   5.903   4.674   1.472
 9174SOL    HW228422   6.059   4.633   1.501
 9175SOL     OW28423   0.456   6.845   4.073
 9175SOL    HW128424   0.381   6.887   4.021
 9175SOL    HW228425   0.488   6.910   4.141
 9176SOL     OW28426   3.156   1.130   5.042
 9176SOL    HW128427   3.220   1.158   4.971
 9176SOL    HW228428   3.111   1.211   5.081
 9177SOL     OW28429   0.989   4.968   4.929
 9177SOL    HW128430   0.990   5.058   4.884
 9177SOL    HW228431   1.077   4.923   4.914
 9178SOL     OW28432   2.340   5.343   0.271
 9178SOL    HW128433   2.296   5.268   0.223
 9178SOL    HW228434   2.431   5.359   0.232
 9179SOL     OW28435   2.627   5.537   4.432
 9179SOL    HW128436   2.660   5.631   4.433
 9179SOL    HW228437   2.658   5.492   4.348
 9180SOL     OW28438   5.921   2.360   2.754
 9180SOL    HW128439   5.952   2.390   2.664
 9180SOL    HW228440   6.001   2.350   2.814
 9181SOL     OW28441   3.825   2.182   4.214
 9181SOL    HW128442   3.841   2.159   4.310
 9181SOL    HW228443   3.911   2.213   4.173
 9182SOL     OW28444   2.245   6.219   2.199
 9182SOL    HW128445   2.306   6.291   2.231
 9182SOL    HW228446   2.150   6.246   2.216
 9183SOL     OW28447   5.014   6.135   0.292
 9183SOL    HW128448   5.025   6.081   0.209
 9183SOL    HW228449   5.052   6.227   0.277
 9184SOL     OW28450   5.104   2.025   0.812
 9184SOL    HW128451   5.084   2.070   0.899
 9184SOL    HW228452   5.099   2.092   0.737
 9185SOL     OW28453   4.274   6.519   4.430
 9185SOL    HW128454   4.181   6.495   4.404
 9185SOL    HW228455   4.273   6.566   4.518
 9186SOL     OW28456   5.634   0.153   4.276
 9186SOL    HW128457   5.727   0.118   4.267
 9186SOL    HW228458   5.635   0.253   4.274
 9187SOL     OW28459   2.722   1.478   1.309
 9187SOL    HW128460   2.732   1.516   1.217
 9187SOL    HW228461   2.791   1.406   1.322
 9188SOL     OW28462   1.647   6.663   1.751
 9188SOL    HW128463   1.742   6.689   1.733
 9188SOL    HW228464   1.635   6.566   1.734
 9189SOL     OW28465   4.729   6.414   1.529
 9189SOL    HW128466   4.673   6.496   1.517
 9189SOL    HW228467   4.760   6.381   1.439
 9190SOL     OW28468   2.260   4.338   6.918
 9190SOL    HW128469   2.357   4.317   6.904
 9190SOL    HW228470   2.244   4.358   7.014
 9191SOL     OW28471   6.283   1.588   5.312
 9191SOL    HW128472   6.301   1.509   5.371
 9191SOL    HW228473   6.361   1.652   5.318
 9192SOL     OW28474   0.497   3.730   6.446
 9192SOL    HW128475   0.519   3.807   6.505
 9192SOL    HW228476   0.515   3.644   6.495
 9193SOL     OW28477   4.864   4.184   0.223
 9193SOL    HW128478   4.949   4.214   0.266
 9193SOL    HW228479   4.850   4.087   0.240
 9194SOL     OW28480   3.020   0.155   3.546
 9194SOL    HW128481   3.103   0.155   3.490
 9194SOL    HW228482   2.943   0.123   3.490
 9195SOL     OW28483   1.514   1.920   4.085
 9195SOL    HW128484   1.538   1.822   4.087
 9195SOL    HW228485   1.459   1.939   4.004
 9196SOL     OW28486   4.428   6.726   3.541
 9196SOL    HW128487   4.432   6.733   3.641
 9196SOL    HW228488   4.332   6.732   3.512
 9197SOL     OW28489   1.735   4.964   2.051
 9197SOL    HW128490   1.744   5.017   2.135
 9197SOL    HW228491   1.796   5.001   1.981
 9198SOL     OW28492   6.620   5.125   6.579
 9198SOL    HW128493   6.608   5.048   6.515
 9198SOL    HW228494   6.684   5.190   6.540
 9199SOL     OW28495   1.204   3.960   5.917
 9199SOL    HW128496   1.133   3.895   5.891
 9199SOL    HW228497   1.294   3.918   5.903
 9200SOL     OW28498   2.266   0.161   0.508
 9200SOL    HW128499   2.245   0.205   0.596
 9200SOL    HW228500   2.198   0.190   0.440
 9201SOL     OW28501   0.912   2.671   0.945
 9201SOL    HW128502   0.899   2.576   0.974
 9201SOL    HW228503   1.006   2.699   0.964
 9202SOL     OW28504   1.484   6.745   2.425
 9202SOL    HW128505   1.436   6.756   2.338
 9202SOL    HW228506   1.579   6.720   2.407
 9203SOL     OW28507   0.650   4.565   6.859
 9203SOL    HW128508   0.622   4.550   6.764
 9203SOL    HW228509   0.590   4.634   6.900
 9204SOL     OW28510   4.724   3.185   6.344
 9204SOL    HW128511   4.661   3.197   6.421
 9204SOL    HW228512   4.814   3.159   6.379
 9205SOL     OW28513   6.861   4.732   2.862
 9205SOL    HW128514   6.808   4.786   2.929
 9205SOL    HW228515   6.802   4.662   2.822
 9206SOL     OW28516   4.250   5.540   2.147
 9206SOL    HW128517   4.186   5.525   2.222
 9206SOL    HW228518   4.239   5.467   2.080
 9207SOL     OW28519   5.184   4.518   6.361
 9207SOL    HW128520   5.155   4.488   6.270
 9207SOL    HW228521   5.281   4.498   6.373
 9208SOL     OW28522   6.310   4.140   3.893
 9208SOL    HW128523   6.298   4.146   3.794
 9208SOL    HW228524   6.234   4.185   3.939
 9209SOL     OW28525   3.364   0.247   6.681
 9209SOL    HW128526   3.309   0.330   6.671
 9209SOL    HW228527   3.458   0.264   6.653
 9210SOL     OW28528   0.271   0.979   2.973
 9210SOL    HW128529   0.254   1.050   2.905
 9210SOL    HW228530   0.185   0.956   3.019
 9211SOL     OW28531   0.235   2.442   5.299
 9211SOL    HW128532   0.199   2.430   5.206
 9211SOL    HW228533   0.325   2.486   5.294
 9212SOL     OW28534   4.830   5.233   4.226
 9212SOL    HW128535   4.809   5.164   4.156
 9212SOL    HW228536   4.873   5.189   4.305
 9213SOL     OW28537   5.350   3.512   5.911
 9213SOL    HW128538   5.420   3.461   5.861
 9213SOL    HW228539   5.361   3.610   5.894
 9214SOL     OW28540   0.227   4.011   6.900
 9214SOL    HW128541   0.165   4.070   6.848
 9214SOL    HW228542   0.181   3.924   6.919
 9215SOL     OW28543   0.798   2.171   1.382
 9215SOL    HW128544   0.783   2.076   1.356
 9215SOL    HW228545   0.811   2.226   1.300
 9216SOL     OW28546   2.890   0.311   2.147
 9216SOL    HW128547   2.868   0.372   2.072
 9216SOL    HW228548   2.989   0.310   2.162
 9217SOL     OW28549   0.746   1.810   0.024
 9217SOL    HW128550   0.690   1.727   0.026
 9217SOL    HW228551   0.689   1.890   0.044
 9218SOL     OW28552   2.474   6.691   0.132
 9218SOL    HW128553   2.517   6.749   0.202
 9218SOL    HW228554   2.412   6.746   0.077
 9219SOL     OW28555   6.858   2.449   1.570
 9219SOL    HW128556   6.813   2.373   1.523
 9219SOL    HW228557   6.878   2.522   1.504
 9220SOL     OW28558   1.801   6.231   1.082
 9220SOL    HW128559   1.735   6.296   1.121
 9220SOL    HW228560   1.755   6.174   1.013
 9221SOL     OW28561   3.284   0.582   3.642
 9221SOL    HW128562   3.238   0.525   3.710
 9221SOL    HW228563   3.283   0.678   3.672
 9222SOL     OW28564   1.892   0.422   6.403
 9222SOL    HW128565   1.980   0.408   6.359
 9222SOL    HW228566   1.834   0.480   6.346
 9223SOL     OW28567   0.829   0.754   4.189
 9223SOL    HW128568   0.803   0.827   4.125
 9223SOL    HW228569   0.823   0.666   4.142
 9224SOL     OW28570   1.755   4.821   4.893
 9224SOL    HW128571   1.673   4.795   4.944
 9224SOL    HW228572   1.773   4.918   4.908
 9225SOL     OW28573   3.260   6.516   5.943
 9225SOL    HW128574   3.307   6.433   5.914
 9225SOL    HW228575   3.163   6.498   5.955
 9226SOL     OW28576   6.057   6.940   1.055
 9226SOL    HW128577   6.038   6.886   1.137
 9226SOL    HW228578   6.156   6.948   1.042
 9227SOL     OW28579   1.019   4.994   0.821
 9227SOL    HW128580   1.095   5.058   0.806
 9227SOL    HW228581   0.956   4.998   0.743
 9228SOL     OW28582   1.456   1.008   5.791
 9228SOL    HW128583   1.394   1.045   5.860
 9228SOL    HW228584   1.416   1.020   5.700
 9229SOL     OW28585   0.651   5.444   4.676
 9229SOL    HW128586   0.710   5.512   4.633
 9229SOL    HW228587   0.706   5.366   4.707
 9230SOL     OW28588   4.876   1.389   2.903
 9230SOL    HW128589   4.942   1.430   2.840
 9230SOL    HW228590   4.788   1.379   2.856
 9231SOL     OW28591   1.024   4.383   4.677
 9231SOL    HW128592   0.941   4.409   4.727
 9231SOL    HW228593   1.007   4.296   4.629
 9232SOL     OW28594   3.965   5.437   0.372
 9232SOL    HW128595   4.009   5.413   0.285
 9232SOL    HW228596   3.953   5.536   0.376
 9233SOL     OW28597   5.431   5.193   2.149
 9233SOL    HW128598   5.393   5.223   2.062
 9233SOL    HW228599   5.468   5.273   2.198
 9234SOL     OW28600   3.752   5.450   5.554
 9234SOL    HW128601   3.771   5.512   5.477
 9234SOL    HW228602   3.675   5.391   5.531
 9235SOL     OW28603   1.567   3.003   3.369
 9235SOL    HW128604   1.554   3.065   3.446
 9235SOL    HW228605   1.491   3.011   3.305
 9236SOL     OW28606   2.764   4.273   5.524
 9236SOL    HW128607   2.816   4.188   5.530
 9236SOL    HW228608   2.798   4.327   5.448
 9237SOL     OW28609   2.020   5.314   4.957
 9237SOL    HW128610   2.110   5.341   4.922
 9237SOL    HW228611   1.984   5.386   5.017
 9238SOL     OW28612   3.978   1.687   6.640
 9238SOL    HW128613   4.070   1.662   6.670
 9238SOL    HW228614   3.964   1.655   6.546
 9239SOL     OW28615   0.045   4.297   0.792
 9239SOL    HW128616   0.119   4.234   0.815
 9239SOL    HW228617   7.015   4.259   0.717
 9240SOL     OW28618   4.743   1.601   0.888
 9240SOL    HW128619   4.774   1.659   0.963
 9240SOL    HW228620   4.778   1.637   0.801
 9241SOL     OW28621   0.555   5.159   5.935
 9241SOL    HW128622   0.654   5.166   5.944
 9241SOL    HW228623   0.529   5.064   5.916
 9242SOL     OW28624   0.035   5.502   0.761
 9242SOL    HW128625   0.048   5.601   0.757
 9242SOL    HW228626   6.997   5.475   0.687
 9243SOL     OW28627   5.916   0.081   2.325
 9243SOL    HW128628   5.851   0.039   2.262
 9243SOL    HW228629   5.908   0.038   2.415
 9244SOL     OW28630   4.742   4.886   6.351
 9244SOL    HW128631   4.809   4.860   6.421
 9244SOL    HW228632   4.726   4.809   6.289
 9245SOL     OW28633   1.658   5.204   3.530
 9245SOL    HW128634   1.667   5.120   3.476
 9245SOL    HW228635   1.697   5.189   3.621
 9246SOL     OW28636   0.373   4.248   2.885
 9246SOL    HW128637   0.409   4.156   2.872
 9246SOL    HW228638   0.273   4.244   2.890
 9247SOL     OW28639   1.183   0.186   3.146
 9247SOL    HW128640   1.239   0.153   3.070
 9247SOL    HW228641   1.150   0.107   3.198
 9248SOL     OW28642   1.511   2.529   5.492
 9248SOL    HW128643   1.471   2.458   5.433
 9248SOL    HW228644   1.484   2.619   5.458
 9249SOL     OW28645   5.017   3.496   6.877
 9249SOL    HW128646   4.999   3.590   6.850
 9249SOL    HW228647   4.943   3.462   6.934
 9250SOL     OW28648   5.175   3.249   4.537
 9250SOL    HW128649   5.104   3.274   4.602
 9250SOL    HW228650   5.261   3.233   4.585
 9251SOL     OW28651   4.272   2.303   3.379
 9251SOL    HW128652   4.311   2.364   3.309
 9251SOL    HW228653   4.328   2.221   3.385
 9252SOL     OW28654   5.762   0.634   4.083
 9252SOL    HW128655   5.758   0.606   3.987
 9252SOL    HW228656   5.748   0.732   4.090
 9253SOL     OW28657   5.805   6.302   5.702
 9253SOL    HW128658   5.789   6.291   5.604
 9253SOL    HW228659   5.814   6.212   5.744
 9254SOL     OW28660   6.324   4.238   2.887
 9254SOL    HW128661   6.350   4.207   2.978
 9254SOL    HW228662   6.226   4.259   2.885
 9255SOL     OW28663   5.104   4.194   0.309
 9255SOL    HW128664   5.110   4.101   0.272
 9255SOL    HW228665   5.192   4.241   0.295
 9256SOL     OW28666   3.757   6.214   2.471
 9256SOL    HW128667   3.674   6.177   2.429
 9256SOL    HW228668   3.810   6.138   2.510
 9257SOL     OW28669   0.654   3.492   3.165
 9257SOL    HW128670   0.735   3.435   3.175
 9257SOL    HW228671   0.608   3.470   3.079
 9258SOL     OW28672   3.010   3.236   3.431
 9258SOL    HW128673   2.964   3.267   3.348
 9258SOL    HW228674   2.967   3.278   3.511
 9259SOL     OW28675   1.233   1.965   0.842
 9259SOL    HW128676   1.189   1.900   0.780
 9259SOL    HW228677   1.283   2.033   0.789
 9260SOL     OW28678   4.897   1.738   5.500
 9260SOL    HW128679   4.976   1.725   5.439
 9260SOL    HW228680   4.910   1.820   5.554
 9261SOL     OW28681   4.452   0.460   6.897
 9261SOL    HW128682   4.517   0.387   6.915
 9261SOL    HW228683   4.423   0.501   6.983
 9262SOL     OW28684   6.558   3.267   5.520
 9262SOL    HW128685   6.594   3.316   5.600
 9262SOL    HW228686   6.492   3.198   5.550
 9263SOL     OW28687   5.870   4.961   1.651
 9263SOL    HW128688   5.966   4.945   1.675
 9263SOL    HW228689   5.814   4.886   1.686
 9264SOL     OW28690   5.468   4.205   0.186
 9264SOL    HW128691   5.464   4.184   0.088
 9264SOL    HW228692   5.561   4.232   0.211
 9265SOL     OW28693   3.059   1.851   6.745
 9265SOL    HW128694   2.971   1.809   6.768
 9265SOL    HW228695   3.045   1.922   6.676
 9266SOL     OW28696   1.795   6.318   1.911
 9266SOL    HW128697   1.737   6.342   1.834
 9266SOL    HW228698   1.887   6.294   1.878
 9267SOL     OW28699   0.152   4.214   6.092
 9267SOL    HW128700   0.238   4.249   6.130
 9267SOL    HW228701   0.102   4.164   6.164
 9268SOL     OW28702   1.743   4.937   1.405
 9268SOL    HW128703   1.729   4.897   1.314
 9268SOL    HW228704   1.726   5.035   1.401
 9269SOL     OW28705   3.226   2.375   5.973
 9269SOL    HW128706   3.320   2.400   6.000
 9269SOL    HW228707   3.216   2.276   5.980
 9270SOL     OW28708   4.956   0.179   6.110
 9270SOL    HW128709   4.891   0.106   6.129
 9270SOL    HW228710   4.947   0.251   6.179
 9271SOL     OW28711   2.116   5.569   6.653
 9271SOL    HW128712   2.127   5.470   6.666
 9271SOL    HW228713   2.019   5.592   6.656
 9272SOL     OW28714   2.179   5.718   5.817
 9272SOL    HW128715   2.139   5.628   5.798
 9272SOL    HW228716   2.161   5.779   5.740
 9273SOL     OW28717   5.569   6.039   4.045
 9273SOL    HW128718   5.529   6.046   3.954
 9273SOL    HW228719   5.587   5.943   4.067
 9274SOL     OW28720   6.870   2.504   0.324
 9274SOL    HW128721   6.852   2.426   0.383
 9274SOL    HW228722   6.843   2.588   0.371
 9275SOL     OW28723   6.765   2.023   0.104
 9275SOL    HW128724   6.750   1.924   0.105
 9275SOL    HW228725   6.851   2.045   0.151
 9276SOL     OW28726   2.860   4.906   3.335
 9276SOL    HW128727   2.838   4.848   3.413
 9276SOL    HW228728   2.840   4.857   3.250
 9277SOL     OW28729   5.428   3.634   0.380
 9277SOL    HW128730   5.505   3.592   0.427
 9277SOL    HW228731   5.451   3.727   0.354
 9278SOL     OW28732   1.195   0.685   4.708
 9278SOL    HW128733   1.220   0.760   4.648
 9278SOL    HW228734   1.095   0.682   4.719
 9279SOL     OW28735   4.461   0.950   1.693
 9279SOL    HW128736   4.425   0.984   1.781
 9279SOL    HW228737   4.504   0.861   1.707
 9280SOL     OW28738   1.666   1.123   3.250
 9280SOL    HW128739   1.748   1.149   3.302
 9280SOL    HW228740   1.585   1.145   3.303
 9281SOL     OW28741   3.201   4.376   1.169
 9281SOL    HW128742   3.229   4.433   1.092
 9281SOL    HW228743   3.193   4.281   1.139
 9282SOL     OW28744   4.759   1.400   4.798
 9282SOL    HW128745   4.756   1.334   4.724
 9282SOL    HW228746   4.741   1.354   4.885
 9283SOL     OW28747   5.401   0.663   4.012
 9283SOL    HW128748   5.392   0.582   4.071
 9283SOL    HW228749   5.494   0.697   4.017
 9284SOL     OW28750   3.270   4.892   5.598
 9284SOL    HW128751   3.201   4.855   5.660
 9284SOL    HW228752   3.344   4.824   5.587
 9285SOL     OW28753   5.673   3.244   0.928
 9285SOL    HW128754   5.621   3.288   0.855
 9285SOL    HW228755   5.614   3.229   1.007
 9286SOL     OW28756   5.339   6.923   6.382
 9286SOL    HW128757   5.291   6.835   6.378
 9286SOL    HW228758   5.282   6.993   6.339
 9287SOL     OW28759   3.568   5.482   0.646
 9287SOL    HW128760   3.629   5.474   0.567
 9287SOL    HW228761   3.609   5.541   0.715
 9288SOL     OW28762   4.030   1.009   5.031
 9288SOL    HW128763   3.974   1.060   4.965
 9288SOL    HW228764   3.981   1.000   5.117
 9289SOL     OW28765   3.450   2.060   2.569
 9289SOL    HW128766   3.437   1.963   2.586
 9289SOL    HW228767   3.425   2.081   2.474
 9290SOL     OW28768   4.676   1.885   3.595
 9290SOL    HW128769   4.773   1.887   3.620
 9290SOL    HW228770   4.654   1.796   3.554
 9291SOL     OW28771   2.255   0.049   4.800
 9291SOL    HW128772   2.277   6.992   4.855
 9291SOL    HW228773   2.172   0.032   4.747
 9292SOL     OW28774   0.122   2.805   6.470
 9292SOL    HW128775   0.072   2.829   6.387
 9292SOL    HW228776   0.165   2.715   6.458
 9293SOL     OW28777   5.785   3.850   0.309
 9293SOL    HW128778   5.815   3.890   0.222
 9293SOL    HW228779   5.780   3.751   0.300
 9294SOL     OW28780   3.543   6.610   5.063
 9294SOL    HW128781   3.457   6.562   5.049
 9294SOL    HW228782   3.527   6.709   5.062
 9295SOL     OW28783   5.064   2.425   4.293
 9295SOL    HW128784   5.035   2.380   4.209
 9295SOL    HW228785   5.027   2.375   4.372
 9296SOL     OW28786   0.336   6.669   6.160
 9296SOL    HW128787   0.330   6.587   6.103
 9296SOL    HW228788   0.350   6.749   6.103
 9297SOL     OW28789   6.306   1.329   0.410
 9297SOL    HW128790   6.243   1.254   0.429
 9297SOL    HW228791   6.319   1.384   0.493
 9298SOL     OW28792   1.285   0.891   4.548
 9298SOL    HW128793   1.383   0.904   4.534
 9298SOL    HW228794   1.241   0.870   4.461
 9299SOL     OW28795   0.830   2.685   4.483
 9299SOL    HW128796   0.877   2.688   4.395
 9299SOL    HW228797   0.832   2.592   4.520
 9300SOL     OW28798   0.270   4.217   4.957
 9300SOL    HW128799   0.191   4.277   4.944
 9300SOL    HW228800   0.243   4.137   5.010
 9301SOL     OW28801   4.775   4.535   3.617
 9301SOL    HW128802   4.742   4.446   3.646
 9301SOL    HW228803   4.875   4.536   3.619
 9302SOL     OW28804   1.831   3.457   4.481
 9302SOL    HW128805   1.920   3.414   4.492
 9302SOL    HW228806   1.779   3.449   4.566
 9303SOL     OW28807   4.072   6.121   0.552
 9303SOL    HW128808   4.041   6.067   0.473
 9303SOL    HW228809   4.125   6.200   0.520
 9304SOL     OW28810   4.695   4.081   1.418
 9304SOL    HW128811   4.664   4.133   1.497
 9304SOL    HW228812   4.735   4.143   1.350
 9305SOL     OW28813   3.285   1.308   2.313
 9305SOL    HW128814   3.340   1.238   2.358
 9305SOL    HW228815   3.207   1.331   2.371
 9306SOL     OW28816   0.517   4.247   4.825
 9306SOL    HW128817   0.429   4.229   4.870
 9306SOL    HW228818   0.580   4.172   4.842
 9307SOL     OW28819   1.294   3.367   1.185
 9307SOL    HW128820   1.363   3.439   1.182
 9307SOL    HW228821   1.304   3.315   1.270
 9308SOL     OW28822   1.114   4.354   1.085
 9308SOL    HW128823   1.082   4.384   0.995
 9308SOL    HW228824   1.085   4.420   1.154
 9309SOL     OW28825   3.762   5.068   5.409
 9309SOL    HW128826   3.752   4.989   5.349
 9309SOL    HW228827   3.675   5.085   5.457
 9310SOL     OW28828   4.431   5.018   5.743
 9310SOL    HW128829   4.443   5.013   5.643
 9310SOL    HW228830   4.338   4.990   5.766
 9311SOL     OW28831   5.171   5.053   1.968
 9311SOL    HW128832   5.090   5.109   1.948
 9311SOL    HW228833   5.216   5.027   1.883
 9312SOL     OW28834   1.356   3.582   1.564
 9312SOL    HW128835   1.262   3.606   1.541
 9312SOL    HW228836   1.366   3.482   1.564
 9313SOL     OW28837   6.723   0.393   1.162
 9313SOL    HW128838   6.752   0.347   1.078
 9313SOL    HW228839   6.677   0.479   1.139
 9314SOL     OW28840   4.772   5.722   6.276
 9314SOL    HW128841   4.742   5.654   6.210
 9314SOL    HW228842   4.692   5.765   6.318
 9315SOL     OW28843   6.346   0.825   5.359
 9315SOL    HW128844   6.402   0.816   5.276
 9315SOL    HW228845   6.288   0.906   5.351
 9316SOL     OW28846   4.381   5.971   5.307
 9316SOL    HW128847   4.419   5.903   5.369
 9316SOL    HW228848   4.454   6.028   5.271
 9317SOL     OW28849   6.650   5.136   3.163
 9317SOL    HW128850   6.580   5.064   3.168
 9317SOL    HW228851   6.618   5.216   3.214
 9318SOL     OW28852   6.202   0.371   5.578
 9318SOL    HW128853   6.174   0.387   5.483
 9318SOL    HW228854   6.291   0.413   5.594
 9319SOL     OW28855   1.036   2.484   6.879
 9319SOL    HW128856   1.107   2.441   6.822
 9319SOL    HW228857   0.955   2.503   6.823
 9320SOL     OW28858   3.993   1.249   6.228
 9320SOL    HW128859   4.022   1.286   6.317
 9320SOL    HW228860   4.022   1.311   6.155
 9321SOL     OW28861   6.346   0.173   3.531
 9321SOL    HW128862   6.330   0.213   3.621
 9321SOL    HW228863   6.424   0.219   3.488
 9322SOL     OW28864   0.742   4.840   6.437
 9322SOL    HW128865   0.752   4.858   6.534
 9322SOL    HW228866   0.654   4.795   6.420
 9323SOL     OW28867   1.589   0.050   5.495
 9323SOL    HW128868   1.507   0.052   5.438
 9323SOL    HW228869   1.571   0.096   5.582
 9324SOL     OW28870   1.972   4.959   0.490
 9324SOL    HW128871   2.001   5.025   0.558
 9324SOL    HW228872   1.953   5.006   0.403
 9325SOL     OW28873   4.970   1.063   6.440
 9325SOL    HW128874   4.955   0.968   6.464
 9325SOL    HW228875   4.962   1.074   6.341
 9326SOL     OW28876   1.959   6.458   0.797
 9326SOL    HW128877   1.872   6.468   0.748
 9326SOL    HW228878   1.962   6.524   0.872
 9327SOL     OW28879   5.070   0.057   2.913
 9327SOL    HW128880   5.047   0.143   2.959
 9327SOL    HW228881   5.004   7.012   2.941
 9328SOL     OW28882   3.560   0.713   5.498
 9328SOL    HW128883   3.515   0.658   5.428
 9328SOL    HW228884   3.582   0.803   5.461
 9329SOL     OW28885   6.576   4.435   2.421
 9329SOL    HW128886   6.515   4.455   2.497
 9329SOL    HW228887   6.656   4.385   2.454
 9330SOL     OW28888   0.017   6.385   6.921
 9330SOL    HW128889   0.108   6.416   6.897
 9330SOL    HW228890   6.996   6.347   6.840
 9331SOL     OW28891   1.223   1.596   6.230
 9331SOL    HW128892   1.276   1.607   6.146
 9331SOL    HW228893   1.279   1.624   6.308
 9332SOL     OW28894   3.842   3.869   2.175
 9332SOL    HW128895   3.867   3.772   2.174
 9332SOL    HW228896   3.919   3.923   2.211
 9333SOL     OW28897   4.341   3.664   1.326
 9333SOL    HW128898   4.285   3.689   1.247
 9333SOL    HW228899   4.404   3.739   1.346
 9334SOL     OW28900   5.127   5.764   3.873
 9334SOL    HW128901   5.144   5.674   3.833
 9334SOL    HW228902   5.066   5.756   3.951
 9335SOL     OW28903   0.711   1.723   6.040
 9335SOL    HW128904   0.744   1.635   6.005
 9335SOL    HW228905   0.728   1.728   6.138
 9336SOL     OW28906   3.048   5.279   5.704
 9336SOL    HW128907   3.062   5.291   5.803
 9336SOL    HW228908   3.029   5.183   5.685
 9337SOL     OW28909   5.220   1.684   3.607
 9337SOL    HW128910   5.282   1.733   3.668
 9337SOL    HW228911   5.268   1.661   3.522
 9338SOL     OW28912   3.825   0.063   1.639
 9338SOL    HW128913   3.772   0.128   1.694
 9338SOL    HW228914   3.922   0.087   1.642
 9339SOL     OW28915   5.577   0.057   0.882
 9339SOL    HW128916   5.582   0.112   0.966
 9339SOL    HW228917   5.513   7.007   0.895
 9340SOL     OW28918   5.843   3.742   4.580
 9340SOL    HW128919   5.938   3.759   4.606
 9340SOL    HW228920   5.803   3.675   4.643
 9341SOL     OW28921   0.184   5.908   0.170
 9341SOL    HW128922   0.193   5.835   0.238
 9341SOL    HW228923   0.095   5.900   0.124
 9342SOL     OW28924   1.887   0.338   3.594
 9342SOL    HW128925   1.830   0.363   3.672
 9342SOL    HW228926   1.830   0.336   3.511
 9343SOL     OW28927   5.942   4.508   3.085
 9343SOL    HW128928   5.871   4.465   3.140
 9343SOL    HW228929   5.907   4.592   3.044
 9344SOL     OW28930   4.842   6.392   1.857
 9344SOL    HW128931   4.795   6.394   1.769
 9344SOL    HW228932   4.939   6.372   1.843
 9345SOL     OW28933   6.403   4.579   2.599
 9345SOL    HW128934   6.326   4.571   2.663
 9345SOL    HW228935   6.398   4.668   2.553
 9346SOL     OW28936   5.811   0.775   1.059
 9346SOL    HW128937   5.813   0.764   1.158
 9346SOL    HW228938   5.796   0.872   1.037
 9347SOL     OW28939   0.981   4.499   0.855
 9347SOL    HW128940   0.998   4.477   0.759
 9347SOL    HW228941   0.992   4.597   0.869
 9348SOL     OW28942   3.953   5.779   1.809
 9348SOL    HW128943   3.898   5.815   1.734
 9348SOL    HW228944   3.894   5.743   1.881
 9349SOL     OW28945   1.008   6.278   2.398
 9349SOL    HW128946   1.074   6.205   2.383
 9349SOL    HW228947   0.971   6.308   2.310
 9350SOL     OW28948   0.431   3.452   5.402
 9350SOL    HW128949   0.485   3.372   5.430
 9350SOL    HW228950   0.384   3.432   5.316
 9351SOL     OW28951   2.833   0.459   6.240
 9351SOL    HW128952   2.841   0.375   6.186
 9351SOL    HW228953   2.903   0.524   6.211
 9352SOL     OW28954   3.279   2.595   7.022
 9352SOL    HW128955   3.297   2.693   7.021
 9352SOL    HW228956   3.300   2.556   6.933
 9353SOL     OW28957   0.722   5.000   0.724
 9353SOL    HW128958   0.715   5.028   0.629
 9353SOL    HW228959   0.749   5.078   0.781
 9354SOL     OW28960   6.330   1.853   6.400
 9354SOL    HW128961   6.343   1.756   6.382
 9354SOL    HW228962   6.392   1.907   6.342
 9355SOL     OW28963   0.524   2.326   4.971
 9355SOL    HW128964   0.621   2.306   4.952
 9355SOL    HW228965   0.518   2.411   5.025
 9356SOL     OW28966   4.252   0.267   1.371
 9356SOL    HW128967   4.266   0.364   1.353
 9356SOL    HW228968   4.340   0.219   1.368
 9357SOL     OW28969   0.883   3.409   6.428
 9357SOL    HW128970   0.918   3.498   6.459
 9357SOL    HW228971   0.839   3.362   6.505
 9358SOL     OW28972   6.865   3.887   2.602
 9358SOL    HW128973   6.788   3.824   2.596
 9358SOL    HW228974   6.835   3.972   2.645
 9359SOL     OW28975   1.590   4.771   6.917
 9359SOL    HW128976   1.606   4.689   6.863
 9359SOL    HW228977   1.576   4.746   7.013
 9360SOL     OW28978   1.521   5.454   6.349
 9360SOL    HW128979   1.607   5.498   6.377
 9360SOL    HW228980   1.512   5.366   6.396
 9361SOL     OW28981   1.660   5.540   3.285
 9361SOL    HW128982   1.725   5.616   3.279
 9361SOL    HW228983   1.590   5.561   3.353
 9362SOL     OW28984   1.338   1.410   2.847
 9362SOL    HW128985   1.413   1.353   2.879
 9362SOL    HW228986   1.375   1.486   2.792
 9363SOL     OW28987   3.732   5.326   1.896
 9363SOL    HW128988   3.776   5.372   1.820
 9363SOL    HW228989   3.663   5.262   1.862
 9364SOL     OW28990   2.258   1.722   0.660
 9364SOL    HW128991   2.190   1.739   0.589
 9364SOL    HW228992   2.217   1.739   0.750
 9365SOL     OW28993   3.051   1.983   3.711
 9365SOL    HW128994   3.102   1.960   3.629
 9365SOL    HW228995   2.953   1.991   3.689
 9366SOL     OW28996   3.453   5.604   0.041
 9366SOL    HW128997   3.442   5.506   0.062
 9366SOL    HW228998   3.550   5.628   0.044
 9367SOL     OW28999   6.450   0.414   1.493
 9367SOL    HW129000   6.461   0.315   1.485
 9367SOL    HW229001   6.369   0.434   1.549
 9368SOL     OW29002   3.640   6.532   1.900
 9368SOL    HW129003   3.678   6.446   1.866
 9368SOL    HW229004   3.647   6.601   1.829
 9369SOL     OW29005   6.988   6.023   5.442
 9369SOL    HW129006   6.902   5.982   5.413
 9369SOL    HW229007   0.039   5.961   5.420
 9370SOL     OW29008   5.001   0.527   3.576
 9370SOL    HW129009   5.096   0.511   3.605
 9370SOL    HW229010   5.000   0.600   3.507
 9371SOL     OW29011   2.473   5.802   1.079
 9371SOL    HW129012   2.559   5.767   1.116
 9371SOL    HW229013   2.459   5.768   0.987
 9372SOL     OW29014   5.022   6.978   1.853
 9372SOL    HW129015   5.066   6.895   1.888
 9372SOL    HW229016   5.024   0.024   1.924
 9373SOL     OW29017   5.380   2.163   0.503
 9373SOL    HW129018   5.358   2.158   0.600
 9373SOL    HW229019   5.369   2.257   0.471
 9374SOL     OW29020   6.711   3.422   5.940
 9374SOL    HW129021   6.611   3.416   5.945
 9374SOL    HW229022   6.752   3.367   6.012
 9375SOL     OW29023   6.743   1.547   1.119
 9375SOL    HW129024   6.820   1.485   1.129
 9375SOL    HW229025   6.741   1.612   1.195
 9376SOL     OW29026   2.002   3.521   1.850
 9376SOL    HW129027   2.010   3.607   1.800
 9376SOL    HW229028   2.066   3.522   1.927
 9377SOL     OW29029   2.447   5.402   3.295
 9377SOL    HW129030   2.419   5.497   3.284
 9377SOL    HW229031   2.490   5.369   3.210
 9378SOL     OW29032   3.010   1.286   3.969
 9378SOL    HW129033   2.954   1.222   4.022
 9378SOL    HW229034   2.979   1.380   3.986
 9379SOL     OW29035   5.277   0.204   4.854
 9379SOL    HW129036   5.351   0.240   4.797
 9379SOL    HW229037   5.191   0.245   4.825
 9380SOL     OW29038   3.447   5.722   5.677
 9380SOL    HW129039   3.399   5.738   5.591
 9380SOL    HW229040   3.394   5.657   5.733
 9381SOL     OW29041   5.095   2.671   4.886
 9381SOL    HW129042   5.063   2.709   4.972
 9381SOL    HW229043   5.121   2.575   4.899
 9382SOL     OW29044   4.074   0.827   4.085
 9382SOL    HW129045   4.093   0.781   3.998
 9382SOL    HW229046   4.091   0.925   4.075
 9383SOL     OW29047   4.680   4.359   4.294
 9383SOL    HW129048   4.630   4.441   4.320
 9383SOL    HW229049   4.755   4.383   4.232
 9384SOL     OW29050   2.738   6.611   2.066
 9384SOL    HW129051   2.763   6.548   1.993
 9384SOL    HW229052   2.642   6.597   2.091
 9385SOL     OW29053   4.217   1.706   4.311
 9385SOL    HW129054   4.308   1.698   4.271
 9385SOL    HW229055   4.176   1.793   4.281
 9386SOL     OW29056   3.003   5.900   5.282
 9386SOL    HW129057   2.918   5.869   5.325
 9386SOL    HW229058   3.056   5.954   5.349
 9387SOL     OW29059   3.563   2.219   0.048
 9387SOL    HW129060   3.562   2.155   6.996
 9387SOL    HW229061   3.647   2.205   0.102
 9388SOL     OW29062   1.696   6.740   3.285
 9388SOL    HW129063   1.661   6.653   3.251
 9388SOL    HW229064   1.796   6.744   3.272
 9389SOL     OW29065   3.120   6.039   2.283
 9389SOL    HW129066   3.206   6.082   2.307
 9389SOL    HW229067   3.137   5.944   2.256
 9390SOL     OW29068   5.900   4.815   6.159
 9390SOL    HW129069   5.836   4.813   6.236
 9390SOL    HW229070   5.883   4.737   6.099
 9391SOL     OW29071   0.935   0.015   4.746
 9391SOL    HW129072   0.971   0.056   4.662
 9391SOL    HW229073   0.858   0.069   4.779
 9392SOL     OW29074   4.700   4.214   3.901
 9392SOL    HW129075   4.700   4.216   3.801
 9392SOL    HW229076   4.741   4.129   3.933
 9393SOL     OW29077   2.765   6.756   5.894
 9393SOL    HW129078   2.709   6.747   5.976
 9393SOL    HW229079   2.813   6.669   5.876
 9394SOL     OW29080   5.819   0.709   1.317
 9394SOL    HW129081   5.792   0.703   1.413
 9394SOL    HW229082   5.907   0.662   1.304
 9395SOL     OW29083   2.596   1.427   0.875
 9395SOL    HW129084   2.642   1.467   0.954
 9395SOL    HW229085   2.522   1.488   0.846
 9396SOL     OW29086   1.923   5.352   5.326
 9396SOL    HW129087   1.998   5.341   5.391
 9396SOL    HW229088   1.907   5.449   5.309
 9397SOL     OW29089   3.337   6.712   5.579
 9397SOL    HW129090   3.240   6.698   5.559
 9397SOL    HW229091   3.386   6.626   5.567
 9398SOL     OW29092   6.338   0.969   5.815
 9398SOL    HW129093   6.401   0.911   5.763
 9398SOL    HW229094   6.325   0.931   5.906
 9399SOL     OW29095   1.047   2.274   4.503
 9399SOL    HW129096   1.024   2.178   4.519
 9399SOL    HW229097   0.976   2.333   4.541
 9400SOL     OW29098   5.008   0.444   0.098
 9400SOL    HW129099   5.001   0.503   0.178
 9400SOL    HW229100   4.918   0.406   0.077
 9401SOL     OW29101   0.192   2.613   1.667
 9401SOL    HW129102   0.110   2.569   1.703
 9401SOL    HW229103   0.221   2.685   1.731
 9402SOL     OW29104   1.978   5.382   3.867
 9402SOL    HW129105   1.882   5.388   3.897
 9402SOL    HW229106   2.006   5.286   3.863
 9403SOL     OW29107   0.415   1.295   2.649
 9403SOL    HW129108   0.498   1.249   2.619
 9403SOL    HW229109   0.382   1.354   2.575
 9404SOL     OW29110   0.390   2.354   1.284
 9404SOL    HW129111   0.347   2.395   1.203
 9404SOL    HW229112   0.328   2.362   1.362
 9405SOL     OW29113   1.183   4.557   4.840
 9405SOL    HW129114   1.173   4.504   4.755
 9405SOL    HW229115   1.113   4.627   4.843
 9406SOL     OW29116   0.817   3.340   6.690
 9406SOL    HW129117   0.882   3.273   6.726
 9406SOL    HW229118   0.772   3.387   6.766
 9407SOL     OW29119   2.670   5.044   4.964
 9407SOL    HW129120   2.751   5.003   5.006
 9407SOL    HW229121   2.599   4.974   4.955
 9408SOL     OW29122   6.714   3.080   5.728
 9408SOL    HW129123   6.681   3.004   5.671
 9408SOL    HW229124   6.746   3.154   5.669
 9409SOL     OW29125   6.662   5.581   2.199
 9409SOL    HW129126   6.706   5.664   2.165
 9409SOL    HW229127   6.720   5.538   2.268
 9410SOL     OW29128   5.088   1.182   1.621
 9410SOL    HW129129   5.125   1.136   1.540
 9410SOL    HW229130   5.045   1.268   1.594
 9411SOL     OW29131   2.919   3.384   2.828
 9411SOL    HW129132   2.839   3.405   2.771
 9411SOL    HW229133   2.978   3.319   2.780
 9412SOL     OW29134   0.965   0.704   0.872
 9412SOL    HW129135   0.943   0.634   0.804
 9412SOL    HW229136   0.895   0.704   0.943
 9413SOL     OW29137   4.766   4.734   4.747
 9413SOL    HW129138   4.848   4.747   4.803
 9413SOL    HW229139   4.708   4.663   4.788
 9414SOL     OW29140   2.437   2.193   4.985
 9414SOL    HW129141   2.482   2.282   4.988
 9414SOL    HW229142   2.365   2.194   4.915
 9415SOL     OW29143   2.873   0.152   1.698
 9415SOL    HW129144   2.882   0.078   1.764
 9415SOL    HW229145   2.955   0.156   1.640
 9416SOL     OW29146   0.433   0.050   5.029
 9416SOL    HW129147   0.337   0.061   5.006
 9416SOL    HW229148   0.464   0.128   5.084
 9417SOL     OW29149   3.287   6.464   1.514
 9417SOL    HW129150   3.276   6.490   1.610
 9417SOL    HW229151   3.373   6.501   1.479
 9418SOL     OW29152   3.148   1.198   3.193
 9418SOL    HW129153   3.086   1.186   3.271
 9418SOL    HW229154   3.181   1.293   3.192
 9419SOL     OW29155   2.428   2.534   6.284
 9419SOL    HW129156   2.334   2.537   6.251
 9419SOL    HW229157   2.437   2.590   6.366
 9420SOL     OW29158   5.911   4.527   0.608
 9420SOL    HW129159   5.987   4.557   0.666
 9420SOL    HW229160   5.864   4.606   0.570
 9421SOL     OW29161   3.312   5.358   4.675
 9421SOL    HW129162   3.287   5.453   4.694
 9421SOL    HW229163   3.239   5.297   4.707
 9422SOL     OW29164   2.527   6.468   4.104
 9422SOL    HW129165   2.554   6.440   4.011
 9422SOL    HW229166   2.530   6.567   4.112
 9423SOL     OW29167   3.619   5.554   3.095
 9423SOL    HW129168   3.603   5.455   3.103
 9423SOL    HW229169   3.687   5.582   3.163
 9424SOL     OW29170   4.981   1.690   4.733
 9424SOL    HW129171   5.035   1.700   4.650
 9424SOL    HW229172   4.976   1.594   4.759
 9425SOL     OW29173   6.081   4.813   1.756
 9425SOL    HW129174   6.040   4.729   1.722
 9425SOL    HW229175   6.073   4.816   1.856
 9426SOL     OW29176   1.140   1.977   6.341
 9426SOL    HW129177   1.139   2.013   6.434
 9426SOL    HW229178   1.051   1.990   6.298
 9427SOL     OW29179   2.731   5.674   3.172
 9427SOL    HW129180   2.700   5.748   3.232
 9427SOL    HW229181   2.658   5.648   3.110
 9428SOL     OW29182   6.101   6.161   0.556
 9428SOL    HW129183   6.143   6.162   0.647
 9428SOL    HW229184   6.081   6.067   0.530
 9429SOL     OW29185   1.497   2.156   4.321
 9429SOL    HW129186   1.578   2.175   4.265
 9429SOL    HW229187   1.519   2.086   4.389
 9430SOL     OW29188   0.170   2.172   4.807
 9430SOL    HW129189   0.111   2.215   4.875
 9430SOL    HW229190   0.259   2.217   4.805
 9431SOL     OW29191   6.740   4.570   0.877
 9431SOL    HW129192   6.700   4.480   0.859
 9431SOL    HW229193   6.807   4.562   0.951
 9432SOL     OW29194   6.782   1.622   4.040
 9432SOL    HW129195   6.694   1.576   4.049
 9432SOL    HW229196   6.778   1.711   4.086
 9433SOL     OW29197   4.210   5.800   2.745
 9433SOL    HW129198   4.180   5.783   2.651
 9433SOL    HW229199   4.293   5.748   2.764
 9434SOL     OW29200   5.789   5.530   3.714
 9434SOL    HW129201   5.696   5.561   3.735
 9434SOL    HW229202   5.849   5.551   3.791
 9435SOL     OW29203   0.194   2.530   2.387
 9435SOL    HW129204   0.099   2.499   2.397
 9435SOL    HW229205   0.256   2.460   2.424
 9436SOL     OW29206   1.146   1.113   1.923
 9436SOL    HW129207   1.141   1.088   2.020
 9436SOL    HW229208   1.122   1.209   1.912
 9437SOL     OW29209   0.641   5.166   3.182
 9437SOL    HW129210   0.691   5.138   3.100
 9437SOL    HW229211   0.700   5.226   3.237
 9438SOL     OW29212   2.067   0.044   1.538
 9438SOL    HW129213   2.111   7.007   1.603
 9438SOL    HW229214   2.068   0.002   1.447
 9439SOL     OW29215   0.642   3.079   0.905
 9439SOL    HW129216   0.650   3.101   0.808
 9439SOL    HW229217   0.672   3.158   0.959
 9440SOL     OW29218   3.101   4.995   3.328
 9440SOL    HW129219   3.008   4.960   3.343
 9440SOL    HW229220   3.098   5.095   3.321
 9441SOL     OW29221   6.712   5.610   5.027
 9441SOL    HW129222   6.798   5.621   5.076
 9441SOL    HW229223   6.725   5.633   4.931
 9442SOL     OW29224   4.846   3.840   1.326
 9442SOL    HW129225   4.791   3.916   1.362
 9442SOL    HW229226   4.935   3.839   1.373
 9443SOL     OW29227   2.935   5.852   1.665
 9443SOL    HW129228   2.923   5.932   1.725
 9443SOL    HW229229   3.026   5.814   1.678
 9444SOL     OW29230   1.908   3.940   0.751
 9444SOL    HW129231   1.986   3.946   0.814
 9444SOL    HW229232   1.915   4.012   0.682
 9445SOL     OW29233   0.270   2.145   3.928
 9445SOL    HW129234   0.353   2.091   3.943
 9445SOL    HW229235   0.243   2.137   3.832
 9446SOL     OW29236   6.428   5.035   4.226
 9446SOL    HW129237   6.441   5.086   4.141
 9446SOL    HW229238   6.510   5.042   4.283
 9447SOL     OW29239   4.899   5.347   2.937
 9447SOL    HW129240   4.956   5.428   2.953
 9447SOL    HW229241   4.921   5.308   2.848
 9448SOL     OW29242   5.953   6.621   5.527
 9448SOL    HW129243   6.015   6.700   5.535
 9448SOL    HW229244   5.912   6.602   5.616
 9449SOL     OW29245   5.387   6.590   6.782
 9449SOL    HW129246   5.402   6.556   6.874
 9449SOL    HW229247   5.470   6.576   6.727
 9450SOL     OW29248   1.784   5.633   4.449
 9450SOL    HW129249   1.695   5.588   4.441
 9450SOL    HW229250   1.857   5.566   4.434
 9451SOL     OW29251   3.514   5.692   6.634
 9451SOL    HW129252   3.458   5.651   6.707
 9451SOL    HW229253   3.475   5.669   6.545
 9452SOL     OW29254   0.382   4.454   1.208
 9452SOL    HW129255   0.418   4.547   1.209
 9452SOL    HW229256   0.422   4.403   1.132
 9453SOL     OW29257   3.265   4.881   3.135
 9453SOL    HW129258   3.351   4.904   3.180
 9453SOL    HW229259   3.188   4.908   3.193
 9454SOL     OW29260   4.490   4.212   1.194
 9454SOL    HW129261   4.455   4.126   1.158
 9454SOL    HW229262   4.470   4.218   1.292
 9455SOL     OW29263   2.463   2.228   2.879
 9455SOL    HW129264   2.469   2.205   2.782
 9455SOL    HW229265   2.394   2.170   2.922
 9456SOL     OW29266   6.398   3.829   2.521
 9456SOL    HW129267   6.364   3.798   2.432
 9456SOL    HW229268   6.409   3.928   2.520
 9457SOL     OW29269   0.941   5.094   4.570
 9457SOL    HW129270   0.956   4.996   4.581
 9457SOL    HW229271   0.988   5.125   4.487
 9458SOL     OW29272   6.836   4.154   0.579
 9458SOL    HW129273   6.765   4.184   0.515
 9458SOL    HW229274   6.925   4.158   0.535
 9459SOL     OW29275   5.344   4.271   4.438
 9459SOL    HW129276   5.431   4.249   4.481
 9459SOL    HW229277   5.351   4.257   4.339
 9460SOL     OW29278   1.722   3.294   4.716
 9460SOL    HW129279   1.733   3.251   4.627
 9460SOL    HW229280   1.724   3.224   4.788
 9461SOL     OW29281   1.010   1.553   1.242
 9461SOL    HW129282   1.058   1.521   1.161
 9461SOL    HW229283   0.913   1.533   1.233
 9462SOL     OW29284   1.262   2.737   3.550
 9462SOL    HW129285   1.303   2.822   3.583
 9462SOL    HW229286   1.162   2.746   3.548
 9463SOL     OW29287   5.498   6.481   1.372
 9463SOL    HW129288   5.475   6.485   1.469
 9463SOL    HW229289   5.581   6.535   1.356
 9464SOL     OW29290   6.623   0.578   1.618
 9464SOL    HW129291   6.559   0.517   1.571
 9464SOL    HW229292   6.571   0.641   1.676
 9465SOL     OW29293   0.223   4.179   1.685
 9465SOL    HW129294   0.196   4.084   1.670
 9465SOL    HW229295   0.144   4.239   1.672
 9466SOL     OW29296   4.260   5.750   6.418
 9466SOL    HW129297   4.329   5.822   6.411
 9466SOL    HW229298   4.303   5.668   6.456
 9467SOL     OW29299   2.067   2.750   0.657
 9467SOL    HW129300   2.043   2.673   0.717
 9467SOL    HW229301   2.156   2.732   0.614
 9468SOL     OW29302   6.717   3.688   6.522
 9468SOL    HW129303   6.772   3.627   6.578
 9468SOL    HW229304   6.620   3.676   6.545
 9469SOL     OW29305   6.638   6.108   0.222
 9469SOL    HW129306   6.604   6.154   0.140
 9469SOL    HW229307   6.728   6.068   0.204
 9470SOL     OW29308   4.708   3.978   0.046
 9470SOL    HW129309   4.804   3.961   0.024
 9470SOL    HW229310   4.652   3.966   6.989
 9471SOL     OW29311   6.440   2.356   5.261
 9471SOL    HW129312   6.492   2.437   5.234
 9471SOL    HW229313   6.478   2.276   5.215
 9472SOL     OW29314   1.068   4.402   6.474
 9472SOL    HW129315   1.156   4.438   6.506
 9472SOL    HW229316   1.009   4.478   6.447
 9473SOL     OW29317   3.447   3.987   6.962
 9473SOL    HW129318   3.424   3.903   6.913
 9473SOL    HW229319   3.484   3.964   0.027
 9474SOL     OW29320   6.093   3.586   1.774
 9474SOL    HW129321   6.113   3.684   1.777
 9474SOL    HW229322   6.009   3.568   1.826
 9475SOL     OW29323   4.404   3.521   6.424
 9475SOL    HW129324   4.414   3.423   6.406
 9475SOL    HW229325   4.307   3.542   6.439
 9476SOL     OW29326   3.883   4.319   5.690
 9476SOL    HW129327   3.814   4.292   5.624
 9476SOL    HW229328   3.842   4.376   5.761
 9477SOL     OW29329   1.859   3.399   0.820
 9477SOL    HW129330   1.841   3.479   0.877
 9477SOL    HW229331   1.905   3.427   0.736
 9478SOL     OW29332   4.234   2.612   1.197
 9478SOL    HW129333   4.220   2.594   1.294
 9478SOL    HW229334   4.147   2.636   1.154
 9479SOL     OW29335   4.201   0.870   1.551
 9479SOL    HW129336   4.299   0.878   1.569
 9479SOL    HW229337   4.176   0.774   1.540
 9480SOL     OW29338   5.753   6.066   0.032
 9480SOL    HW129339   5.850   6.091   0.030
 9480SOL    HW229340   5.700   6.133   7.006
 9481SOL     OW29341   4.747   1.862   3.239
 9481SOL    HW129342   4.705   1.937   3.189
 9481SOL    HW229343   4.682   1.787   3.250
 9482SOL     OW29344   5.766   0.436   1.054
 9482SOL    HW129345   5.701   0.500   1.093
 9482SOL    HW229346   5.747   0.422   0.957
 9483SOL     OW29347   1.328   0.788   0.009
 9483SOL    HW129348   1.253   0.823   6.977
 9483SOL    HW229349   1.390   0.863   0.033
 9484SOL     OW29350   2.879   0.063   4.274
 9484SOL    HW129351   2.962   0.074   4.218
 9484SOL    HW229352   2.873   6.993   4.305
 9485SOL     OW29353   6.007   1.487   1.005
 9485SOL    HW129354   5.925   1.518   0.958
 9485SOL    HW229355   5.985   1.470   1.102
 9486SOL     OW29356   4.967   5.623   0.977
 9486SOL    HW129357   4.996   5.635   1.071
 9486SOL    HW229358   4.960   5.713   0.932
 9487SOL     OW29359   3.182   3.606   4.412
 9487SOL    HW129360   3.114   3.673   4.442
 9487SOL    HW229361   3.215   3.630   4.321
 9488SOL     OW29362   1.571   1.012   1.643
 9488SOL    HW129363   1.521   1.091   1.608
 9488SOL    HW229364   1.507   0.950   1.689
 9489SOL     OW29365   5.342   4.457   0.892
 9489SOL    HW129366   5.291   4.384   0.848
 9489SOL    HW229367   5.417   4.418   0.946
 9490SOL     OW29368   6.439   5.746   3.809
 9490SOL    HW129369   6.357   5.802   3.807
 9490SOL    HW229370   6.423   5.666   3.867
 9491SOL     OW29371   5.479   6.074   3.764
 9491SOL    HW129372   5.392   6.027   3.751
 9491SOL    HW229373   5.539   6.056   3.686
 9492SOL     OW29374   4.731   3.008   5.159
 9492SOL    HW129375   4.728   2.983   5.062
 9492SOL    HW229376   4.778   3.096   5.169
 9493SOL     OW29377   3.200   6.067   4.140
 9493SOL    HW129378   3.238   6.088   4.230
 9493SOL    HW229379   3.139   6.141   4.111
 9494SOL     OW29380   5.615   3.037   2.169
 9494SOL    HW129381   5.700   3.087   2.185
 9494SOL    HW229382   5.613   2.955   2.226
 9495SOL     OW29383   6.730   1.287   2.262
 9495SOL    HW129384   6.786   1.369   2.279
 9495SOL    HW229385   6.684   1.261   2.347
 9496SOL     OW29386   4.734   2.137   2.337
 9496SOL    HW129387   4.773   2.201   2.271
 9496SOL    HW229388   4.649   2.100   2.301
 9497SOL     OW29389   5.075   5.711   5.390
 9497SOL    HW129390   5.067   5.646   5.314
 9497SOL    HW229391   5.156   5.690   5.444
 9498SOL     OW29392   0.078   4.842   4.573
 9498SOL    HW129393   0.037   4.769   4.628
 9498SOL    HW229394   0.137   4.802   4.502
 9499SOL     OW29395   0.013   5.436   5.304
 9499SOL    HW129396   0.010   5.362   5.238
 9499SOL    HW229397   0.009   5.398   5.397
 9500SOL     OW29398   4.063   6.590   0.989
 9500SOL    HW129399   4.016   6.589   1.077
 9500SOL    HW229400   4.151   6.543   0.997
 9501SOL     OW29401   1.446   1.437   4.545
 9501SOL    HW129402   1.508   1.499   4.496
 9501SOL    HW229403   1.351   1.460   4.522
 9502SOL     OW29404   5.518   4.450   5.011
 9502SOL    HW129405   5.587   4.514   5.045
 9502SOL    HW229406   5.561   4.386   4.948
 9503SOL     OW29407   0.775   2.367   0.704
 9503SOL    HW129408   0.787   2.466   0.699
 9503SOL    HW229409   0.679   2.345   0.690
 9504SOL     OW29410   6.710   3.494   2.113
 9504SOL    HW129411   6.795   3.460   2.153
 9504SOL    HW229412   6.685   3.580   2.157
 9505SOL     OW29413   4.749   5.197   5.875
 9505SOL    HW129414   4.690   5.274   5.851
 9505SOL    HW229415   4.774   5.147   5.792
 9506SOL     OW29416   2.198   2.469   0.372
 9506SOL    HW129417   2.188   2.470   0.272
 9506SOL    HW229418   2.115   2.432   0.413
 9507SOL     OW29419   6.300   0.594   0.602
 9507SOL    HW129420   6.234   0.562   0.670
 9507SOL    HW229421   6.389   0.606   0.646
 9508SOL     OW29422   5.288   1.882   2.128
 9508SOL    HW129423   5.320   1.921   2.042
 9508SOL    HW229424   5.278   1.955   2.196
 9509SOL     OW29425   6.374   0.498   3.276
 9509SOL    HW129426   6.338   0.499   3.183
 9509SOL    HW229427   6.298   0.496   3.341
 9510SOL     OW29428   0.970   3.343   3.478
 9510SOL    HW129429   1.047   3.318   3.538
 9510SOL    HW229430   0.966   3.442   3.468
 9511SOL     OW29431   1.153   1.044   1.489
 9511SOL    HW129432   1.147   0.992   1.574
 9511SOL    HW229433   1.232   1.011   1.436
 9512SOL     OW29434   6.969   3.185   1.155
 9512SOL    HW129435   6.974   3.118   1.080
 9512SOL    HW229436   6.888   3.166   1.210
 9513SOL     OW29437   3.454   4.935   5.939
 9513SOL    HW129438   3.360   4.967   5.930
 9513SOL    HW229439   3.466   4.893   6.029
 9514SOL     OW29440   2.804   3.497   6.515
 9514SOL    HW129441   2.900   3.472   6.531
 9514SOL    HW229442   2.778   3.569   6.580
 9515SOL     OW29443   2.617   5.047   3.376
 9515SOL    HW129444   2.714   5.022   3.377
 9515SOL    HW229445   2.584   5.053   3.470
 9516SOL     OW29446   5.822   4.788   0.550
 9516SOL    HW129447   5.858   4.837   0.630
 9516SOL    HW229448   5.733   4.826   0.525
 9517SOL     OW29449   1.072   4.218   1.634
 9517SOL    HW129450   1.150   4.261   1.589
 9517SOL    HW229451   1.073   4.120   1.615
 9518SOL     OW29452   2.880   1.271   0.439
 9518SOL    HW129453   2.857   1.194   0.380
 9518SOL    HW229454   2.799   1.328   0.452
 9519SOL     OW29455   1.274   2.190   5.694
 9519SOL    HW129456   1.348   2.143   5.741
 9519SOL    HW229457   1.201   2.211   5.759
 9520SOL     OW29458   2.833   0.328   2.431
 9520SOL    HW129459   2.743   0.290   2.453
 9520SOL    HW229460   2.853   0.313   2.334
 9521SOL     OW29461   5.968   6.194   3.756
 9521SOL    HW129462   5.941   6.192   3.852
 9521SOL    HW229463   5.927   6.275   3.712
 9522SOL     OW29464   3.256   5.872   0.702
 9522SOL    HW129465   3.200   5.893   0.782
 9522SOL    HW229466   3.349   5.906   0.718
 9523SOL     OW29467   3.202   5.364   4.257
 9523SOL    HW129468   3.124   5.367   4.320
 9523SOL    HW229469   3.177   5.407   4.170
 9524SOL     OW29470   3.668   2.732   1.357
 9524SOL    HW129471   3.598   2.666   1.384
 9524SOL    HW229472   3.721   2.695   1.281
 9525SOL     OW29473   2.049   1.333   6.129
 9525SOL    HW129474   2.135   1.292   6.099
 9525SOL    HW229475   2.068   1.419   6.177
 9526SOL     OW29476   5.665   6.194   3.276
 9526SOL    HW129477   5.675   6.172   3.179
 9526SOL    HW229478   5.716   6.278   3.296
 9527SOL     OW29479   1.070   0.666   1.913
 9527SOL    HW129480   1.026   0.682   2.001
 9527SOL    HW229481   1.058   0.570   1.887
 9528SOL     OW29482   6.717   0.118   0.536
 9528SOL    HW129483   6.640   0.150   0.591
 9528SOL    HW229484   6.783   0.071   0.594
 9529SOL     OW29485   1.150   3.273   6.386
 9529SOL    HW129486   1.052   3.286   6.398
 9529SOL    HW229487   1.199   3.328   6.454
 9530SOL     OW29488   1.552   2.855   2.846
 9530SOL    HW129489   1.622   2.866   2.917
 9530SOL    HW229490   1.492   2.935   2.847
 9531SOL     OW29491   4.037   6.051   2.832
 9531SOL    HW129492   3.993   6.084   2.748
 9531SOL    HW229493   4.083   5.964   2.813
 9532SOL     OW29494   1.896   6.051   1.293
 9532SOL    HW129495   1.896   5.952   1.282
 9532SOL    HW229496   1.880   6.095   1.205
 9533SOL     OW29497   0.442   1.358   5.228
 9533SOL    HW129498   0.501   1.307   5.166
 9533SOL    HW229499   0.361   1.389   5.179
 9534SOL     OW29500   5.508   2.241   5.255
 9534SOL    HW129501   5.492   2.267   5.160
 9534SOL    HW229502   5.488   2.319   5.315
 9535SOL     OW29503   2.805   0.522   5.592
 9535SOL    HW129504   2.889   0.470   5.611
 9535SOL    HW229505   2.729   0.458   5.582
 9536SOL     OW29506   2.066   5.814   5.572
 9536SOL    HW129507   2.026   5.904   5.588
 9536SOL    HW229508   1.997   5.743   5.584
 9537SOL     OW29509   3.461   0.154   2.270
 9537SOL    HW129510   3.489   0.123   2.361
 9537SOL    HW229511   3.453   0.254   2.270
 9538SOL     OW29512   6.591   1.821   4.714
 9538SOL    HW129513   6.621   1.808   4.619
 9538SOL    HW229514   6.501   1.866   4.714
 9539SOL     OW29515   2.082   4.952   6.412
 9539SOL    HW129516   1.990   4.951   6.450
 9539SOL    HW229517   2.144   4.905   6.475
 9540SOL     OW29518   4.658   4.795   5.443
 9540SOL    HW129519   4.566   4.775   5.408
 9540SOL    HW229520   4.653   4.809   5.542
 9541SOL     OW29521   1.413   2.437   5.131
 9541SOL    HW129522   1.337   2.491   5.094
 9541SOL    HW229523   1.379   2.376   5.203
 9542SOL     OW29524   4.951   3.415   4.971
 9542SOL    HW129525   4.904   3.360   5.041
 9542SOL    HW229526   4.914   3.508   4.972
 9543SOL     OW29527   4.659   0.800   4.188
 9543SOL    HW129528   4.560   0.813   4.181
 9543SOL    HW229529   4.685   0.793   4.284
 9544SOL     OW29530   6.139   0.223   2.242
 9544SOL    HW129531   6.065   0.159   2.262
 9544SOL    HW229532   6.115   0.276   2.161
 9545SOL     OW29533   6.802   6.726   3.201
 9545SOL    HW129534   6.764   6.712   3.109
 9545SOL    HW229535   6.763   6.658   3.264
 9546SOL     OW29536   3.057   4.018   6.763
 9546SOL    HW129537   2.982   4.072   6.724
 9546SOL    HW229538   3.143   4.043   6.718
 9547SOL     OW29539   1.527   6.211   4.001
 9547SOL    HW129540   1.623   6.236   4.003
 9547SOL    HW229541   1.475   6.270   4.063
 9548SOL     OW29542   6.041   5.902   4.753
 9548SOL    HW129543   6.070   5.928   4.661
 9548SOL    HW229544   5.982   5.821   4.748
 9549SOL     OW29545   3.663   5.203   0.678
 9549SOL    HW129546   3.685   5.190   0.581
 9549SOL    HW229547   3.611   5.288   0.689
 9550SOL     OW29548   0.344   1.707   0.223
 9550SOL    HW129549   0.326   1.794   0.178
 9550SOL    HW229550   0.405   1.652   0.166
 9551SOL     OW29551   0.154   0.021   4.881
 9551SOL    HW129552   0.201   0.037   4.794
 9551SOL    HW229553   0.081   0.089   4.892
 9552SOL     OW29554   1.089   7.011   3.299
 9552SOL    HW129555   0.999   0.007   3.259
 9552SOL    HW229556   1.076   6.965   3.387
 9553SOL     OW29557   6.033   4.824   6.810
 9553SOL    HW129558   6.001   4.774   6.891
 9553SOL    HW229559   6.000   4.779   6.727
 9554SOL     OW29560   2.554   1.200   2.263
 9554SOL    HW129561   2.539   1.209   2.164
 9554SOL    HW229562   2.628   1.262   2.291
 9555SOL     OW29563   6.449   2.317   1.131
 9555SOL    HW129564   6.538   2.360   1.147
 9555SOL    HW229565   6.434   2.308   1.033
 9556SOL     OW29566   2.433   0.983   1.198
 9556SOL    HW129567   2.457   1.017   1.107
 9556SOL    HW229568   2.338   0.952   1.197
 9557SOL     OW29569   6.325   0.741   2.685
 9557SOL    HW129570   6.391   0.816   2.678
 9557SOL    HW229571   6.280   0.745   2.774
 9558SOL     OW29572   0.269   4.769   2.985
 9558SOL    HW129573   0.357   4.816   2.996
 9558SOL    HW229574   0.196   4.828   3.019
 9559SOL     OW29575   0.298   3.210   1.916
 9559SOL    HW129576   0.366   3.185   1.846
 9559SOL    HW229577   0.306   3.148   1.994
 9560SOL     OW29578   2.357   1.453   3.792
 9560SOL    HW129579   2.374   1.454   3.693
 9560SOL    HW229580   2.368   1.360   3.827
 9561SOL     OW29581   3.188   6.817   0.646
 9561SOL    HW129582   3.118   6.754   0.681
 9561SOL    HW229583   3.174   6.908   0.686
 9562SOL     OW29584   4.468   5.782   3.210
 9562SOL    HW129585   4.550   5.725   3.218
 9562SOL    HW229586   4.388   5.727   3.232
 9563SOL     OW29587   0.071   6.398   6.408
 9563SOL    HW129588   0.062   6.485   6.358
 9563SOL    HW229589   0.015   6.328   6.363
 9564SOL     OW29590   2.687   6.695   6.418
 9564SOL    HW129591   2.717   6.787   6.395
 9564SOL    HW229592   2.765   6.632   6.415
 9565SOL     OW29593   3.844   5.900   4.363
 9565SOL    HW129594   3.751   5.938   4.365
 9565SOL    HW229595   3.880   5.906   4.270
 9566SOL     OW29596   3.065   4.486   5.796
 9566SOL    HW129597   3.090   4.478   5.699
 9566SOL    HW229598   2.965   4.481   5.805
 9567SOL     OW29599   6.255   6.030   6.422
 9567SOL    HW129600   6.166   6.062   6.389
 9567SOL    HW229601   6.326   6.094   6.391
 9568SOL     OW29602   5.421   3.948   6.472
 9568SOL    HW129603   5.341   3.889   6.461
 9568SOL    HW229604   5.493   3.919   6.408
 9569SOL     OW29605   6.115   1.586   0.088
 9569SOL    HW129606   6.145   1.516   0.022
 9569SOL    HW229607   6.157   1.674   0.065
 9570SOL     OW29608   0.133   1.059   0.837
 9570SOL    HW129609   0.125   0.963   0.865
 9570SOL    HW229610   0.078   1.116   0.897
 9571SOL     OW29611   1.985   3.966   0.342
 9571SOL    HW129612   2.075   3.958   0.300
 9571SOL    HW229613   1.938   3.878   0.338
 9572SOL     OW29614   1.066   4.756   0.915
 9572SOL    HW129615   1.032   4.845   0.885
 9572SOL    HW229616   1.166   4.756   0.909
 9573SOL     OW29617   1.479   1.526   0.333
 9573SOL    HW129618   1.447   1.602   0.389
 9573SOL    HW229619   1.520   1.562   0.249
 9574SOL     OW29620   3.621   3.571   5.618
 9574SOL    HW129621   3.604   3.512   5.539
 9574SOL    HW229622   3.679   3.648   5.590
 9575SOL     OW29623   5.654   0.646   2.074
 9575SOL    HW129624   5.668   0.680   2.167
 9575SOL    HW229625   5.568   0.683   2.038
 9576SOL     OW29626   2.860   1.620   4.400
 9576SOL    HW129627   2.850   1.589   4.306
 9576SOL    HW229628   2.886   1.716   4.401
 9577SOL     OW29629   0.201   6.537   2.409
 9577SOL    HW129630   0.133   6.484   2.460
 9577SOL    HW229631   0.200   6.632   2.442
 9578SOL     OW29632   6.386   2.630   2.603
 9578SOL    HW129633   6.286   2.637   2.604
 9578SOL    HW229634   6.425   2.722   2.604
 9579SOL     OW29635   1.750   6.913   1.378
 9579SOL    HW129636   1.701   6.985   1.329
 9579SOL    HW229637   1.687   6.837   1.396
 9580SOL     OW29638   4.439   3.893   0.151
 9580SOL    HW129639   4.505   3.953   0.197
 9580SOL    HW229640   4.348   3.933   0.157
 9581SOL     OW29641   1.148   5.049   6.257
 9581SOL    HW129642   1.107   5.132   6.219
 9581SOL    HW229643   1.095   4.970   6.229
 9582SOL     OW29644   4.346   4.724   4.239
 9582SOL    HW129645   4.290   4.693   4.162
 9582SOL    HW229646   4.294   4.713   4.324
 9583SOL     OW29647   2.068   3.538   2.243
 9583SOL    HW129648   1.978   3.566   2.211
 9583SOL    HW229649   2.121   3.504   2.165
 9584SOL     OW29650   6.325   5.152   6.419
 9584SOL    HW129651   6.394   5.080   6.418
 9584SOL    HW229652   6.343   5.216   6.493
 9585SOL     OW29653   6.145   0.035   3.385
 9585SOL    HW129654   6.159   0.051   3.287
 9585SOL    HW229655   6.232   0.047   3.433
 9586SOL     OW29656   5.169   3.523   2.974
 9586SOL    HW129657   5.268   3.538   2.976
 9586SOL    HW229658   5.150   3.427   2.990
 9587SOL     OW29659   6.017   0.109   1.954
 9587SOL    HW129660   6.051   0.105   1.860
 9587SOL    HW229661   5.960   0.029   1.973
 9588SOL     OW29662   0.049   0.566   1.657
 9588SOL    HW129663   0.092   0.531   1.574
 9588SOL    HW229664   0.117   0.611   1.714
 9589SOL     OW29665   2.570   0.402   5.984
 9589SOL    HW129666   2.654   0.455   5.969
 9589SOL    HW229667   2.574   0.318   5.930
 9590SOL     OW29668   0.083   4.503   3.016
 9590SOL    HW129669   0.049   4.568   2.947
 9590SOL    HW229670   0.183   4.504   3.016
 9591SOL     OW29671   2.441   5.728   0.831
 9591SOL    HW129672   2.421   5.797   0.762
 9591SOL    HW229673   2.366   5.662   0.835
 9592SOL     OW29674   4.425   5.541   2.469
 9592SOL    HW129675   4.328   5.537   2.443
 9592SOL    HW229676   4.432   5.555   2.568
 9593SOL     OW29677   6.470   2.652   4.905
 9593SOL    HW129678   6.529   2.716   4.856
 9593SOL    HW229679   6.418   2.597   4.839
 9594SOL     OW29680   6.411   6.712   2.368
 9594SOL    HW129681   6.406   6.627   2.420
 9594SOL    HW229682   6.332   6.719   2.307
 9595SOL     OW29683   1.858   6.016   4.567
 9595SOL    HW129684   1.948   5.980   4.544
 9595SOL    HW229685   1.814   5.957   4.634
 9596SOL     OW29686   6.190   5.870   5.407
 9596SOL    HW129687   6.148   5.944   5.459
 9596SOL    HW229688   6.190   5.787   5.461
 9597SOL     OW29689   1.314   3.951   1.665
 9597SOL    HW129690   1.296   3.969   1.762
 9597SOL    HW229691   1.382   3.878   1.657
 9598SOL     OW29692   6.944   4.598   6.176
 9598SOL    HW129693   6.854   4.642   6.170
 9598SOL    HW229694   6.999   4.643   6.247
 9599SOL     OW29695   4.104   0.765   5.648
 9599SOL    HW129696   4.131   0.793   5.740
 9599SOL    HW229697   4.103   0.846   5.588
 9600SOL     OW29698   1.674   6.711   6.102
 9600SOL    HW129699   1.652   6.803   6.070
 9600SOL    HW229700   1.641   6.644   6.036
 9601SOL     OW29701   0.533   4.625   5.350
 9601SOL    HW129702   0.483   4.678   5.418
 9601SOL    HW229703   0.469   4.573   5.294
 9602SOL     OW29704   0.952   5.246   6.844
 9602SOL    HW129705   0.907   5.251   6.933
 9602SOL    HW229706   0.990   5.335   6.820
 9603SOL     OW29707   1.403   6.054   4.751
 9603SOL    HW129708   1.355   6.114   4.816
 9603SOL    HW229709   1.391   6.090   4.658
 9604SOL     OW29710   5.137   1.463   6.564
 9604SOL    HW129711   5.074   1.385   6.563
 9604SOL    HW229712   5.169   1.479   6.657
 9605SOL     OW29713   2.358   5.572   6.478
 9605SOL    HW129714   2.270   5.563   6.524
 9605SOL    HW229715   2.347   5.555   6.380
 9606SOL     OW29716   0.345   6.239   3.875
 9606SOL    HW129717   0.441   6.214   3.883
 9606SOL    HW229718   0.320   6.251   3.779
 9607SOL     OW29719   1.209   1.537   2.363
 9607SOL    HW129720   1.254   1.597   2.428
 9607SOL    HW229721   1.254   1.448   2.363
 9608SOL     OW29722   0.307   0.000   2.581
 9608SOL    HW129723   0.359   0.045   2.509
 9608SOL    HW229724   0.228   0.056   2.606
 9609SOL     OW29725   2.020   4.429   4.551
 9609SOL    HW129726   2.028   4.495   4.626
 9609SOL    HW229727   2.050   4.339   4.582
 9610SOL     OW29728   2.064   1.570   6.280
 9610SOL    HW129729   2.066   1.642   6.211
 9610SOL    HW229730   2.035   1.608   6.367
 9611SOL     OW29731   6.430   0.369   0.844
 9611SOL    HW129732   6.483   0.441   0.799
 9611SOL    HW229733   6.382   0.406   0.923
 9612SOL     OW29734   5.814   3.358   1.564
 9612SOL    HW129735   5.788   3.342   1.659
 9612SOL    HW229736   5.890   3.298   1.539
 9613SOL     OW29737   6.284   6.373   4.846
 9613SOL    HW129738   6.212   6.429   4.886
 9613SOL    HW229739   6.331   6.322   4.919
 9614SOL     OW29740   3.455   3.768   2.152
 9614SOL    HW129741   3.482   3.794   2.245
 9614SOL    HW229742   3.433   3.670   2.150
 9615SOL     OW29743   1.370   6.129   2.500
 9615SOL    HW129744   1.361   6.225   2.475
 9615SOL    HW229745   1.433   6.084   2.436
 9616SOL     OW29746   3.629   2.257   0.844
 9616SOL    HW129747   3.682   2.182   0.805
 9616SOL    HW229748   3.596   2.317   0.771
 9617SOL     OW29749   1.434   2.936   3.639
 9617SOL    HW129750   1.445   3.034   3.622
 9617SOL    HW229751   1.512   2.903   3.693
 9618SOL     OW29752   3.186   6.060   6.443
 9618SOL    HW129753   3.264   6.024   6.393
 9618SOL    HW229754   3.130   6.116   6.381
 9619SOL     OW29755   2.493   6.041   0.665
 9619SOL    HW129756   2.437   6.120   0.643
 9619SOL    HW229757   2.456   5.960   0.619
 9620SOL     OW29758   3.211   0.972   0.043
 9620SOL    HW129759   3.114   0.971   0.068
 9620SOL    HW229760   3.221   1.012   6.977
 9621SOL     OW29761   0.653   0.789   2.192
 9621SOL    HW129762   0.688   0.875   2.227
 9621SOL    HW229763   0.646   0.794   2.092
 9622SOL     OW29764   5.778   0.101   6.437
 9622SOL    HW129765   5.842   0.137   6.504
 9622SOL    HW229766   5.709   0.045   6.483
 9623SOL     OW29767   4.618   6.119   6.257
 9623SOL    HW129768   4.580   6.192   6.201
 9623SOL    HW229769   4.718   6.124   6.254
 9624SOL     OW29770   4.417   5.705   4.853
 9624SOL    HW129771   4.449   5.798   4.873
 9624SOL    HW229772   4.317   5.703   4.854
 9625SOL     OW29773   5.184   4.256   6.596
 9625SOL    HW129774   5.124   4.323   6.641
 9625SOL    HW229775   5.260   4.304   6.551
 9626SOL     OW29776   1.693   4.330   6.227
 9626SOL    HW129777   1.781   4.283   6.217
 9626SOL    HW229778   1.658   4.354   6.136
 9627SOL     OW29779   1.086   5.441   6.434
 9627SOL    HW129780   1.004   5.493   6.459
 9627SOL    HW229781   1.085   5.352   6.480
 9628SOL     OW29782   5.653   3.908   6.610
 9628SOL    HW129783   5.562   3.891   6.573
 9628SOL    HW229784   5.663   3.861   6.698
 9629SOL     OW29785   0.107   5.784   2.964
 9629SOL    HW129786   0.120   5.686   2.947
 9629SOL    HW229787   0.138   5.836   2.884
 9630SOL     OW29788   6.386   6.570   5.682
 9630SOL    HW129789   6.459   6.507   5.657
 9630SOL    HW229790   6.375   6.570   5.781
 9631SOL     OW29791   4.264   1.329   1.045
 9631SOL    HW129792   4.222   1.419   1.051
 9631SOL    HW229793   4.241   1.275   1.126
 9632SOL     OW29794   3.205   6.509   1.159
 9632SOL    HW129795   3.255   6.446   1.099
 9632SOL    HW229796   3.136   6.457   1.210
 9633SOL     OW29797   4.009   3.101   2.419
 9633SOL    HW129798   3.911   3.104   2.399
 9633SOL    HW229799   4.045   3.194   2.427
 9634SOL     OW29800   5.277   4.854   2.675
 9634SOL    HW129801   5.204   4.920   2.659
 9634SOL    HW229802   5.339   4.852   2.596
 9635SOL     OW29803   1.563   4.064   3.836
 9635SOL    HW129804   1.522   4.061   3.745
 9635SOL    HW229805   1.605   3.975   3.857
 9636SOL     OW29806   4.265   2.120   5.072
 9636SOL    HW129807   4.333   2.126   5.145
 9636SOL    HW229808   4.250   2.212   5.034
 9637SOL     OW29809   2.459   2.783   0.878
 9637SOL    HW129810   2.447   2.820   0.785
 9637SOL    HW229811   2.387   2.716   0.897
 9638SOL     OW29812   0.211   4.423   5.862
 9638SOL    HW129813   0.212   4.380   5.953
 9638SOL    HW229814   0.159   4.366   5.799
 9639SOL     OW29815   4.661   2.008   1.765
 9639SOL    HW129816   4.745   2.012   1.820
 9639SOL    HW229817   4.632   1.912   1.758
 9640SOL     OW29818   3.838   0.842   2.281
 9640SOL    HW129819   3.782   0.794   2.214
 9640SOL    HW229820   3.808   0.937   2.289
 9641SOL     OW29821   5.918   4.695   2.851
 9641SOL    HW129822   5.937   4.786   2.814
 9641SOL    HW229823   5.882   4.637   2.778
 9642SOL     OW29824   1.359   0.366   3.966
 9642SOL    HW129825   1.418   0.390   3.889
 9642SOL    HW229826   1.415   0.340   4.045
 9643SOL     OW29827   5.119   3.919   4.121
 9643SOL    HW129828   5.130   3.989   4.191
 9643SOL    HW229829   5.067   3.956   4.044
 9644SOL     OW29830   1.228   5.660   5.113
 9644SOL    HW129831   1.243   5.715   5.195
 9644SOL    HW229832   1.267   5.707   5.034
 9645SOL     OW29833   1.399   5.496   6.090
 9645SOL    HW129834   1.412   5.408   6.044
 9645SOL    HW229835   1.471   5.508   6.159
 9646SOL     OW29836   2.868   6.689   5.176
 9646SOL    HW129837   2.834   6.602   5.212
 9646SOL    HW229838   2.968   6.691   5.181
 9647SOL     OW29839   6.340   6.243   3.356
 9647SOL    HW129840   6.243   6.266   3.367
 9647SOL    HW229841   6.390   6.274   3.436
 9648SOL     OW29842   4.818   2.006   1.268
 9648SOL    HW129843   4.756   2.078   1.237
 9648SOL    HW229844   4.774   1.950   1.338
 9649SOL     OW29845   2.377   3.398   0.603
 9649SOL    HW129846   2.377   3.491   0.640
 9649SOL    HW229847   2.315   3.393   0.525
 9650SOL     OW29848   6.878   4.910   4.250
 9650SOL    HW129849   6.953   4.875   4.194
 9650SOL    HW229850   6.795   4.859   4.229
 9651SOL     OW29851   2.496   1.482   0.302
 9651SOL    HW129852   2.444   1.469   0.386
 9651SOL    HW229853   2.458   1.422   0.230
 9652SOL     OW29854   0.075   3.946   1.101
 9652SOL    HW129855   0.085   3.928   1.003
 9652SOL    HW229856   0.152   4.001   1.132
 9653SOL     OW29857   4.600   3.768   6.053
 9653SOL    HW129858   4.511   3.777   6.098
 9653SOL    HW229859   4.623   3.672   6.044
 9654SOL     OW29860   3.761   3.148   3.796
 9654SOL    HW129861   3.670   3.109   3.811
 9654SOL    HW229862   3.804   3.103   3.718
 9655SOL     OW29863   5.837   0.615   1.881
 9655SOL    HW129864   5.923   0.617   1.931
 9655SOL    HW229865   5.760   0.624   1.945
 9656SOL     OW29866   6.012   3.716   0.618
 9656SOL    HW129867   6.028   3.785   0.548
 9656SOL    HW229868   6.050   3.747   0.705
 9657SOL     OW29869   5.745   3.619   3.335
 9657SOL    HW129870   5.674   3.688   3.351
 9657SOL    HW229871   5.772   3.620   3.238
 9658SOL     OW29872   4.154   1.428   2.928
 9658SOL    HW129873   4.071   1.403   2.879
 9658SOL    HW229874   4.193   1.511   2.888
 9659SOL     OW29875   3.407   2.560   0.766
 9659SOL    HW129876   3.450   2.512   0.689
 9659SOL    HW229877   3.344   2.629   0.730
 9660SOL     OW29878   0.999   5.859   0.606
 9660SOL    HW129879   0.969   5.832   0.514
 9660SOL    HW229880   1.096   5.840   0.616
 9661SOL     OW29881   5.294   4.955   1.347
 9661SOL    HW129882   5.238   4.981   1.268
 9661SOL    HW229883   5.247   4.884   1.399
 9662SOL     OW29884   5.259   4.549   6.964
 9662SOL    HW129885   5.342   4.526   6.913
 9662SOL    HW229886   5.274   4.534   0.037
 9663SOL     OW29887   1.113   4.135   3.621
 9663SOL    HW129888   1.114   4.202   3.695
 9663SOL    HW229889   1.022   4.095   3.614
 9664SOL     OW29890   5.044   3.678   3.302
 9664SOL    HW129891   5.012   3.643   3.214
 9664SOL    HW229892   5.051   3.778   3.298
 9665SOL     OW29893   6.654   6.589   6.510
 9665SOL    HW129894   6.683   6.645   6.588
 9665SOL    HW229895   6.567   6.623   6.475
 9666SOL     OW29896   6.417   4.462   1.345
 9666SOL    HW129897   6.415   4.370   1.306
 9666SOL    HW229898   6.428   4.528   1.271
 9667SOL     OW29899   4.608   5.706   0.843
 9667SOL    HW129900   4.512   5.681   0.847
 9667SOL    HW229901   4.663   5.625   0.820
 9668SOL     OW29902   1.370   6.223   5.617
 9668SOL    HW129903   1.357   6.182   5.527
 9668SOL    HW229904   1.310   6.302   5.628
 9669SOL     OW29905   2.391   6.856   0.767
 9669SOL    HW129906   2.425   6.798   0.841
 9669SOL    HW229907   2.373   6.799   0.687
 9670SOL     OW29908   0.382   0.531   5.834
 9670SOL    HW129909   0.418   0.479   5.912
 9670SOL    HW229910   0.283   0.538   5.842
 9671SOL     OW29911   0.969   4.938   6.836
 9671SOL    HW129912   1.051   4.888   6.809
 9671SOL    HW229913   0.993   5.033   6.858
 9672SOL     OW29914   0.700   4.486   3.927
 9672SOL    HW129915   0.653   4.417   3.874
 9672SOL    HW229916   0.795   4.459   3.941
 9673SOL     OW29917   3.071   4.432   1.419
 9673SOL    HW129918   2.989   4.375   1.426
 9673SOL    HW229919   3.127   4.400   1.342
 9674SOL     OW29920   3.326   6.311   3.060
 9674SOL    HW129921   3.247   6.323   3.000
 9674SOL    HW229922   3.296   6.309   3.155
 9675SOL     OW29923   4.668   4.136   0.907
 9675SOL    HW129924   4.701   4.069   0.973
 9675SOL    HW229925   4.663   4.226   0.951
 9676SOL     OW29926   1.095   2.788   6.309
 9676SOL    HW129927   1.090   2.762   6.406
 9676SOL    HW229928   1.008   2.769   6.265
 9677SOL     OW29929   6.112   5.027   0.600
 9677SOL    HW129930   6.094   4.963   0.674
 9677SOL    HW229931   6.207   5.016   0.569
 9678SOL     OW29932   3.255   3.857   4.795
 9678SOL    HW129933   3.162   3.831   4.822
 9678SOL    HW229934   3.291   3.789   4.731
 9679SOL     OW29935   2.427   1.952   4.591
 9679SOL    HW129936   2.369   1.932   4.670
 9679SOL    HW229937   2.437   1.869   4.536
 9680SOL     OW29938   4.707   6.180   3.812
 9680SOL    HW129939   4.691   6.269   3.855
 9680SOL    HW229940   4.644   6.113   3.851
 9681SOL     OW29941   2.154   0.902   1.229
 9681SOL    HW129942   2.068   0.865   1.192
 9681SOL    HW229943   2.150   0.901   1.329
 9682SOL     OW29944   5.513   5.125   4.300
 9682SOL    HW129945   5.542   5.102   4.393
 9682SOL    HW229946   5.414   5.140   4.300
 9683SOL     OW29947   1.792   6.568   0.607
 9683SOL    HW129948   1.815   6.503   0.535
 9683SOL    HW229949   1.853   6.647   0.602
 9684SOL     OW29950   1.697   4.308   5.527
 9684SOL    HW129951   1.770   4.240   5.530
 9684SOL    HW229952   1.609   4.262   5.530
 9685SOL     OW29953   4.494   3.690   1.005
 9685SOL    HW129954   4.557   3.658   1.075
 9685SOL    HW229955   4.469   3.613   0.946
 9686SOL     OW29956   6.365   2.287   6.578
 9686SOL    HW129957   6.347   2.253   6.486
 9686SOL    HW229958   6.315   2.372   6.592
 9687SOL     OW29959   6.269   6.797   1.602
 9687SOL    HW129960   6.182   6.751   1.585
 9687SOL    HW229961   6.311   6.824   1.516
 9688SOL     OW29962   1.612   4.672   1.240
 9688SOL    HW129963   1.670   4.734   1.188
 9688SOL    HW229964   1.620   4.580   1.202
 9689SOL     OW29965   1.415   6.252   6.772
 9689SOL    HW129966   1.508   6.222   6.793
 9689SOL    HW229967   1.378   6.196   6.698
 9690SOL     OW29968   4.973   5.138   4.428
 9690SOL    HW129969   4.959   5.076   4.505
 9690SOL    HW229970   5.051   5.198   4.448
 9691SOL     OW29971   3.082   3.918   2.000
 9691SOL    HW129972   3.060   3.882   1.909
 9691SOL    HW229973   3.028   3.870   2.069
 9692SOL     OW29974   4.285   5.203   6.899
 9692SOL    HW129975   4.199   5.159   6.872
 9692SOL    HW229976   4.340   5.138   6.952
 9693SOL     OW29977   5.861   3.771   4.310
 9693SOL    HW129978   5.865   3.673   4.287
 9693SOL    HW229979   5.834   3.781   4.406
 9694SOL     OW29980   2.885   6.805   1.972
 9694SOL    HW129981   2.866   6.721   2.024
 9694SOL    HW229982   2.802   6.860   1.967
 9695SOL     OW29983   0.293   4.003   3.728
 9695SOL    HW129984   0.244   3.927   3.771
 9695SOL    HW229985   0.314   4.072   3.798
 9696SOL     OW29986   5.925   1.747   3.116
 9696SOL    HW129987   5.841   1.771   3.068
 9696SOL    HW229988   6.001   1.743   3.051
 9697SOL     OW29989   6.855   5.997   0.137
 9697SOL    HW129990   6.914   6.076   0.121
 9697SOL    HW229991   6.909   5.913   0.134
 9698SOL     OW29992   5.805   3.344   0.136
 9698SOL    HW129993   5.889   3.310   0.178
 9698SOL    HW229994   5.795   3.306   0.044
 9699SOL     OW29995   1.256   5.623   0.076
 9699SOL    HW129996   1.291   5.716   0.074
 9699SOL    HW229997   1.165   5.622   0.118
 9700SOL     OW29998   6.132   6.922   3.902
 9700SOL    HW129999   6.105   6.965   3.989
 9700SOL    HW230000   6.096   6.976   3.826
 9701SOL     OW30001   4.984   3.174   6.825
 9701SOL    HW130002   4.911   3.119   6.866
 9701SOL    HW230003   4.951   3.216   6.740
 9702SOL     OW30004   3.614   3.125   0.643
 9702SOL    HW130005   3.520   3.102   0.669
 9702SOL    HW230006   3.613   3.200   0.576
 9703SOL     OW30007   6.141   4.161   4.856
 9703SOL    HW130008   6.105   4.254   4.867
 9703SOL    HW230009   6.220   4.149   4.916
 9704SOL     OW30010   3.093   4.881   2.713
 9704SOL    HW130011   3.027   4.847   2.646
 9704SOL    HW230012   3.178   4.906   2.667
 9705SOL     OW30013   6.048   4.188   5.366
 9705SOL    HW130014   6.043   4.286   5.347
 9705SOL    HW230015   6.060   4.173   5.464
 9706SOL     OW30016   1.620   1.180   1.882
 9706SOL    HW130017   1.541   1.223   1.927
 9706SOL    HW230018   1.587   1.115   1.813
 9707SOL     OW30019   6.000   4.863   2.328
 9707SOL    HW130020   5.916   4.859   2.382
 9707SOL    HW230021   6.037   4.771   2.316
 9708SOL     OW30022   1.822   0.924   2.730
 9708SOL    HW130023   1.879   0.898   2.808
 9708SOL    HW230024   1.734   0.878   2.736
 9709SOL     OW30025   5.909   3.412   2.264
 9709SOL    HW130026   5.943   3.326   2.225
 9709SOL    HW230027   5.986   3.476   2.275
 9710SOL     OW30028   6.480   0.005   6.596
 9710SOL    HW130029   6.518   0.080   6.650
 9710SOL    HW230030   6.518   0.009   6.503
 9711SOL     OW30031   3.777   6.151   6.576
 9711SOL    HW130032   3.873   6.180   6.580
 9711SOL    HW230033   3.725   6.215   6.521
 9712SOL     OW30034   5.885   3.085   0.864
 9712SOL    HW130035   5.805   3.142   0.885
 9712SOL    HW230036   5.869   2.992   0.897
 9713SOL     OW30037   1.779   6.353   3.408
 9713SOL    HW130038   1.697   6.321   3.456
 9713SOL    HW230039   1.752   6.398   3.323
 9714SOL     OW30040   3.543   5.227   4.698
 9714SOL    HW130041   3.452   5.269   4.692
 9714SOL    HW230042   3.611   5.296   4.719
 9715SOL     OW30043   6.233   4.640   1.513
 9715SOL    HW130044   6.297   4.589   1.455
 9715SOL    HW230045   6.258   4.737   1.511
 9716SOL     OW30046   4.054   4.203   6.515
 9716SOL    HW130047   4.121   4.161   6.576
 9716SOL    HW230048   3.970   4.149   6.516
 9717SOL     OW30049   4.628   0.278   6.295
 9717SOL    HW130050   4.590   0.236   6.212
 9717SOL    HW230051   4.670   0.208   6.352
 9718SOL     OW30052   3.588   1.811   0.606
 9718SOL    HW130053   3.546   1.739   0.550
 9718SOL    HW230054   3.678   1.835   0.568
 9719SOL     OW30055   4.938   6.441   4.740
 9719SOL    HW130056   4.863   6.430   4.805
 9719SOL    HW230057   5.024   6.452   4.791
 9720SOL     OW30058   1.651   4.083   2.617
 9720SOL    HW130059   1.602   4.002   2.651
 9720SOL    HW230060   1.608   4.165   2.655
 9721SOL     OW30061   0.447   1.734   1.000
 9721SOL    HW130062   0.397   1.654   1.032
 9721SOL    HW230063   0.461   1.727   0.901
 9722SOL     OW30064   3.400   2.525   5.593
 9722SOL    HW130065   3.331   2.506   5.523
 9722SOL    HW230066   3.481   2.566   5.550
 9723SOL     OW30067   6.302   4.999   4.619
 9723SOL    HW130068   6.222   4.974   4.673
 9723SOL    HW230069   6.275   5.059   4.544
 9724SOL     OW30070   1.901   5.578   6.368
 9724SOL    HW130071   1.878   5.502   6.428
 9724SOL    HW230072   1.953   5.545   6.290
 9725SOL     OW30073   3.845   5.545   5.067
 9725SOL    HW130074   3.823   5.639   5.041
 9725SOL    HW230075   3.868   5.492   4.986
 9726SOL     OW30076   5.239   1.086   4.503
 9726SOL    HW130077   5.296   1.005   4.509
 9726SOL    HW230078   5.261   1.137   4.420
 9727SOL     OW30079   0.580   2.332   0.167
 9727SOL    HW130080   0.485   2.360   0.163
 9727SOL    HW230081   0.591   2.260   0.235
 9728SOL     OW30082   5.993   0.926   5.880
 9728SOL    HW130083   6.023   0.963   5.967
 9728SOL    HW230084   6.038   0.975   5.805
 9729SOL     OW30085   1.339   4.003   3.609
 9729SOL    HW130086   1.320   3.926   3.547
 9729SOL    HW230087   1.264   4.069   3.603
 9730SOL     OW30088   0.535   4.084   4.235
 9730SOL    HW130089   0.463   4.146   4.265
 9730SOL    HW230090   0.619   4.136   4.220
 9731SOL     OW30091   5.031   4.029   2.383
 9731SOL    HW130092   4.962   4.056   2.451
 9731SOL    HW230093   5.025   3.931   2.367
 9732SOL     OW30094   1.089   3.187   2.186
 9732SOL    HW130095   1.039   3.116   2.236
 9732SOL    HW230096   1.119   3.258   2.250
 9733SOL     OW30097   6.222   5.730   2.797
 9733SOL    HW130098   6.241   5.775   2.709
 9733SOL    HW230099   6.305   5.686   2.830
 9734SOL     OW30100   6.236   6.653   6.883
 9734SOL    HW130101   6.327   6.653   6.841
 9734SOL    HW230102   6.230   6.577   6.948
 9735SOL     OW30103   1.452   2.215   3.972
 9735SOL    HW130104   1.472   2.211   4.070
 9735SOL    HW230105   1.535   2.194   3.920
 9736SOL     OW30106   5.064   2.051   5.900
 9736SOL    HW130107   4.991   2.043   5.968
 9736SOL    HW230108   5.096   2.146   5.896
 9737SOL     OW30109   5.809   2.166   2.491
 9737SOL    HW130110   5.760   2.171   2.404
 9737SOL    HW230111   5.749   2.196   2.565
 9738SOL     OW30112   1.792   6.749   0.298
 9738SOL    HW130113   1.827   6.735   0.390
 9738SOL    HW230114   1.861   6.721   0.231
 9739SOL     OW30115   4.525   6.202   7.013
 9739SOL    HW130116   4.450   6.240   6.959
 9739SOL    HW230117   4.541   6.107   6.986
 9740SOL     OW30118   5.755   0.775   2.294
 9740SOL    HW130119   5.798   0.864   2.278
 9740SOL    HW230120   5.826   0.705   2.297
 9741SOL     OW30121   2.795   0.951   3.994
 9741SOL    HW130122   2.828   0.872   4.045
 9741SOL    HW230123   2.781   1.028   4.056
 9742SOL     OW30124   4.256   1.653   6.719
 9742SOL    HW130125   4.251   1.671   6.818
 9742SOL    HW230126   4.293   1.561   6.705
 9743SOL     OW30127   0.295   3.163   3.459
 9743SOL    HW130128   0.282   3.073   3.499
 9743SOL    HW230129   0.388   3.172   3.424
 9744SOL     OW30130   2.136   6.926   2.566
 9744SOL    HW130131   2.072   6.968   2.630
 9744SOL    HW230132   2.176   6.996   2.507
 9745SOL     OW30133   5.672   1.721   5.994
 9745SOL    HW130134   5.584   1.716   6.042
 9745SOL    HW230135   5.742   1.756   6.056
 9746SOL     OW30136   4.680   6.843   6.853
 9746SOL    HW130137   4.715   6.763   6.806
 9746SOL    HW230138   4.744   6.870   6.925
 9747SOL     OW30139   2.535   1.590   1.705
 9747SOL    HW130140   2.512   1.687   1.712
 9747SOL    HW230141   2.612   1.569   1.765
 9748SOL     OW30142   6.951   0.371   3.016
 9748SOL    HW130143   6.989   0.453   2.971
 9748SOL    HW230144   6.920   0.395   3.108
 9749SOL     OW30145   0.714   2.428   2.184
 9749SOL    HW130146   0.737   2.332   2.196
 9749SOL    HW230147   0.644   2.437   2.113
 9750SOL     OW30148   6.425   4.741   3.741
 9750SOL    HW130149   6.420   4.653   3.693
 9750SOL    HW230150   6.355   4.803   3.705
 9751SOL     OW30151   2.670   0.128   1.281
 9751SOL    HW130152   2.642   0.162   1.191
 9751SOL    HW230153   2.759   0.083   1.273
 9752SOL     OW30154   4.428   2.447   6.854
 9752SOL    HW130155   4.512   2.499   6.864
 9752SOL    HW230156   4.389   2.462   6.763
 9753SOL     OW30157   0.785   5.687   5.863
 9753SOL    HW130158   0.734   5.773   5.865
 9753SOL    HW230159   0.828   5.673   5.952
 9754SOL     OW30160   3.769   0.732   0.638
 9754SOL    HW130161   3.674   0.727   0.670
 9754SOL    HW230162   3.804   0.639   0.624
 9755SOL     OW30163   3.179   4.053   5.136
 9755SOL    HW130164   3.213   4.078   5.045
 9755SOL    HW230165   3.205   4.123   5.202
 9756SOL     OW30166   5.655   1.458   5.966
 9756SOL    HW130167   5.653   1.414   6.055
 9756SOL    HW230168   5.687   1.553   5.976
 9757SOL     OW30169   6.099   4.517   3.802
 9757SOL    HW130170   6.029   4.458   3.842
 9757SOL    HW230171   6.130   4.584   3.869
 9758SOL     OW30172   1.302   1.336   0.434
 9758SOL    HW130173   1.238   1.276   0.387
 9758SOL    HW230174   1.339   1.403   0.369
 9759SOL     OW30175   0.878   1.696   0.337
 9759SOL    HW130176   0.913   1.616   0.287
 9759SOL    HW230177   0.912   1.779   0.293
 9760SOL     OW30178   5.200   2.442   6.802
 9760SOL    HW130179   5.298   2.423   6.797
 9760SOL    HW230180   5.162   2.400   6.885
 9761SOL     OW30181   1.435   1.045   2.078
 9761SOL    HW130182   1.502   0.987   2.032
 9761SOL    HW230183   1.345   1.002   2.073
 9762SOL     OW30184   2.738   1.962   4.652
 9762SOL    HW130185   2.674   1.915   4.713
 9762SOL    HW230186   2.716   2.060   4.650
 9763SOL     OW30187   6.418   1.469   2.638
 9763SOL    HW130188   6.426   1.413   2.555
 9763SOL    HW230189   6.425   1.566   2.613
 9764SOL     OW30190   6.102   2.603   2.647
 9764SOL    HW130191   6.130   2.538   2.718
 9764SOL    HW230192   6.077   2.552   2.564
 9765SOL     OW30193   6.294   1.555   2.275
 9765SOL    HW130194   6.215   1.603   2.312
 9765SOL    HW230195   6.275   1.529   2.180
 9766SOL     OW30196   2.591   0.291   3.366
 9766SOL    HW130197   2.508   0.307   3.419
 9766SOL    HW230198   2.623   0.378   3.328
 9767SOL     OW30199   2.458   3.131   5.650
 9767SOL    HW130200   2.522   3.079   5.707
 9767SOL    HW230201   2.366   3.093   5.660
 9768SOL     OW30202   5.732   2.389   0.565
 9768SOL    HW130203   5.667   2.383   0.641
 9768SOL    HW230204   5.684   2.417   0.482
 9769SOL     OW30205   3.332   0.725   5.079
 9769SOL    HW130206   3.427   0.718   5.110
 9769SOL    HW230207   3.287   0.802   5.125
 9770SOL     OW30208   3.287   2.090   5.962
 9770SOL    HW130209   3.272   2.000   5.920
 9770SOL    HW230210   3.337   2.148   5.898
 9771SOL     OW30211   2.117   6.849   1.715
 9771SOL    HW130212   2.155   6.857   1.807
 9771SOL    HW230213   2.144   6.762   1.675
 9772SOL     OW30214   2.028   6.011   1.908
 9772SOL    HW130215   2.114   6.021   1.958
 9772SOL    HW230216   1.973   5.939   1.949
 9773SOL     OW30217   5.594   5.191   3.327
 9773SOL    HW130218   5.574   5.279   3.283
 9773SOL    HW230219   5.670   5.201   3.391
 9774SOL     OW30220   0.831   5.342   3.325
 9774SOL    HW130221   0.772   5.416   3.358
 9774SOL    HW230222   0.860   5.286   3.403
 9775SOL     OW30223   2.957   0.376   3.292
 9775SOL    HW130224   3.015   0.439   3.240
 9775SOL    HW230225   2.980   0.382   3.389
 9776SOL     OW30226   1.870   5.224   6.172
 9776SOL    HW130227   1.792   5.215   6.235
 9776SOL    HW230228   1.939   5.155   6.194
 9777SOL     OW30229   5.045   6.327   6.352
 9777SOL    HW130230   5.116   6.371   6.297
 9777SOL    HW230231   5.080   6.310   6.444
 9778SOL     OW30232   0.105   1.984   4.622
 9778SOL    HW130233   0.118   2.053   4.694
 9778SOL    HW230234   0.180   1.991   4.556
 9779SOL     OW30235   0.598   2.870   3.832
 9779SOL    HW130236   0.586   2.901   3.738
 9779SOL    HW230237   0.626   2.774   3.833
 9780SOL     OW30238   1.655   1.326   1.614
 9780SOL    HW130239   1.698   1.377   1.539
 9780SOL    HW230240   1.684   1.364   1.701
 9781SOL     OW30241   1.837   3.670   4.297
 9781SOL    HW130242   1.851   3.746   4.361
 9781SOL    HW230243   1.841   3.583   4.347
 9782SOL     OW30244   0.305   2.052   1.008
 9782SOL    HW130245   0.282   2.144   0.975
 9782SOL    HW230246   0.265   1.984   0.947
 9783SOL     OW30247   4.312   1.881   3.210
 9783SOL    HW130248   4.321   1.920   3.118
 9783SOL    HW230249   4.216   1.876   3.235
 9784SOL     OW30250   3.278   1.295   6.420
 9784SOL    HW130251   3.318   1.298   6.329
 9784SOL    HW230252   3.252   1.201   6.443
 9785SOL     OW30253   6.557   2.612   5.178
 9785SOL    HW130254   6.493   2.619   5.101
 9785SOL    HW230255   6.646   2.649   5.151
 9786SOL     OW30256   2.766   4.459   0.641
 9786SOL    HW130257   2.794   4.379   0.588
 9786SOL    HW230258   2.811   4.541   0.604
 9787SOL     OW30259   3.918   3.552   4.237
 9787SOL    HW130260   3.862   3.634   4.252
 9787SOL    HW230261   3.983   3.542   4.312
 9788SOL     OW30262   0.889   5.767   1.960
 9788SOL    HW130263   0.911   5.698   2.029
 9788SOL    HW230264   0.792   5.790   1.967
 9789SOL     OW30265   2.873   6.749   6.806
 9789SOL    HW130266   2.814   6.678   6.844
 9789SOL    HW230267   2.822   6.834   6.795
 9790SOL     OW30268   6.176   4.800   5.190
 9790SOL    HW130269   6.237   4.876   5.168
 9790SOL    HW230270   6.108   4.830   5.257
 9791SOL     OW30271   0.656   0.280   0.299
 9791SOL    HW130272   0.651   0.360   0.239
 9791SOL    HW230273   0.698   0.204   0.248
 9792SOL     OW30274   4.047   5.234   0.937
 9792SOL    HW130275   4.047   5.305   0.867
 9792SOL    HW230276   4.071   5.275   1.025
 9793SOL     OW30277   4.307   0.547   1.319
 9793SOL    HW130278   4.238   0.568   1.251
 9793SOL    HW230279   4.398   0.566   1.281
 9794SOL     OW30280   4.886   4.532   4.542
 9794SOL    HW130281   4.810   4.572   4.593
 9794SOL    HW230282   4.872   4.433   4.533
 9795SOL     OW30283   0.929   3.178   4.164
 9795SOL    HW130284   0.957   3.082   4.163
 9795SOL    HW230285   0.965   3.224   4.084
 9796SOL     OW30286   4.093   3.746   4.046
 9796SOL    HW130287   4.103   3.771   3.950
 9796SOL    HW230288   4.113   3.649   4.058
 9797SOL     OW30289   2.580   6.222   6.941
 9797SOL    HW130290   2.625   6.163   7.009
 9797SOL    HW230291   2.544   6.303   6.987
 9798SOL     OW30292   2.264   1.708   1.441
 9798SOL    HW130293   2.331   1.636   1.460
 9798SOL    HW230294   2.200   1.716   1.517
 9799SOL     OW30295   3.023   4.324   6.325
 9799SOL    HW130296   2.982   4.244   6.281
 9799SOL    HW230297   2.976   4.407   6.294
 9800SOL     OW30298   5.618   3.159   4.356
 9800SOL    HW130299   5.702   3.105   4.347
 9800SOL    HW230300   5.541   3.098   4.371
 9801SOL     OW30301   4.975   4.634   0.094
 9801SOL    HW130302   4.998   4.568   0.166
 9801SOL    HW230303   5.049   4.637   0.027
 9802SOL     OW30304   4.234   4.689   0.507
 9802SOL    HW130305   4.214   4.628   0.583
 9802SOL    HW230306   4.152   4.701   0.451
 9803SOL     OW30307   1.908   3.354   6.837
 9803SOL    HW130308   1.941   3.442   6.803
 9803SOL    HW230309   1.974   3.282   6.816
 9804SOL     OW30310   6.665   5.989   2.894
 9804SOL    HW130311   6.713   6.038   2.967
 9804SOL    HW230312   6.594   6.047   2.855
 9805SOL     OW30313   1.327   0.051   2.964
 9805SOL    HW130314   1.321   7.004   3.033
 9805SOL    HW230315   1.325   0.009   2.873
 9806SOL     OW30316   2.873   2.923   5.946
 9806SOL    HW130317   2.952   2.904   5.889
 9806SOL    HW230318   2.852   2.844   6.002
 9807SOL     OW30319   3.484   2.815   2.267
 9807SOL    HW130320   3.456   2.719   2.277
 9807SOL    HW230321   3.440   2.855   2.187
 9808SOL     OW30322   4.127   5.423   3.851
 9808SOL    HW130323   4.133   5.488   3.775
 9808SOL    HW230324   4.065   5.349   3.827
 9809SOL     OW30325   0.585   3.304   0.386
 9809SOL    HW130326   0.600   3.221   0.332
 9809SOL    HW230327   0.646   3.376   0.354
 9810SOL     OW30328   2.553   1.937   4.885
 9810SOL    HW130329   2.491   2.012   4.909
 9810SOL    HW230330   2.604   1.909   4.966
 9811SOL     OW30331   6.171   3.427   3.612
 9811SOL    HW130332   6.128   3.495   3.553
 9811SOL    HW230333   6.227   3.473   3.681
 9812SOL     OW30334   2.596   0.111   4.239
 9812SOL    HW130335   2.565   0.162   4.319
 9812SOL    HW230336   2.689   0.077   4.255
 9813SOL     OW30337   5.915   2.600   0.438
 9813SOL    HW130338   6.010   2.588   0.466
 9813SOL    HW230339   5.855   2.560   0.506
 9814SOL     OW30340   5.097   1.899   0.013
 9814SOL    HW130341   5.196   1.912   0.014
 9814SOL    HW230342   5.054   1.972   0.067
 9815SOL     OW30343   4.615   2.458   4.195
 9815SOL    HW130344   4.669   2.464   4.279
 9815SOL    HW230345   4.647   2.381   4.139
 9816SOL     OW30346   0.833   0.146   6.371
 9816SOL    HW130347   0.914   0.117   6.421
 9816SOL    HW230348   0.796   0.069   6.319
 9817SOL     OW30349   0.632   6.760   2.903
 9817SOL    HW130350   0.720   6.731   2.865
 9817SOL    HW230351   0.561   6.755   2.832
 9818SOL     OW30352   6.094   2.120   4.886
 9818SOL    HW130353   6.193   2.116   4.899
 9818SOL    HW230354   6.052   2.036   4.921
 9819SOL     OW30355   4.619   2.662   3.355
 9819SOL    HW130356   4.665   2.717   3.285
 9819SOL    HW230357   4.677   2.656   3.436
 9820SOL     OW30358   3.391   3.480   0.088
 9820SOL    HW130359   3.374   3.381   0.085
 9820SOL    HW230360   3.390   3.517   7.020
 9821SOL     OW30361   6.121   0.291   6.370
 9821SOL    HW130362   6.084   0.289   6.463
 9821SOL    HW230363   6.199   0.353   6.366
 9822SOL     OW30364   0.673   6.936   2.555
 9822SOL    HW130365   0.609   6.989   2.500
 9822SOL    HW230366   0.764   6.978   2.551
 9823SOL     OW30367   3.507   0.181   1.242
 9823SOL    HW130368   3.545   0.273   1.240
 9823SOL    HW230369   3.433   0.174   1.175
 9824SOL     OW30370   1.576   4.359   5.979
 9824SOL    HW130371   1.544   4.326   5.890
 9824SOL    HW230372   1.607   4.454   5.969
 9825SOL     OW30373   3.362   5.268   5.418
 9825SOL    HW130374   3.456   5.293   5.393
 9825SOL    HW230375   3.321   5.215   5.343
 9826SOL     OW30376   4.036   5.794   6.240
 9826SOL    HW130377   4.053   5.770   6.144
 9826SOL    HW230378   4.120   5.780   6.292
 9827SOL     OW30379   2.039   4.283   4.281
 9827SOL    HW130380   1.963   4.335   4.241
 9827SOL    HW230381   2.049   4.308   4.377
 9828SOL     OW30382   3.305   2.691   6.641
 9828SOL    HW130383   3.303   2.689   6.541
 9828SOL    HW230384   3.283   2.784   6.672
 9829SOL     OW30385   2.862   6.822   1.040
 9829SOL    HW130386   2.781   6.765   1.022
 9829SOL    HW230387   2.944   6.774   1.011
 9830SOL     OW30388   5.728   2.300   1.554
 9830SOL    HW130389   5.710   2.222   1.614
 9830SOL    HW230390   5.644   2.352   1.542
 9831SOL     OW30391   1.866   5.970   6.990
 9831SOL    HW130392   1.855   6.067   7.014
 9831SOL    HW230393   1.959   5.941   7.009
 9832SOL     OW30394   4.853   5.521   2.546
 9832SOL    HW130395   4.824   5.594   2.484
 9832SOL    HW230396   4.951   5.503   2.533
 9833SOL     OW30397   3.257   2.841   5.245
 9833SOL    HW130398   3.221   2.754   5.276
 9833SOL    HW230399   3.240   2.911   5.315
 9834SOL     OW30400   2.498   3.962   6.041
 9834SOL    HW130401   2.503   3.890   6.110
 9834SOL    HW230402   2.453   3.927   5.959
 9835SOL     OW30403   3.809   2.683   5.783
 9835SOL    HW130404   3.814   2.616   5.710
 9835SOL    HW230405   3.730   2.743   5.769
 9836SOL     OW30406   6.535   4.120   3.470
 9836SOL    HW130407   6.589   4.179   3.411
 9836SOL    HW230408   6.563   4.025   3.459
 9837SOL     OW30409   2.000   0.288   2.475
 9837SOL    HW130410   2.054   0.350   2.418
 9837SOL    HW230411   2.058   0.252   2.549
 9838SOL     OW30412   0.614   6.944   5.824
 9838SOL    HW130413   0.695   6.891   5.800
 9838SOL    HW230414   0.545   6.935   5.753
 9839SOL     OW30415   6.296   1.308   2.862
 9839SOL    HW130416   6.275   1.369   2.938
 9839SOL    HW230417   6.349   1.357   2.793
 9840SOL     OW30418   0.199   0.775   0.818
 9840SOL    HW130419   0.250   0.703   0.865
 9840SOL    HW230420   0.178   0.745   0.724
 9841SOL     OW30421   1.251   4.839   5.030
 9841SOL    HW130422   1.299   4.904   4.970
 9841SOL    HW230423   1.267   4.746   4.998
 9842SOL     OW30424   3.670   4.128   3.230
 9842SOL    HW130425   3.602   4.066   3.192
 9842SOL    HW230426   3.626   4.186   3.300
 9843SOL     OW30427   6.756   1.781   1.947
 9843SOL    HW130428   6.792   1.687   1.945
 9843SOL    HW230429   6.813   1.837   2.007
 9844SOL     OW30430   4.892   0.316   2.505
 9844SOL    HW130431   4.911   0.330   2.602
 9844SOL    HW230432   4.943   0.383   2.451
 9845SOL     OW30433   2.438   1.545   5.017
 9845SOL    HW130434   2.393   1.597   5.089
 9845SOL    HW230435   2.487   1.608   4.956
 9846SOL     OW30436   3.651   3.353   2.589
 9846SOL    HW130437   3.588   3.419   2.547
 9846SOL    HW230438   3.686   3.291   2.519
 9847SOL     OW30439   3.247   3.231   6.125
 9847SOL    HW130440   3.163   3.177   6.120
 9847SOL    HW230441   3.280   3.232   6.219
 9848SOL     OW30442   3.537   2.252   6.439
 9848SOL    HW130443   3.438   2.234   6.431
 9848SOL    HW230444   3.582   2.170   6.475
 9849SOL     OW30445   6.112   0.701   0.374
 9849SOL    HW130446   6.150   0.618   0.414
 9849SOL    HW230447   6.182   0.749   0.322
 9850SOL     OW30448   5.395   6.218   2.588
 9850SOL    HW130449   5.331   6.150   2.624
 9850SOL    HW230450   5.422   6.193   2.495
 9851SOL     OW30451   4.189   2.014   5.623
 9851SOL    HW130452   4.182   2.113   5.639
 9851SOL    HW230453   4.129   1.989   5.547
 9852SOL     OW30454   4.434   2.076   3.414
 9852SOL    HW130455   4.409   1.999   3.355
 9852SOL    HW230456   4.462   2.041   3.503
 9853SOL     OW30457   4.691   4.451   3.343
 9853SOL    HW130458   4.686   4.505   3.427
 9853SOL    HW230459   4.772   4.476   3.292
 9854SOL     OW30460   5.933   4.756   5.015
 9854SOL    HW130461   5.969   4.756   4.922
 9854SOL    HW230462   6.008   4.775   5.079
 9855SOL     OW30463   2.005   4.504   1.758
 9855SOL    HW130464   1.915   4.548   1.748
 9855SOL    HW230465   2.063   4.529   1.680
 9856SOL     OW30466   5.164   3.969   0.144
 9856SOL    HW130467   5.208   3.974   0.055
 9856SOL    HW230468   5.074   3.927   0.134
 9857SOL     OW30469   4.758   2.305   3.438
 9857SOL    HW130470   4.662   2.331   3.454
 9857SOL    HW230471   4.763   2.248   3.356
 9858SOL     OW30472   6.338   0.974   1.572
 9858SOL    HW130473   6.268   1.029   1.616
 9858SOL    HW230474   6.426   1.021   1.578
 9859SOL     OW30475   6.651   0.030   1.063
 9859SOL    HW130476   6.559   0.045   1.028
 9859SOL    HW230477   6.665   0.085   1.145
 9860SOL     OW30478   6.744   0.807   2.378
 9860SOL    HW130479   6.719   0.875   2.309
 9860SOL    HW230480   6.720   0.716   2.345
 9861SOL     OW30481   2.816   0.111   3.360
 9861SOL    HW130482   2.754   0.033   3.352
 9861SOL    HW230483   2.764   0.193   3.381
 9862SOL     OW30484   2.708   4.206   0.942
 9862SOL    HW130485   2.694   4.110   0.920
 9862SOL    HW230486   2.687   4.263   0.862
 9863SOL     OW30487   3.263   0.165   3.397
 9863SOL    HW130488   3.325   0.152   3.320
 9863SOL    HW230489   3.296   0.111   3.475
 9864SOL     OW30490   4.068   5.603   4.051
 9864SOL    HW130491   4.089   5.537   3.979
 9864SOL    HW230492   4.059   5.694   4.010
 9865SOL     OW30493   1.111   1.254   4.741
 9865SOL    HW130494   1.189   1.192   4.749
 9865SOL    HW230495   1.028   1.206   4.771
 9866SOL     OW30496   5.212   4.338   4.932
 9866SOL    HW130497   5.157   4.388   4.999
 9866SOL    HW230498   5.277   4.400   4.889
 9867SOL     OW30499   6.295   0.520   1.017
 9867SOL    HW130500   6.346   0.538   1.101
 9867SOL    HW230501   6.197   0.514   1.039
 9868SOL     OW30502   1.387   5.028   5.813
 9868SOL    HW130503   1.400   5.014   5.911
 9868SOL    HW230504   1.322   4.960   5.778
 9869SOL     OW30505   1.854   3.257   2.306
 9869SOL    HW130506   1.874   3.266   2.209
 9869SOL    HW230507   1.805   3.339   2.338
 9870SOL     OW30508   4.132   5.969   2.434
 9870SOL    HW130509   4.216   5.917   2.449
 9870SOL    HW230510   4.101   5.957   2.339
 9871SOL     OW30511   0.910   6.871   5.857
 9871SOL    HW130512   0.944   6.824   5.775
 9871SOL    HW230513   0.967   6.952   5.875
 9872SOL     OW30514   3.122   5.114   3.965
 9872SOL    HW130515   3.148   5.040   3.902
 9872SOL    HW230516   3.120   5.079   4.058
 9873SOL     OW30517   2.982   2.404   1.343
 9873SOL    HW130518   2.894   2.442   1.316
 9873SOL    HW230519   3.048   2.478   1.357
 9874SOL     OW30520   0.748   3.240   4.538
 9874SOL    HW130521   0.798   3.299   4.476
 9874SOL    HW230522   0.715   3.159   4.489
 9875SOL     OW30523   0.361   6.525   1.926
 9875SOL    HW130524   0.381   6.431   1.899
 9875SOL    HW230525   0.305   6.525   2.008
 9876SOL     OW30526   6.604   0.896   2.640
 9876SOL    HW130527   6.569   0.913   2.548
 9876SOL    HW230528   6.633   0.801   2.648
 9877SOL     OW30529   0.186   6.449   2.961
 9877SOL    HW130530   0.097   6.478   2.925
 9877SOL    HW230531   0.176   6.359   3.004
 9878SOL     OW30532   2.720   5.439   4.665
 9878SOL    HW130533   2.732   5.340   4.659
 9878SOL    HW230534   2.668   5.472   4.586
 9879SOL     OW30535   5.608   5.658   4.527
 9879SOL    HW130536   5.569   5.711   4.602
 9879SOL    HW230537   5.544   5.657   4.451
 9880SOL     OW30538   2.189   1.982   5.532
 9880SOL    HW130539   2.254   2.006   5.604
 9880SOL    HW230540   2.219   2.023   5.445
 9881SOL     OW30541   2.026   1.064   4.894
 9881SOL    HW130542   1.972   1.103   4.820
 9881SOL    HW230543   2.122   1.093   4.885
 9882SOL     OW30544   1.164   2.230   3.997
 9882SOL    HW130545   1.263   2.247   4.001
 9882SOL    HW230546   1.145   2.135   4.022
 9883SOL     OW30547   1.936   5.118   6.878
 9883SOL    HW130548   1.927   5.091   6.974
 9883SOL    HW230549   2.021   5.169   6.865
 9884SOL     OW30550   3.927   1.659   3.070
 9884SOL    HW130551   4.008   1.625   3.116
 9884SOL    HW230552   3.953   1.726   3.000
 9885SOL     OW30553   6.835   3.304   5.615
 9885SOL    HW130554   6.826   3.366   5.537
 9885SOL    HW230555   6.923   3.319   5.660
 9886SOL     OW30556   0.750   4.527   1.779
 9886SOL    HW130557   0.694   4.445   1.768
 9886SOL    HW230558   0.737   4.564   1.871
 9887SOL     OW30559   3.204   1.235   5.680
 9887SOL    HW130560   3.168   1.167   5.616
 9887SOL    HW230561   3.283   1.196   5.729
 9888SOL     OW30562   6.496   4.035   2.131
 9888SOL    HW130563   6.567   4.071   2.191
 9888SOL    HW230564   6.538   3.999   2.047
 9889SOL     OW30565   7.006   5.161   1.718
 9889SOL    HW130566   6.982   5.078   1.768
 9889SOL    HW230567   0.006   5.137   1.624
 9890SOL     OW30568   1.637   2.061   0.120
 9890SOL    HW130569   1.584   2.141   0.149
 9890SOL    HW230570   1.606   1.981   0.171
 9891SOL     OW30571   5.670   2.917   1.205
 9891SOL    HW130572   5.673   3.006   1.251
 9891SOL    HW230573   5.584   2.908   1.155
 9892SOL     OW30574   6.944   5.212   0.764
 9892SOL    HW130575   6.919   5.222   0.861
 9892SOL    HW230576   6.978   5.299   0.729
 9893SOL     OW30577   1.458   6.781   1.111
 9893SOL    HW130578   1.374   6.735   1.139
 9893SOL    HW230579   1.436   6.849   1.041
 9894SOL     OW30580   2.276   2.568   2.080
 9894SOL    HW130581   2.200   2.617   2.122
 9894SOL    HW230582   2.260   2.558   1.982
 9895SOL     OW30583   6.609   3.569   5.359
 9895SOL    HW130584   6.571   3.628   5.430
 9895SOL    HW230585   6.690   3.523   5.394
 9896SOL     OW30586   6.017   0.531   6.909
 9896SOL    HW130587   6.005   0.536   6.810
 9896SOL    HW230588   6.098   0.583   6.936
 9897SOL     OW30589   6.440   5.602   3.385
 9897SOL    HW130590   6.494   5.668   3.438
 9897SOL    HW230591   6.365   5.649   3.340
 9898SOL     OW30592   1.651   6.071   4.837
 9898SOL    HW130593   1.674   5.977   4.812
 9898SOL    HW230594   1.555   6.089   4.816
 9899SOL     OW30595   0.673   5.649   0.096
 9899SOL    HW130596   0.579   5.677   0.077
 9899SOL    HW230597   0.731   5.671   0.018
 9900SOL     OW30598   1.638   3.796   3.352
 9900SOL    HW130599   1.624   3.841   3.264
 9900SOL    HW230600   1.666   3.701   3.336
 9901SOL     OW30601   3.094   0.849   6.049
 9901SOL    HW130602   3.045   0.809   5.971
 9901SOL    HW230603   3.081   0.948   6.049
 9902SOL     OW30604   3.323   5.049   0.608
 9902SOL    HW130605   3.325   5.112   0.685
 9902SOL    HW230606   3.393   4.979   0.620
 9903SOL     OW30607   5.220   1.464   2.030
 9903SOL    HW130608   5.212   1.384   1.971
 9903SOL    HW230609   5.154   1.533   2.002
 9904SOL     OW30610   1.387   4.459   0.005
 9904SOL    HW130611   1.359   4.383   0.064
 9904SOL    HW230612   1.319   4.532   0.010
 9905SOL     OW30613   2.475   0.274   6.222
 9905SOL    HW130614   2.524   0.317   6.146
 9905SOL    HW230615   2.436   0.188   6.191
 9906SOL     OW30616   2.591   3.415   1.748
 9906SOL    HW130617   2.532   3.461   1.814
 9906SOL    HW230618   2.577   3.316   1.754
 9907SOL     OW30619   6.689   0.147   1.300
 9907SOL    HW130620   6.785   0.119   1.309
 9907SOL    HW230621   6.685   0.242   1.270
 9908SOL     OW30622   5.082   1.839   4.501
 9908SOL    HW130623   5.109   1.853   4.406
 9908SOL    HW230624   5.037   1.921   4.536
 9909SOL     OW30625   4.122   0.734   3.839
 9909SOL    HW130626   4.222   0.725   3.842
 9909SOL    HW230627   4.081   0.644   3.823
 9910SOL     OW30628   1.508   4.118   2.929
 9910SOL    HW130629   1.409   4.127   2.935
 9910SOL    HW230630   1.548   4.206   2.906
 9911SOL     OW30631   3.302   6.305   2.045
 9911SOL    HW130632   3.262   6.393   2.070
 9911SOL    HW230633   3.230   6.239   2.024
 9912SOL     OW30634   3.966   0.988   1.451
 9912SOL    HW130635   4.061   0.972   1.477
 9912SOL    HW230636   3.914   0.902   1.456
 9913SOL     OW30637   6.381   4.160   1.282
 9913SOL    HW130638   6.455   4.092   1.276
 9913SOL    HW230639   6.360   4.193   1.190
 9914SOL     OW30640   5.503   1.954   4.573
 9914SOL    HW130641   5.472   2.011   4.497
 9914SOL    HW230642   5.597   1.924   4.557
 9915SOL     OW30643   5.002   0.826   3.849
 9915SOL    HW130644   4.971   0.855   3.939
 9915SOL    HW230645   4.926   0.827   3.785
 9916SOL     OW30646   2.117   2.740   3.383
 9916SOL    HW130647   2.141   2.682   3.306
 9916SOL    HW230648   2.137   2.692   3.469
 9917SOL     OW30649   5.628   3.944   7.021
 9917SOL    HW130650   5.704   3.959   0.058
 9917SOL    HW230651   5.651   3.872   6.956
 9918SOL     OW30652   3.361   1.454   3.682
 9918SOL    HW130653   3.413   1.462   3.767
 9918SOL    HW230654   3.343   1.546   3.646
 9919SOL     OW30655   6.520   5.055   1.828
 9919SOL    HW130656   6.529   4.976   1.768
 9919SOL    HW230657   6.607   5.105   1.831
 9920SOL     OW30658   4.881   1.574   1.878
 9920SOL    HW130659   4.801   1.557   1.936
 9920SOL    HW230660   4.946   1.632   1.928
 9921SOL     OW30661   3.974   0.092   5.369
 9921SOL    HW130662   4.056   0.092   5.311
 9921SOL    HW230663   3.999   0.062   5.461
 9922SOL     OW30664   2.856   3.961   0.404
 9922SOL    HW130665   2.865   3.909   0.319
 9922SOL    HW230666   2.944   3.960   0.453
 9923SOL     OW30667   5.061   4.737   6.770
 9923SOL    HW130668   5.087   4.640   6.769
 9923SOL    HW230669   5.139   4.792   6.800
 9924SOL     OW30670   6.568   2.145   5.123
 9924SOL    HW130671   6.631   2.222   5.128
 9924SOL    HW230672   6.614   2.068   5.079
 9925SOL     OW30673   6.786   2.989   4.287
 9925SOL    HW130674   6.784   3.009   4.189
 9925SOL    HW230675   6.751   2.897   4.303
 9926SOL     OW30676   4.045   2.298   0.787
 9926SOL    HW130677   4.088   2.225   0.839
 9926SOL    HW230678   3.966   2.333   0.837
 9927SOL     OW30679   0.117   6.360   0.285
 9927SOL    HW130680   0.075   6.382   0.373
 9927SOL    HW230681   0.212   6.334   0.299
 9928SOL     OW30682   5.259   4.563   2.467
 9928SOL    HW130683   5.309   4.649   2.462
 9928SOL    HW230684   5.277   4.519   2.555
 9929SOL     OW30685   3.153   4.495   5.533
 9929SOL    HW130686   3.081   4.564   5.532
 9929SOL    HW230687   3.123   4.415   5.480
 9930SOL     OW30688   6.749   6.393   4.923
 9930SOL    HW130689   6.786   6.468   4.979
 9930SOL    HW230690   6.823   6.352   4.870
 9931SOL     OW30691   0.467   5.697   4.029
 9931SOL    HW130692   0.518   5.763   3.973
 9931SOL    HW230693   0.435   5.742   4.112
 9932SOL     OW30694   3.180   4.363   0.084
 9932SOL    HW130695   3.108   4.403   0.141
 9932SOL    HW230696   3.167   4.265   0.077
 9933SOL     OW30697   0.448   6.132   3.600
 9933SOL    HW130698   0.403   6.053   3.642
 9933SOL    HW230699   0.463   6.114   3.503
 9934SOL     OW30700   5.589   2.138   5.657
 9934SOL    HW130701   5.591   2.117   5.755
 9934SOL    HW230702   5.516   2.085   5.613
 9935SOL     OW30703   2.284   6.538   6.939
 9935SOL    HW130704   2.287   6.536   6.839
 9935SOL    HW230705   2.368   6.497   6.975
 9936SOL     OW30706   6.461   5.571   6.765
 9936SOL    HW130707   6.483   5.569   6.862
 9936SOL    HW230708   6.423   5.660   6.741
 9937SOL     OW30709   6.244   1.448   0.647
 9937SOL    HW130710   6.262   1.455   0.746
 9937SOL    HW230711   6.172   1.512   0.621
 9938SOL     OW30712   6.915   5.404   2.625
 9938SOL    HW130713   6.873   5.406   2.716
 9938SOL    HW230714   6.984   5.332   2.622
 9939SOL     OW30715   4.279   2.408   0.677
 9939SOL    HW130716   4.186   2.386   0.706
 9939SOL    HW230717   4.340   2.406   0.756
 9940SOL     OW30718   1.166   0.576   1.084
 9940SOL    HW130719   1.110   0.503   1.045
 9940SOL    HW230720   1.163   0.656   1.024
 9941SOL     OW30721   3.007   4.093   5.497
 9941SOL    HW130722   3.095   4.063   5.534
 9941SOL    HW230723   3.022   4.160   5.424
 9942SOL     OW30724   2.696   5.437   2.261
 9942SOL    HW130725   2.624   5.377   2.224
 9942SOL    HW230726   2.751   5.473   2.185
 9943SOL     OW30727   0.111   4.506   5.320
 9943SOL    HW130728   0.190   4.456   5.356
 9943SOL    HW230729   0.031   4.488   5.377
 9944SOL     OW30730   1.527   4.685   6.588
 9944SOL    HW130731   1.586   4.643   6.657
 9944SOL    HW230732   1.460   4.617   6.557
 9945SOL     OW30733   5.749   5.363   6.554
 9945SOL    HW130734   5.808   5.430   6.599
 9945SOL    HW230735   5.658   5.403   6.540
 9946SOL     OW30736   4.855   1.193   3.613
 9946SOL    HW130737   4.810   1.166   3.528
 9946SOL    HW230738   4.788   1.198   3.687
 9947SOL     OW30739   1.678   2.849   5.135
 9947SOL    HW130740   1.682   2.768   5.193
 9947SOL    HW230741   1.771   2.881   5.115
 9948SOL     OW30742   5.245   4.058   4.893
 9948SOL    HW130743   5.269   4.155   4.896
 9948SOL    HW230744   5.315   4.006   4.943
 9949SOL     OW30745   6.953   5.051   4.482
 9949SOL    HW130746   6.935   5.007   4.394
 9949SOL    HW230747   6.976   4.981   4.550
 9950SOL     OW30748   5.649   5.974   4.977
 9950SOL    HW130749   5.579   5.914   5.015
 9950SOL    HW230750   5.740   5.939   5.003
 9951SOL     OW30751   6.864   0.465   4.667
 9951SOL    HW130752   6.941   0.446   4.605
 9951SOL    HW230753   6.850   0.387   4.727
 9952SOL     OW30754   1.076   3.733   1.319
 9952SOL    HW130755   1.002   3.797   1.299
 9952SOL    HW230756   1.149   3.746   1.251
 9953SOL     OW30757   5.756   2.951   4.255
 9953SOL    HW130758   5.769   2.864   4.304
 9953SOL    HW230759   5.684   2.940   4.186
 9954SOL     OW30760   6.367   0.463   6.189
 9954SOL    HW130761   6.422   0.509   6.259
 9954SOL    HW230762   6.427   0.408   6.131
 9955SOL     OW30763   6.163   3.504   5.176
 9955SOL    HW130764   6.141   3.553   5.092
 9955SOL    HW230765   6.262   3.509   5.192
 9956SOL     OW30766   1.604   0.064   2.600
 9956SOL    HW130767   1.612   0.055   2.699
 9956SOL    HW230768   1.511   0.041   2.571
 9957SOL     OW30769   5.140   5.514   2.487
 9957SOL    HW130770   5.175   5.443   2.549
 9957SOL    HW230771   5.163   5.604   2.523
 9958SOL     OW30772   4.040   5.513   0.833
 9958SOL    HW130773   4.060   5.608   0.858
 9958SOL    HW230774   4.059   5.500   0.736
 9959SOL     OW30775   4.098   3.712   5.234
 9959SOL    HW130776   4.111   3.713   5.135
 9959SOL    HW230777   4.151   3.786   5.275
 9960SOL     OW30778   0.192   6.861   2.278
 9960SOL    HW130779   0.258   6.787   2.271
 9960SOL    HW230780   0.229   6.934   2.335
 9961SOL     OW30781   1.312   5.314   4.425
 9961SOL    HW130782   1.356   5.237   4.472
 9961SOL    HW230783   1.342   5.400   4.466
 9962SOL     OW30784   6.296   0.067   2.806
 9962SOL    HW130785   6.358   7.022   2.769
 9962SOL    HW230786   6.277   0.046   2.902
 9963SOL     OW30787   3.088   3.096   6.579
 9963SOL    HW130788   3.041   3.075   6.493
 9963SOL    HW230789   3.021   3.120   6.649
 9964SOL     OW30790   4.888   5.093   5.629
 9964SOL    HW130791   4.828   5.050   5.561
 9964SOL    HW230792   4.983   5.089   5.596
 9965SOL     OW30793   3.612   6.522   6.330
 9965SOL    HW130794   3.651   6.595   6.273
 9965SOL    HW230795   3.610   6.551   6.426
 9966SOL     OW30796   1.667   5.572   1.750
 9966SOL    HW130797   1.726   5.650   1.727
 9966SOL    HW230798   1.697   5.491   1.700
 9967SOL     OW30799   0.603   6.653   1.809
 9967SOL    HW130800   0.505   6.662   1.791
 9967SOL    HW230801   0.635   6.730   1.864
 9968SOL     OW30802   3.757   3.937   1.293
 9968SOL    HW130803   3.699   3.888   1.357
 9968SOL    HW230804   3.790   4.021   1.335
 9969SOL     OW30805   1.667   2.705   2.417
 9969SOL    HW130806   1.611   2.777   2.375
 9969SOL    HW230807   1.684   2.632   2.351
 9970SOL     OW30808   5.330   3.906   2.486
 9970SOL    HW130809   5.255   3.914   2.420
 9970SOL    HW230810   5.386   3.989   2.482
 9971SOL     OW30811   2.017   5.486   1.740
 9971SOL    HW130812   2.090   5.420   1.720
 9971SOL    HW230813   1.931   5.453   1.703
 9972SOL     OW30814   4.895   4.583   1.758
 9972SOL    HW130815   4.968   4.532   1.712
 9972SOL    HW230816   4.839   4.519   1.812
 9973SOL     OW30817   5.326   2.041   3.646
 9973SOL    HW130818   5.376   2.113   3.695
 9973SOL    HW230819   5.390   1.990   3.589
 9974SOL     OW30820   0.555   2.672   2.632
 9974SOL    HW130821   0.536   2.761   2.590
 9974SOL    HW230822   0.489   2.656   2.705
 9975SOL     OW30823   6.058   4.386   6.991
 9975SOL    HW130824   6.055   4.396   0.065
 9975SOL    HW230825   6.135   4.326   6.966
 9976SOL     OW30826   1.144   6.402   5.601
 9976SOL    HW130827   1.118   6.348   5.681
 9976SOL    HW230828   1.072   6.400   5.533
 9977SOL     OW30829   0.211   5.153   5.581
 9977SOL    HW130830   0.145   5.090   5.539
 9977SOL    HW230831   0.215   5.135   5.680
 9978SOL     OW30832   0.304   2.508   4.546
 9978SOL    HW130833   0.334   2.559   4.627
 9978SOL    HW230834   0.218   2.547   4.513
 9979SOL     OW30835   6.048   5.144   5.592
 9979SOL    HW130836   6.057   5.244   5.593
 9979SOL    HW230837   5.989   5.116   5.517
 9980SOL     OW30838   1.998   1.024   6.049
 9980SOL    HW130839   1.932   1.084   6.004
 9980SOL    HW230840   1.955   0.936   6.070
 9981SOL     OW30841   2.664   1.286   3.076
 9981SOL    HW130842   2.638   1.203   3.126
 9981SOL    HW230843   2.747   1.269   3.024
 9982SOL     OW30844   6.482   6.498   4.310
 9982SOL    HW130845   6.438   6.457   4.390
 9982SOL    HW230846   6.577   6.520   4.333
 9983SOL     OW30847   6.706   1.898   2.585
 9983SOL    HW130848   6.631   1.918   2.649
 9983SOL    HW230849   6.724   1.800   2.584
 9984SOL     OW30850   2.050   0.788   0.087
 9984SOL    HW130851   2.149   0.802   0.092
 9984SOL    HW230852   2.027   0.744   0.000
 9985SOL     OW30853   0.896   0.825   1.193
 9985SOL    HW130854   0.911   0.734   1.232
 9985SOL    HW230855   0.836   0.877   1.254
 9986SOL     OW30856   5.358   4.209   6.076
 9986SOL    HW130857   5.404   4.248   5.997
 9986SOL    HW230858   5.294   4.276   6.114
 9987SOL     OW30859   0.376   3.186   4.473
 9987SOL    HW130860   0.396   3.133   4.391
 9987SOL    HW230861   0.442   3.163   4.544
 9988SOL     OW30862   6.706   5.745   4.218
 9988SOL    HW130863   6.700   5.701   4.128
 9988SOL    HW230864   6.800   5.742   4.250
 9989SOL     OW30865   6.575   3.517   3.835
 9989SOL    HW130866   6.564   3.531   3.736
 9989SOL    HW230867   6.664   3.474   3.852
 9990SOL     OW30868   2.186   5.371   2.433
 9990SOL    HW130869   2.229   5.309   2.498
 9990SOL    HW230870   2.254   5.401   2.366
 9991SOL     OW30871   2.167   2.436   3.869
 9991SOL    HW130872   2.227   2.433   3.949
 9991SOL    HW230873   2.134   2.529   3.856
 9992SOL     OW30874   5.627   5.285   6.900
 9992SOL    HW130875   5.696   5.252   6.835
 9992SOL    HW230876   5.673   5.331   6.976
 9993SOL     OW30877   3.067   1.152   0.640
 9993SOL    HW130878   3.047   1.221   0.571
 9993SOL    HW230879   3.017   1.068   0.618
 9994SOL     OW30880   6.202   4.476   3.156
 9994SOL    HW130881   6.106   4.479   3.127
 9994SOL    HW230882   6.215   4.402   3.222
 9995SOL     OW30883   4.416   1.055   2.982
 9995SOL    HW130884   4.399   1.148   3.013
 9995SOL    HW230885   4.490   1.055   2.915
 9996SOL     OW30886   3.106   3.135   0.775
 9996SOL    HW130887   3.188   3.079   0.764
 9996SOL    HW230888   3.046   3.122   0.696
 9997SOL     OW30889   3.262   1.667   6.403
 9997SOL    HW130890   3.342   1.622   6.443
 9997SOL    HW230891   3.288   1.757   6.368
 9998SOL     OW30892   5.571   4.751   5.842
 9998SOL    HW130893   5.551   4.823   5.909
 9998SOL    HW230894   5.638   4.785   5.776
 9999SOL     OW30895   6.053   2.964   5.936
 9999SOL    HW130896   5.964   2.986   5.896
 9999SOL    HW230897   6.125   3.014   5.888
10000SOL     OW30898   0.162   4.868   7.008
10000SOL    HW130899   0.077   4.868   6.955
10000SOL    HW230900   0.240   4.859   6.945
10001SOL     OW30901   5.178   6.647   2.206
10001SOL    HW130902   5.079   6.664   2.204
10001SOL    HW230903   5.209   6.643   2.301
10002SOL     OW30904   1.005   0.122   2.747
10002SOL    HW130905   0.970   0.106   2.655
10002SOL    HW230906   1.053   0.210   2.749
10003SOL     OW30907   3.944   1.918   3.667
10003SOL    HW130908   3.888   1.923   3.584
10003SOL    HW230909   4.036   1.953   3.647
10004SOL     OW30910   6.978   2.463   4.168
10004SOL    HW130911   6.995   2.470   4.266
10004SOL    HW230912   6.974   2.554   4.128
10005SOL     OW30913   5.481   0.298   4.717
10005SOL    HW130914   5.532   0.367   4.767
10005SOL    HW230915   5.544   0.232   4.677
10006SOL     OW30916   5.112   5.523   4.467
10006SOL    HW130917   5.176   5.566   4.531
10006SOL    HW230918   5.018   5.535   4.499
10007SOL     OW30919   6.650   4.527   5.371
10007SOL    HW130920   6.563   4.555   5.411
10007SOL    HW230921   6.656   4.428   5.369
10008SOL     OW30922   3.795   1.229   5.090
10008SOL    HW130923   3.826   1.153   5.148
10008SOL    HW230924   3.818   1.209   4.995
10009SOL     OW30925   1.973   3.887   1.948
10009SOL    HW130926   2.050   3.834   1.911
10009SOL    HW230927   1.945   3.956   1.881
10010SOL     OW30928   2.189   0.860   5.695
10010SOL    HW130929   2.092   0.871   5.674
10010SOL    HW230930   2.203   0.860   5.794
10011SOL     OW30931   6.127   0.737   5.710
10011SOL    HW130932   6.093   0.806   5.774
10011SOL    HW230933   6.227   0.743   5.706
10012SOL     OW30934   5.470   1.300   3.092
10012SOL    HW130935   5.530   1.221   3.100
10012SOL    HW230936   5.512   1.368   3.031
10013SOL     OW30937   0.074   1.217   3.613
10013SOL    HW130938   0.114   1.218   3.521
10013SOL    HW230939   0.139   1.255   3.678
10014SOL     OW30940   0.067   4.152   0.500
10014SOL    HW130941   0.124   4.077   0.534
10014SOL    HW230942   0.125   4.230   0.478
10015SOL     OW30943   2.558   4.928   0.520
10015SOL    HW130944   2.559   4.875   0.605
10015SOL    HW230945   2.574   5.024   0.540
10016SOL     OW30946   0.751   1.746   6.328
10016SOL    HW130947   0.832   1.693   6.353
10016SOL    HW230948   0.678   1.684   6.301
10017SOL     OW30949   2.851   1.945   3.079
10017SOL    HW130950   2.766   1.919   3.124
10017SOL    HW230951   2.847   2.042   3.055
10018SOL     OW30952   4.752   0.800   6.304
10018SOL    HW130953   4.795   0.816   6.393
10018SOL    HW230954   4.735   0.702   6.293
10019SOL     OW30955   0.450   1.415   2.929
10019SOL    HW130956   0.524   1.364   2.886
10019SOL    HW230957   0.376   1.430   2.863
10020SOL     OW30958   2.283   2.070   1.220
10020SOL    HW130959   2.229   2.001   1.172
10020SOL    HW230960   2.267   2.062   1.319
10021SOL     OW30961   0.255   2.713   1.396
10021SOL    HW130962   0.233   2.677   1.486
10021SOL    HW230963   0.223   2.650   1.325
10022SOL     OW30964   2.752   1.568   6.044
10022SOL    HW130965   2.667   1.549   5.996
10022SOL    HW230966   2.806   1.634   5.991
10023SOL     OW30967   6.882   4.941   1.021
10023SOL    HW130968   6.910   4.938   0.925
10023SOL    HW230969   6.794   4.988   1.029
10024SOL     OW30970   2.270   6.402   2.528
10024SOL    HW130971   2.274   6.446   2.439
10024SOL    HW230972   2.341   6.441   2.588
10025SOL     OW30973   1.577   0.594   0.753
10025SOL    HW130974   1.620   0.651   0.824
10025SOL    HW230975   1.544   0.652   0.679
10026SOL     OW30976   4.960   6.689   3.419
10026SOL    HW130977   4.998   6.770   3.463
10026SOL    HW230978   4.911   6.716   3.336
10027SOL     OW30979   6.206   3.588   4.695
10027SOL    HW130980   6.252   3.631   4.617
10027SOL    HW230981   6.124   3.541   4.662
10028SOL     OW30982   1.044   0.190   2.012
10028SOL    HW130983   1.130   0.234   2.038
10028SOL    HW230984   0.987   0.254   1.961
10029SOL     OW30985   5.025   2.361   3.911
10029SOL    HW130986   4.988   2.324   3.825
10029SOL    HW230987   5.100   2.303   3.942
10030SOL     OW30988   2.247   1.144   3.040
10030SOL    HW130989   2.242   1.242   3.058
10030SOL    HW230990   2.340   1.119   3.014
10031SOL     OW30991   5.597   4.471   4.628
10031SOL    HW130992   5.551   4.557   4.652
10031SOL    HW230993   5.530   4.397   4.624
10032SOL     OW30994   2.881   1.435   5.439
10032SOL    HW130995   2.842   1.378   5.511
10032SOL    HW230996   2.876   1.386   5.352
10033SOL     OW30997   6.909   3.255   4.384
10033SOL    HW130998   6.855   3.171   4.375
10033SOL    HW230999   6.937   3.266   4.479
10034SOL     OW31000   3.862   0.286   4.267
10034SOL    HW131001   3.764   0.307   4.273
10034SOL    HW231002   3.879   0.230   4.186
10035SOL     OW31003   6.730   5.353   1.648
10035SOL    HW131004   6.738   5.285   1.720
10035SOL    HW231005   6.782   5.434   1.673
10036SOL     OW31006   6.262   1.931   0.912
10036SOL    HW131007   6.303   1.916   1.002
10036SOL    HW231008   6.163   1.916   0.917
10037SOL     OW31009   6.827   1.503   6.785
10037SOL    HW131010   6.816   1.419   6.732
10037SOL    HW231011   6.759   1.570   6.755
10038SOL     OW31012   5.970   0.203   0.405
10038SOL    HW131013   5.926   0.245   0.326
10038SOL    HW231014   5.919   0.226   0.488
10039SOL     OW31015   3.425   0.812   3.258
10039SOL    HW131016   3.502   0.871   3.280
10039SOL    HW231017   3.441   0.721   3.296
10040SOL     OW31018   5.691   4.878   6.999
10040SOL    HW131019   5.766   4.820   0.008
10040SOL    HW231020   5.633   4.824   6.937
10041SOL     OW31021   3.335   5.858   0.344
10041SOL    HW131022   3.340   5.860   0.245
10041SOL    HW231023   3.367   5.769   0.377
10042SOL     OW31024   0.071   1.926   3.593
10042SOL    HW131025   0.075   2.025   3.583
10042SOL    HW231026   7.003   1.898   3.615
10043SOL     OW31027   6.333   1.390   5.483
10043SOL    HW131028   6.310   1.293   5.472
10043SOL    HW231029   6.372   1.404   5.574
10044SOL     OW31030   2.529   3.402   6.215
10044SOL    HW131031   2.437   3.387   6.252
10044SOL    HW231032   2.546   3.335   6.143
10045SOL     OW31033   4.142   1.087   0.829
10045SOL    HW131034   4.226   1.127   0.792
10045SOL    HW231035   4.138   0.991   0.804
10046SOL     OW31036   1.797   3.615   1.009
10046SOL    HW131037   1.753   3.679   0.946
10046SOL    HW231038   1.767   3.634   1.103
10047SOL     OW31039   0.965   3.369   6.165
10047SOL    HW131040   0.925   3.393   6.253
10047SOL    HW231041   1.061   3.398   6.163
10048SOL     OW31042   0.051   6.677   2.760
10048SOL    HW131043   0.021   6.771   2.777
10048SOL    HW231044   7.019   6.614   2.814
10049SOL     OW31045   0.285   2.114   6.119
10049SOL    HW131046   0.234   2.174   6.180
10049SOL    HW231047   0.371   2.088   6.163
10050SOL     OW31048   5.162   3.760   5.122
10050SOL    HW131049   5.234   3.763   5.192
10050SOL    HW231050   5.202   3.739   5.033
10051SOL     OW31051   1.006   3.971   5.158
10051SOL    HW131052   1.033   4.067   5.158
10051SOL    HW231053   0.907   3.964   5.173
10052SOL     OW31054   1.238   0.832   3.619
10052SOL    HW131055   1.151   0.882   3.616
10052SOL    HW231056   1.223   0.738   3.588
10053SOL     OW31057   5.004   5.376   4.050
10053SOL    HW131058   4.931   5.327   4.098
10053SOL    HW231059   5.085   5.318   4.044
10054SOL     OW31060   6.053   4.368   4.390
10054SOL    HW131061   6.102   4.321   4.463
10054SOL    HW231062   5.958   4.384   4.417
10055SOL     OW31063   6.361   2.620   6.681
10055SOL    HW131064   6.451   2.640   6.720
10055SOL    HW231065   6.305   2.574   6.749
10056SOL     OW31066   5.340   3.476   3.318
10056SOL    HW131067   5.360   3.544   3.247
10056SOL    HW231068   5.419   3.468   3.379
10057SOL     OW31069   5.843   4.005   6.089
10057SOL    HW131070   5.937   4.039   6.092
10057SOL    HW231071   5.842   3.907   6.110
10058SOL     OW31072   6.619   3.086   4.521
10058SOL    HW131073   6.585   3.003   4.566
10058SOL    HW231074   6.554   3.160   4.535
10059SOL     OW31075   5.990   1.562   0.605
10059SOL    HW131076   5.970   1.470   0.640
10059SOL    HW231077   5.990   1.560   0.505
10060SOL     OW31078   2.815   1.866   2.772
10060SOL    HW131079   2.901   1.848   2.822
10060SOL    HW231080   2.739   1.828   2.824
10061SOL     OW31081   4.394   1.465   3.658
10061SOL    HW131082   4.488   1.467   3.690
10061SOL    HW231083   4.334   1.503   3.729
10062SOL     OW31084   0.565   6.801   3.683
10062SOL    HW131085   0.564   6.829   3.779
10062SOL    HW231086   0.530   6.876   3.627
10063SOL     OW31087   1.919   2.148   4.859
10063SOL    HW131088   1.829   2.188   4.875
10063SOL    HW231089   1.910   2.066   4.802
10064SOL     OW31090   3.337   6.302   0.157
10064SOL    HW131091   3.362   6.356   0.238
10064SOL    HW231092   3.381   6.341   0.076
10065SOL     OW31093   1.106   0.483   1.550
10065SOL    HW131094   1.117   0.387   1.572
10065SOL    HW231095   1.194   0.530   1.557
10066SOL     OW31096   0.103   3.592   5.372
10066SOL    HW131097   0.167   3.659   5.409
10066SOL    HW231098   0.131   3.567   5.279
10067SOL     OW31099   0.684   2.956   6.698
10067SOL    HW131100   0.667   2.878   6.758
10067SOL    HW231101   0.700   3.038   6.754
10068SOL     OW31102   1.734   3.034   2.426
10068SOL    HW131103   1.745   3.125   2.385
10068SOL    HW231104   1.637   3.018   2.443
10069SOL     OW31105   3.629   4.987   1.623
10069SOL    HW131106   3.565   5.032   1.561
10069SOL    HW231107   3.720   4.985   1.580
10070SOL     OW31108   2.602   6.107   4.613
10070SOL    HW131109   2.609   6.063   4.524
10070SOL    HW231110   2.579   6.038   4.682
10071SOL     OW31111   0.369   6.619   3.661
10071SOL    HW131112   0.428   6.694   3.689
10071SOL    HW231113   0.417   6.561   3.595
10072SOL     OW31114   6.729   1.201   2.712
10072SOL    HW131115   6.699   1.105   2.718
10072SOL    HW231116   6.702   1.250   2.795
10073SOL     OW31117   6.292   2.837   4.003
10073SOL    HW131118   6.224   2.774   3.966
10073SOL    HW231119   6.278   2.928   3.965
10074SOL     OW31120   2.307   4.841   0.449
10074SOL    HW131121   2.318   4.762   0.388
10074SOL    HW231122   2.390   4.896   0.447
10075SOL     OW31123   2.129   1.795   2.334
10075SOL    HW131124   2.047   1.852   2.321
10075SOL    HW231125   2.183   1.796   2.249
10076SOL     OW31126   4.820   5.437   3.469
10076SOL    HW131127   4.847   5.426   3.373
10076SOL    HW231128   4.901   5.444   3.526
10077SOL     OW31129   6.423   3.342   6.471
10077SOL    HW131130   6.456   3.409   6.538
10077SOL    HW231131   6.338   3.375   6.430
10078SOL     OW31132   0.127   6.152   5.172
10078SOL    HW131133   0.155   6.237   5.215
10078SOL    HW231134   0.135   6.077   5.238
10079SOL     OW31135   5.203   3.235   2.999
10079SOL    HW131136   5.252   3.241   3.086
10079SOL    HW231137   5.218   3.145   2.958
10080SOL     OW31138   5.403   0.820   5.654
10080SOL    HW131139   5.420   0.868   5.740
10080SOL    HW231140   5.334   0.750   5.668
10081SOL     OW31141   2.056   2.198   6.860
10081SOL    HW131142   2.040   2.100   6.850
10081SOL    HW231143   2.014   2.230   6.945
10082SOL     OW31144   1.561   4.750   2.692
10082SOL    HW131145   1.565   4.685   2.616
10082SOL    HW231146   1.482   4.810   2.679
10083SOL     OW31147   3.777   5.199   3.962
10083SOL    HW131148   3.850   5.220   4.027
10083SOL    HW231149   3.694   5.248   3.989
10084SOL     OW31150   1.122   6.911   5.452
10084SOL    HW131151   1.159   6.822   5.480
10084SOL    HW231152   1.095   6.907   5.356
10085SOL     OW31153   3.898   6.423   0.506
10085SOL    HW131154   3.820   6.360   0.512
10085SOL    HW231155   3.935   6.439   0.598
10086SOL     OW31156   6.215   6.693   2.146
10086SOL    HW131157   6.215   6.785   2.106
10086SOL    HW231158   6.163   6.631   2.087
10087SOL     OW31159   1.165   6.396   4.372
10087SOL    HW131160   1.194   6.370   4.280
10087SOL    HW231161   1.222   6.472   4.404
10088SOL     OW31162   6.865   2.850   7.019
10088SOL    HW131163   6.912   2.898   0.067
10088SOL    HW231164   6.857   2.753   0.017
10089SOL     OW31165   4.510   2.059   2.212
10089SOL    HW131166   4.462   2.075   2.126
10089SOL    HW231167   4.445   2.024   2.280
10090SOL     OW31168   1.253   4.868   1.447
10090SOL    HW131169   1.254   4.968   1.455
10090SOL    HW231170   1.227   4.828   1.534
10091SOL     OW31171   6.060   4.911   5.718
10091SOL    HW131172   6.133   4.919   5.785
10091SOL    HW231173   6.051   4.997   5.668
10092SOL     OW31174   0.354   2.890   5.323
10092SOL    HW131175   0.439   2.840   5.335
10092SOL    HW231176   0.278   2.837   5.361
10093SOL     OW31177   5.667   4.019   5.867
10093SOL    HW131178   5.673   3.940   5.806
10093SOL    HW231179   5.737   4.011   5.938
10094SOL     OW31180   2.859   0.461   1.026
10094SOL    HW131181   2.890   0.486   1.118
10094SOL    HW231182   2.894   0.370   1.003
10095SOL     OW31183   5.417   2.938   5.260
10095SOL    HW131184   5.513   2.966   5.251
10095SOL    HW231185   5.358   3.018   5.253
10096SOL     OW31186   4.616   1.056   2.814
10096SOL    HW131187   4.690   1.058   2.881
10096SOL    HW231188   4.642   0.995   2.739
10097SOL     OW31189   1.349   1.783   6.425
10097SOL    HW131190   1.272   1.835   6.390
10097SOL    HW231191   1.425   1.787   6.359
10098SOL     OW31192   3.254   5.694   4.821
10098SOL    HW131193   3.206   5.630   4.881
10098SOL    HW231194   3.241   5.788   4.853
10099SOL     OW31195   0.253   4.317   2.464
10099SOL    HW131196   0.344   4.349   2.438
10099SOL    HW231197   0.257   4.272   2.553
10100SOL     OW31198   5.001   4.997   4.651
10100SOL    HW131199   4.910   5.016   4.689
10100SOL    HW231200   5.068   4.998   4.725
10101SOL     OW31201   1.182   2.104   1.728
10101SOL    HW131202   1.180   2.152   1.815
10101SOL    HW231203   1.101   2.126   1.675
10102SOL     OW31204   6.386   6.888   1.376
10102SOL    HW131205   6.402   6.822   1.301
10102SOL    HW231206   6.473   6.907   1.422
10103SOL     OW31207   0.120   6.680   5.642
10103SOL    HW131208   0.027   6.667   5.678
10103SOL    HW231209   0.186   6.658   5.713
10104SOL     OW31210   2.210   0.616   5.921
10104SOL    HW131211   2.257   0.605   5.834
10104SOL    HW231212   2.242   0.546   5.985
10105SOL     OW31213   2.564   0.659   5.444
10105SOL    HW131214   2.634   0.725   5.420
10105SOL    HW231215   2.607   0.576   5.481
10106SOL     OW31216   4.952   6.518   1.297
10106SOL    HW131217   4.904   6.431   1.312
10106SOL    HW231218   5.015   6.534   1.373
10107SOL     OW31219   5.500   4.436   6.818
10107SOL    HW131220   5.520   4.343   6.849
10107SOL    HW231221   5.470   4.433   6.723
10108SOL     OW31222   1.448   2.441   0.552
10108SOL    HW131223   1.423   2.478   0.462
10108SOL    HW231224   1.537   2.396   0.546
10109SOL     OW31225   0.607   1.844   0.291
10109SOL    HW131226   0.525   1.787   0.277
10109SOL    HW231227   0.676   1.792   0.341
10110SOL     OW31228   4.924   5.962   3.067
10110SOL    HW131229   4.910   5.967   2.968
10110SOL    HW231230   4.854   6.017   3.112
10111SOL     OW31231   1.413   1.352   1.967
10111SOL    HW131232   1.361   1.300   2.034
10111SOL    HW231233   1.357   1.368   1.886
10112SOL     OW31234   6.204   2.540   3.610
10112SOL    HW131235   6.283   2.478   3.606
10112SOL    HW231236   6.141   2.518   3.535
10113SOL     OW31237   5.256   1.189   6.427
10113SOL    HW131238   5.279   1.161   6.521
10113SOL    HW231239   5.164   1.155   6.404
10114SOL     OW31240   3.735   1.488   2.694
10114SOL    HW131241   3.656   1.491   2.755
10114SOL    HW231242   3.765   1.582   2.674
10115SOL     OW31243   3.142   1.993   5.146
10115SOL    HW131244   3.151   2.093   5.141
10115SOL    HW231245   3.213   1.956   5.206
10116SOL     OW31246   6.427   0.685   4.605
10116SOL    HW131247   6.445   0.587   4.616
10116SOL    HW231248   6.392   0.702   4.513
10117SOL     OW31249   6.702   5.295   4.094
10117SOL    HW131250   6.769   5.251   4.154
10117SOL    HW231251   6.610   5.271   4.123
10118SOL     OW31252   3.460   4.932   5.125
10118SOL    HW131253   3.455   4.946   5.026
10118SOL    HW231254   3.554   4.913   5.151
10119SOL     OW31255   0.267   5.198   4.758
10119SOL    HW131256   0.249   5.296   4.753
10119SOL    HW231257   0.356   5.183   4.802
10120SOL     OW31258   2.257   2.944   1.844
10120SOL    HW131259   2.233   2.981   1.934
10120SOL    HW231260   2.224   2.850   1.837
10121SOL     OW31261   6.463   4.426   0.636
10121SOL    HW131262   6.369   4.392   0.645
10121SOL    HW231263   6.519   4.388   0.710
10122SOL     OW31264   0.845   1.406   3.977
10122SOL    HW131265   0.867   1.388   4.073
10122SOL    HW231266   0.920   1.374   3.919
10123SOL     OW31267   5.827   6.063   0.890
10123SOL    HW131268   5.806   6.151   0.932
10123SOL    HW231269   5.812   6.068   0.791
10124SOL     OW31270   0.888   4.021   2.846
10124SOL    HW131271   0.898   4.014   2.945
10124SOL    HW231272   0.885   4.117   2.819
10125SOL     OW31273   1.442   1.991   6.620
10125SOL    HW131274   1.384   1.924   6.574
10125SOL    HW231275   1.531   1.996   6.574
10126SOL     OW31276   6.631   6.813   6.676
10126SOL    HW131277   6.720   6.854   6.657
10126SOL    HW231278   6.560   6.883   6.669
10127SOL     OW31279   2.234   5.281   6.058
10127SOL    HW131280   2.159   5.233   6.012
10127SOL    HW231281   2.276   5.220   6.125
10128SOL     OW31282   3.277   0.788   6.777
10128SOL    HW131283   3.352   0.737   6.819
10128SOL    HW231284   3.191   0.737   6.789
10129SOL     OW31285   6.165   1.297   3.986
10129SOL    HW131286   6.225   1.281   4.064
10129SOL    HW231287   6.137   1.393   3.984
10130SOL     OW31288   1.722   2.206   2.567
10130SOL    HW131289   1.667   2.269   2.621
10130SOL    HW231290   1.814   2.202   2.603
10131SOL     OW31291   1.772   0.649   4.268
10131SOL    HW131292   1.778   0.736   4.318
10131SOL    HW231293   1.778   0.573   4.333
10132SOL     OW31294   6.896   0.907   2.780
10132SOL    HW131295   6.836   0.857   2.717
10132SOL    HW231296   6.944   0.978   2.729
10133SOL     OW31297   5.154   6.487   0.623
10133SOL    HW131298   5.148   6.451   0.716
10133SOL    HW231299   5.123   6.417   0.559
10134SOL     OW31300   5.817   0.993   2.120
10134SOL    HW131301   5.736   1.051   2.132
10134SOL    HW231302   5.811   0.946   2.032
10135SOL     OW31303   5.515   6.953   2.858
10135SOL    HW131304   5.493   6.889   2.932
10135SOL    HW231305   5.456   0.008   2.864
10136SOL     OW31306   4.510   1.450   2.845
10136SOL    HW131307   4.435   1.503   2.806
10136SOL    HW231308   4.545   1.497   2.926
10137SOL     OW31309   6.537   5.587   5.725
10137SOL    HW131310   6.622   5.589   5.672
10137SOL    HW231311   6.466   5.638   5.677
10138SOL     OW31312   5.906   1.020   0.472
10138SOL    HW131313   5.932   1.039   0.377
10138SOL    HW231314   5.848   1.095   0.505
10139SOL     OW31315   3.362   3.584   5.391
10139SOL    HW131316   3.314   3.640   5.324
10139SOL    HW231317   3.381   3.639   5.473
10140SOL     OW31318   6.939   5.157   5.957
10140SOL    HW131319   6.976   5.245   5.928
10140SOL    HW231320   6.925   5.099   5.877
10141SOL     OW31321   2.465   1.740   4.425
10141SOL    HW131322   2.437   1.653   4.467
10141SOL    HW231323   2.549   1.726   4.373
10142SOL     OW31324   6.082   6.395   4.067
10142SOL    HW131325   6.149   6.410   3.993
10142SOL    HW231326   6.120   6.428   4.153
10143SOL     OW31327   5.725   2.805   6.943
10143SOL    HW131328   5.733   2.787   6.845
10143SOL    HW231329   5.784   2.883   6.967
10144SOL     OW31330   3.878   6.740   5.803
10144SOL    HW131331   3.831   6.687   5.874
10144SOL    HW231332   3.822   6.744   5.721
10145SOL     OW31333   5.294   5.972   6.965
10145SOL    HW131334   5.283   5.873   6.978
10145SOL    HW231335   5.253   5.999   6.878
10146SOL     OW31336   0.383   2.328   4.748
10146SOL    HW131337   0.368   2.413   4.699
10146SOL    HW231338   0.442   2.345   4.827
10147SOL     OW31339   5.018   5.848   6.626
10147SOL    HW131340   5.049   5.758   6.596
10147SOL    HW231341   4.971   5.894   6.551
10148SOL     OW31342   0.745   4.820   6.743
10148SOL    HW131343   0.712   4.735   6.785
10148SOL    HW231344   0.823   4.854   6.795
10149SOL     OW31345   4.641   4.186   0.633
10149SOL    HW131346   4.659   4.137   0.718
10149SOL    HW231347   4.682   4.278   0.637
10150SOL     OW31348   4.204   4.038   0.169
10150SOL    HW131349   4.105   4.033   0.165
10150SOL    HW231350   4.233   4.129   0.199
10151SOL     OW31351   6.055   6.743   5.090
10151SOL    HW131352   6.102   6.655   5.094
10151SOL    HW231353   5.982   6.746   5.157
10152SOL     OW31354   5.525   6.743   2.680
10152SOL    HW131355   5.525   6.812   2.753
10152SOL    HW231356   5.499   6.786   2.593
10153SOL     OW31357   5.333   4.346   3.595
10153SOL    HW131358   5.387   4.337   3.679
10153SOL    HW231359   5.389   4.321   3.516
10154SOL     OW31360   5.220   5.261   4.565
10154SOL    HW131361   5.239   5.341   4.508
10154SOL    HW231362   5.161   5.289   4.641
10155SOL     OW31363   4.447   2.046   5.291
10155SOL    HW131364   4.546   2.037   5.295
10155SOL    HW231365   4.405   1.957   5.273
10156SOL     OW31366   5.142   1.529   0.228
10156SOL    HW131367   5.133   1.625   0.254
10156SOL    HW231368   5.237   1.500   0.238
10157SOL     OW31369   0.115   2.964   1.506
10157SOL    HW131370   0.142   2.891   1.443
10157SOL    HW231371   0.197   3.002   1.549
10158SOL     OW31372   5.780   5.901   1.428
10158SOL    HW131373   5.695   5.865   1.466
10158SOL    HW231374   5.768   5.920   1.331
10159SOL     OW31375   3.365   3.403   2.773
10159SOL    HW131376   3.302   3.474   2.740
10159SOL    HW231377   3.358   3.395   2.872
10160SOL     OW31378   1.973   4.764   3.669
10160SOL    HW131379   2.055   4.821   3.663
10160SOL    HW231380   1.963   4.730   3.763
10161SOL     OW31381   4.594   3.968   5.866
10161SOL    HW131382   4.598   3.908   5.946
10161SOL    HW231383   4.556   4.056   5.892
10162SOL     OW31384   1.509   3.877   2.696
10162SOL    HW131385   1.568   3.822   2.637
10162SOL    HW231386   1.505   3.835   2.787
10163SOL     OW31387   0.850   6.268   5.041
10163SOL    HW131388   0.909   6.192   5.069
10163SOL    HW231389   0.757   6.233   5.025
10164SOL     OW31390   0.455   3.066   2.915
10164SOL    HW131391   0.397   2.985   2.924
10164SOL    HW231392   0.398   3.148   2.916
10165SOL     OW31393   6.593   3.345   4.102
10165SOL    HW131394   6.623   3.331   4.008
10165SOL    HW231395   6.546   3.263   4.135
10166SOL     OW31396   1.021   1.788   0.967
10166SOL    HW131397   0.970   1.869   0.938
10166SOL    HW231398   1.104   1.779   0.912
10167SOL     OW31399   1.305   0.123   6.573
10167SOL    HW131400   1.345   0.183   6.505
10167SOL    HW231401   1.377   0.075   6.623
10168SOL     OW31402   5.903   1.082   0.176
10168SOL    HW131403   5.986   1.107   0.126
10168SOL    HW231404   5.826   1.079   0.112
10169SOL     OW31405   6.459   2.692   3.740
10169SOL    HW131406   6.453   2.712   3.642
10169SOL    HW231407   6.367   2.680   3.777
10170SOL     OW31408   5.875   5.935   5.906
10170SOL    HW131409   5.974   5.922   5.899
10170SOL    HW231410   5.848   5.940   6.002
10171SOL     OW31411   1.712   3.643   6.196
10171SOL    HW131412   1.810   3.645   6.217
10171SOL    HW231413   1.682   3.735   6.168
10172SOL     OW31414   6.308   0.416   3.015
10172SOL    HW131415   6.322   0.330   3.064
10172SOL    HW231416   6.359   0.415   2.929
10173SOL     OW31417   3.462   4.669   6.331
10173SOL    HW131418   3.372   4.627   6.323
10173SOL    HW231419   3.504   4.674   6.241
10174SOL     OW31420   4.964   5.831   2.038
10174SOL    HW131421   5.027   5.820   2.115
10174SOL    HW231422   4.870   5.817   2.070
10175SOL     OW31423   0.371   1.668   4.249
10175SOL    HW131424   0.360   1.583   4.199
10175SOL    HW231425   0.282   1.714   4.255
10176SOL     OW31426   6.096   2.734   6.079
10176SOL    HW131427   6.112   2.736   6.177
10176SOL    HW231428   6.040   2.812   6.052
10177SOL     OW31429   2.555   0.831   2.456
10177SOL    HW131430   2.583   0.736   2.466
10177SOL    HW231431   2.550   0.874   2.546
10178SOL     OW31432   1.471   1.047   0.390
10178SOL    HW131433   1.543   1.101   0.433
10178SOL    HW231434   1.399   1.107   0.356
10179SOL     OW31435   0.197   4.366   1.388
10179SOL    HW131436   0.151   4.303   1.326
10179SOL    HW231437   0.288   4.387   1.353
10180SOL     OW31438   3.755   6.788   5.533
10180SOL    HW131439   3.701   6.788   5.449
10180SOL    HW231440   3.695   6.805   5.612
10181SOL     OW31441   6.887   3.374   1.890
10181SOL    HW131442   6.852   3.440   1.823
10181SOL    HW231443   6.904   3.420   1.977
10182SOL     OW31444   5.121   1.765   6.790
10182SOL    HW131445   5.103   1.809   6.877
10182SOL    HW231446   5.045   1.780   6.727
10183SOL     OW31447   6.210   2.465   6.353
10183SOL    HW131448   6.196   2.564   6.365
10183SOL    HW231449   6.259   2.448   6.268
10184SOL     OW31450   5.516   3.372   5.754
10184SOL    HW131451   5.506   3.284   5.707
10184SOL    HW231452   5.604   3.414   5.728
10185SOL     OW31453   4.158   5.492   2.443
10185SOL    HW131454   4.156   5.415   2.506
10185SOL    HW231455   4.076   5.548   2.455
10186SOL     OW31456   4.214   3.379   5.637
10186SOL    HW131457   4.206   3.418   5.545
10186SOL    HW231458   4.207   3.453   5.705
10187SOL     OW31459   2.056   5.194   5.848
10187SOL    HW131460   1.967   5.177   5.890
10187SOL    HW231461   2.060   5.288   5.815
10188SOL     OW31462   2.985   0.146   6.878
10188SOL    HW131463   3.073   0.184   6.908
10188SOL    HW231464   2.915   0.169   6.945
10189SOL     OW31465   0.873   1.986   6.252
10189SOL    HW131466   0.819   2.069   6.261
10189SOL    HW231467   0.817   1.907   6.277
10190SOL     OW31468   3.381   5.115   1.530
10190SOL    HW131469   3.312   5.086   1.596
10190SOL    HW231470   3.384   5.051   1.453
10191SOL     OW31471   5.732   5.824   0.180
10191SOL    HW131472   5.650   5.774   0.152
10191SOL    HW231473   5.754   5.893   0.111
10192SOL     OW31474   2.003   2.004   5.183
10192SOL    HW131475   1.943   2.083   5.178
10192SOL    HW231476   1.950   1.920   5.176
10193SOL     OW31477   4.103   3.645   3.017
10193SOL    HW131478   4.058   3.580   2.957
10193SOL    HW231479   4.188   3.604   3.053
10194SOL     OW31480   3.373   0.238   3.897
10194SOL    HW131481   3.467   0.249   3.867
10194SOL    HW231482   3.335   0.328   3.920
10195SOL     OW31483   4.694   7.020   2.206
10195SOL    HW131484   4.603   0.025   2.178
10195SOL    HW231485   4.757   0.000   2.128
10196SOL     OW31486   5.477   1.611   3.021
10196SOL    HW131487   5.412   1.560   2.965
10196SOL    HW231488   5.433   1.691   3.061
10197SOL     OW31489   6.157   1.011   2.420
10197SOL    HW131490   6.223   1.023   2.494
10197SOL    HW231491   6.067   0.992   2.458
10198SOL     OW31492   3.087   6.670   1.466
10198SOL    HW131493   3.166   6.609   1.458
10198SOL    HW231494   3.016   6.625   1.520
10199SOL     OW31495   0.615   1.544   6.805
10199SOL    HW131496   0.692   1.485   6.780
10199SOL    HW231497   0.529   1.501   6.776
10200SOL     OW31498   5.003   4.239   5.372
10200SOL    HW131499   5.069   4.313   5.386
10200SOL    HW231500   5.047   4.151   5.389
10201SOL     OW31501   0.608   5.471   2.363
10201SOL    HW131502   0.647   5.553   2.406
10201SOL    HW231503   0.681   5.419   2.319
10202SOL     OW31504   0.959   3.209   1.862
10202SOL    HW131505   1.048   3.246   1.890
10202SOL    HW231506   0.958   3.111   1.881
10203SOL     OW31507   1.590   3.095   2.122
10203SOL    HW131508   1.569   3.192   2.130
10203SOL    HW231509   1.576   3.050   2.210
10204SOL     OW31510   3.070   4.792   5.259
10204SOL    HW131511   3.006   4.721   5.233
10204SOL    HW231512   3.162   4.752   5.270
10205SOL     OW31513   5.681   2.146   3.343
10205SOL    HW131514   5.698   2.220   3.408
10205SOL    HW231515   5.623   2.180   3.268
10206SOL     OW31516   5.511   6.547   5.679
10206SOL    HW131517   5.477   6.453   5.674
10206SOL    HW231518   5.575   6.555   5.756
10207SOL     OW31519   3.306   0.999   3.077
10207SOL    HW131520   3.265   1.069   3.135
10207SOL    HW231521   3.361   0.937   3.133
10208SOL     OW31522   5.836   4.579   5.966
10208SOL    HW131523   5.746   4.585   5.924
10208SOL    HW231524   5.906   4.605   5.900
10209SOL     OW31525   6.827   0.230   6.553
10209SOL    HW131526   6.855   0.302   6.490
10209SOL    HW231527   6.739   0.252   6.593
10210SOL     OW31528   5.898   6.549   2.464
10210SOL    HW131529   5.956   6.628   2.444
10210SOL    HW231530   5.840   6.569   2.543
10211SOL     OW31531   3.760   6.265   5.297
10211SOL    HW131532   3.839   6.294   5.351
10211SOL    HW231533   3.791   6.226   5.210
10212SOL     OW31534   0.447   1.018   3.839
10212SOL    HW131535   0.386   0.941   3.824
10212SOL    HW231536   0.522   1.016   3.773
10213SOL     OW31537   6.288   1.843   3.349
10213SOL    HW131538   6.348   1.769   3.379
10213SOL    HW231539   6.224   1.865   3.422
10214SOL     OW31540   6.525   1.416   2.117
10214SOL    HW131541   6.541   1.514   2.119
10214SOL    HW231542   6.602   1.368   2.158
10215SOL     OW31543   3.974   3.469   6.944
10215SOL    HW131544   3.963   3.559   6.903
10215SOL    HW231545   3.958   3.398   6.875
10216SOL     OW31546   5.923   0.250   0.971
10216SOL    HW131547   5.861   0.321   1.005
10216SOL    HW231548   5.916   0.169   1.030
10217SOL     OW31549   2.353   1.969   4.273
10217SOL    HW131550   2.416   1.891   4.281
10217SOL    HW231551   2.288   1.968   4.349
10218SOL     OW31552   1.891   0.773   0.881
10218SOL    HW131553   1.875   0.796   0.977
10218SOL    HW231554   1.875   0.854   0.824
10219SOL     OW31555   1.001   2.726   1.542
10219SOL    HW131556   0.938   2.667   1.592
10219SOL    HW231557   1.060   2.671   1.484
10220SOL     OW31558   4.458   1.884   1.361
10220SOL    HW131559   4.505   1.832   1.290
10220SOL    HW231560   4.424   1.821   1.431
10221SOL     OW31561   2.604   0.238   5.071
10221SOL    HW131562   2.553   0.201   4.994
10221SOL    HW231563   2.658   0.317   5.040
10222SOL     OW31564   1.446   4.425   5.241
10222SOL    HW131565   1.523   4.488   5.252
10222SOL    HW231566   1.369   4.473   5.198
10223SOL     OW31567   1.905   4.499   7.014
10223SOL    HW131568   1.972   4.525   0.060
10223SOL    HW231569   1.929   4.409   6.977
10224SOL     OW31570   1.114   0.054   4.099
10224SOL    HW131571   1.085   0.134   4.046
10224SOL    HW231572   1.046   7.006   4.091
10225SOL     OW31573   6.537   6.258   5.029
10225SOL    HW131574   6.580   6.179   5.072
10225SOL    HW231575   6.607   6.312   4.981
10226SOL     OW31576   2.331   0.979   6.806
10226SOL    HW131577   2.246   0.997   6.756
10226SOL    HW231578   2.373   1.065   6.833
10227SOL     OW31579   4.565   4.200   0.143
10227SOL    HW131580   4.628   4.125   0.122
10227SOL    HW231581   4.576   4.273   0.076
10228SOL     OW31582   1.464   5.608   3.494
10228SOL    HW131583   1.523   5.672   3.541
10228SOL    HW231584   1.371   5.645   3.490
10229SOL     OW31585   1.023   0.125   3.616
10229SOL    HW131586   1.018   0.027   3.595
10229SOL    HW231587   0.957   0.174   3.560
10230SOL     OW31588   5.932   0.087   3.775
10230SOL    HW131589   5.914   0.169   3.720
10230SOL    HW231590   5.899   0.006   3.725
10231SOL     OW31591   5.714   6.621   4.588
10231SOL    HW131592   5.644   6.684   4.623
10231SOL    HW231593   5.713   6.537   4.641
10232SOL     OW31594   3.895   1.348   4.661
10232SOL    HW131595   3.991   1.366   4.681
10232SOL    HW231596   3.857   1.289   4.732
10233SOL     OW31597   4.670   2.926   5.887
10233SOL    HW131598   4.700   2.835   5.917
10233SOL    HW231599   4.659   2.985   5.967
10234SOL     OW31600   5.291   7.020   0.907
10234SOL    HW131601   5.277   6.921   0.907
10234SOL    HW231602   5.233   0.037   0.836
10235SOL     OW31603   4.517   1.914   6.818
10235SOL    HW131604   4.605   1.961   6.823
10235SOL    HW231605   4.443   1.982   6.823
10236SOL     OW31606   2.264   6.009   2.047
10236SOL    HW131607   2.278   5.926   2.101
10236SOL    HW231608   2.269   6.089   2.107
10237SOL     OW31609   6.439   4.105   2.478
10237SOL    HW131610   6.531   4.112   2.441
10237SOL    HW231611   6.383   4.182   2.445
10238SOL     OW31612   3.860   4.435   5.343
10238SOL    HW131613   3.801   4.361   5.374
10238SOL    HW231614   3.946   4.397   5.308
10239SOL     OW31615   0.287   3.756   4.988
10239SOL    HW131616   0.332   3.807   4.915
10239SOL    HW231617   0.353   3.734   5.060
10240SOL     OW31618   0.944   3.903   3.093
10240SOL    HW131619   0.919   3.930   3.186
10240SOL    HW231620   1.042   3.884   3.089
10241SOL     OW31621   0.958   1.442   2.451
10241SOL    HW131622   0.899   1.504   2.400
10241SOL    HW231623   1.046   1.486   2.468
10242SOL     OW31624   6.950   1.106   6.000
10242SOL    HW131625   7.012   1.184   6.010
10242SOL    HW231626   6.873   1.116   6.063
10243SOL     OW31627   0.647   5.397   1.531
10243SOL    HW131628   0.648   5.462   1.454
10243SOL    HW231629   0.742   5.380   1.560
10244SOL     OW31630   2.613   4.854   0.278
10244SOL    HW131631   2.596   4.875   0.374
10244SOL    HW231632   2.710   4.834   0.265
10245SOL     OW31633   1.303   3.330   6.969
10245SOL    HW131634   1.286   3.234   6.946
10245SOL    HW231635   1.388   3.337   7.021
10246SOL     OW31636   3.032   3.830   4.464
10246SOL    HW131637   2.941   3.838   4.504
10246SOL    HW231638   3.078   3.919   4.467
10247SOL     OW31639   6.730   5.374   6.199
10247SOL    HW131640   6.664   5.446   6.178
10247SOL    HW231641   6.805   5.377   6.133
10248SOL     OW31642   2.810   0.643   1.810
10248SOL    HW131643   2.791   0.546   1.792
10248SOL    HW231644   2.905   0.652   1.841
10249SOL     OW31645   4.429   0.996   5.496
10249SOL    HW131646   4.351   0.944   5.532
10249SOL    HW231647   4.494   1.014   5.569
10250SOL     OW31648   5.983   1.017   1.511
10250SOL    HW131649   6.037   1.072   1.575
10250SOL    HW231650   6.007   0.920   1.523
10251SOL     OW31651   2.774   2.761   6.817
10251SOL    HW131652   2.796   2.715   6.903
10251SOL    HW231653   2.848   2.745   6.751
10252SOL     OW31654   6.635   6.441   0.958
10252SOL    HW131655   6.652   6.447   1.056
10252SOL    HW231656   6.645   6.347   0.927
10253SOL     OW31657   4.991   4.475   0.307
10253SOL    HW131658   5.037   4.421   0.378
10253SOL    HW231659   4.896   4.446   0.300
10254SOL     OW31660   2.825   1.564   4.931
10254SOL    HW131661   2.871   1.642   4.974
10254SOL    HW231662   2.742   1.596   4.885
10255SOL     OW31663   2.085   5.584   2.199
10255SOL    HW131664   2.010   5.553   2.141
10255SOL    HW231665   2.068   5.678   2.228
10256SOL     OW31666   4.857   0.205   0.213
10256SOL    HW131667   4.822   0.145   0.141
10256SOL    HW231668   4.931   0.158   0.262
10257SOL     OW31669   1.386   4.992   6.120
10257SOL    HW131670   1.413   5.088   6.132
10257SOL    HW231671   1.294   4.979   6.157
10258SOL     OW31672   4.393   6.411   3.583
10258SOL    HW131673   4.449   6.477   3.633
10258SOL    HW231674   4.445   6.374   3.506
10259SOL     OW31675   0.335   4.493   4.160
10259SOL    HW131676   0.347   4.569   4.223
10259SOL    HW231677   0.360   4.407   4.205
10260SOL     OW31678   0.695   6.494   2.437
10260SOL    HW131679   0.755   6.573   2.428
10260SOL    HW231680   0.633   6.490   2.359
10261SOL     OW31681   0.377   5.282   2.085
10261SOL    HW131682   0.303   5.298   2.020
10261SOL    HW231683   0.449   5.351   2.071
10262SOL     OW31684   3.359   4.943   4.241
10262SOL    HW131685   3.341   4.983   4.331
10262SOL    HW231686   3.273   4.910   4.202
10263SOL     OW31687   5.106   1.805   6.191
10263SOL    HW131688   5.084   1.770   6.282
10263SOL    HW231689   5.104   1.730   6.125
10264SOL     OW31690   5.890   1.263   6.214
10264SOL    HW131691   5.933   1.294   6.129
10264SOL    HW231692   5.805   1.313   6.229
10265SOL     OW31693   3.530   1.797   2.965
10265SOL    HW131694   3.567   1.715   3.008
10265SOL    HW231695   3.456   1.834   3.022
10266SOL     OW31696   3.429   3.490   6.433
10266SOL    HW131697   3.440   3.471   6.336
10266SOL    HW231698   3.451   3.586   6.451
10267SOL     OW31699   6.993   1.890   7.002
10267SOL    HW131700   6.966   1.814   0.036
10267SOL    HW231701   6.912   1.943   6.976
10268SOL     OW31702   5.579   5.587   1.682
10268SOL    HW131703   5.559   5.663   1.620
10268SOL    HW231704   5.545   5.502   1.643
10269SOL     OW31705   1.997   2.140   6.041
10269SOL    HW131706   1.909   2.104   6.072
10269SOL    HW231707   1.983   2.196   5.959
10270SOL     OW31708   1.940   5.970   0.380
10270SOL    HW131709   1.952   5.923   0.468
10270SOL    HW231710   1.953   5.904   0.305
10271SOL     OW31711   3.700   3.724   1.478
10271SOL    HW131712   3.619   3.682   1.519
10271SOL    HW231713   3.751   3.654   1.427
10272SOL     OW31714   0.829   0.760   4.538
10272SOL    HW131715   0.909   0.802   4.495
10272SOL    HW231716   0.746   0.809   4.509
10273SOL     OW31717   3.402   5.758   4.438
10273SOL    HW131718   3.424   5.703   4.519
10273SOL    HW231719   3.305   5.749   4.417
10274SOL     OW31720   1.116   5.363   5.756
10274SOL    HW131721   1.138   5.364   5.853
10274SOL    HW231722   1.028   5.317   5.743
10275SOL     OW31723   0.922   6.313   2.708
10275SOL    HW131724   0.841   6.350   2.755
10275SOL    HW231725   0.924   6.347   2.614
10276SOL     OW31726   6.895   5.343   5.574
10276SOL    HW131727   6.855   5.284   5.504
10276SOL    HW231728   6.962   5.290   5.627
10277SOL     OW31729   3.180   6.305   3.994
10277SOL    HW131730   3.131   6.356   4.065
10277SOL    HW231731   3.258   6.358   3.962
10278SOL     OW31732   6.301   0.387   6.777
10278SOL    HW131733   6.221   0.429   6.733
10278SOL    HW231734   6.272   0.305   6.827
10279SOL     OW31735   3.200   0.295   4.356
10279SOL    HW131736   3.149   0.326   4.276
10279SOL    HW231737   3.147   0.315   4.439
10280SOL     OW31738   1.664   4.505   0.965
10280SOL    HW131739   1.576   4.552   0.968
10280SOL    HW231740   1.652   4.413   0.928
10281SOL     OW31741   4.557   1.249   2.314
10281SOL    HW131742   4.615   1.329   2.333
10281SOL    HW231743   4.580   1.176   2.378
10282SOL     OW31744   0.621   2.370   3.994
10282SOL    HW131745   0.706   2.318   3.990
10282SOL    HW231746   0.589   2.374   4.089
10283SOL     OW31747   0.932   3.071   0.660
10283SOL    HW131748   0.881   3.088   0.576
10283SOL    HW231749   0.939   3.155   0.713
10284SOL     OW31750   5.567   3.682   5.190
10284SOL    HW131751   5.595   3.593   5.155
10284SOL    HW231752   5.648   3.741   5.199
10285SOL     OW31753   4.948   0.579   1.107
10285SOL    HW131754   4.892   0.499   1.084
10285SOL    HW231755   4.938   0.599   1.205
10286SOL     OW31756   4.007   1.079   3.172
10286SOL    HW131757   3.980   1.170   3.140
10286SOL    HW231758   4.088   1.088   3.230
10287SOL     OW31759   1.587   6.713   1.346
10287SOL    HW131760   1.536   6.738   1.263
10287SOL    HW231761   1.578   6.615   1.362
10288SOL     OW31762   5.539   5.631   3.063
10288SOL    HW131763   5.613   5.663   3.005
10288SOL    HW231764   5.472   5.705   3.075
10289SOL     OW31765   2.945   1.340   1.667
10289SOL    HW131766   2.958   1.432   1.703
10289SOL    HW231767   2.848   1.327   1.643
10290SOL     OW31768   4.156   3.559   2.590
10290SOL    HW131769   4.140   3.657   2.603
10290SOL    HW231770   4.141   3.511   2.677
10291SOL     OW31771   3.636   0.764   3.706
10291SOL    HW131772   3.707   0.829   3.733
10291SOL    HW231773   3.554   0.815   3.679
10292SOL     OW31774   0.154   2.371   5.037
10292SOL    HW131775   0.248   2.390   5.011
10292SOL    HW231776   0.092   2.427   4.982
10293SOL     OW31777   1.929   5.997   3.118
10293SOL    HW131778   1.945   5.898   3.120
10293SOL    HW231779   1.839   6.016   3.078
10294SOL     OW31780   4.973   2.011   2.428
10294SOL    HW131781   4.879   2.041   2.407
10294SOL    HW231782   4.975   1.972   2.520
10295SOL     OW31783   0.154   4.751   5.518
10295SOL    HW131784   0.121   4.668   5.473
10295SOL    HW231785   0.153   4.737   5.617
10296SOL     OW31786   6.136   4.017   6.084
10296SOL    HW131787   6.168   3.992   5.993
10296SOL    HW231788   6.212   4.058   6.136
10297SOL     OW31789   1.538   6.182   3.734
10297SOL    HW131790   1.521   6.174   3.832
10297SOL    HW231791   1.504   6.270   3.701
10298SOL     OW31792   4.876   3.835   3.815
10298SOL    HW131793   4.961   3.866   3.774
10298SOL    HW231794   4.828   3.775   3.751
10299SOL     OW31795   4.541   4.684   3.532
10299SOL    HW131796   4.478   4.698   3.609
10299SOL    HW231797   4.631   4.656   3.568
10300SOL     OW31798   0.952   3.344   1.625
10300SOL    HW131799   0.883   3.297   1.571
10300SOL    HW231800   0.962   3.297   1.713
10301SOL     OW31801   5.982   1.413   3.120
10301SOL    HW131802   5.934   1.446   3.039
10301SOL    HW231803   6.068   1.463   3.131
10302SOL     OW31804   1.175   6.268   2.842
10302SOL    HW131805   1.098   6.298   2.787
10302SOL    HW231806   1.145   6.199   2.908
10303SOL     OW31807   3.881   3.577   1.312
10303SOL    HW131808   3.898   3.617   1.222
10303SOL    HW231809   3.838   3.488   1.302
10304SOL     OW31810   6.840   6.988   3.592
10304SOL    HW131811   6.900   0.024   3.643
10304SOL    HW231812   6.876   6.974   3.500
10305SOL     OW31813   2.143   5.889   0.012
10305SOL    HW131814   2.182   5.898   6.945
10305SOL    HW231815   2.217   5.881   0.079
10306SOL     OW31816   4.724   5.675   0.262
10306SOL    HW131817   4.647   5.619   0.232
10306SOL    HW231818   4.774   5.626   0.334
10307SOL     OW31819   1.284   1.054   6.027
10307SOL    HW131820   1.200   1.103   6.049
10307SOL    HW231821   1.361   1.096   6.075
10308SOL     OW31822   3.273   5.234   3.637
10308SOL    HW131823   3.294   5.279   3.724
10308SOL    HW231824   3.194   5.173   3.649
10309SOL     OW31825   5.991   6.808   3.113
10309SOL    HW131826   5.985   6.815   3.212
10309SOL    HW231827   5.908   6.845   3.072
10310SOL     OW31828   3.149   3.517   2.638
10310SOL    HW131829   3.164   3.429   2.594
10310SOL    HW231830   3.205   3.587   2.593
10311SOL     OW31831   0.494   5.643   0.771
10311SOL    HW131832   0.429   5.575   0.806
10311SOL    HW231833   0.570   5.651   0.835
10312SOL     OW31834   3.462   4.795   1.123
10312SOL    HW131835   3.440   4.784   1.026
10312SOL    HW231836   3.490   4.707   1.161
10313SOL     OW31837   4.636   0.413   2.515
10313SOL    HW131838   4.721   0.359   2.511
10313SOL    HW231839   4.659   0.510   2.516
10314SOL     OW31840   6.491   0.195   0.665
10314SOL    HW131841   6.417   0.205   0.598
10314SOL    HW231842   6.467   0.244   0.749
10315SOL     OW31843   6.537   5.792   5.387
10315SOL    HW131844   6.491   5.856   5.326
10315SOL    HW231845   6.477   5.716   5.408
10316SOL     OW31846   0.807   3.526   5.047
10316SOL    HW131847   0.795   3.440   4.998
10316SOL    HW231848   0.754   3.524   5.132
10317SOL     OW31849   4.218   5.086   6.289
10317SOL    HW131850   4.153   5.036   6.347
10317SOL    HW231851   4.299   5.030   6.274
10318SOL     OW31852   6.365   5.272   1.655
10318SOL    HW131853   6.428   5.347   1.635
10318SOL    HW231854   6.404   5.213   1.725
10319SOL     OW31855   0.039   5.169   3.319
10319SOL    HW131856   0.069   5.254   3.362
10319SOL    HW231857   0.093   5.152   3.236
10320SOL     OW31858   0.225   6.014   0.805
10320SOL    HW131859   0.144   6.020   0.863
10320SOL    HW231860   0.204   6.051   0.715
10321SOL     OW31861   4.567   5.242   4.729
10321SOL    HW131862   4.624   5.220   4.808
10321SOL    HW231863   4.474   5.265   4.760
10322SOL     OW31864   6.637   5.028   1.014
10322SOL    HW131865   6.621   4.938   0.973
10322SOL    HW231866   6.600   5.029   1.107
10323SOL     OW31867   5.519   3.392   6.238
10323SOL    HW131868   5.480   3.322   6.179
10323SOL    HW231869   5.610   3.364   6.268
10324SOL     OW31870   3.112   4.014   3.571
10324SOL    HW131871   3.147   3.990   3.480
10324SOL    HW231872   3.183   4.060   3.623
10325SOL     OW31873   0.088   3.081   3.176
10325SOL    HW131874   0.006   3.116   3.220
10325SOL    HW231875   0.112   3.139   3.098
10326SOL     OW31876   4.909   2.546   6.929
10326SOL    HW131877   4.830   2.510   6.977
10326SOL    HW231878   4.974   2.472   6.911
10327SOL     OW31879   0.551   0.998   2.786
10327SOL    HW131880   0.540   1.089   2.746
10327SOL    HW231881   0.515   0.999   2.880
10328SOL     OW31882   5.989   3.840   2.453
10328SOL    HW131883   6.027   3.897   2.380
10328SOL    HW231884   5.894   3.866   2.471
10329SOL     OW31885   3.151   0.254   2.631
10329SOL    HW131886   3.177   0.169   2.677
10329SOL    HW231887   3.083   0.302   2.686
10330SOL     OW31888   3.680   4.879   2.510
10330SOL    HW131889   3.619   4.809   2.547
10330SOL    HW231890   3.657   4.968   2.551
10331SOL     OW31891   5.370   1.036   3.986
10331SOL    HW131892   5.313   1.017   3.906
10331SOL    HW231893   5.399   1.131   3.986
10332SOL     OW31894   7.012   2.164   0.256
10332SOL    HW131895   0.038   2.105   0.319
10332SOL    HW231896   6.972   2.240   0.307
10333SOL     OW31897   6.150   5.549   4.253
10333SOL    HW131898   6.193   5.639   4.248
10333SOL    HW231899   6.051   5.558   4.243
10334SOL     OW31900   2.229   4.719   4.180
10334SOL    HW131901   2.159   4.696   4.248
10334SOL    HW231902   2.320   4.713   4.221
10335SOL     OW31903   2.470   5.318   0.925
10335SOL    HW131904   2.466   5.219   0.944
10335SOL    HW231905   2.546   5.337   0.864
10336SOL     OW31906   4.610   6.749   2.316
10336SOL    HW131907   4.547   6.726   2.242
10336SOL    HW231908   4.650   6.839   2.299
10337SOL     OW31909   0.137   4.975   5.107
10337SOL    HW131910   0.168   4.938   5.195
10337SOL    HW231911   0.137   4.902   5.039
10338SOL     OW31912   2.534   6.700   2.270
10338SOL    HW131913   2.574   6.776   2.220
10338SOL    HW231914   2.604   6.657   2.327
10339SOL     OW31915   2.735   6.281   1.435
10339SOL    HW131916   2.738   6.356   1.368
10339SOL    HW231917   2.810   6.291   1.500
10340SOL     OW31918   2.578   5.837   0.341
10340SOL    HW131919   2.562   5.936   0.332
10340SOL    HW231920   2.676   5.819   0.338
10341SOL     OW31921   2.372   1.578   2.419
10341SOL    HW131922   2.336   1.670   2.430
10341SOL    HW231923   2.456   1.581   2.365
10342SOL     OW31924   2.319   0.308   5.672
10342SOL    HW131925   2.392   0.255   5.716
10342SOL    HW231926   2.337   0.406   5.685
10343SOL     OW31927   2.490   3.727   6.221
10343SOL    HW131928   2.584   3.706   6.194
10343SOL    HW231929   2.457   3.656   6.284
10344SOL     OW31930   4.136   3.651   4.946
10344SOL    HW131931   4.233   3.634   4.928
10344SOL    HW231932   4.088   3.663   4.860
10345SOL     OW31933   1.972   1.368   6.744
10345SOL    HW131934   1.951   1.329   6.654
10345SOL    HW231935   2.005   1.461   6.732
10346SOL     OW31936   5.097   0.012   0.105
10346SOL    HW131937   5.111   0.025   0.006
10346SOL    HW231938   5.098   0.101   0.151
10347SOL     OW31939   5.408   1.812   1.609
10347SOL    HW131940   5.309   1.822   1.601
10347SOL    HW231941   5.453   1.866   1.537
10348SOL     OW31942   5.776   0.838   5.998
10348SOL    HW131943   5.848   0.879   5.941
10348SOL    HW231944   5.741   0.756   5.954
10349SOL     OW31945   6.493   1.458   1.553
10349SOL    HW131946   6.588   1.481   1.573
10349SOL    HW231947   6.453   1.412   1.632
10350SOL     OW31948   2.666   5.826   4.493
10350SOL    HW131949   2.757   5.837   4.534
10350SOL    HW231950   2.597   5.831   4.565
10351SOL     OW31951   5.546   5.111   5.299
10351SOL    HW131952   5.638   5.106   5.259
10351SOL    HW231953   5.552   5.105   5.398
10352SOL     OW31954   5.390   1.956   7.001
10352SOL    HW131955   5.402   1.999   6.912
10352SOL    HW231956   5.479   1.942   0.019
10353SOL     OW31957   0.326   2.831   2.959
10353SOL    HW131958   0.227   2.814   2.961
10353SOL    HW231959   0.369   2.789   3.039
10354SOL     OW31960   0.040   3.750   0.492
10354SOL    HW131961   6.976   3.755   0.537
10354SOL    HW231962   0.060   3.655   0.468
10355SOL     OW31963   1.335   0.298   0.401
10355SOL    HW131964   1.328   0.236   0.479
10355SOL    HW231965   1.293   0.386   0.424
10356SOL     OW31966   6.877   3.913   7.005
10356SOL    HW131967   6.928   3.847   6.949
10356SOL    HW231968   6.902   4.006   6.978
10357SOL     OW31969   1.237   2.959   6.087
10357SOL    HW131970   1.172   3.033   6.098
10357SOL    HW231971   1.190   2.878   6.052
10358SOL     OW31972   1.078   2.589   3.067
10358SOL    HW131973   1.088   2.490   3.079
10358SOL    HW231974   1.077   2.634   3.156
10359SOL     OW31975   5.349   2.177   2.700
10359SOL    HW131976   5.283   2.177   2.776
10359SOL    HW231977   5.301   2.155   2.615
10360SOL     OW31978   5.885   4.957   2.779
10360SOL    HW131979   5.801   4.989   2.822
10360SOL    HW231980   5.898   5.004   2.691
10361SOL     OW31981   0.494   1.242   1.577
10361SOL    HW131982   0.554   1.163   1.587
10361SOL    HW231983   0.549   1.324   1.558
10362SOL     OW31984   1.436   5.008   2.835
10362SOL    HW131985   1.348   4.966   2.857
10362SOL    HW231986   1.459   5.075   2.906
10363SOL     OW31987   5.439   3.652   0.684
10363SOL    HW131988   5.363   3.710   0.653
10363SOL    HW231989   5.517   3.709   0.708
10364SOL     OW31990   5.627   4.482   2.062
10364SOL    HW131991   5.660   4.478   1.968
10364SOL    HW231992   5.546   4.424   2.072
10365SOL     OW31993   6.000   5.433   0.436
10365SOL    HW131994   6.061   5.376   0.492
10365SOL    HW231995   6.019   5.417   0.339
10366SOL     OW31996   3.613   6.099   2.975
10366SOL    HW131997   3.533   6.098   2.916
10366SOL    HW231998   3.641   6.193   2.993
10367SOL     OW31999   6.169   2.082   0.483
10367SOL    HW132000   6.157   2.118   0.575
10367SOL    HW232001   6.242   2.133   0.436
10368SOL     OW32002   2.219   0.457   2.073
10368SOL    HW132003   2.306   0.487   2.034
10368SOL    HW232004   2.171   0.398   2.009
10369SOL     OW32005   3.152   6.502   5.240
10369SOL    HW132006   3.206   6.426   5.205
10369SOL    HW232007   3.142   6.493   5.340
10370SOL     OW32008   0.292   2.033   4.405
10370SOL    HW132009   0.390   2.025   4.425
10370SOL    HW232010   0.264   1.957   4.346
10371SOL     OW32011   3.407   6.088   3.228
10371SOL    HW132012   3.501   6.096   3.262
10371SOL    HW232013   3.384   6.169   3.174
10372SOL     OW32014   2.428   6.923   1.606
10372SOL    HW132015   2.497   6.982   1.565
10372SOL    HW232016   2.470   6.865   1.675
10373SOL     OW32017   6.833   1.632   5.584
10373SOL    HW132018   6.762   1.569   5.550
10373SOL    HW232019   6.839   1.711   5.524
10374SOL     OW32020   3.415   6.887   4.312
10374SOL    HW132021   3.501   6.936   4.297
10374SOL    HW232022   3.341   6.952   4.329
10375SOL     OW32023   4.218   2.796   0.230
10375SOL    HW132024   4.233   2.735   0.152
10375SOL    HW232025   4.166   2.876   0.201
10376SOL     OW32026   1.763   6.165   2.738
10376SOL    HW132027   1.725   6.156   2.830
10376SOL    HW232028   1.854   6.125   2.735
10377SOL     OW32029   0.214   1.414   2.063
10377SOL    HW132030   0.211   1.445   1.968
10377SOL    HW232031   0.254   1.323   2.068
10378SOL     OW32032   0.007   4.983   5.487
10378SOL    HW132033   0.051   4.894   5.499
10378SOL    HW232034   6.963   4.977   5.416
10379SOL     OW32035   2.343   6.701   3.996
10379SOL    HW132036   2.279   6.767   4.036
10379SOL    HW232037   2.436   6.724   4.025
10380SOL     OW32038   1.383   2.717   4.859
10380SOL    HW132039   1.414   2.764   4.942
10380SOL    HW232040   1.376   2.783   4.785
10381SOL     OW32041   4.412   4.246   1.454
10381SOL    HW132042   4.490   4.266   1.514
10381SOL    HW232043   4.386   4.150   1.465
10382SOL     OW32044   3.235   4.670   1.745
10382SOL    HW132045   3.309   4.610   1.714
10382SOL    HW232046   3.241   4.681   1.844
10383SOL     OW32047   2.389   4.964   0.103
10383SOL    HW132048   2.453   4.930   0.171
10383SOL    HW232049   2.418   4.935   0.012
10384SOL     OW32050   6.058   6.303   1.034
10384SOL    HW132051   6.085   6.397   1.011
10384SOL    HW232052   5.998   6.267   0.963
10385SOL     OW32053   3.386   4.941   6.202
10385SOL    HW132054   3.434   4.868   6.250
10385SOL    HW232055   3.288   4.921   6.200
10386SOL     OW32056   6.896   0.988   6.434
10386SOL    HW132057   6.880   1.083   6.462
10386SOL    HW232058   6.907   0.931   6.515
10387SOL     OW32059   4.940   3.200   2.737
10387SOL    HW132060   4.937   3.196   2.637
10387SOL    HW232061   4.952   3.295   2.766
10388SOL     OW32062   3.008   0.490   5.941
10388SOL    HW132063   3.027   0.431   5.862
10388SOL    HW232064   2.936   0.556   5.916
10389SOL     OW32065   6.585   3.950   6.996
10389SOL    HW132066   6.510   3.977   0.031
10389SOL    HW232067   6.672   3.961   0.019
10390SOL     OW32068   2.280   2.352   1.237
10390SOL    HW132069   2.288   2.260   1.199
10390SOL    HW232070   2.360   2.371   1.294
10391SOL     OW32071   0.500   6.500   3.436
10391SOL    HW132072   0.515   6.598   3.428
10391SOL    HW232073   0.417   6.474   3.388
10392SOL     OW32074   7.022   5.364   4.876
10392SOL    HW132075   0.035   5.449   4.913
10392SOL    HW232076   6.993   5.379   4.782
10393SOL     OW32077   2.135   3.802   4.100
10393SOL    HW132078   2.076   3.869   4.146
10393SOL    HW232079   2.198   3.762   4.167
10394SOL     OW32080   2.664   6.242   4.192
10394SOL    HW132081   2.617   6.323   4.157
10394SOL    HW232082   2.674   6.174   4.119
10395SOL     OW32083   0.445   6.387   1.101
10395SOL    HW132084   0.449   6.333   1.017
10395SOL    HW232085   0.507   6.347   1.169
10396SOL     OW32086   3.228   2.066   3.940
10396SOL    HW132087   3.184   2.056   3.850
10396SOL    HW232088   3.319   2.024   3.936
10397SOL     OW32089   3.134   2.169   2.606
10397SOL    HW132090   3.227   2.136   2.593
10397SOL    HW232091   3.112   2.234   2.533
10398SOL     OW32092   0.043   3.501   1.211
10398SOL    HW132093   0.086   3.411   1.211
10398SOL    HW232094   0.001   3.518   1.300
10399SOL     OW32095   5.551   2.779   2.822
10399SOL    HW132096   5.548   2.863   2.877
10399SOL    HW232097   5.610   2.793   2.743
10400SOL     OW32098   4.104   6.780   0.292
10400SOL    HW132099   4.122   6.846   0.366
10400SOL    HW232100   4.010   6.747   0.299
10401SOL     OW32101   5.926   1.023   3.685
10401SOL    HW132102   5.963   1.026   3.778
10401SOL    HW232103   5.992   1.066   3.623
10402SOL     OW32104   6.516   3.187   4.913
10402SOL    HW132105   6.593   3.172   4.852
10402SOL    HW232106   6.453   3.253   4.872
10403SOL     OW32107   3.825   0.994   3.728
10403SOL    HW132108   3.919   0.963   3.719
10403SOL    HW232109   3.823   1.087   3.765
10404SOL     OW32110   5.674   0.188   5.003
10404SOL    HW132111   5.623   0.233   4.930
10404SOL    HW232112   5.721   0.258   5.058
10405SOL     OW32113   0.383   1.766   5.973
10405SOL    HW132114   0.472   1.791   5.936
10405SOL    HW232115   0.394   1.727   6.065
10406SOL     OW32116   3.369   4.928   2.664
10406SOL    HW132117   3.390   4.913   2.761
10406SOL    HW232118   3.433   4.995   2.626
10407SOL     OW32119   3.083   6.378   6.243
10407SOL    HW132120   3.069   6.285   6.209
10407SOL    HW232121   3.180   6.398   6.247
10408SOL     OW32122   4.562   0.671   0.575
10408SOL    HW132123   4.605   0.612   0.508
10408SOL    HW232124   4.633   0.710   0.635
10409SOL     OW32125   6.986   4.254   1.535
10409SOL    HW132126   6.985   4.187   1.461
10409SOL    HW232127   7.020   4.341   1.501
10410SOL     OW32128   5.938   0.979   6.672
10410SOL    HW132129   5.964   1.062   6.721
10410SOL    HW232130   5.838   0.972   6.669
10411SOL     OW32131   3.473   6.381   3.348
10411SOL    HW132132   3.529   6.461   3.325
10411SOL    HW232133   3.518   6.330   3.421
10412SOL     OW32134   6.395   0.591   0.353
10412SOL    HW132135   6.495   0.592   0.346
10412SOL    HW232136   6.369   0.579   0.449
10413SOL     OW32137   5.875   2.180   0.932
10413SOL    HW132138   5.880   2.092   0.980
10413SOL    HW232139   5.932   2.175   0.850
10414SOL     OW32140   4.090   4.272   5.296
10414SOL    HW132141   4.161   4.320   5.245
10414SOL    HW232142   4.056   4.196   5.242
10415SOL     OW32143   0.566   3.986   4.977
10415SOL    HW132144   0.595   3.891   4.978
10415SOL    HW232145   0.616   4.037   5.048
10416SOL     OW32146   6.433   0.869   3.314
10416SOL    HW132147   6.531   0.885   3.305
10416SOL    HW232148   6.388   0.893   3.228
10417SOL     OW32149   3.742   5.256   4.346
10417SOL    HW132150   3.714   5.163   4.320
10417SOL    HW232151   3.676   5.321   4.308
10418SOL     OW32152   0.059   4.818   6.346
10418SOL    HW132153   0.035   4.888   6.280
10418SOL    HW232154   0.146   4.843   6.390
10419SOL     OW32155   1.448   0.302   6.428
10419SOL    HW132156   1.419   0.398   6.423
10419SOL    HW232157   1.540   0.297   6.467
10420SOL     OW32158   6.821   3.239   2.756
10420SOL    HW132159   6.830   3.326   2.805
10420SOL    HW232160   6.774   3.255   2.669
10421SOL     OW32161   0.350   1.932   3.457
10421SOL    HW132162   0.266   1.916   3.509
10421SOL    HW232163   0.427   1.942   3.520
10422SOL     OW32164   6.069   2.710   5.661
10422SOL    HW132165   6.130   2.730   5.737
10422SOL    HW232166   5.989   2.661   5.695
10423SOL     OW32167   5.279   4.551   4.762
10423SOL    HW132168   5.363   4.582   4.716
10423SOL    HW232169   5.227   4.492   4.700
10424SOL     OW32170   6.029   3.210   0.265
10424SOL    HW132171   5.985   3.148   0.330
10424SOL    HW232172   6.128   3.194   0.264
10425SOL     OW32173   1.902   0.002   1.915
10425SOL    HW132174   1.900   6.951   1.851
10425SOL    HW232175   1.929   0.086   1.868
10426SOL     OW32176   6.712   4.683   0.621
10426SOL    HW132177   6.630   4.628   0.607
10426SOL    HW232178   6.764   4.647   0.699
10427SOL     OW32179   3.658   1.543   0.194
10427SOL    HW132180   3.693   1.564   0.285
10427SOL    HW232181   3.575   1.596   0.177
10428SOL     OW32182   2.668   1.509   4.207
10428SOL    HW132183   2.683   1.467   4.297
10428SOL    HW232184   2.686   1.441   4.136
10429SOL     OW32185   0.293   5.376   1.334
10429SOL    HW132186   0.339   5.288   1.321
10429SOL    HW232187   0.340   5.427   1.406
10430SOL     OW32188   4.468   6.309   3.973
10430SOL    HW132189   4.407   6.275   3.901
10430SOL    HW232190   4.414   6.352   4.045
10431SOL     OW32191   3.355   6.082   4.719
10431SOL    HW132192   3.379   6.162   4.664
10431SOL    HW232193   3.259   6.059   4.704
10432SOL     OW32194   6.290   0.430   4.494
10432SOL    HW132195   6.260   0.446   4.399
10432SOL    HW232196   6.324   0.336   4.503
10433SOL     OW32197   2.058   6.969   1.280
10433SOL    HW132198   2.032   0.039   1.260
10433SOL    HW232199   2.099   6.928   1.199
10434SOL     OW32200   3.839   6.637   3.265
10434SOL    HW132201   3.864   6.727   3.229
10434SOL    HW232202   3.920   6.579   3.271
10435SOL     OW32203   7.000   0.206   4.790
10435SOL    HW132204   6.990   0.149   4.708
10435SOL    HW232205   6.916   0.202   4.843
10436SOL     OW32206   1.038   5.000   5.883
10436SOL    HW132207   1.067   5.095   5.897
10436SOL    HW232208   0.967   4.997   5.813
10437SOL     OW32209   6.156   4.564   5.419
10437SOL    HW132210   6.234   4.557   5.482
10437SOL    HW232211   6.111   4.653   5.432
10438SOL     OW32212   5.111   6.558   6.733
10438SOL    HW132213   5.069   6.620   6.667
10438SOL    HW232214   5.167   6.610   6.798
10439SOL     OW32215   3.419   1.586   5.885
10439SOL    HW132216   3.415   1.647   5.805
10439SOL    HW232217   3.328   1.578   5.926
10440SOL     OW32218   1.862   6.246   0.014
10440SOL    HW132219   1.924   6.296   6.978
10440SOL    HW232220   1.800   6.311   0.058
10441SOL     OW32221   4.874   1.341   0.008
10441SOL    HW132222   4.941   1.275   7.001
10441SOL    HW232223   4.914   1.432   0.008
10442SOL     OW32224   3.441   5.985   5.847
10442SOL    HW132225   3.510   5.914   5.858
10442SOL    HW232226   3.351   5.943   5.834
10443SOL     OW32227   5.246   3.690   4.850
10443SOL    HW132228   5.320   3.655   4.791
10443SOL    HW232229   5.158   3.665   4.811
10444SOL     OW32230   3.848   6.046   4.825
10444SOL    HW132231   3.767   6.001   4.786
10444SOL    HW232232   3.912   6.068   4.751
10445SOL     OW32233   0.542   5.469   3.892
10445SOL    HW132234   0.496   5.555   3.916
10445SOL    HW232235   0.635   5.470   3.929
10446SOL     OW32236   1.114   3.639   6.022
10446SOL    HW132237   1.120   3.601   6.115
10446SOL    HW232238   1.131   3.566   5.956
10447SOL     OW32239   6.634   1.335   1.788
10447SOL    HW132240   6.715   1.391   1.801
10447SOL    HW232241   6.556   1.379   1.833
10448SOL     OW32242   4.247   2.465   1.441
10448SOL    HW132243   4.257   2.506   1.532
10448SOL    HW232244   4.233   2.366   1.451
10449SOL     OW32245   2.264   5.414   4.799
10449SOL    HW132246   2.207   5.495   4.788
10449SOL    HW232247   2.345   5.438   4.853
10450SOL     OW32248   0.429   2.386   0.721
10450SOL    HW132249   0.481   2.301   0.708
10450SOL    HW232250   0.375   2.379   0.805
10451SOL     OW32251   2.478   5.025   2.577
10451SOL    HW132252   2.428   5.010   2.662
10451SOL    HW232253   2.500   4.937   2.535
10452SOL     OW32254   6.298   3.552   3.816
10452SOL    HW132255   6.284   3.648   3.840
10452SOL    HW232256   6.395   3.530   3.823
10453SOL     OW32257   5.724   6.125   1.642
10453SOL    HW132258   5.807   6.070   1.637
10453SOL    HW232259   5.723   6.191   1.566
10454SOL     OW32260   5.267   2.634   1.635
10454SOL    HW132261   5.195   2.698   1.659
10454SOL    HW232262   5.289   2.644   1.538
10455SOL     OW32263   0.533   4.684   2.883
10455SOL    HW132264   0.496   4.765   2.837
10455SOL    HW232265   0.620   4.659   2.842
10456SOL     OW32266   3.228   6.235   1.389
10456SOL    HW132267   3.257   6.314   1.444
10456SOL    HW232268   3.307   6.192   1.348
10457SOL     OW32269   3.177   3.241   3.186
10457SOL    HW132270   3.198   3.161   3.242
10457SOL    HW232271   3.151   3.210   3.094
10458SOL     OW32272   0.190   0.350   0.350
10458SOL    HW132273   0.114   0.316   0.295
10458SOL    HW232274   0.155   0.401   0.428
10459SOL     OW32275   5.157   5.416   3.173
10459SOL    HW132276   5.119   5.336   3.127
10459SOL    HW232277   5.142   5.497   3.116
10460SOL     OW32278   1.890   5.663   1.435
10460SOL    HW132279   1.878   5.747   1.489
10460SOL    HW232280   1.947   5.682   1.355
10461SOL     OW32281   1.100   6.256   5.849
10461SOL    HW132282   1.181   6.270   5.905
10461SOL    HW232283   1.021   6.298   5.894
10462SOL     OW32284   5.536   1.674   2.409
10462SOL    HW132285   5.600   1.748   2.391
10462SOL    HW232286   5.492   1.647   2.323
10463SOL     OW32287   3.753   3.796   5.722
10463SOL    HW132288   3.827   3.860   5.701
10463SOL    HW232289   3.791   3.714   5.765
10464SOL     OW32290   5.034   0.059   0.675
10464SOL    HW132291   4.999   0.027   0.587
10464SOL    HW232292   5.103   7.020   0.709
10465SOL     OW32293   6.314   6.884   0.411
10465SOL    HW132294   6.406   6.881   0.451
10465SOL    HW232295   6.251   6.930   0.473
10466SOL     OW32296   4.945   5.187   4.940
10466SOL    HW132297   4.863   5.134   4.922
10466SOL    HW232298   5.019   5.125   4.967
10467SOL     OW32299   1.579   1.824   5.415
10467SOL    HW132300   1.555   1.914   5.451
10467SOL    HW232301   1.581   1.757   5.489
10468SOL     OW32302   3.539   5.875   3.584
10468SOL    HW132303   3.594   5.808   3.536
10468SOL    HW232304   3.474   5.917   3.521
10469SOL     OW32305   3.560   3.952   0.834
10469SOL    HW132306   3.485   4.005   0.794
10469SOL    HW232307   3.535   3.855   0.836
10470SOL     OW32308   1.812   1.949   2.770
10470SOL    HW132309   1.835   1.857   2.739
10470SOL    HW232310   1.713   1.961   2.769
10471SOL     OW32311   2.238   3.461   0.973
10471SOL    HW132312   2.170   3.494   1.039
10471SOL    HW232313   2.206   3.375   0.933
10472SOL     OW32314   4.030   6.146   1.659
10472SOL    HW132315   4.113   6.094   1.679
10472SOL    HW232316   4.040   6.193   1.571
10473SOL     OW32317   5.442   0.111   0.658
10473SOL    HW132318   5.458   0.035   0.595
10473SOL    HW232319   5.520   0.121   0.719
10474SOL     OW32320   4.515   0.480   4.753
10474SOL    HW132321   4.441   0.417   4.729
10474SOL    HW232322   4.566   0.503   4.670
10475SOL     OW32323   4.810   6.282   1.280
10475SOL    HW132324   4.721   6.238   1.291
10475SOL    HW232325   4.860   6.239   1.205
10476SOL     OW32326   6.798   5.573   6.563
10476SOL    HW132327   6.829   5.494   6.616
10476SOL    HW232328   6.701   5.563   6.542
10477SOL     OW32329   6.140   3.660   4.939
10477SOL    HW132330   6.178   3.635   4.850
10477SOL    HW232331   6.075   3.735   4.927
10478SOL     OW32332   0.682   6.866   6.727
10478SOL    HW132333   0.656   6.891   6.634
10478SOL    HW232334   0.661   6.769   6.743
10479SOL     OW32335   1.195   1.691   1.643
10479SOL    HW132336   1.285   1.714   1.606
10479SOL    HW232337   1.189   1.723   1.737
10480SOL     OW32338   5.559   0.207   1.105
10480SOL    HW132339   5.571   0.296   1.060
10480SOL    HW232340   5.475   0.209   1.159
10481SOL     OW32341   2.663   1.128   4.669
10481SOL    HW132342   2.651   1.160   4.763
10481SOL    HW232343   2.589   1.162   4.611
10482SOL     OW32344   0.773   5.918   3.968
10482SOL    HW132345   0.830   5.960   3.896
10482SOL    HW232346   0.689   5.971   3.978
10483SOL     OW32347   6.477   5.194   0.268
10483SOL    HW132348   6.419   5.235   0.198
10483SOL    HW232349   6.495   5.260   0.340
10484SOL     OW32350   0.189   0.552   1.203
10484SOL    HW132351   0.156   0.537   1.296
10484SOL    HW232352   0.150   0.636   1.166
10485SOL     OW32353   3.782   3.765   3.097
10485SOL    HW132354   3.849   3.803   3.161
10485SOL    HW232355   3.815   3.776   3.003
10486SOL     OW32356   6.238   0.162   6.036
10486SOL    HW132357   6.183   0.199   5.961
10486SOL    HW232358   6.204   0.072   6.061
10487SOL     OW32359   4.729   1.857   1.480
10487SOL    HW132360   4.777   1.791   1.537
10487SOL    HW232361   4.632   1.859   1.505
10488SOL     OW32362   0.391   2.069   5.871
10488SOL    HW132363   0.464   2.002   5.880
10488SOL    HW232364   0.365   2.103   5.961
10489SOL     OW32365   5.871   5.940   3.710
10489SOL    HW132366   5.890   5.870   3.778
10489SOL    HW232367   5.906   6.028   3.741
10490SOL     OW32368   5.564   0.640   0.520
10490SOL    HW132369   5.482   0.615   0.572
10490SOL    HW232370   5.634   0.571   0.532
10491SOL     OW32371   1.737   2.911   6.136
10491SOL    HW132372   1.706   3.006   6.148
10491SOL    HW232373   1.687   2.870   6.059
10492SOL     OW32374   4.163   6.680   0.594
10492SOL    HW132375   4.189   6.775   0.576
10492SOL    HW232376   4.229   6.639   0.657
10493SOL     OW32377   4.235   5.354   1.148
10493SOL    HW132378   4.288   5.295   1.210
10493SOL    HW232379   4.169   5.407   1.201
10494SOL     OW32380   1.081   4.839   6.109
10494SOL    HW132381   1.137   4.762   6.081
10494SOL    HW232382   1.055   4.892   6.027
10495SOL     OW32383   6.903   6.002   6.671
10495SOL    HW132384   6.836   5.991   6.745
10495SOL    HW232385   6.993   6.021   6.711
10496SOL     OW32386   6.824   4.039   5.484
10496SOL    HW132387   6.874   4.045   5.570
10496SOL    HW232388   6.847   3.953   5.438
10497SOL     OW32389   1.995   6.598   1.764
10497SOL    HW132390   2.021   6.585   1.860
10497SOL    HW232391   1.993   6.510   1.717
10498SOL     OW32392   5.196   5.930   1.021
10498SOL    HW132393   5.219   6.027   1.021
10498SOL    HW232394   5.176   5.901   0.927
10499SOL     OW32395   5.807   5.584   1.256
10499SOL    HW132396   5.816   5.523   1.335
10499SOL    HW232397   5.800   5.528   1.173
10500SOL     OW32398   5.528   3.781   4.785
10500SOL    HW132399   5.571   3.842   4.719
10500SOL    HW232400   5.513   3.829   4.870
10501SOL     OW32401   2.929   5.442   2.758
10501SOL    HW132402   2.878   5.472   2.838
10501SOL    HW232403   2.903   5.348   2.735
10502SOL     OW32404   3.108   2.959   1.889
10502SOL    HW132405   3.166   3.038   1.869
10502SOL    HW232406   3.164   2.876   1.886
10503SOL     OW32407   6.920   3.922   6.532
10503SOL    HW132408   6.855   3.864   6.582
10503SOL    HW232409   6.876   3.957   6.449
10504SOL     OW32410   1.390   2.784   5.928
10504SOL    HW132411   1.362   2.834   6.010
10504SOL    HW232412   1.482   2.748   5.941
10505SOL     OW32413   5.939   5.798   2.281
10505SOL    HW132414   6.003   5.831   2.212
10505SOL    HW232415   5.856   5.853   2.280
10506SOL     OW32416   0.404   3.174   6.901
10506SOL    HW132417   0.400   3.169   6.801
10506SOL    HW232418   0.497   3.151   6.932
10507SOL     OW32419   2.774   4.529   6.979
10507SOL    HW132420   2.773   4.437   6.939
10507SOL    HW232421   2.757   4.522   0.052
10508SOL     OW32422   0.605   5.927   4.558
10508SOL    HW132423   0.669   5.878   4.499
10508SOL    HW232424   0.644   5.936   4.650
10509SOL     OW32425   4.863   3.182   4.248
10509SOL    HW132426   4.881   3.196   4.151
10509SOL    HW232427   4.880   3.268   4.297
10510SOL     OW32428   5.074   6.438   5.374
10510SOL    HW132429   5.096   6.500   5.449
10510SOL    HW232430   5.002   6.477   5.317
10511SOL     OW32431   2.962   1.091   1.722
10511SOL    HW132432   3.045   1.067   1.772
10511SOL    HW232433   2.959   1.190   1.709
10512SOL     OW32434   4.243   6.989   6.079
10512SOL    HW132435   4.171   6.927   6.111
10512SOL    HW232436   4.212   0.059   6.088
10513SOL     OW32437   6.250   2.974   2.395
10513SOL    HW132438   6.262   3.022   2.308
10513SOL    HW232439   6.338   2.971   2.443
10514SOL     OW32440   2.226   1.994   1.474
10514SOL    HW132441   2.187   1.908   1.507
10514SOL    HW232442   2.300   2.022   1.535
10515SOL     OW32443   2.253   2.476   4.440
10515SOL    HW132444   2.203   2.519   4.515
10515SOL    HW232445   2.281   2.546   4.374
10516SOL     OW32446   2.892   1.793   0.416
10516SOL    HW132447   2.800   1.788   0.376
10516SOL    HW232448   2.927   1.886   0.407
10517SOL     OW32449   1.868   3.764   2.814
10517SOL    HW132450   1.883   3.766   2.715
10517SOL    HW232451   1.830   3.851   2.845
10518SOL     OW32452   0.339   5.548   2.449
10518SOL    HW132453   0.326   5.478   2.519
10518SOL    HW232454   0.426   5.533   2.402
10519SOL     OW32455   3.147   5.253   1.799
10519SOL    HW132456   3.222   5.219   1.856
10519SOL    HW232457   3.080   5.180   1.786
10520SOL     OW32458   6.320   1.581   6.402
10520SOL    HW132459   6.341   1.502   6.460
10520SOL    HW232460   6.333   1.556   6.306
10521SOL     OW32461   6.280   3.751   1.431
10521SOL    HW132462   6.181   3.755   1.445
10521SOL    HW232463   6.326   3.742   1.520
10522SOL     OW32464   6.599   2.710   3.020
10522SOL    HW132465   6.674   2.668   2.971
10522SOL    HW232466   6.620   2.712   3.118
10523SOL     OW32467   0.738   4.287   4.189
10523SOL    HW132468   0.704   4.347   4.262
10523SOL    HW232469   0.774   4.343   4.114
10524SOL     OW32470   0.153   5.385   3.443
10524SOL    HW132471   0.133   5.423   3.533
10524SOL    HW232472   0.248   5.357   3.438
10525SOL     OW32473   4.489   0.931   4.961
10525SOL    HW132474   4.526   1.020   4.933
10525SOL    HW232475   4.496   0.921   5.060
10526SOL     OW32476   0.496   5.759   1.259
10526SOL    HW132477   0.459   5.831   1.201
10526SOL    HW232478   0.493   5.672   1.210
10527SOL     OW32479   6.948   1.272   5.273
10527SOL    HW132480   6.905   1.359   5.295
10527SOL    HW232481   6.963   1.266   5.174
10528SOL     OW32482   0.529   4.758   6.998
10528SOL    HW132483   0.459   4.765   0.045
10528SOL    HW232484   0.511   4.826   6.927
10529SOL     OW32485   1.790   6.159   5.870
10529SOL    HW132486   1.886   6.182   5.888
10529SOL    HW232487   1.785   6.066   5.834
10530SOL     OW32488   1.200   6.689   6.033
10530SOL    HW132489   1.158   6.762   6.086
10530SOL    HW232490   1.143   6.670   5.952
10531SOL     OW32491   2.869   2.656   5.327
10531SOL    HW132492   2.900   2.600   5.404
10531SOL    HW232493   2.907   2.748   5.334
10532SOL     OW32494   6.227   6.720   6.253
10532SOL    HW132495   6.290   6.787   6.214
10532SOL    HW232496   6.145   6.767   6.286
10533SOL     OW32497   3.075   5.842   4.053
10533SOL    HW132498   3.128   5.840   3.969
10533SOL    HW232499   3.116   5.908   4.116
10534SOL     OW32500   0.503   5.515   2.935
10534SOL    HW132501   0.549   5.479   2.854
10534SOL    HW232502   0.502   5.615   2.930
10535SOL     OW32503   2.711   1.362   2.378
10535SOL    HW132504   2.705   1.459   2.355
10535SOL    HW232505   2.808   1.336   2.386
10536SOL     OW32506   4.456   0.489   3.665
10536SOL    HW132507   4.428   0.434   3.744
10536SOL    HW232508   4.540   0.452   3.626
10537SOL     OW32509   4.669   6.568   3.574
10537SOL    HW132510   4.672   6.490   3.512
10537SOL    HW232511   4.592   6.627   3.550
10538SOL     OW32512   5.967   4.143   2.724
10538SOL    HW132513   6.048   4.085   2.721
10538SOL    HW232514   5.894   4.096   2.774
10539SOL     OW32515   6.239   5.817   2.530
10539SOL    HW132516   6.252   5.856   2.439
10539SOL    HW232517   6.250   5.718   2.526
10540SOL     OW32518   2.211   4.157   6.118
10540SOL    HW132519   2.286   4.095   6.094
10540SOL    HW232520   2.189   4.214   6.039
10541SOL     OW32521   2.976   3.313   4.595
10541SOL    HW132522   2.983   3.402   4.551
10541SOL    HW232523   2.958   3.243   4.526
10542SOL     OW32524   5.917   0.349   4.414
10542SOL    HW132525   5.934   0.381   4.321
10542SOL    HW232526   5.997   0.298   4.447
10543SOL     OW32527   6.392   2.248   5.708
10543SOL    HW132528   6.428   2.167   5.660
10543SOL    HW232529   6.321   2.219   5.772
10544SOL     OW32530   1.023   0.880   4.358
10544SOL    HW132531   1.093   0.916   4.296
10544SOL    HW232532   0.963   0.817   4.309
10545SOL     OW32533   1.367   2.645   2.809
10545SOL    HW132534   1.427   2.724   2.816
10545SOL    HW232535   1.363   2.615   2.713
10546SOL     OW32536   2.625   6.700   1.016
10546SOL    HW132537   2.565   6.764   1.062
10546SOL    HW232538   2.574   6.649   0.947
10547SOL     OW32539   4.747   0.027   4.745
10547SOL    HW132540   4.649   0.031   4.724
10547SOL    HW232541   4.780   0.120   4.763
10548SOL     OW32542   0.939   4.712   4.791
10548SOL    HW132543   0.948   4.799   4.839
10548SOL    HW232544   0.988   4.717   4.704
10549SOL     OW32545   0.406   1.780   0.535
10549SOL    HW132546   0.465   1.699   0.533
10549SOL    HW232547   0.334   1.770   0.466
10550SOL     OW32548   3.938   6.268   2.993
10550SOL    HW132549   3.964   6.182   2.950
10550SOL    HW232550   4.010   6.297   3.057
10551SOL     OW32551   3.059   1.890   5.952
10551SOL    HW132552   3.032   1.921   6.043
10551SOL    HW232553   3.075   1.968   5.893
10552SOL     OW32554   3.116   1.093   3.827
10552SOL    HW132555   3.148   1.015   3.881
10552SOL    HW232556   3.081   1.163   3.888
10553SOL     OW32557   6.911   5.222   1.042
10553SOL    HW132558   6.925   5.123   1.041
10553SOL    HW232559   6.941   5.259   1.129
10554SOL     OW32560   6.454   5.024   2.844
10554SOL    HW132561   6.450   4.953   2.915
10554SOL    HW232562   6.431   5.113   2.884
10555SOL     OW32563   2.850   1.928   0.859
10555SOL    HW132564   2.888   1.844   0.822
10555SOL    HW232565   2.910   2.005   0.838
10556SOL     OW32566   2.417   1.703   3.153
10556SOL    HW132567   2.515   1.711   3.169
10556SOL    HW232568   2.401   1.669   3.061
10557SOL     OW32569   1.858   3.860   4.512
10557SOL    HW132570   1.886   3.863   4.608
10557SOL    HW232571   1.775   3.914   4.500
10558SOL     OW32572   3.342   4.755   5.335
10558SOL    HW132573   3.376   4.806   5.256
10558SOL    HW232574   3.294   4.817   5.397
10559SOL     OW32575   3.595   0.332   0.421
10559SOL    HW132576   3.666   0.282   0.471
10559SOL    HW232577   3.636   0.411   0.375
10560SOL     OW32578   4.526   6.065   1.887
10560SOL    HW132579   4.564   5.983   1.931
10560SOL    HW232580   4.587   6.093   1.812
10561SOL     OW32581   4.953   4.266   1.921
10561SOL    HW132582   5.001   4.353   1.917
10561SOL    HW232583   5.018   4.191   1.914
10562SOL     OW32584   3.301   6.929   0.957
10562SOL    HW132585   3.363   6.858   0.923
10562SOL    HW232586   3.341   7.019   0.942
10563SOL     OW32587   0.592   6.874   0.916
10563SOL    HW132588   0.691   6.881   0.912
10563SOL    HW232589   0.564   6.839   1.006
10564SOL     OW32590   6.777   5.472   3.909
10564SOL    HW132591   6.749   5.411   3.982
10564SOL    HW232592   6.737   5.563   3.924
10565SOL     OW32593   6.598   0.147   5.665
10565SOL    HW132594   6.685   0.110   5.632
10565SOL    HW232595   6.523   0.097   5.623
10566SOL     OW32596   2.517   2.688   6.848
10566SOL    HW132597   2.446   2.754   6.822
10566SOL    HW232598   2.606   2.722   6.820
10567SOL     OW32599   1.612   2.355   5.915
10567SOL    HW132600   1.699   2.403   5.930
10567SOL    HW232601   1.552   2.411   5.857
10568SOL     OW32602   5.381   3.104   6.639
10568SOL    HW132603   5.289   3.107   6.679
10568SOL    HW232604   5.404   3.010   6.613
10569SOL     OW32605   5.293   0.093   1.799
10569SOL    HW132606   5.294   7.018   1.800
10569SOL    HW232607   5.329   0.126   1.712
10570SOL     OW32608   1.050   5.122   4.096
10570SOL    HW132609   1.005   5.143   4.009
10570SOL    HW232610   1.078   5.026   4.097
10571SOL     OW32611   7.001   4.650   6.561
10571SOL    HW132612   0.019   4.711   6.494
10571SOL    HW232613   0.009   4.557   6.547
10572SOL     OW32614   6.660   4.001   1.911
10572SOL    HW132615   6.680   4.086   1.861
10572SOL    HW232616   6.740   3.974   1.964
10573SOL     OW32617   5.665   0.645   4.663
10573SOL    HW132618   5.570   0.645   4.694
10573SOL    HW232619   5.668   0.655   4.563
10574SOL     OW32620   6.329   0.541   3.682
10574SOL    HW132621   6.375   0.611   3.627
10574SOL    HW232622   6.380   0.526   3.767
10575SOL     OW32623   5.306   0.533   3.298
10575SOL    HW132624   5.212   0.510   3.323
10575SOL    HW232625   5.325   0.628   3.321
10576SOL     OW32626   1.731   4.938   2.864
10576SOL    HW132627   1.796   4.863   2.857
10576SOL    HW232628   1.649   4.915   2.811
10577SOL     OW32629   3.021   6.291   0.511
10577SOL    HW132630   3.044   6.369   0.569
10577SOL    HW232631   3.083   6.215   0.530
10578SOL     OW32632   6.085   2.492   4.075
10578SOL    HW132633   6.177   2.502   4.113
10578SOL    HW232634   6.020   2.477   4.150
10579SOL     OW32635   3.044   3.536   1.260
10579SOL    HW132636   3.132   3.492   1.242
10579SOL    HW232637   2.996   3.486   1.332
10580SOL     OW32638   6.157   6.880   6.952
10580SOL    HW132639   6.209   6.907   0.008
10580SOL    HW232640   6.187   6.789   6.922
10581SOL     OW32641   5.472   6.523   2.884
10581SOL    HW132642   5.387   6.514   2.935
10581SOL    HW232643   5.459   6.589   2.810
10582SOL     OW32644   5.391   4.452   6.560
10582SOL    HW132645   5.377   4.548   6.540
10582SOL    HW232646   5.433   4.407   6.481
10583SOL     OW32647   3.316   6.971   3.878
10583SOL    HW132648   3.283   6.959   3.784
10583SOL    HW232649   3.334   0.043   3.894
10584SOL     OW32650   6.587   0.358   5.831
10584SOL    HW132651   6.563   0.325   5.922
10584SOL    HW232652   6.581   0.283   5.765
10585SOL     OW32653   0.311   1.926   6.767
10585SOL    HW132654   0.393   1.873   6.792
10585SOL    HW232655   0.305   2.007   6.827
10586SOL     OW32656   4.604   4.780   5.714
10586SOL    HW132657   4.621   4.852   5.781
10586SOL    HW232658   4.508   4.754   5.717
10587SOL     OW32659   0.422   5.867   5.761
10587SOL    HW132660   0.423   5.902   5.668
10587SOL    HW232661   0.422   5.767   5.759
10588SOL     OW32662   1.546   3.084   4.261
10588SOL    HW132663   1.593   3.145   4.197
10588SOL    HW232664   1.614   3.040   4.320
10589SOL     OW32665   5.657   6.254   4.956
10589SOL    HW132666   5.622   6.168   4.994
10589SOL    HW232667   5.701   6.307   5.029
10590SOL     OW32668   0.405   5.875   1.496
10590SOL    HW132669   0.343   5.951   1.473
10590SOL    HW232670   0.457   5.850   1.414
10591SOL     OW32671   1.495   0.999   1.249
10591SOL    HW132672   1.452   0.944   1.321
10591SOL    HW232673   1.440   0.995   1.166
10592SOL     OW32674   6.003   2.336   4.751
10592SOL    HW132675   6.034   2.315   4.658
10592SOL    HW232676   6.018   2.256   4.810
10593SOL     OW32677   2.401   6.269   0.578
10593SOL    HW132678   2.421   6.331   0.502
10593SOL    HW232679   2.305   6.275   0.603
10594SOL     OW32680   4.009   1.237   3.546
10594SOL    HW132681   4.045   1.196   3.462
10594SOL    HW232682   4.012   1.170   3.620
10595SOL     OW32683   5.795   0.506   0.522
10595SOL    HW132684   5.826   0.570   0.451
10595SOL    HW232685   5.872   0.451   0.553
10596SOL     OW32686   4.678   1.758   0.197
10596SOL    HW132687   4.661   1.741   0.100
10596SOL    HW232688   4.722   1.678   0.238
10597SOL     OW32689   2.599   0.803   6.006
10597SOL    HW132690   2.515   0.839   5.965
10597SOL    HW232691   2.647   0.747   5.939
10598SOL     OW32692   2.372   1.894   6.184
10598SOL    HW132693   2.333   1.980   6.152
10598SOL    HW232694   2.367   1.890   6.284
10599SOL     OW32695   6.340   4.510   5.902
10599SOL    HW132696   6.385   4.439   5.957
10599SOL    HW232697   6.323   4.590   5.959
10600SOL     OW32698   3.225   0.857   1.609
10600SOL    HW132699   3.221   0.910   1.694
10600SOL    HW232700   3.170   0.902   1.539
10601SOL     OW32701   0.315   6.678   5.827
10601SOL    HW132702   0.401   6.666   5.777
10601SOL    HW232703   0.306   6.605   5.895
10602SOL     OW32704   0.369   0.501   0.221
10602SOL    HW132705   0.346   0.424   0.280
10602SOL    HW232706   0.333   0.484   0.129
10603SOL     OW32707   4.476   6.647   1.510
10603SOL    HW132708   4.568   6.684   1.503
10603SOL    HW232709   4.468   6.590   1.592
10604SOL     OW32710   0.182   6.406   4.777
10604SOL    HW132711   0.193   6.343   4.700
10604SOL    HW232712   0.144   6.493   4.745
10605SOL     OW32713   2.152   0.240   0.017
10605SOL    HW132714   2.179   0.317   0.076
10605SOL    HW232715   2.229   0.216   6.983
10606SOL     OW32716   6.032   0.752   1.594
10606SOL    HW132717   5.943   0.709   1.600
10606SOL    HW232718   6.076   0.753   1.684
10607SOL     OW32719   4.214   4.077   6.680
10607SOL    HW132720   4.221   3.979   6.695
10607SOL    HW232721   4.249   4.127   6.760
10608SOL     OW32722   6.492   2.944   2.896
10608SOL    HW132723   6.575   2.890   2.886
10608SOL    HW232724   6.413   2.883   2.910
10609SOL     OW32725   3.926   6.802   0.641
10609SOL    HW132726   4.010   6.748   0.643
10609SOL    HW232727   3.852   6.750   0.682
10610SOL     OW32728   6.767   1.803   4.261
10610SOL    HW132729   6.815   1.889   4.276
10610SOL    HW232730   6.720   1.776   4.345
10611SOL     OW32731   2.477   5.107   4.508
10611SOL    HW132732   2.576   5.114   4.499
10611SOL    HW232733   2.454   5.033   4.571
10612SOL     OW32734   5.474   1.285   4.110
10612SOL    HW132735   5.571   1.281   4.136
10612SOL    HW232736   5.419   1.242   4.182
10613SOL     OW32737   5.361   6.353   4.214
10613SOL    HW132738   5.308   6.369   4.130
10613SOL    HW232739   5.411   6.436   4.238
10614SOL     OW32740   5.230   0.604   5.672
10614SOL    HW132741   5.144   0.579   5.627
10614SOL    HW232742   5.238   0.556   5.759
10615SOL     OW32743   2.915   1.692   5.839
10615SOL    HW132744   2.961   1.609   5.808
10615SOL    HW232745   2.978   1.748   5.893
10616SOL     OW32746   2.728   6.502   6.799
10616SOL    HW132747   2.671   6.547   6.730
10616SOL    HW232748   2.705   6.404   6.803
10617SOL     OW32749   2.402   3.679   1.635
10617SOL    HW132750   2.364   3.770   1.654
10617SOL    HW232751   2.385   3.619   1.713
10618SOL     OW32752   0.385   5.336   5.500
10618SOL    HW132753   0.321   5.267   5.533
10618SOL    HW232754   0.478   5.314   5.530
10619SOL     OW32755   0.451   1.968   2.868
10619SOL    HW132756   0.396   2.009   2.941
10619SOL    HW232757   0.390   1.923   2.803
10620SOL     OW32758   1.674   0.174   5.073
10620SOL    HW132759   1.667   0.094   5.014
10620SOL    HW232760   1.654   0.257   5.020
10621SOL     OW32761   0.715   3.873   2.711
10621SOL    HW132762   0.715   3.780   2.749
10621SOL    HW232763   0.768   3.933   2.771
10622SOL     OW32764   4.434   2.760   1.018
10622SOL    HW132765   4.408   2.831   0.953
10622SOL    HW232766   4.352   2.724   1.062
10623SOL     OW32767   5.901   6.039   5.199
10623SOL    HW132768   5.931   6.007   5.289
10623SOL    HW232769   5.897   5.961   5.136
10624SOL     OW32770   0.856   2.853   5.003
10624SOL    HW132771   0.899   2.925   5.057
10624SOL    HW232772   0.828   2.890   4.914
10625SOL     OW32773   0.133   3.114   6.906
10625SOL    HW132774   0.232   3.124   6.907
10625SOL    HW232775   0.107   3.046   6.837
10626SOL     OW32776   3.948   3.109   1.785
10626SOL    HW132777   3.910   3.068   1.867
10626SOL    HW232778   3.930   3.049   1.707
10627SOL     OW32779   5.846   0.482   6.429
10627SOL    HW132780   5.787   0.545   6.378
10627SOL    HW232781   5.823   0.388   6.405
10628SOL     OW32782   3.934   0.353   0.314
10628SOL    HW132783   3.999   0.420   0.277
10628SOL    HW232784   3.850   0.355   0.259
10629SOL     OW32785   3.287   5.141   5.173
10629SOL    HW132786   3.338   5.056   5.188
10629SOL    HW232787   3.324   5.188   5.092
10630SOL     OW32788   4.983   0.703   2.545
10630SOL    HW132789   5.082   0.687   2.545
10630SOL    HW232790   4.948   0.692   2.452
10631SOL     OW32791   4.458   4.940   6.215
10631SOL    HW132792   4.505   4.964   6.129
10631SOL    HW232793   4.527   4.924   6.286
10632SOL     OW32794   4.964   5.949   3.559
10632SOL    HW132795   5.034   6.014   3.531
10632SOL    HW232796   4.951   5.954   3.658
10633SOL     OW32797   2.052   2.613   1.630
10633SOL    HW132798   1.967   2.651   1.666
10633SOL    HW232799   2.106   2.687   1.589
10634SOL     OW32800   1.487   5.394   0.028
10634SOL    HW132801   1.577   5.435   0.016
10634SOL    HW232802   1.417   5.465   0.020
10635SOL     OW32803   1.872   3.679   0.182
10635SOL    HW132804   1.969   3.655   0.191
10635SOL    HW232805   1.847   3.682   0.085
10636SOL     OW32806   6.366   1.843   0.672
10636SOL    HW132807   6.320   1.874   0.755
10636SOL    HW232808   6.298   1.812   0.606
10637SOL     OW32809   2.725   6.170   6.595
10637SOL    HW132810   2.785   6.114   6.539
10637SOL    HW232811   2.690   6.247   6.541
10638SOL     OW32812   6.754   6.311   2.534
10638SOL    HW132813   6.742   6.393   2.479
10638SOL    HW232814   6.741   6.230   2.476
10639SOL     OW32815   2.230   3.784   1.910
10639SOL    HW132816   2.317   3.833   1.898
10639SOL    HW232817   2.248   3.685   1.913
10640SOL     OW32818   4.466   1.021   3.535
10640SOL    HW132819   4.469   1.077   3.453
10640SOL    HW232820   4.524   0.941   3.524
10641SOL     OW32821   1.491   1.833   3.542
10641SOL    HW132822   1.433   1.763   3.501
10641SOL    HW232823   1.587   1.809   3.526
10642SOL     OW32824   5.939   2.175   0.222
10642SOL    HW132825   5.972   2.083   0.203
10642SOL    HW232826   5.883   2.175   0.305
10643SOL     OW32827   1.999   5.618   5.246
10643SOL    HW132828   2.096   5.607   5.267
10643SOL    HW232829   1.975   5.715   5.250
10644SOL     OW32830   5.854   3.072   1.800
10644SOL    HW132831   5.822   3.165   1.821
10644SOL    HW232832   5.885   3.028   1.885
10645SOL     OW32833   2.167   3.302   3.529
10645SOL    HW132834   2.253   3.350   3.548
10645SOL    HW232835   2.187   3.210   3.494
10646SOL     OW32836   5.350   1.036   5.487
10646SOL    HW132837   5.390   0.955   5.530
10646SOL    HW232838   5.360   1.115   5.547
10647SOL     OW32839   3.886   5.543   5.335
10647SOL    HW132840   3.909   5.639   5.354
10647SOL    HW232841   3.883   5.528   5.236
10648SOL     OW32842   5.891   5.635   6.082
10648SOL    HW132843   5.945   5.603   6.160
10648SOL    HW232844   5.873   5.733   6.092
10649SOL     OW32845   0.641   3.239   3.795
10649SOL    HW132846   0.551   3.197   3.786
10649SOL    HW232847   0.707   3.170   3.825
10650SOL     OW32848   6.864   0.480   4.214
10650SOL    HW132849   6.847   0.578   4.205
10650SOL    HW232850   6.904   0.445   4.129
10651SOL     OW32851   5.378   6.281   5.646
10651SOL    HW132852   5.401   6.261   5.551
10651SOL    HW232853   5.306   6.219   5.677
10652SOL     OW32854   2.204   6.791   6.106
10652SOL    HW132855   2.194   6.814   6.009
10652SOL    HW232856   2.115   6.763   6.143
10653SOL     OW32857   3.592   5.966   4.693
10653SOL    HW132858   3.503   5.990   4.732
10653SOL    HW232859   3.596   5.996   4.597
10654SOL     OW32860   4.685   1.857   4.003
10654SOL    HW132861   4.594   1.826   4.031
10654SOL    HW232862   4.692   1.856   3.904
10655SOL     OW32863   2.152   4.612   1.547
10655SOL    HW132864   2.227   4.651   1.493
10655SOL    HW232865   2.079   4.680   1.556
10656SOL     OW32866   6.326   1.335   2.412
10656SOL    HW132867   6.347   1.394   2.334
10656SOL    HW232868   6.270   1.258   2.381
10657SOL     OW32869   6.332   1.309   4.196
10657SOL    HW132870   6.304   1.392   4.243
10657SOL    HW232871   6.343   1.235   4.263
10658SOL     OW32872   5.608   4.119   5.092
10658SOL    HW132873   5.556   4.163   5.165
10658SOL    HW232874   5.701   4.100   5.123
10659SOL     OW32875   1.313   4.708   0.743
10659SOL    HW132876   1.292   4.796   0.700
10659SOL    HW232877   1.387   4.664   0.693
10660SOL     OW32878   6.024   3.903   5.228
10660SOL    HW132879   6.114   3.873   5.260
10660SOL    HW232880   6.033   3.989   5.178
10661SOL     OW32881   1.305   5.094   0.826
10661SOL    HW132882   1.368   5.131   0.758
10661SOL    HW232883   1.355   5.077   0.911
10662SOL     OW32884   3.715   1.082   2.205
10662SOL    HW132885   3.630   1.082   2.257
10662SOL    HW232886   3.711   1.153   2.134
10663SOL     OW32887   0.548   2.002   3.633
10663SOL    HW132888   0.640   2.021   3.597
10663SOL    HW232889   0.551   1.919   3.688
10664SOL     OW32890   0.462   5.524   4.866
10664SOL    HW132891   0.534   5.520   4.797
10664SOL    HW232892   0.405   5.441   4.859
10665SOL     OW32893   2.240   2.339   6.716
10665SOL    HW132894   2.209   2.421   6.666
10665SOL    HW232895   2.179   2.322   6.793
10666SOL     OW32896   3.316   3.532   2.106
10666SOL    HW132897   3.292   3.436   2.121
10666SOL    HW232898   3.243   3.578   2.056
10667SOL     OW32899   4.946   1.702   3.646
10667SOL    HW132900   5.044   1.710   3.627
10667SOL    HW232901   4.923   1.605   3.660
10668SOL     OW32902   3.080   1.942   5.460
10668SOL    HW132903   3.049   1.929   5.366
10668SOL    HW232904   3.170   1.985   5.461
10669SOL     OW32905   5.645   0.388   0.802
10669SOL    HW132906   5.675   0.483   0.793
10669SOL    HW232907   5.545   0.384   0.797
10670SOL     OW32908   5.816   4.950   4.536
10670SOL    HW132909   5.810   4.882   4.463
10670SOL    HW232910   5.876   5.025   4.507
10671SOL     OW32911   1.158   1.474   4.541
10671SOL    HW132912   1.104   1.423   4.474
10671SOL    HW232913   1.150   1.429   4.630
10672SOL     OW32914   6.461   3.860   1.698
10672SOL    HW132915   6.512   3.933   1.743
10672SOL    HW232916   6.525   3.790   1.666
10673SOL     OW32917   1.226   7.008   0.433
10673SOL    HW132918   1.216   7.014   0.334
10673SOL    HW232919   1.321   6.986   0.456
10674SOL     OW32920   4.039   3.841   4.481
10674SOL    HW132921   4.003   3.925   4.523
10674SOL    HW232922   4.038   3.850   4.382
10675SOL     OW32923   3.012   0.687   6.270
10675SOL    HW132924   3.012   0.764   6.206
10675SOL    HW232925   3.087   0.625   6.247
10676SOL     OW32926   6.774   6.073   4.797
10676SOL    HW132927   6.709   6.024   4.854
10676SOL    HW232928   6.847   6.111   4.854
10677SOL     OW32929   1.177   0.883   1.099
10677SOL    HW132930   1.132   0.923   1.179
10677SOL    HW232931   1.151   0.935   1.017
10678SOL     OW32932   4.188   4.917   3.698
10678SOL    HW132933   4.275   4.965   3.694
10678SOL    HW232934   4.143   4.935   3.785
10679SOL     OW32935   4.285   5.574   7.010
10679SOL    HW132936   4.289   5.664   6.966
10679SOL    HW232937   4.329   5.506   6.951
10680SOL     OW32938   3.574   1.849   3.650
10680SOL    HW132939   3.558   1.776   3.584
10680SOL    HW232940   3.644   1.912   3.615
10681SOL     OW32941   6.969   3.462   0.245
10681SOL    HW132942   6.947   3.498   0.336
10681SOL    HW232943   6.949   3.531   0.176
10682SOL     OW32944   0.236   3.130   5.235
10682SOL    HW132945   0.277   3.133   5.144
10682SOL    HW232946   0.269   3.049   5.284
10683SOL     OW32947   4.392   1.160   3.764
10683SOL    HW132948   4.400   1.257   3.742
10683SOL    HW232949   4.435   1.105   3.692
10684SOL     OW32950   4.571   5.568   1.837
10684SOL    HW132951   4.473   5.549   1.828
10684SOL    HW232952   4.591   5.594   1.931
10685SOL     OW32953   0.124   5.762   0.760
10685SOL    HW132954   0.185   5.822   0.709
10685SOL    HW232955   0.162   5.746   0.851
10686SOL     OW32956   1.937   4.211   6.218
10686SOL    HW132957   1.993   4.128   6.226
10686SOL    HW232958   1.984   4.278   6.160
10687SOL     OW32959   6.948   4.530   4.365
10687SOL    HW132960   6.849   4.534   4.351
10687SOL    HW232961   6.992   4.498   4.281
10688SOL     OW32962   5.686   2.464   2.714
10688SOL    HW132963   5.669   2.562   2.710
10688SOL    HW232964   5.785   2.447   2.714
10689SOL     OW32965   0.010   0.079   1.851
10689SOL    HW132966   0.037   0.005   1.913
10689SOL    HW232967   6.977   0.143   1.900
10690SOL     OW32968   0.219   5.120   3.117
10690SOL    HW132969   0.288   5.069   3.170
10690SOL    HW232970   0.256   5.209   3.090
10691SOL     OW32971   2.092   1.786   1.644
10691SOL    HW132972   2.072   1.868   1.697
10691SOL    HW232973   2.030   1.712   1.672
10692SOL     OW32974   2.402   0.637   3.834
10692SOL    HW132975   2.450   0.725   3.834
10692SOL    HW232976   2.374   0.615   3.741
10693SOL     OW32977   1.629   6.030   0.923
10693SOL    HW132978   1.619   5.947   0.977
10693SOL    HW232979   1.554   6.092   0.943
10694SOL     OW32980   5.270   6.435   6.191
10694SOL    HW132981   5.358   6.434   6.238
10694SOL    HW232982   5.248   6.342   6.159
10695SOL     OW32983   1.576   2.464   2.010
10695SOL    HW132984   1.533   2.374   2.023
10695SOL    HW232985   1.625   2.464   1.924
10696SOL     OW32986   6.697   3.525   4.693
10696SOL    HW132987   6.790   3.493   4.676
10696SOL    HW232988   6.652   3.546   4.607
10697SOL     OW32989   0.105   0.239   5.595
10697SOL    HW132990   0.094   0.255   5.693
10697SOL    HW232991   0.097   0.326   5.546
10698SOL     OW32992   4.622   4.051   6.616
10698SOL    HW132993   4.718   4.034   6.639
10698SOL    HW232994   4.565   4.026   6.694
10699SOL     OW32995   3.902   4.962   1.520
10699SOL    HW132996   3.986   4.931   1.563
10699SOL    HW232997   3.888   4.913   1.434
10700SOL     OW32998   5.736   6.300   1.024
10700SOL    HW132999   5.666   6.283   0.954
10700SOL    HW233000   5.711   6.381   1.077
10701SOL     OW33001   3.118   7.019   6.060
10701SOL    HW133002   3.172   0.009   5.976
10701SOL    HW233003   3.137   0.068   6.124
10702SOL     OW33004   5.332   3.455   2.067
10702SOL    HW133005   5.268   3.412   2.003
10702SOL    HW233006   5.296   3.544   2.096
10703SOL     OW33007   2.569   2.789   5.564
10703SOL    HW133008   2.602   2.820   5.653
10703SOL    HW233009   2.594   2.693   5.550
10704SOL     OW33010   0.114   5.045   2.340
10704SOL    HW133011   0.178   5.028   2.266
10704SOL    HW233012   0.077   4.958   2.373
10705SOL     OW33013   6.201   5.408   1.840
10705SOL    HW133014   6.245   5.362   1.763
10705SOL    HW233015   6.103   5.417   1.822
10706SOL     OW33016   3.987   0.231   2.160
10706SOL    HW133017   3.894   0.251   2.130
10706SOL    HW233018   3.995   0.133   2.181
10707SOL     OW33019   0.814   6.759   3.586
10707SOL    HW133020   0.807   6.777   3.488
10707SOL    HW233021   0.724   6.770   3.628
10708SOL     OW33022   3.976   1.494   1.382
10708SOL    HW133023   4.014   1.422   1.440
10708SOL    HW233024   3.904   1.454   1.325
10709SOL     OW33025   5.421   5.108   4.776
10709SOL    HW133026   5.366   5.117   4.693
10709SOL    HW233027   5.518   5.116   4.754
10710SOL     OW33028   6.043   1.033   3.936
10710SOL    HW133029   6.125   0.979   3.957
10710SOL    HW233030   6.055   1.125   3.974
10711SOL     OW33031   1.649   6.595   3.743
10711SOL    HW133032   1.733   6.577   3.793
10711SOL    HW233033   1.597   6.666   3.790
10712SOL     OW33034   3.065   0.891   2.163
10712SOL    HW133035   3.005   0.885   2.243
10712SOL    HW233036   3.080   0.988   2.140
10713SOL     OW33037   0.753   3.447   0.730
10713SOL    HW133038   0.824   3.386   0.767
10713SOL    HW233039   0.780   3.542   0.745
10714SOL     OW33040   4.875   3.752   5.912
10714SOL    HW133041   4.927   3.713   5.988
10714SOL    HW233042   4.782   3.716   5.914
10715SOL     OW33043   4.416   0.621   2.327
10715SOL    HW133044   4.484   0.666   2.384
10715SOL    HW233045   4.433   0.523   2.324
10716SOL     OW33046   5.739   2.505   3.712
10716SOL    HW133047   5.743   2.406   3.722
10716SOL    HW233048   5.657   2.540   3.757
10717SOL     OW33049   1.760   2.599   1.442
10717SOL    HW133050   1.818   2.618   1.362
10717SOL    HW233051   1.686   2.537   1.415
10718SOL     OW33052   0.935   3.930   0.388
10718SOL    HW133053   0.941   3.975   0.300
10718SOL    HW233054   0.973   3.837   0.381
10719SOL     OW33055   0.167   5.741   2.656
10719SOL    HW133056   0.254   5.733   2.608
10719SOL    HW233057   0.152   5.836   2.683
10720SOL     OW33058   6.783   4.589   5.130
10720SOL    HW133059   6.738   4.582   5.219
10720SOL    HW233060   6.764   4.679   5.090
10721SOL     OW33061   5.037   3.308   5.341
10721SOL    HW133062   5.074   3.246   5.409
10721SOL    HW233063   5.109   3.367   5.305
10722SOL     OW33064   1.440   5.105   0.129
10722SOL    HW133065   1.359   5.062   0.089
10722SOL    HW233066   1.443   5.201   0.103
10723SOL     OW33067   6.980   2.555   6.601
10723SOL    HW133068   7.022   2.583   6.687
10723SOL    HW233069   0.026   2.513   6.542
10724SOL     OW33070   6.046   0.505   6.614
10724SOL    HW133071   6.105   0.581   6.586
10724SOL    HW233072   5.952   0.522   6.585
10725SOL     OW33073   1.545   5.803   5.165
10725SOL    HW133074   1.587   5.893   5.178
10725SOL    HW233075   1.484   5.806   5.086
10726SOL     OW33076   5.597   0.412   4.221
10726SOL    HW133077   5.498   0.424   4.228
10726SOL    HW233078   5.636   0.488   4.169
10727SOL     OW33079   0.389   5.613   5.854
10727SOL    HW133080   0.299   5.573   5.834
10727SOL    HW233081   0.460   5.546   5.834
10728SOL     OW33082   1.514   5.777   6.810
10728SOL    HW133083   1.549   5.695   6.856
10728SOL    HW233084   1.430   5.755   6.762
10729SOL     OW33085   4.670   1.301   2.674
10729SOL    HW133086   4.611   1.353   2.735
10729SOL    HW233087   4.660   1.203   2.693
10730SOL     OW33088   1.606   0.479   1.314
10730SOL    HW133089   1.555   0.546   1.260
10730SOL    HW233090   1.613   0.511   1.409
10731SOL     OW33091   3.469   0.804   0.575
10731SOL    HW133092   3.383   0.760   0.549
10731SOL    HW233093   3.452   0.902   0.590
10732SOL     OW33094   6.550   4.968   4.785
10732SOL    HW133095   6.476   4.985   4.720
10732SOL    HW233096   6.633   4.944   4.735
10733SOL     OW33097   6.738   1.327   0.280
10733SOL    HW133098   6.827   1.284   0.297
10733SOL    HW233099   6.737   1.363   0.187
10734SOL     OW33100   0.895   0.848   0.253
10734SOL    HW133101   0.988   0.854   0.288
10734SOL    HW233102   0.867   0.752   0.249
10735SOL     OW33103   6.936   2.673   2.498
10735SOL    HW133104   6.992   2.705   2.574
10735SOL    HW233105   6.874   2.601   2.529
10736SOL     OW33106   0.950   0.576   3.731
10736SOL    HW133107   0.994   0.488   3.714
10736SOL    HW233108   1.002   0.627   3.799
10737SOL     OW33109   1.219   1.975   0.477
10737SOL    HW133110   1.214   1.906   0.550
10737SOL    HW233111   1.143   1.961   0.413
10738SOL     OW33112   2.483   0.726   2.987
10738SOL    HW133113   2.417   0.679   2.929
10738SOL    HW233114   2.572   0.679   2.982
10739SOL     OW33115   1.658   1.292   0.862
10739SOL    HW133116   1.616   1.349   0.932
10739SOL    HW233117   1.590   1.269   0.793
10740SOL     OW33118   0.139   4.700   4.942
10740SOL    HW133119   0.129   4.616   4.889
10740SOL    HW233120   0.134   4.779   4.881
10741SOL     OW33121   4.886   0.856   1.046
10741SOL    HW133122   4.871   0.759   1.064
10741SOL    HW233123   4.918   0.868   0.951
10742SOL     OW33124   5.491   6.883   1.195
10742SOL    HW133125   5.439   6.798   1.186
10742SOL    HW233126   5.433   6.960   1.168
10743SOL     OW33127   1.709   1.494   5.467
10743SOL    HW133128   1.689   1.544   5.552
10743SOL    HW233129   1.659   1.536   5.392
10744SOL     OW33130   3.757   1.411   1.188
10744SOL    HW133131   3.698   1.437   1.113
10744SOL    HW233132   3.754   1.311   1.200
10745SOL     OW33133   0.433   5.882   6.503
10745SOL    HW133134   0.471   5.966   6.543
10745SOL    HW233135   0.357   5.906   6.443
10746SOL     OW33136   2.550   5.168   1.519
10746SOL    HW133137   2.599   5.123   1.593
10746SOL    HW233138   2.609   5.178   1.440
10747SOL     OW33139   4.317   1.168   4.717
10747SOL    HW133140   4.256   1.105   4.668
10747SOL    HW233141   4.290   1.173   4.813
10748SOL     OW33142   5.473   1.183   0.865
10748SOL    HW133143   5.414   1.234   0.803
10748SOL    HW233144   5.455   1.212   0.959
10749SOL     OW33145   0.073   5.809   3.387
10749SOL    HW133146   0.054   5.738   3.320
10749SOL    HW233147   0.158   5.788   3.435
10750SOL     OW33148   4.246   6.116   4.141
10750SOL    HW133149   4.320   6.063   4.100
10750SOL    HW233150   4.262   6.213   4.125
10751SOL     OW33151   1.721   4.897   4.552
10751SOL    HW133152   1.775   4.981   4.559
10751SOL    HW233153   1.681   4.875   4.641
10752SOL     OW33154   6.273   4.197   5.670
10752SOL    HW133155   6.174   4.188   5.681
10752SOL    HW233156   6.294   4.239   5.581
10753SOL     OW33157   5.232   4.816   4.549
10753SOL    HW133158   5.173   4.876   4.603
10753SOL    HW233159   5.175   4.755   4.494
10754SOL     OW33160   0.514   0.450   2.891
10754SOL    HW133161   0.573   0.515   2.939
10754SOL    HW233162   0.430   0.496   2.862
10755SOL     OW33163   0.154   0.972   0.331
10755SOL    HW133164   0.176   0.877   0.307
10755SOL    HW233165   0.231   1.031   0.305
10756SOL     OW33166   6.430   4.887   6.700
10756SOL    HW133167   6.352   4.939   6.735
10756SOL    HW233168   6.404   4.791   6.689
10757SOL     OW33169   1.546   3.124   0.067
10757SOL    HW133170   1.496   3.142   0.152
10757SOL    HW233171   1.600   3.040   0.078
10758SOL     OW33172   0.925   6.231   4.078
10758SOL    HW133173   0.973   6.154   4.121
10758SOL    HW233174   0.849   6.259   4.136
10759SOL     OW33175   2.092   2.788   1.422
10759SOL    HW133176   2.191   2.785   1.439
10759SOL    HW233177   2.075   2.836   1.336
10760SOL     OW33178   5.540   0.224   2.708
10760SOL    HW133179   5.501   0.316   2.701
10760SOL    HW233180   5.484   0.169   2.769
10761SOL     OW33181   0.855   6.196   6.315
10761SOL    HW133182   0.883   6.290   6.299
10761SOL    HW233183   0.868   6.143   6.231
10762SOL     OW33184   3.256   2.183   4.216
10762SOL    HW133185   3.259   2.160   4.118
10762SOL    HW233186   3.348   2.175   4.254
10763SOL     OW33187   4.913   6.853   2.974
10763SOL    HW133188   4.899   6.879   3.069
10763SOL    HW233189   4.870   6.764   2.957
10764SOL     OW33190   4.884   2.437   6.188
10764SOL    HW133191   4.805   2.376   6.187
10764SOL    HW233192   4.951   2.405   6.121
10765SOL     OW33193   5.216   2.491   0.941
10765SOL    HW133194   5.296   2.551   0.950
10765SOL    HW233195   5.151   2.511   1.014
10766SOL     OW33196   4.956   4.846   0.491
10766SOL    HW133197   4.865   4.818   0.459
10766SOL    HW233198   5.026   4.806   0.432
10767SOL     OW33199   1.784   0.189   0.622
10767SOL    HW133200   1.702   0.235   0.658
10767SOL    HW233201   1.852   0.258   0.598
10768SOL     OW33202   5.109   5.159   1.625
10768SOL    HW133203   5.044   5.086   1.606
10768SOL    HW233204   5.195   5.120   1.659
10769SOL     OW33205   2.422   4.238   5.268
10769SOL    HW133206   2.426   4.150   5.219
10769SOL    HW233207   2.361   4.300   5.219
10770SOL     OW33208   5.454   6.568   4.838
10770SOL    HW133209   5.533   6.518   4.802
10770SOL    HW233210   5.399   6.602   4.762
10771SOL     OW33211   5.341   0.060   3.200
10771SOL    HW133212   5.318   0.157   3.189
10771SOL    HW233213   5.440   0.051   3.214
10772SOL     OW33214   5.723   0.605   3.801
10772SOL    HW133215   5.814   0.594   3.761
10772SOL    HW233216   5.668   0.664   3.742
10773SOL     OW33217   6.171   5.415   6.041
10773SOL    HW133218   6.147   5.333   5.989
10773SOL    HW233219   6.254   5.398   6.094
10774SOL     OW33220   2.502   1.641   6.198
10774SOL    HW133221   2.472   1.733   6.170
10774SOL    HW233222   2.577   1.649   6.263
10775SOL     OW33223   0.634   4.470   2.226
10775SOL    HW133224   0.642   4.376   2.193
10775SOL    HW233225   0.581   4.471   2.310
10776SOL     OW33226   0.559   1.051   6.382
10776SOL    HW133227   0.618   0.996   6.440
10776SOL    HW233228   0.613   1.118   6.333
10777SOL     OW33229   4.273   5.756   1.653
10777SOL    HW133230   4.227   5.676   1.690
10777SOL    HW233231   4.331   5.729   1.576
10778SOL     OW33232   5.069   6.876   3.981
10778SOL    HW133233   5.163   6.891   3.952
10778SOL    HW233234   5.060   6.897   4.078
10779SOL     OW33235   6.558   2.994   3.390
10779SOL    HW133236   6.590   3.039   3.474
10779SOL    HW233237   6.516   2.906   3.413
10780SOL     OW33238   1.846   0.628   3.880
10780SOL    HW133239   1.942   0.604   3.895
10780SOL    HW233240   1.790   0.546   3.888
10781SOL     OW33241   4.382   0.863   4.226
10781SOL    HW133242   4.374   0.924   4.305
10781SOL    HW233243   4.359   0.913   4.143
10782SOL     OW33244   0.211   1.187   2.797
10782SOL    HW133245   0.292   1.230   2.758
10782SOL    HW233246   0.143   1.171   2.725
10783SOL     OW33247   0.720   2.314   2.630
10783SOL    HW133248   0.668   2.363   2.560
10783SOL    HW233249   0.674   2.323   2.718
10784SOL     OW33250   3.999   0.042   3.857
10784SOL    HW133251   4.016   0.101   3.777
10784SOL    HW233252   4.085   0.023   3.903
10785SOL     OW33253   0.133   4.651   0.555
10785SOL    HW133254   0.197   4.727   0.540
10785SOL    HW233255   0.088   4.663   0.643
10786SOL     OW33256   6.193   4.671   3.393
10786SOL    HW133257   6.147   4.754   3.361
10786SOL    HW233258   6.217   4.614   3.314
10787SOL     OW33259   1.655   1.244   5.778
10787SOL    HW133260   1.655   1.319   5.844
10787SOL    HW233261   1.619   1.161   5.822
10788SOL     OW33262   1.814   4.411   6.618
10788SOL    HW133263   1.912   4.399   6.637
10788SOL    HW233264   1.800   4.498   6.572
10789SOL     OW33265   6.113   3.084   6.430
10789SOL    HW133266   6.200   3.035   6.439
10789SOL    HW233267   6.065   3.052   6.348
10790SOL     OW33268   0.681   0.585   1.907
10790SOL    HW133269   0.582   0.577   1.909
10790SOL    HW233270   0.707   0.682   1.905
10791SOL     OW33271   6.980   6.480   1.657
10791SOL    HW133272   6.927   6.489   1.741
10791SOL    HW233273   0.013   6.398   1.662
10792SOL     OW33274   3.430   2.846   4.990
10792SOL    HW133275   3.359   2.814   5.053
10792SOL    HW233276   3.447   2.776   4.921
10793SOL     OW33277   5.843   3.109   5.555
10793SOL    HW133278   5.801   3.069   5.636
10793SOL    HW233279   5.831   3.047   5.477
10794SOL     OW33280   4.006   3.227   4.553
10794SOL    HW133281   4.055   3.161   4.497
10794SOL    HW233282   3.967   3.180   4.633
10795SOL     OW33283   0.300   4.922   2.546
10795SOL    HW133284   0.215   4.942   2.595
10795SOL    HW233285   0.299   4.965   2.456
10796SOL     OW33286   6.540   6.809   5.703
10796SOL    HW133287   6.480   6.730   5.687
10796SOL    HW233288   6.490   6.878   5.756
10797SOL     OW33289   3.171   2.631   1.315
10797SOL    HW133290   3.202   2.549   1.267
10797SOL    HW233291   3.194   2.712   1.262
10798SOL     OW33292   2.954   1.052   7.004
10798SOL    HW133293   2.898   1.053   0.063
10798SOL    HW233294   2.986   1.145   6.985
10799SOL     OW33295   4.013   1.403   2.058
10799SOL    HW133296   4.009   1.362   2.149
10799SOL    HW233297   3.928   1.452   2.039
10800SOL     OW33298   0.475   6.230   5.522
10800SOL    HW133299   0.506   6.237   5.427
10800SOL    HW233300   0.478   6.135   5.551
10801SOL     OW33301   1.233   0.287   0.115
10801SOL    HW133302   1.256   0.294   0.212
10801SOL    HW233303   1.201   0.376   0.082
10802SOL     OW33304   0.434   0.432   2.118
10802SOL    HW133305   0.338   0.422   2.144
10802SOL    HW233306   0.490   0.438   2.200
10803SOL     OW33307   1.738   5.452   5.772
10803SOL    HW133308   1.743   5.379   5.840
10803SOL    HW233309   1.656   5.442   5.716
10804SOL     OW33310   5.873   3.563   2.742
10804SOL    HW133311   5.950   3.621   2.715
10804SOL    HW233312   5.901   3.467   2.739
10805SOL     OW33313   4.704   6.963   5.452
10805SOL    HW133314   4.614   6.975   5.409
10805SOL    HW233315   4.758   0.022   5.441
10806SOL     OW33316   3.950   4.353   6.039
10806SOL    HW133317   4.039   4.395   6.019
10806SOL    HW233318   3.882   4.385   5.973
10807SOL     OW33319   1.965   0.015   3.349
10807SOL    HW133320   1.935   6.979   3.422
10807SOL    HW233321   1.965   0.109   3.382
10808SOL     OW33322   0.478   3.033   6.029
10808SOL    HW133323   0.413   3.024   6.104
10808SOL    HW233324   0.550   2.965   6.038
10809SOL     OW33325   2.232   4.233   3.817
10809SOL    HW133326   2.244   4.134   3.819
10809SOL    HW233327   2.316   4.276   3.785
10810SOL     OW33328   0.055   0.355   4.115
10810SOL    HW133329   0.039   0.264   4.078
10810SOL    HW233330   0.062   0.350   4.215
10811SOL     OW33331   4.348   4.691   5.827
10811SOL    HW133332   4.269   4.729   5.874
10811SOL    HW233333   4.411   4.651   5.893
10812SOL     OW33334   6.807   3.743   0.597
10812SOL    HW133335   6.837   3.832   0.631
10812SOL    HW233336   6.725   3.714   0.647
10813SOL     OW33337   0.568   3.965   5.941
10813SOL    HW133338   0.566   3.911   5.856
10813SOL    HW233339   0.653   4.017   5.945
10814SOL     OW33340   1.712   0.235   6.490
10814SOL    HW133341   1.739   0.186   6.573
10814SOL    HW233342   1.786   0.297   6.463
10815SOL     OW33343   4.929   3.165   3.044
10815SOL    HW133344   4.931   3.189   2.947
10815SOL    HW233345   4.996   3.220   3.094
10816SOL     OW33346   3.046   3.275   2.400
10816SOL    HW133347   3.091   3.221   2.328
10816SOL    HW233348   2.985   3.342   2.357
10817SOL     OW33349   3.783   0.541   3.629
10817SOL    HW133350   3.863   0.586   3.588
10817SOL    HW233351   3.713   0.610   3.648
10818SOL     OW33352   4.737   3.985   5.433
10818SOL    HW133353   4.749   4.076   5.474
10818SOL    HW233354   4.658   3.940   5.473
10819SOL     OW33355   5.791   4.598   6.389
10819SOL    HW133356   5.707   4.631   6.348
10819SOL    HW233357   5.810   4.505   6.356
10820SOL     OW33358   0.541   5.204   4.328
10820SOL    HW133359   0.541   5.154   4.414
10820SOL    HW233360   0.629   5.191   4.282
10821SOL     OW33361   4.190   6.930   3.598
10821SOL    HW133362   4.142   6.865   3.539
10821SOL    HW233363   4.161   7.023   3.576
10822SOL     OW33364   6.208   1.897   2.498
10822SOL    HW133365   6.213   1.997   2.507
10822SOL    HW233366   6.119   1.871   2.460
10823SOL     OW33367   0.923   0.674   2.145
10823SOL    HW133368   0.845   0.704   2.199
10823SOL    HW233369   0.945   0.579   2.167
10824SOL     OW33370   0.473   0.392   2.510
10824SOL    HW133371   0.495   0.470   2.452
10824SOL    HW233372   0.537   0.387   2.586
10825SOL     OW33373   2.350   1.839   0.337
10825SOL    HW133374   2.281   1.776   0.372
10825SOL    HW233375   2.314   1.887   0.257
10826SOL     OW33376   1.186   1.301   3.074
10826SOL    HW133377   1.158   1.208   3.049
10826SOL    HW233378   1.208   1.353   2.992
10827SOL     OW33379   0.165   3.492   5.100
10827SOL    HW133380   0.171   3.580   5.052
10827SOL    HW233381   0.256   3.452   5.108
10828SOL     OW33382   2.079   4.574   0.688
10828SOL    HW133383   2.150   4.643   0.675
10828SOL    HW233384   2.072   4.551   0.784
10829SOL     OW33385   5.419   2.616   0.206
10829SOL    HW133386   5.455   2.702   0.171
10829SOL    HW233387   5.320   2.615   0.192
10830SOL     OW33388   4.010   1.870   2.875
10830SOL    HW133389   4.097   1.868   2.826
10830SOL    HW233390   3.993   1.962   2.909
10831SOL     OW33391   3.302   6.326   2.349
10831SOL    HW133392   3.321   6.352   2.444
10831SOL    HW233393   3.272   6.407   2.298
10832SOL     OW33394   0.012   4.012   6.213
10832SOL    HW133395   0.070   3.931   6.225
10832SOL    HW233396   6.949   3.986   6.174
10833SOL     OW33397   0.365   1.430   1.377
10833SOL    HW133398   0.348   1.420   1.279
10833SOL    HW233399   0.371   1.339   1.418
10834SOL     OW33400   5.747   1.401   0.404
10834SOL    HW133401   5.797   1.392   0.318
10834SOL    HW233402   5.805   1.369   0.479
10835SOL     OW33403   6.170   2.886   6.763
10835SOL    HW133404   6.134   2.979   6.762
10835SOL    HW233405   6.258   2.885   6.811
10836SOL     OW33406   0.402   2.153   3.299
10836SOL    HW133407   0.356   2.093   3.365
10836SOL    HW233408   0.434   2.236   3.346
10837SOL     OW33409   6.743   4.983   1.514
10837SOL    HW133410   6.829   4.950   1.553
10837SOL    HW233411   6.754   5.079   1.487
10838SOL     OW33412   6.558   6.667   3.924
10838SOL    HW133413   6.654   6.657   3.953
10838SOL    HW233414   6.499   6.663   4.004
10839SOL     OW33415   4.274   3.775   0.777
10839SOL    HW133416   4.363   3.730   0.789
10839SOL    HW233417   4.288   3.867   0.740
10840SOL     OW33418   3.506   6.154   2.309
10840SOL    HW133419   3.515   6.121   2.215
10840SOL    HW233420   3.417   6.197   2.321
10841SOL     OW33421   6.042   4.394   4.941
10841SOL    HW133422   6.126   4.448   4.940
10841SOL    HW233423   5.980   4.429   4.871
10842SOL     OW33424   5.019   2.427   1.349
10842SOL    HW133425   4.992   2.479   1.268
10842SOL    HW233426   4.944   2.428   1.415
10843SOL     OW33427   1.238   1.288   1.222
10843SOL    HW133428   1.152   1.243   1.247
10843SOL    HW233429   1.303   1.281   1.298
10844SOL     OW33430   0.408   5.308   3.073
10844SOL    HW133431   0.420   5.396   3.026
10844SOL    HW233432   0.493   5.283   3.118
10845SOL     OW33433   4.031   6.179   5.448
10845SOL    HW133434   4.022   6.267   5.495
10845SOL    HW233435   3.977   6.110   5.496
10846SOL     OW33436   5.054   0.037   6.530
10846SOL    HW133437   4.991   0.112   6.550
10846SOL    HW233438   5.098   0.053   6.442
10847SOL     OW33439   3.340   2.358   0.141
10847SOL    HW133440   3.316   2.446   0.100
10847SOL    HW233441   3.418   2.319   0.094
10848SOL     OW33442   1.171   4.230   0.627
10848SOL    HW133443   1.228   4.246   0.708
10848SOL    HW233444   1.128   4.140   0.634
10849SOL     OW33445   2.658   4.598   3.925
10849SOL    HW133446   2.603   4.534   3.978
10849SOL    HW233447   2.614   4.616   3.837
10850SOL     OW33448   3.497   6.671   5.991
10850SOL    HW133449   3.405   6.635   5.974
10850SOL    HW233450   3.561   6.595   6.006
10851SOL     OW33451   3.425   3.702   0.787
10851SOL    HW133452   3.423   3.667   0.694
10851SOL    HW233453   3.422   3.626   0.852
10852SOL     OW33454   1.372   0.761   6.706
10852SOL    HW133455   1.394   0.852   6.738
10852SOL    HW233456   1.279   0.759   6.671
10853SOL     OW33457   2.252   2.780   5.737
10853SOL    HW133458   2.276   2.774   5.834
10853SOL    HW233459   2.251   2.876   5.709
10854SOL     OW33460   4.292   5.071   5.209
10854SOL    HW133461   4.245   5.006   5.268
10854SOL    HW233462   4.344   5.135   5.266
10855SOL     OW33463   4.151   0.541   0.272
10855SOL    HW133464   4.113   0.618   0.220
10855SOL    HW233465   4.217   0.492   0.216
10856SOL     OW33466   5.516   1.287   0.475
10856SOL    HW133467   5.529   1.243   0.564
10856SOL    HW233468   5.602   1.328   0.446
10857SOL     OW33469   1.161   2.319   2.437
10857SOL    HW133470   1.096   2.243   2.426
10857SOL    HW233471   1.121   2.403   2.401
10858SOL     OW33472   0.745   0.898   0.761
10858SOL    HW133473   0.715   0.815   0.809
10858SOL    HW233474   0.693   0.909   0.676
10859SOL     OW33475   0.741   4.548   4.379
10859SOL    HW133476   0.813   4.615   4.393
10859SOL    HW233477   0.700   4.560   4.288
10860SOL     OW33478   0.665   3.105   5.160
10860SOL    HW133479   0.590   3.070   5.105
10860SOL    HW233480   0.648   3.086   5.257
10861SOL     OW33481   3.372   3.719   3.168
10861SOL    HW133482   3.350   3.622   3.173
10861SOL    HW233483   3.418   3.747   3.252
10862SOL     OW33484   1.041   1.145   6.077
10862SOL    HW133485   0.968   1.081   6.056
10862SOL    HW233486   1.044   1.217   6.008
10863SOL     OW33487   1.852   0.933   4.018
10863SOL    HW133488   1.887   1.005   3.959
10863SOL    HW233489   1.901   0.848   3.999
10864SOL     OW33490   2.918   6.213   0.210
10864SOL    HW133491   2.939   6.221   0.307
10864SOL    HW233492   3.003   6.196   0.159
10865SOL     OW33493   6.415   1.131   0.754
10865SOL    HW133494   6.409   1.083   0.841
10865SOL    HW233495   6.372   1.221   0.763
10866SOL     OW33496   5.206   4.308   0.728
10866SOL    HW133497   5.259   4.245   0.671
10866SOL    HW233498   5.109   4.295   0.711
10867SOL     OW33499   3.324   4.107   0.722
10867SOL    HW133500   3.232   4.115   0.759
10867SOL    HW233501   3.361   4.198   0.702
10868SOL     OW33502   4.921   1.472   3.845
10868SOL    HW133503   4.964   1.546   3.895
10868SOL    HW233504   4.950   1.384   3.884
10869NA      NA33505   6.515   3.195   5.170
10870NA      NA33506   4.458   4.511   5.249
10871NA      NA33507   1.645   2.787   1.585
10872NA      NA33508   4.939   3.803   5.114
10873NA      NA33509   4.268   2.493   5.367
10874NA      NA33510   3.622   4.746   1.677
10875NA      NA33511   6.630   5.032   6.813
10876NA      NA33512   3.368   3.153   4.594
10877NA      NA33513   4.682   5.946   0.248
10878NA      NA33514   4.270   6.390   5.087
10879NA      NA33515   6.354   5.208   2.300
10880NA      NA33516   2.201   6.810   3.596
10881NA      NA33517   4.084   5.938   2.013
10882NA      NA33518   3.295   3.978   2.087
   7.02477   7.02477   7.02477
