Generated by trjconv : CNT in water t= 485.00000
33518
    1C        C    1   2.846   2.772   4.746
    1C        C    2   2.900   2.724   4.868
    1C        C    3   2.842   2.773   4.985
    1C        C    4   2.852   2.776   4.260
    1C        C    5   2.904   2.726   4.382
    1C        C    6   2.845   2.772   4.502
    1C        C    7   3.012   2.640   4.626
    1C        C    8   2.896   2.721   4.624
    1C        C    9   3.078   2.604   4.745
    1C        C   10   3.012   2.639   4.865
    1C        C   11   3.182   2.499   4.977
    1C        C   12   3.057   2.562   4.973
    1C        C   13   2.858   2.775   3.770
    1C        C   14   2.905   2.722   3.892
    1C        C   15   2.857   2.774   4.015
    1C        C   16   3.017   2.642   4.138
    1C        C   17   2.904   2.727   4.139
    1C        C   18   3.079   2.608   4.260
    1C        C   19   3.018   2.643   4.383
    1C        C   20   3.204   2.545   4.503
    1C        C   21   3.074   2.600   4.505
    1C        C   22   3.278   2.532   4.623
    1C        C   23   3.209   2.548   4.745
    1C        C   24   3.413   2.488   4.865
    1C        C   25   3.271   2.502   4.865
    1C        C   26   3.491   2.480   4.982
    1C        C   27   2.851   2.770   3.283
    1C        C   28   2.909   2.726   3.404
    1C        C   29   2.857   2.775   3.526
    1C        C   30   3.023   2.644   3.649
    1C        C   31   2.913   2.731   3.648
    1C        C   32   3.078   2.599   3.772
    1C        C   33   3.018   2.638   3.894
    1C        C   34   3.208   2.546   4.017
    1C        C   35   3.080   2.605   4.017
    1C        C   36   3.274   2.524   4.140
    1C        C   37   3.209   2.555   4.262
    1C        C   38   3.417   2.511   4.381
    1C        C   39   3.277   2.531   4.383
    1C        C   40   3.487   2.501   4.503
    1C        C   41   3.415   2.499   4.625
    1C        C   42   3.631   2.483   4.742
    1C        C   43   3.489   2.484   4.745
    1C        C   44   3.706   2.481   4.861
    1C        C   45   3.630   2.478   4.979
    1C        C   46   2.841   2.756   2.795
    1C        C   47   2.894   2.711   2.918
    1C        C   48   2.847   2.765   3.040
    1C        C   49   3.018   2.639   3.160
    1C        C   50   2.905   2.723   3.162
    1C        C   51   3.080   2.603   3.282
    1C        C   52   3.022   2.642   3.405
    1C        C   53   3.209   2.540   3.529
    1C        C   54   3.083   2.605   3.527
    1C        C   55   3.275   2.519   3.651
    1C        C   56   3.207   2.541   3.773
    1C        C   57   3.415   2.501   3.893
    1C        C   58   3.275   2.520   3.895
    1C        C   59   3.485   2.499   4.015
    1C        C   60   3.414   2.506   4.138
    1C        C   61   3.628   2.501   4.260
    1C        C   62   3.487   2.500   4.259
    1C        C   63   3.700   2.515   4.381
    1C        C   64   3.628   2.509   4.502
    1C        C   65   3.837   2.546   4.622
    1C        C   66   3.702   2.507   4.622
    1C        C   67   3.906   2.568   4.744
    1C        C   68   3.838   2.531   4.862
    1C        C   69   4.051   2.585   4.975
    1C        C   70   3.921   2.532   4.974
    1C        C   71   2.824   2.734   2.307
    1C        C   72   2.883   2.695   2.429
    1C        C   73   2.836   2.748   2.551
    1C        C   74   3.009   2.627   2.670
    1C        C   75   2.890   2.703   2.674
    1C        C   76   3.075   2.601   2.793
    1C        C   77   3.013   2.635   2.915
    1C        C   78   3.205   2.543   3.038
    1C        C   79   3.076   2.600   3.037
    1C        C   80   3.273   2.522   3.160
    1C        C   81   3.208   2.544   3.284
    1C        C   82   3.414   2.496   3.402
    1C        C   83   3.275   2.518   3.406
    1C        C   84   3.484   2.496   3.525
    1C        C   85   3.415   2.498   3.648
    1C        C   86   3.627   2.499   3.770
    1C        C   87   3.485   2.496   3.771
    1C        C   88   3.698   2.511   3.892
    1C        C   89   3.626   2.508   4.014
    1C        C   90   3.832   2.553   4.137
    1C        C   91   3.696   2.516   4.137
    1C        C   92   3.900   2.582   4.257
    1C        C   93   3.837   2.551   4.379
    1C        C   94   4.028   2.642   4.500
    1C        C   95   3.906   2.571   4.501
    1C        C   96   4.092   2.677   4.621
    1C        C   97   4.033   2.632   4.741
    1C        C   98   4.191   2.770   4.864
    1C        C   99   4.101   2.659   4.863
    1C        C  100   4.220   2.845   4.978
    1C        C  101   2.822   2.732   2.071
    1C        C  102   2.991   2.592   2.190
    1C        C  103   2.878   2.679   2.188
    1C        C  104   3.064   2.573   2.311
    1C        C  105   3.001   2.617   2.429
    1C        C  106   3.200   2.534   2.551
    1C        C  107   3.069   2.587   2.549
    1C        C  108   3.268   2.513   2.674
    1C        C  109   3.202   2.539   2.796
    1C        C  110   3.413   2.497   2.915
    1C        C  111   3.274   2.524   2.916
    1C        C  112   3.482   2.486   3.037
    1C        C  113   3.411   2.496   3.159
    1C        C  114   3.626   2.499   3.278
    1C        C  115   3.485   2.490   3.280
    1C        C  116   3.692   2.513   3.402
    1C        C  117   3.625   2.503   3.526
    1C        C  118   3.833   2.548   3.648
    1C        C  119   3.696   2.512   3.648
    1C        C  120   3.898   2.575   3.770
    1C        C  121   3.834   2.549   3.893
    1C        C  122   4.025   2.643   4.011
    1C        C  123   3.900   2.576   4.015
    1C        C  124   4.085   2.679   4.133
    1C        C  125   4.028   2.642   4.257
    1C        C  126   4.199   2.768   4.376
    1C        C  127   4.090   2.678   4.378
    1C        C  128   4.247   2.821   4.497
    1C        C  129   4.198   2.770   4.620
    1C        C  130   4.334   2.932   4.740
    1C        C  131   4.245   2.821   4.743
    1C        C  132   4.361   3.004   4.859
    1C        C  133   4.296   2.962   4.976
    1C        C  134   3.173   2.464   2.082
    1C        C  135   3.039   2.506   2.085
    1C        C  136   3.260   2.478   2.191
    1C        C  137   3.197   2.522   2.309
    1C        C  138   3.405   2.476   2.429
    1C        C  139   3.267   2.504   2.430
    1C        C  140   3.480   2.476   2.548
    1C        C  141   3.408   2.492   2.669
    1C        C  142   3.620   2.497   2.790
    1C        C  143   3.479   2.489   2.791
    1C        C  144   3.692   2.504   2.912
    1C        C  145   3.623   2.494   3.035
    1C        C  146   3.833   2.538   3.155
    1C        C  147   3.696   2.503   3.156
    1C        C  148   3.896   2.567   3.278
    1C        C  149   3.830   2.545   3.400
    1C        C  150   4.021   2.635   3.523
    1C        C  151   3.896   2.569   3.523
    1C        C  152   4.082   2.678   3.643
    1C        C  153   4.023   2.641   3.766
    1C        C  154   4.189   2.774   3.889
    1C        C  155   4.083   2.680   3.888
    1C        C  156   4.244   2.819   4.011
    1C        C  157   4.196   2.767   4.133
    1C        C  158   4.342   2.924   4.255
    1C        C  159   4.251   2.816   4.254
    1C        C  160   4.382   2.986   4.375
    1C        C  161   4.334   2.933   4.497
    1C        C  162   4.442   3.115   4.615
    1C        C  163   4.372   2.993   4.618
    1C        C  164   4.475   3.182   4.735
    1C        C  165   4.442   3.120   4.858
    1C        C  166   4.518   3.320   4.973
    1C        C  167   4.488   3.184   4.973
    1C        C  168   3.473   2.435   2.072
    1C        C  169   3.398   2.449   2.190
    1C        C  170   3.618   2.463   2.306
    1C        C  171   3.475   2.459   2.307
    1C        C  172   3.691   2.481   2.425
    1C        C  173   3.621   2.479   2.548
    1C        C  174   3.827   2.541   2.668
    1C        C  175   3.691   2.504   2.668
    1C        C  176   3.894   2.566   2.789
    1C        C  177   3.829   2.540   2.911
    1C        C  178   4.025   2.625   3.034
    1C        C  179   3.899   2.561   3.032
    1C        C  180   4.086   2.662   3.157
    1C        C  181   4.021   2.633   3.279
    1C        C  182   4.196   2.753   3.398
    1C        C  183   4.084   2.667   3.401
    1C        C  184   4.244   2.807   3.520
    1C        C  185   4.194   2.764   3.644
    1C        C  186   4.345   2.914   3.764
    1C        C  187   4.245   2.814   3.766
    1C        C  188   4.384   2.973   3.886
    1C        C  189   4.340   2.922   4.010
    1C        C  190   4.452   3.103   4.129
    1C        C  191   4.384   2.979   4.132
    1C        C  192   4.479   3.172   4.249
    1C        C  193   4.448   3.112   4.373
    1C        C  194   4.515   3.315   4.493
    1C        C  195   4.473   3.180   4.494
    1C        C  196   4.532   3.389   4.612
    1C        C  197   4.514   3.319   4.733
    1C        C  198   4.558   3.532   4.854
    1C        C  199   4.536   3.391   4.853
    1C        C  200   4.586   3.619   4.964
    1C        C  201   3.612   2.422   2.070
    1C        C  202   3.825   2.510   2.184
    1C        C  203   3.691   2.459   2.184
    1C        C  204   3.896   2.541   2.303
    1C        C  205   3.827   2.521   2.425
    1C        C  206   4.021   2.618   2.545
    1C        C  207   3.894   2.556   2.544
    1C        C  208   4.084   2.657   2.665
    1C        C  209   4.020   2.631   2.788
    1C        C  210   4.195   2.748   2.906
    1C        C  211   4.081   2.666   2.911
    1C        C  212   4.245   2.799   3.028
    1C        C  213   4.196   2.750   3.151
    1C        C  214   4.336   2.908   3.273
    1C        C  215   4.245   2.799   3.274
    1C        C  216   4.376   2.968   3.395
    1C        C  217   4.334   2.916   3.519
    1C        C  218   4.446   3.097   3.638
    1C        C  219   4.382   2.971   3.640
    1C        C  220   4.472   3.163   3.760
    1C        C  221   4.448   3.099   3.884
    1C        C  222   4.505   3.305   4.004
    1C        C  223   4.475   3.167   4.006
    1C        C  224   4.516   3.379   4.124
    1C        C  225   4.516   3.309   4.246
    1C        C  226   4.526   3.521   4.367
    1C        C  227   4.524   3.380   4.368
    1C        C  228   4.523   3.597   4.487
    1C        C  229   4.541   3.530   4.610
    1C        C  230   4.504   3.740   4.728
    1C        C  231   4.541   3.602   4.731
    1C        C  232   4.498   3.820   4.844
    1C        C  233   4.550   3.754   4.956
    1C        C  234   4.014   2.611   2.064
    1C        C  235   3.895   2.539   2.067
    1C        C  236   4.082   2.648   2.181
    1C        C  237   4.022   2.606   2.302
    1C        C  238   4.201   2.728   2.421
    1C        C  239   4.085   2.646   2.422
    1C        C  240   4.252   2.786   2.539
    1C        C  241   4.192   2.748   2.661
    1C        C  242   4.338   2.903   2.782
    1C        C  243   4.246   2.796   2.783
    1C        C  244   4.380   2.960   2.904
    1C        C  245   4.337   2.906   3.028
    1C        C  246   4.436   3.092   3.149
    1C        C  247   4.375   2.965   3.150
    1C        C  248   4.462   3.160   3.270
    1C        C  249   4.441   3.094   3.393
    1C        C  250   4.504   3.298   3.514
    1C        C  251   4.468   3.162   3.514
    1C        C  252   4.510   3.369   3.636
    1C        C  253   4.500   3.301   3.760
    1C        C  254   4.519   3.514   3.878
    1C        C  255   4.514   3.373   3.881
    1C        C  256   4.515   3.588   3.998
    1C        C  257   4.516   3.520   4.122
    1C        C  258   4.479   3.728   4.243
    1C        C  259   4.508   3.590   4.245
    1C        C  260   4.465   3.801   4.363
    1C        C  261   4.482   3.732   4.485
    1C        C  262   4.423   3.936   4.605
    1C        C  263   4.472   3.804   4.607
    1C        C  264   4.397   4.009   4.723
    1C        C  265   4.432   3.945   4.844
    1C        C  266   4.326   4.136   4.956
    1C        C  267   4.395   4.015   4.960
    1C        C  268   4.263   2.770   2.064
    1C        C  269   4.195   2.733   2.182
    1C        C  270   4.344   2.891   2.295
    1C        C  271   4.251   2.783   2.301
    1C        C  272   4.378   2.955   2.416
    1C        C  273   4.338   2.898   2.538
    1C        C  274   4.451   3.080   2.661
    1C        C  275   4.383   2.956   2.659
    1C        C  276   4.475   3.151   2.781
    1C        C  277   4.447   3.084   2.902
    1C        C  278   4.502   3.290   3.026
    1C        C  279   4.466   3.153   3.024
    1C        C  280   4.517   3.362   3.146
    1C        C  281   4.499   3.296   3.270
    1C        C  282   4.517   3.508   3.391
    1C        C  283   4.514   3.367   3.391
    1C        C  284   4.510   3.581   3.512
    1C        C  285   4.515   3.511   3.634
    1C        C  286   4.489   3.723   3.755
    1C        C  287   4.514   3.584   3.755
    1C        C  288   4.471   3.793   3.876
    1C        C  289   4.489   3.727   3.999
    1C        C  290   4.425   3.931   4.117
    1C        C  291   4.473   3.798   4.121
    1C        C  292   4.394   3.997   4.238
    1C        C  293   4.424   3.936   4.362
    1C        C  294   4.321   4.123   4.477
    1C        C  295   4.397   4.004   4.483
    1C        C  296   4.280   4.186   4.597
    1C        C  297   4.323   4.130   4.720
    1C        C  298   4.198   4.313   4.838
    1C        C  299   4.282   4.197   4.838
    1C        C  300   4.172   4.402   4.947
    1C        C  301   4.351   2.877   2.063
    1C        C  302   4.475   3.067   2.175
    1C        C  303   4.397   2.946   2.176
    1C        C  304   4.483   3.141   2.296
    1C        C  305   4.448   3.078   2.418
    1C        C  306   4.508   3.283   2.535
    1C        C  307   4.477   3.145   2.539
    1C        C  308   4.512   3.356   2.656
    1C        C  309   4.504   3.289   2.780
    1C        C  310   4.521   3.499   2.901
    1C        C  311   4.517   3.357   2.903
    1C        C  312   4.517   3.572   3.022
    1C        C  313   4.522   3.504   3.145
    1C        C  314   4.481   3.712   3.263
    1C        C  315   4.516   3.575   3.267
    1C        C  316   4.467   3.784   3.384
    1C        C  317   4.484   3.720   3.509
    1C        C  318   4.417   3.921   3.626
    1C        C  319   4.466   3.789   3.632
    1C        C  320   4.385   3.984   3.749
    1C        C  321   4.418   3.924   3.872
    1C        C  322   4.316   4.110   3.993
    1C        C  323   4.393   3.991   3.994
    1C        C  324   4.271   4.169   4.113
    1C        C  325   4.319   4.116   4.235
    1C        C  326   4.182   4.281   4.353
    1C        C  327   4.280   4.180   4.355
    1C        C  328   4.132   4.335   4.474
    1C        C  329   4.186   4.291   4.596
    1C        C  330   4.021   4.432   4.714
    1C        C  331   4.137   4.350   4.715
    1C        C  332   3.968   4.489   4.832
    1C        C  333   4.050   4.471   4.944
    1C        C  334   4.548   3.267   2.058
    1C        C  335   4.536   3.128   2.060
    1C        C  336   4.540   3.349   2.171
    1C        C  337   4.517   3.279   2.292
    1C        C  338   4.522   3.494   2.411
    1C        C  339   4.518   3.352   2.412
    1C        C  340   4.520   3.566   2.532
    1C        C  341   4.519   3.497   2.655
    1C        C  342   4.494   3.707   2.776
    1C        C  343   4.516   3.567   2.778
    1C        C  344   4.478   3.780   2.896
    1C        C  345   4.489   3.710   3.018
    1C        C  346   4.414   3.911   3.138
    1C        C  347   4.465   3.779   3.140
    1C        C  348   4.385   3.978   3.259
    1C        C  349   4.419   3.917   3.382
    1C        C  350   4.314   4.103   3.503
    1C        C  351   4.390   3.984   3.503
    1C        C  352   4.272   4.163   3.624
    1C        C  353   4.311   4.104   3.746
    1C        C  354   4.174   4.265   3.867
    1C        C  355   4.268   4.159   3.869
    1C        C  356   4.123   4.319   3.987
    1C        C  357   4.172   4.270   4.110
    1C        C  358   4.011   4.409   4.230
    1C        C  359   4.124   4.324   4.231
    1C        C  360   3.951   4.446   4.353
    1C        C  361   4.018   4.419   4.474
    1C        C  362   3.826   4.520   4.593
    1C        C  363   3.956   4.465   4.593
    1C        C  364   3.760   4.552   4.714
    1C        C  365   3.837   4.541   4.832
    1C        C  366   3.627   4.600   4.943
    1C        C  367   3.764   4.580   4.945
    1C        C  368   4.516   3.564   2.050
    1C        C  369   4.529   3.490   2.168
    1C        C  370   4.496   3.703   2.285
    1C        C  371   4.518   3.564   2.288
    1C        C  372   4.481   3.773   2.407
    1C        C  373   4.501   3.706   2.529
    1C        C  374   4.420   3.901   2.651
    1C        C  375   4.481   3.774   2.652
    1C        C  376   4.391   3.969   2.771
    1C        C  377   4.426   3.911   2.895
    1C        C  378   4.312   4.094   3.015
    1C        C  379   4.386   3.974   3.015
    1C        C  380   4.268   4.153   3.135
    1C        C  381   4.307   4.096   3.258
    1C        C  382   4.166   4.254   3.378
    1C        C  383   4.265   4.154   3.380
    1C        C  384   4.115   4.304   3.500
    1C        C  385   4.174   4.265   3.622
    1C        C  386   4.003   4.389   3.744
    1C        C  387   4.122   4.312   3.745
    1C        C  388   3.943   4.433   3.865
    1C        C  389   4.005   4.397   3.987
    1C        C  390   3.819   4.498   4.107
    1C        C  391   3.948   4.442   4.108
    1C        C  392   3.751   4.518   4.229
    1C        C  393   3.821   4.500   4.350
    1C        C  394   3.617   4.556   4.473
    1C        C  395   3.757   4.536   4.471
    1C        C  396   3.543   4.569   4.593
    1C        C  397   3.620   4.570   4.711
    1C        C  398   3.407   4.552   4.837
    1C        C  399   3.546   4.574   4.832
    1C        C  400   3.343   4.508   4.953
    1C        C  401   4.510   3.703   2.052
    1C        C  402   4.448   3.915   2.167
    1C        C  403   4.489   3.780   2.167
    1C        C  404   4.409   3.977   2.288
    1C        C  405   4.432   3.906   2.408
    1C        C  406   4.320   4.087   2.525
    1C        C  407   4.397   3.968   2.529
    1C        C  408   4.272   4.142   2.646
    1C        C  409   4.313   4.087   2.770
    1C        C  410   4.170   4.246   2.888
    1C        C  411   4.272   4.148   2.890
    1C        C  412   4.118   4.295   3.010
    1C        C  413   4.168   4.253   3.135
    1C        C  414   4.001   4.387   3.251
    1C        C  415   4.115   4.304   3.256
    1C        C  416   3.940   4.418   3.375
    1C        C  417   3.997   4.382   3.498
    1C        C  418   3.810   4.476   3.619
    1C        C  419   3.938   4.415   3.622
    1C        C  420   3.747   4.508   3.741
    1C        C  421   3.817   4.496   3.863
    1C        C  422   3.610   4.538   3.987
    1C        C  423   3.749   4.518   3.985
    1C        C  424   3.541   4.545   4.110
    1C        C  425   3.612   4.544   4.232
    1C        C  426   3.400   4.553   4.356
    1C        C  427   3.541   4.551   4.354
    1C        C  428   3.328   4.549   4.477
    1C        C  429   3.402   4.561   4.597
    1C        C  430   3.191   4.524   4.724
    1C        C  431   3.331   4.549   4.718
    1C        C  432   3.121   4.498   4.845
    1C        C  433   3.205   4.490   4.957
    1C        C  434   4.385   4.126   2.053
    1C        C  435   4.451   4.002   2.057
    1C        C  436   4.301   4.162   2.162
    1C        C  437   4.331   4.095   2.284
    1C        C  438   4.175   4.244   2.402
    1C        C  439   4.275   4.144   2.404
    1C        C  440   4.125   4.296   2.523
    1C        C  441   4.178   4.247   2.645
    1C        C  442   4.004   4.375   2.765
    1C        C  443   4.119   4.293   2.765
    1C        C  444   3.943   4.416   2.886
    1C        C  445   4.004   4.379   3.008
    1C        C  446   3.811   4.476   3.130
    1C        C  447   3.940   4.418   3.127
    1C        C  448   3.745   4.498   3.253
    1C        C  449   3.811   4.476   3.376
    1C        C  450   3.610   4.542   3.496
    1C        C  451   3.747   4.509   3.498
    1C        C  452   3.540   4.553   3.619
    1C        C  453   3.609   4.541   3.742
    1C        C  454   3.399   4.546   3.866
    1C        C  455   3.540   4.549   3.865
    1C        C  456   3.330   4.535   3.989
    1C        C  457   3.400   4.542   4.112
    1C        C  458   3.193   4.504   4.237
    1C        C  459   3.329   4.544   4.234
    1C        C  460   3.124   4.490   4.359
    1C        C  461   3.192   4.513   4.481
    1C        C  462   2.995   4.435   4.604
    1C        C  463   3.124   4.492   4.604
    1C        C  464   2.930   4.401   4.725
    1C        C  465   2.990   4.442   4.848
    1C        C  466   2.802   4.333   4.959
    1C        C  467   2.902   4.431   4.961
    1C        C  468   4.123   4.283   2.040
    1C        C  469   4.187   4.250   2.160
    1C        C  470   4.008   4.374   2.279
    1C        C  471   4.129   4.298   2.280
    1C        C  472   3.942   4.405   2.400
    1C        C  473   4.010   4.378   2.521
    1C        C  474   3.813   4.463   2.643
    1C        C  475   3.943   4.408   2.642
    1C        C  476   3.747   4.495   2.763
    1C        C  477   3.815   4.476   2.885
    1C        C  478   3.607   4.526   3.008
    1C        C  479   3.746   4.501   3.006
    1C        C  480   3.538   4.536   3.131
    1C        C  481   3.607   4.529   3.254
    1C        C  482   3.395   4.540   3.376
    1C        C  483   3.536   4.544   3.375
    1C        C  484   3.328   4.532   3.500
    1C        C  485   3.399   4.548   3.621
    1C        C  486   3.191   4.506   3.744
    1C        C  487   3.328   4.540   3.743
    1C        C  488   3.126   4.483   3.867
    1C        C  489   3.191   4.508   3.990
    1C        C  490   3.003   4.417   4.115
    1C        C  491   3.127   4.485   4.114
    1C        C  492   2.945   4.382   4.239
    1C        C  493   2.997   4.429   4.362
    1C        C  494   2.827   4.301   4.483
    1C        C  495   2.933   4.394   4.484
    1C        C  496   2.776   4.251   4.605
    1C        C  497   2.820   4.312   4.725
    1C        C  498   2.663   4.163   4.845
    1C        C  499   2.752   4.273   4.843
    1C        C  500   2.595   4.116   4.959
    1C        C  501   4.006   4.358   2.041
    1C        C  502   3.817   4.466   2.155
    1C        C  503   3.942   4.401   2.158
    1C        C  504   3.746   4.484   2.275
    1C        C  505   3.810   4.453   2.398
    1C        C  506   3.607   4.513   2.520
    1C        C  507   3.745   4.480   2.520
    1C        C  508   3.536   4.524   2.641
    1C        C  509   3.608   4.520   2.763
    1C        C  510   3.396   4.532   2.885
    1C        C  511   3.538   4.533   2.885
    1C        C  512   3.326   4.524   3.007
    1C        C  513   3.397   4.535   3.129
    1C        C  514   3.192   4.492   3.255
    1C        C  515   3.329   4.529   3.252
    1C        C  516   3.125   4.469   3.378
    1C        C  517   3.192   4.496   3.500
    1C        C  518   3.002   4.407   3.624
    1C        C  519   3.126   4.475   3.623
    1C        C  520   2.946   4.370   3.748
    1C        C  521   3.002   4.415   3.869
    1C        C  522   2.844   4.278   3.996
    1C        C  523   2.948   4.373   3.993
    1C        C  524   2.795   4.231   4.120
    1C        C  525   2.838   4.289   4.241
    1C        C  526   2.696   4.132   4.363
    1C        C  527   2.779   4.246   4.362
    1C        C  528   2.657   4.074   4.486
    1C        C  529   2.694   4.137   4.607
    1C        C  530   2.577   3.962   4.730
    1C        C  531   2.637   4.091   4.727
    1C        C  532   2.536   3.902   4.852
    1C        C  533   2.529   3.993   4.962
    1C        C  534   3.617   4.559   2.038
    1C        C  535   3.750   4.514   2.041
    1C        C  536   3.537   4.534   2.155
    1C        C  537   3.607   4.514   2.276
    1C        C  538   3.394   4.519   2.397
    1C        C  539   3.536   4.520   2.398
    1C        C  540   3.323   4.518   2.519
    1C        C  541   3.395   4.521   2.640
    1C        C  542   3.190   4.481   2.765
    1C        C  543   3.325   4.520   2.764
    1C        C  544   3.124   4.458   2.888
    1C        C  545   3.189   4.490   3.009
    1C        C  546   3.000   4.401   3.133
    1C        C  547   3.124   4.468   3.134
    1C        C  548   2.945   4.363   3.257
    1C        C  549   3.001   4.402   3.380
    1C        C  550   2.835   4.272   3.505
    1C        C  551   2.941   4.365   3.503
    1C        C  552   2.786   4.227   3.629
    1C        C  553   2.841   4.276   3.750
    1C        C  554   2.707   4.115   3.874
    1C        C  555   2.794   4.226   3.874
    1C        C  556   2.669   4.057   3.998
    1C        C  557   2.709   4.119   4.118
    1C        C  558   2.604   3.939   4.241
    1C        C  559   2.669   4.065   4.242
    1C        C  560   2.574   3.879   4.365
    1C        C  561   2.594   3.947   4.487
    1C        C  562   2.524   3.751   4.613
    1C        C  563   2.564   3.886   4.611
    1C        C  564   2.508   3.682   4.736
    1C        C  565   2.515   3.760   4.855
    1C        C  566   2.534   3.547   4.976
    1C        C  567   2.527   3.686   4.973
    1C        C  568   3.330   4.472   2.040
    1C        C  569   3.396   4.514   2.156
    1C        C  570   3.182   4.477   2.280
    1C        C  571   3.321   4.509   2.277
    1C        C  572   3.119   4.454   2.404
    1C        C  573   3.186   4.483   2.525
    1C        C  574   2.989   4.401   2.646
    1C        C  575   3.116   4.462   2.646
    1C        C  576   2.931   4.359   2.768
    1C        C  577   2.998   4.394   2.887
    1C        C  578   2.830   4.271   3.016
    1C        C  579   2.940   4.360   3.011
    1C        C  580   2.784   4.220   3.139
    1C        C  581   2.836   4.272   3.259
    1C        C  582   2.699   4.111   3.382
    1C        C  583   2.788   4.221   3.382
    1C        C  584   2.663   4.055   3.506
    1C        C  585   2.698   4.116   3.629
    1C        C  586   2.598   3.933   3.753
    1C        C  587   2.663   4.058   3.753
    1C        C  588   2.572   3.869   3.876
    1C        C  589   2.600   3.934   3.998
    1C        C  590   2.530   3.736   4.124
    1C        C  591   2.572   3.871   4.122
    1C        C  592   2.518   3.671   4.249
    1C        C  593   2.531   3.744   4.369
    1C        C  594   2.508   3.537   4.497
    1C        C  595   2.511   3.678   4.492
    1C        C  596   2.516   3.466   4.619
    1C        C  597   2.509   3.540   4.739
    1C        C  598   2.532   3.328   4.863
    1C        C  599   2.523   3.469   4.860
    1C        C  600   2.537   3.247   4.977
    1C        C  601   3.197   4.433   2.044
    1C        C  602   2.985   4.389   2.160
    1C        C  603   3.118   4.441   2.159
    1C        C  604   2.924   4.360   2.285
    1C        C  605   2.992   4.391   2.405
    1C        C  606   2.820   4.266   2.528
    1C        C  607   2.926   4.359   2.526
    1C        C  608   2.770   4.218   2.651
    1C        C  609   2.820   4.272   2.771
    1C        C  610   2.688   4.111   2.894
    1C        C  611   2.775   4.222   2.896
    1C        C  612   2.654   4.051   3.017
    1C        C  613   2.696   4.109   3.138
    1C        C  614   2.594   3.924   3.266
    1C        C  615   2.659   4.049   3.261
    1C        C  616   2.565   3.862   3.390
    1C        C  617   2.600   3.928   3.509
    1C        C  618   2.527   3.731   3.637
    1C        C  619   2.569   3.866   3.632
    1C        C  620   2.510   3.664   3.760
    1C        C  621   2.529   3.734   3.881
    1C        C  622   2.503   3.524   4.008
    1C        C  623   2.515   3.665   4.003
    1C        C  624   2.509   3.456   4.132
    1C        C  625   2.512   3.530   4.253
    1C        C  626   2.539   3.323   4.378
    1C        C  627   2.513   3.462   4.377
    1C        C  628   2.557   3.255   4.500
    1C        C  629   2.538   3.327   4.621
    1C        C  630   2.596   3.121   4.743
    1C        C  631   2.550   3.256   4.742
    1C        C  632   2.619   3.049   4.863
    1C        C  633   2.558   3.109   4.977
    1C        C  634   2.780   4.308   2.056
    1C        C  635   2.892   4.391   2.051
    1C        C  636   2.747   4.229   2.167
    1C        C  637   2.810   4.274   2.285
    1C        C  638   2.680   4.107   2.407
    1C        C  639   2.765   4.220   2.407
    1C        C  640   2.643   4.046   2.529
    1C        C  641   2.685   4.105   2.651
    1C        C  642   2.585   3.921   2.777
    1C        C  643   2.646   4.048   2.774
    1C        C  644   2.561   3.857   2.901
    1C        C  645   2.588   3.926   3.022
    1C        C  646   2.524   3.724   3.147
    1C        C  647   2.562   3.861   3.144
    1C        C  648   2.510   3.656   3.270
    1C        C  649   2.520   3.728   3.391
    1C        C  650   2.500   3.520   3.518
    1C        C  651   2.509   3.661   3.515
    1C        C  652   2.507   3.452   3.642
    1C        C  653   2.505   3.523   3.764
    1C        C  654   2.534   3.313   3.886
    1C        C  655   2.514   3.453   3.887
    1C        C  656   2.553   3.249   4.011
    1C        C  657   2.535   3.318   4.133
    1C        C  658   2.610   3.123   4.257
    1C        C  659   2.553   3.252   4.257
    1C        C  660   2.639   3.059   4.380
    1C        C  661   2.602   3.121   4.502
    1C        C  662   2.711   2.939   4.623
    1C        C  663   2.628   3.054   4.623
    1C        C  664   2.756   2.881   4.744
    1C        C  665   2.700   2.930   4.865
    1C        C  666   2.743   2.870   4.984
    1C        C  667   2.681   4.019   2.053
    1C        C  668   2.682   4.104   2.164
    1C        C  669   2.591   3.912   2.289
    1C        C  670   2.646   4.043   2.286
    1C        C  671   2.559   3.849   2.411
    1C        C  672   2.588   3.916   2.532
    1C        C  673   2.527   3.716   2.657
    1C        C  674   2.562   3.853   2.656
    1C        C  675   2.509   3.649   2.780
    1C        C  676   2.520   3.722   2.901
    1C        C  677   2.504   3.514   3.030
    1C        C  678   2.511   3.655   3.025
    1C        C  679   2.505   3.444   3.152
    1C        C  680   2.500   3.515   3.274
    1C        C  681   2.525   3.308   3.398
    1C        C  682   2.501   3.447   3.398
    1C        C  683   2.546   3.242   3.521
    1C        C  684   2.533   3.313   3.642
    1C        C  685   2.611   3.117   3.770
    1C        C  686   2.549   3.244   3.764
    1C        C  687   2.643   3.056   3.893
    1C        C  688   2.604   3.118   4.014
    1C        C  689   2.719   2.940   4.137
    1C        C  690   2.641   3.057   4.136
    1C        C  691   2.759   2.883   4.260
    1C        C  692   2.713   2.939   4.381
    1C        C  693   2.752   2.878   4.503
    1C        C  694   2.630   3.888   2.054
    1C        C  695   2.523   3.703   2.172
    1C        C  696   2.578   3.833   2.172
    1C        C  697   2.508   3.637   2.296
    1C        C  698   2.522   3.712   2.414
    1C        C  699   2.490   3.504   2.539
    1C        C  700   2.502   3.645   2.537
    1C        C  701   2.503   3.438   2.663
    1C        C  702   2.501   3.508   2.785
    1C        C  703   2.524   3.300   2.910
    1C        C  704   2.505   3.440   2.909
    1C        C  705   2.544   3.233   3.033
    1C        C  706   2.530   3.305   3.154
    1C        C  707   2.595   3.105   3.280
    1C        C  708   2.546   3.237   3.277
    1C        C  709   2.634   3.049   3.403
    1C        C  710   2.604   3.113   3.526
    1C        C  711   2.726   2.939   3.650
    1C        C  712   2.642   3.053   3.648
    1C        C  713   2.768   2.884   3.773
    1C        C  714   2.721   2.938   3.895
    1C        C  715   2.764   2.881   4.017
    1C        C  716   2.447   3.498   2.059
    1C        C  717   2.485   3.633   2.057
    1C        C  718   2.464   3.422   2.180
    1C        C  719   2.482   3.497   2.299
    1C        C  720   2.507   3.288   2.425
    1C        C  721   2.482   3.427   2.421
    1C        C  722   2.531   3.223   2.547
    1C        C  723   2.520   3.298   2.667
    1C        C  724   2.595   3.100   2.788
    1C        C  725   2.538   3.229   2.789
    1C        C  726   2.626   3.039   2.912
    1C        C  727   2.593   3.101   3.034
    1C        C  728   2.713   2.929   3.158
    1C        C  729   2.626   3.040   3.158
    1C        C  730   2.760   2.879   3.281
    1C        C  731   2.719   2.936   3.404
    1C        C  732   2.762   2.880   3.527
    1C        C  733   2.485   3.199   2.070
    1C        C  734   2.487   3.281   2.183
    1C        C  735   2.586   3.088   2.305
    1C        C  736   2.526   3.217   2.304
    1C        C  737   2.617   3.023   2.426
    1C        C  738   2.594   3.096   2.545
    1C        C  739   2.701   2.913   2.670
    1C        C  740   2.628   3.034   2.668
    1C        C  741   2.746   2.860   2.793
    1C        C  742   2.703   2.920   2.913
    1C        C  743   2.753   2.871   3.036
    1C        C  744   2.547   3.074   2.071
    1C        C  745   2.686   2.901   2.186
    1C        C  746   2.607   3.017   2.184
    1C        C  747   2.729   2.841   2.306
    1C        C  748   2.689   2.902   2.427
    1C        C  749   2.739   2.851   2.549
    1C        C  750   2.739   2.844   2.070
    1C        C  751   3.662   2.330   1.965
    1C        O  752   3.658   2.206   1.986
    1C        O  753   3.684   2.373   1.834
    1C        C  754   4.649   3.066   1.988
    1C        O  755   4.665   3.090   1.865
    1C        O  756   4.761   3.007   2.048
    1C        C  757   4.456   4.225   1.969
    1C        O  758   4.561   4.284   2.008
    1C        O  759   4.430   4.228   1.832
    1C        C  760   3.613   4.684   1.959
    1C        O  761   3.676   4.790   1.982
    1C        O  762   3.575   4.676   1.824
    1C        C  763   2.873   4.516   1.974
    1C        O  764   2.930   4.519   1.862
    1C        O  765   2.825   4.642   2.014
    1C        C  766   2.329   3.475   1.973
    1C        O  767   2.336   3.480   1.847
    1C        O  768   2.202   3.503   2.025
    1C        C  769   4.691   3.589   5.064
    1C        O  770   4.658   3.610   5.184
    1C        O  771   4.812   3.658   5.054
    1C        C  772   4.277   4.454   5.037
    1C        O  773   4.280   4.439   5.162
    1C        O  774   4.339   4.576   5.007
    1C        C  775   4.133   2.518   5.079
    1C        O  776   4.222   2.437   5.044
    1C        O  777   4.149   2.570   5.209
    1C        C  778   2.859   4.546   5.043
    1C        O  779   2.845   4.660   4.989
    1C        O  780   2.898   4.566   5.176
    1C        C  781   2.471   3.023   5.060
    1C        O  782   2.379   2.952   5.012
    1C        O  783   2.467   3.035   5.198
    1C        C  784   2.399   4.002   5.032
    1C        O  785   2.295   4.046   4.975
    1C        O  786   2.374   3.963   5.164
    1C        C  787   2.947   2.410   2.019
    1C        O  788   2.910   2.417   1.899
    1C        O  789   2.892   2.305   2.092
    1C        C  790   3.179   2.389   5.076
    1C        O  791   3.147   2.272   5.042
    1C        O  792   3.229   2.423   5.202
    1C        H  793   4.328   2.993   5.073
    1C        H  794   4.184   2.810   5.073
    1C        H  795   4.456   3.146   5.068
    1C        H  796   4.576   3.348   5.059
    1C        H  797   4.602   3.820   5.022
    1C        H  798   4.448   3.992   5.050
    1C        H  799   4.277   4.169   5.045
    1C        H  800   4.007   4.494   5.040
    1C        H  801   3.815   4.608   5.035
    1C        H  802   3.586   4.653   5.027
    1C        H  803   3.397   4.459   5.032
    1C        H  804   3.166   4.461   5.053
    1C        H  805   3.878   2.513   5.070
    1C        H  806   3.676   2.431   5.064
    1C        H  807   2.978   2.514   5.028
    1C        H  808   3.438   2.453   5.071
    1C        H  809   2.847   2.711   5.073
    1C        H  810   2.719   2.917   5.077
    1C        H  811   2.574   3.293   5.066
    1C        H  812   2.584   3.503   5.059
    1C        H  813   2.476   3.723   5.059
    1C        H  814   2.566   4.187   5.033
    1C        H  815   2.789   4.283   5.053
    1C        H  816   2.699   2.863   1.972
    1C        H  817   2.816   2.674   1.981
    1C        H  818   3.208   2.401   2.004
    1C        H  819   3.427   2.455   1.977
    1C        H  820   3.836   2.557   1.979
    1C        H  821   4.067   2.609   1.971
    1C        H  822   4.282   2.694   1.991
    1C        H  823   4.354   2.930   1.970
    1C        H  824   4.549   3.314   1.962
    1C        H  825   4.478   3.519   1.960
    1C        H  826   4.543   3.757   1.966
    1C        H  827   3.809   4.551   1.960
    1C        H  828   3.971   4.389   1.944
    1C        H  829   4.186   4.312   1.958
    1C        H  830   4.536   3.994   1.992
    1C        H  831   2.680   3.822   1.986
    1C        H  832   2.730   4.051   1.963
    1C        H  833   2.736   4.287   1.961
    1C        H  834   3.378   4.476   1.945
    1C        H  835   3.170   4.366   1.965
    1C        H  836   2.580   3.039   1.975
    1C        H  837   2.430   3.231   1.984
    1C        H  838   2.442   3.691   1.979
    2V3OU   H29  839   2.806   3.549   5.425
    2V3OU   C27  840   2.779   3.501   5.522
    2V3OU   H27  841   2.723   3.572   5.587
    2V3OU   H28  842   2.718   3.407   5.510
    2V3OU   O11  843   2.908   3.473   5.578
    2V3OU   C15  844   2.918   3.402   5.696
    2V3OU   C13  845   3.051   3.378   5.735
    2V3OU   C14  846   3.077   3.268   5.818
    2V3OU   C16  847   2.972   3.187   5.862
    2V3OU    H6  848   2.994   3.100   5.925
    2V3OU   C12  849   3.215   3.237   5.862
    2V3OU    O2  850   3.235   3.132   5.927
    2V3OU   C10  851   3.326   3.306   5.795
    2V3OU    C8  852   3.458   3.265   5.814
    2V3OU   O10  853   3.485   3.147   5.875
    2V3OU   H26  854   3.397   3.115   5.900
    2V3OU    C6  855   3.563   3.347   5.764
    2V3OU    C5  856   3.539   3.466   5.696
    2V3OU    C4  857   3.704   3.298   5.768
    2V3OU    H4  858   3.729   3.227   5.852
    2V3OU    H5  859   3.716   3.231   5.677
    2V3OU    C2  860   3.816   3.402   5.770
    2V3OU    O6  861   3.802   3.469   5.895
    2V3OU   H21  862   3.760   3.554   5.873
    2V3OU    C3  863   3.781   3.496   5.653
    2V3OU    H2  864   3.861   3.573   5.645
    2V3OU    H3  865   3.781   3.441   5.556
    2V3OU   C25  866   3.951   3.333   5.754
    2V3OU    O7  867   3.998   3.302   5.645
    2V3OU   C26  868   4.033   3.292   5.876
    2V3OU   H22  869   4.069   3.384   5.929
    2V3OU   H23  870   4.114   3.222   5.845
    2V3OU    O8  871   3.962   3.213   5.968
    2V3OU   H24  872   3.917   3.266   6.036
    2V3OU    C1  873   3.648   3.567   5.675
    2V3OU    H1  874   3.622   3.620   5.579
    2V3OU    O3  875   3.657   3.657   5.785
    2V3OU   C19  876   3.620   3.793   5.760
    2V3OU    H9  877   3.519   3.807   5.713
    2V3OU    O4  878   3.713   3.855   5.675
    2V3OU   C20  879   3.846   3.878   5.724
    2V3OU   H10  880   3.891   3.776   5.742
    2V3OU   C24  881   3.611   3.863   5.896
    2V3OU   H16  882   3.535   3.806   5.956
    2V3OU   H17  883   3.565   3.960   5.863
    2V3OU   C23  884   3.752   3.878   5.954
    2V3OU   H15  885   3.791   3.774   5.977
    2V3OU    N1  886   3.737   3.955   6.076
    2V3OU   H19  887   3.804   3.922   6.142
    2V3OU   H20  888   3.646   3.940   6.115
    2V3OU   C21  889   3.851   3.952   5.858
    2V3OU   H11  890   3.957   3.923   5.884
    2V3OU    O5  891   3.833   4.093   5.860
    2V3OU   H18  892   3.785   4.105   5.943
    2V3OU   C22  893   3.908   3.950   5.606
    2V3OU   H12  894   3.859   4.050   5.593
    2V3OU   H13  895   3.898   3.888   5.513
    2V3OU   H14  896   4.018   3.959   5.622
    2V3OU   C11  897   3.161   3.465   5.692
    2V3OU    O1  898   3.141   3.583   5.655
    2V3OU    C9  899   3.298   3.430   5.732
    2V3OU    C7  900   3.403   3.506   5.681
    2V3OU    O9  901   3.385   3.620   5.605
    2V3OU   H25  902   3.288   3.628   5.606
    2V3OU   C17  903   2.817   3.312   5.738
    2V3OU    H7  904   2.714   3.347   5.737
    2V3OU   C18  905   2.841   3.201   5.817
    2V3OU    H8  906   2.751   3.144   5.844
    3SOL     OW  907   3.664   2.973   3.912
    3SOL    HW1  908   3.655   2.943   3.817
    3SOL    HW2  909   3.577   2.959   3.960
    4SOL     OW  910   6.597   6.255   0.621
    4SOL    HW1  911   6.618   6.323   0.551
    4SOL    HW2  912   6.512   6.208   0.596
    5SOL     OW  913   5.276   1.709   0.706
    5SOL    HW1  914   5.315   1.680   0.619
    5SOL    HW2  915   5.275   1.632   0.770
    6SOL     OW  916   5.117   1.376   2.665
    6SOL    HW1  917   5.196   1.415   2.618
    6SOL    HW2  918   5.035   1.430   2.644
    7SOL     OW  919   1.933   4.043   4.009
    7SOL    HW1  920   1.863   4.070   4.075
    7SOL    HW2  921   1.987   3.968   4.046
    8SOL     OW  922   0.821   3.126   4.759
    8SOL    HW1  923   0.815   3.035   4.717
    8SOL    HW2  924   0.826   3.195   4.686
    9SOL     OW  925   6.869   0.815   6.803
    9SOL    HW1  926   6.848   0.717   6.801
    9SOL    HW2  927   6.810   0.863   6.737
   10SOL     OW  928   5.284   4.646   1.761
   10SOL    HW1  929   5.325   4.709   1.827
   10SOL    HW2  930   5.327   4.660   1.672
   11SOL     OW  931   2.157   2.393   0.183
   11SOL    HW1  932   2.180   2.299   0.209
   11SOL    HW2  933   2.098   2.434   0.253
   12SOL     OW  934   3.937   5.279   2.643
   12SOL    HW1  935   3.958   5.361   2.695
   12SOL    HW2  936   4.006   5.209   2.662
   13SOL     OW  937   5.995   6.016   1.441
   13SOL    HW1  938   6.013   6.100   1.492
   13SOL    HW2  939   5.908   5.976   1.472
   14SOL     OW  940   4.338   6.470   5.741
   14SOL    HW1  941   4.371   6.400   5.678
   14SOL    HW2  942   4.248   6.443   5.776
   15SOL     OW  943   0.707   6.394   5.918
   15SOL    HW1  944   0.798   6.372   5.883
   15SOL    HW2  945   0.663   6.458   5.856
   16SOL     OW  946   2.119   4.758   4.661
   16SOL    HW1  947   2.049   4.821   4.693
   16SOL    HW2  948   2.209   4.788   4.692
   17SOL     OW  949   6.097   1.091   5.551
   17SOL    HW1  950   6.076   1.066   5.645
   17SOL    HW2  951   6.192   1.119   5.543
   18SOL     OW  952   3.098   1.479   6.068
   18SOL    HW1  953   3.121   1.545   5.996
   18SOL    HW2  954   3.128   1.515   6.157
   19SOL     OW  955   2.799   6.670   2.985
   19SOL    HW1  956   2.738   6.692   3.061
   19SOL    HW2  957   2.846   6.752   2.955
   20SOL     OW  958   6.284   1.469   5.234
   20SOL    HW1  959   6.191   1.448   5.264
   20SOL    HW2  960   6.316   1.398   5.171
   21SOL     OW  961   2.359   4.318   2.528
   21SOL    HW1  962   2.331   4.227   2.499
   21SOL    HW2  963   2.379   4.374   2.447
   22SOL     OW  964   1.509   0.621   6.824
   22SOL    HW1  965   1.414   0.625   6.792
   22SOL    HW2  966   1.511   0.630   6.923
   23SOL     OW  967   5.553   4.848   1.394
   23SOL    HW1  968   5.491   4.777   1.362
   23SOL    HW2  969   5.633   4.853   1.333
   24SOL     OW  970   4.391   1.376   0.753
   24SOL    HW1  971   4.320   1.444   0.737
   24SOL    HW2  972   4.481   1.420   0.751
   25SOL     OW  973   2.218   0.453   4.561
   25SOL    HW1  974   2.170   0.494   4.638
   25SOL    HW2  975   2.209   0.511   4.480
   26SOL     OW  976   0.612   2.411   6.585
   26SOL    HW1  977   0.680   2.398   6.512
   26SOL    HW2  978   0.537   2.346   6.573
   27SOL     OW  979   6.475   0.677   2.172
   27SOL    HW1  980   6.569   0.668   2.139
   27SOL    HW2  981   6.421   0.598   2.143
   28SOL     OW  982   2.363   0.540   5.025
   28SOL    HW1  983   2.447   0.486   5.034
   28SOL    HW2  984   2.331   0.568   5.116
   29SOL     OW  985   0.015   6.897   1.113
   29SOL    HW1  986   0.093   6.931   1.165
   29SOL    HW2  987   0.019   6.932   1.020
   30SOL     OW  988   4.796   0.336   5.374
   30SOL    HW1  989   4.706   0.297   5.355
   30SOL    HW2  990   4.865   0.263   5.373
   31SOL     OW  991   0.600   3.633   5.208
   31SOL    HW1  992   0.508   3.596   5.223
   31SOL    HW2  993   0.593   3.720   5.158
   32SOL     OW  994   3.865   0.460   1.061
   32SOL    HW1  995   3.783   0.499   1.103
   32SOL    HW2  996   3.942   0.522   1.075
   33SOL     OW  997   2.090   5.609   6.198
   33SOL    HW1  998   2.147   5.619   6.116
   33SOL    HW2  999   2.047   5.518   6.198
   34SOL     OW 1000   3.328   5.477   5.226
   34SOL    HW1 1001   3.409   5.441   5.272
   34SOL    HW2 1002   3.340   5.471   5.127
   35SOL     OW 1003   1.697   3.545   6.795
   35SOL    HW1 1004   1.725   3.536   6.891
   35SOL    HW2 1005   1.664   3.638   6.779
   36SOL     OW 1006   4.078   1.447   3.362
   36SOL    HW1 1007   4.111   1.359   3.327
   36SOL    HW2 1008   3.999   1.432   3.421
   37SOL     OW 1009   2.339   7.006   3.820
   37SOL    HW1 1010   2.386   6.942   3.759
   37SOL    HW2 1011   2.369   0.076   3.800
   38SOL     OW 1012   1.156   3.613   2.939
   38SOL    HW1 1013   1.250   3.643   2.955
   38SOL    HW2 1014   1.144   3.590   2.843
   39SOL     OW 1015   6.499   4.009   0.948
   39SOL    HW1 1016   6.473   4.087   0.890
   39SOL    HW2 1017   6.599   4.003   0.951
   40SOL     OW 1018   4.518   1.765   0.890
   40SOL    HW1 1019   4.457   1.801   0.820
   40SOL    HW2 1020   4.482   1.787   0.981
   41SOL     OW 1021   5.020   4.273   1.400
   41SOL    HW1 1022   4.927   4.252   1.369
   41SOL    HW2 1023   5.051   4.204   1.465
   42SOL     OW 1024   2.415   4.586   6.849
   42SOL    HW1 1025   2.461   4.648   6.786
   42SOL    HW2 1026   2.407   4.629   6.939
   43SOL     OW 1027   4.432   0.142   4.846
   43SOL    HW1 1028   4.445   0.071   4.777
   43SOL    HW2 1029   4.520   0.162   4.889
   44SOL     OW 1030   6.518   0.953   5.874
   44SOL    HW1 1031   6.589   0.959   5.804
   44SOL    HW2 1032   6.509   0.858   5.904
   45SOL     OW 1033   2.171   4.576   5.862
   45SOL    HW1 1034   2.162   4.606   5.957
   45SOL    HW2 1035   2.084   4.589   5.815
   46SOL     OW 1036   1.596   3.565   4.562
   46SOL    HW1 1037   1.609   3.488   4.623
   46SOL    HW2 1038   1.677   3.624   4.564
   47SOL     OW 1039   6.018   3.909   0.550
   47SOL    HW1 1040   6.050   3.996   0.512
   47SOL    HW2 1041   6.076   3.884   0.628
   48SOL     OW 1042   6.368   3.369   0.272
   48SOL    HW1 1043   6.273   3.391   0.296
   48SOL    HW2 1044   6.423   3.366   0.355
   49SOL     OW 1045   2.901   3.608   6.786
   49SOL    HW1 1046   2.928   3.638   6.878
   49SOL    HW2 1047   2.863   3.515   6.792
   50SOL     OW 1048   6.020   2.371   0.381
   50SOL    HW1 1049   6.061   2.311   0.312
   50SOL    HW2 1050   6.052   2.464   0.367
   51SOL     OW 1051   1.308   5.269   2.424
   51SOL    HW1 1052   1.330   5.171   2.419
   51SOL    HW2 1053   1.316   5.299   2.519
   52SOL     OW 1054   5.619   2.842   1.855
   52SOL    HW1 1055   5.521   2.824   1.857
   52SOL    HW2 1056   5.669   2.755   1.863
   53SOL     OW 1057   3.780   1.004   2.002
   53SOL    HW1 1058   3.743   1.039   2.088
   53SOL    HW2 1059   3.835   0.922   2.020
   54SOL     OW 1060   5.367   0.375   6.515
   54SOL    HW1 1061   5.446   0.314   6.504
   54SOL    HW2 1062   5.309   0.370   6.434
   55SOL     OW 1063   1.101   3.758   6.219
   55SOL    HW1 1064   1.150   3.744   6.133
   55SOL    HW2 1065   1.157   3.813   6.281
   56SOL     OW 1066   0.781   2.267   6.857
   56SOL    HW1 1067   0.773   2.234   6.763
   56SOL    HW2 1068   0.850   2.213   6.906
   57SOL     OW 1069   4.264   6.506   0.893
   57SOL    HW1 1070   4.334   6.454   0.843
   57SOL    HW2 1071   4.306   6.582   0.941
   58SOL     OW 1072   1.316   0.454   0.223
   58SOL    HW1 1073   1.223   0.481   0.247
   58SOL    HW2 1074   1.314   0.390   0.146
   59SOL     OW 1075   4.566   3.127   5.338
   59SOL    HW1 1076   4.546   3.080   5.424
   59SOL    HW2 1077   4.569   3.226   5.353
   60SOL     OW 1078   5.777   2.430   1.710
   60SOL    HW1 1079   5.723   2.448   1.628
   60SOL    HW2 1080   5.812   2.516   1.748
   61SOL     OW 1081   1.202   5.908   4.688
   61SOL    HW1 1082   1.248   5.938   4.772
   61SOL    HW2 1083   1.156   5.821   4.703
   62SOL     OW 1084   6.051   3.330   2.990
   62SOL    HW1 1085   5.963   3.342   2.943
   62SOL    HW2 1086   6.071   3.233   2.998
   63SOL     OW 1087   3.808   0.689   6.094
   63SOL    HW1 1088   3.739   0.754   6.064
   63SOL    HW2 1089   3.899   0.722   6.069
   64SOL     OW 1090   1.236   3.425   5.030
   64SOL    HW1 1091   1.162   3.402   5.093
   64SOL    HW2 1092   1.322   3.387   5.065
   65SOL     OW 1093   0.771   5.230   4.753
   65SOL    HW1 1094   0.770   5.329   4.741
   65SOL    HW2 1095   0.755   5.185   4.666
   66SOL     OW 1096   3.939   1.395   1.939
   66SOL    HW1 1097   3.932   1.310   1.888
   66SOL    HW2 1098   3.899   1.383   2.030
   67SOL     OW 1099   6.830   3.447   1.206
   67SOL    HW1 1100   6.733   3.458   1.185
   67SOL    HW2 1101   6.839   3.395   1.292
   68SOL     OW 1102   6.724   1.654   6.753
   68SOL    HW1 1103   6.823   1.639   6.756
   68SOL    HW2 1104   6.680   1.598   6.823
   69SOL     OW 1105   1.219   6.104   6.700
   69SOL    HW1 1106   1.229   6.200   6.676
   69SOL    HW2 1107   1.121   6.081   6.706
   70SOL     OW 1108   5.384   3.894   3.786
   70SOL    HW1 1109   5.419   3.865   3.698
   70SOL    HW2 1110   5.304   3.953   3.773
   71SOL     OW 1111   5.451   1.953   3.783
   71SOL    HW1 1112   5.541   1.992   3.764
   71SOL    HW2 1113   5.390   1.970   3.705
   72SOL     OW 1114   0.757   1.254   2.787
   72SOL    HW1 1115   0.747   1.352   2.805
   72SOL    HW2 1116   0.698   1.228   2.710
   73SOL     OW 1117   3.043   0.322   0.269
   73SOL    HW1 1118   3.000   0.236   0.294
   73SOL    HW2 1119   3.130   0.332   0.318
   74SOL     OW 1120   2.728   2.396   0.641
   74SOL    HW1 1121   2.805   2.441   0.686
   74SOL    HW2 1122   2.759   2.351   0.558
   75SOL     OW 1123   2.823   3.243   0.494
   75SOL    HW1 1124   2.868   3.236   0.583
   75SOL    HW2 1125   2.771   3.160   0.476
   76SOL     OW 1126   3.711   5.136   5.651
   76SOL    HW1 1127   3.687   5.082   5.731
   76SOL    HW2 1128   3.808   5.125   5.631
   77SOL     OW 1129   0.952   5.403   4.457
   77SOL    HW1 1130   0.894   5.328   4.490
   77SOL    HW2 1131   1.034   5.365   4.415
   78SOL     OW 1132   4.623   1.733   1.441
   78SOL    HW1 1133   4.673   1.731   1.527
   78SOL    HW2 1134   4.668   1.795   1.377
   79SOL     OW 1135   1.257   4.569   3.215
   79SOL    HW1 1136   1.197   4.607   3.286
   79SOL    HW2 1137   1.280   4.474   3.237
   80SOL     OW 1138   3.665   1.398   4.716
   80SOL    HW1 1139   3.679   1.421   4.813
   80SOL    HW2 1140   3.723   1.321   4.691
   81SOL     OW 1141   4.331   5.018   1.463
   81SOL    HW1 1142   4.423   5.003   1.500
   81SOL    HW2 1143   4.269   5.043   1.538
   82SOL     OW 1144   2.534   6.037   2.342
   82SOL    HW1 1145   2.540   5.945   2.380
   82SOL    HW2 1146   2.438   6.067   2.343
   83SOL     OW 1147   5.040   1.245   3.743
   83SOL    HW1 1148   5.014   1.330   3.698
   83SOL    HW2 1149   5.124   1.259   3.796
   84SOL     OW 1150   5.513   3.016   2.373
   84SOL    HW1 1151   5.568   3.095   2.345
   84SOL    HW2 1152   5.471   3.034   2.462
   85SOL     OW 1153   2.633   6.885   4.018
   85SOL    HW1 1154   2.706   6.892   4.086
   85SOL    HW2 1155   2.544   6.889   4.064
   86SOL     OW 1156   5.376   6.689   0.112
   86SOL    HW1 1157   5.355   6.695   0.015
   86SOL    HW2 1158   5.294   6.708   0.166
   87SOL     OW 1159   2.205   4.093   6.233
   87SOL    HW1 1160   2.276   4.161   6.215
   87SOL    HW2 1161   2.119   4.140   6.253
   88SOL     OW 1162   3.046   3.663   1.385
   88SOL    HW1 1163   2.952   3.634   1.371
   88SOL    HW2 1164   3.048   3.737   1.453
   89SOL     OW 1165   3.275   3.695   3.768
   89SOL    HW1 1166   3.362   3.743   3.763
   89SOL    HW2 1167   3.271   3.644   3.855
   90SOL     OW 1168   5.298   3.657   1.829
   90SOL    HW1 1169   5.288   3.583   1.762
   90SOL    HW2 1170   5.213   3.710   1.832
   91SOL     OW 1171   4.726   5.717   5.987
   91SOL    HW1 1172   4.743   5.762   5.900
   91SOL    HW2 1173   4.640   5.751   6.026
   92SOL     OW 1174   5.113   4.133   6.980
   92SOL    HW1 1175   5.094   4.231   6.976
   92SOL    HW2 1176   5.031   4.083   6.952
   93SOL     OW 1177   2.784   3.409   1.991
   93SOL    HW1 1178   2.702   3.459   1.961
   93SOL    HW2 1179   2.818   3.352   1.916
   94SOL     OW 1180   2.885   2.254   4.539
   94SOL    HW1 1181   2.932   2.180   4.587
   94SOL    HW2 1182   2.919   2.259   4.445
   95SOL     OW 1183   0.090   0.241   3.847
   95SOL    HW1 1184   0.155   0.255   3.773
   95SOL    HW2 1185   0.140   0.225   3.932
   96SOL     OW 1186   6.933   5.026   6.945
   96SOL    HW1 1187   6.837   5.051   6.929
   96SOL    HW2 1188   6.965   4.967   6.871
   97SOL     OW 1189   2.575   4.586   5.522
   97SOL    HW1 1190   2.581   4.487   5.505
   97SOL    HW2 1191   2.666   4.621   5.546
   98SOL     OW 1192   1.034   1.644   3.692
   98SOL    HW1 1193   1.032   1.561   3.636
   98SOL    HW2 1194   0.940   1.674   3.710
   99SOL     OW 1195   3.371   4.038   5.069
   99SOL    HW1 1196   3.424   4.096   5.131
   99SOL    HW2 1197   3.273   4.057   5.081
  100SOL     OW 1198   0.283   0.672   4.917
  100SOL    HW1 1199   0.248   0.700   5.007
  100SOL    HW2 1200   0.377   0.640   4.926
  101SOL     OW 1201   5.462   4.119   2.505
  101SOL    HW1 1202   5.562   4.116   2.511
  101SOL    HW2 1203   5.424   4.124   2.597
  102SOL     OW 1204   4.207   0.636   7.015
  102SOL    HW1 1205   4.190   0.720   0.043
  102SOL    HW2 1206   4.123   0.581   7.011
  103SOL     OW 1207   1.843   1.364   2.066
  103SOL    HW1 1208   1.921   1.350   2.126
  103SOL    HW2 1209   1.862   1.325   1.976
  104SOL     OW 1210   6.247   4.892   2.296
  104SOL    HW1 1211   6.206   4.815   2.247
  104SOL    HW2 1212   6.179   4.964   2.308
  105SOL     OW 1213   6.860   1.040   5.613
  105SOL    HW1 1214   6.876   1.138   5.623
  105SOL    HW2 1215   6.935   0.999   5.561
  106SOL     OW 1216   4.418   3.010   1.343
  106SOL    HW1 1217   4.424   2.990   1.246
  106SOL    HW2 1218   4.374   3.099   1.356
  107SOL     OW 1219   5.788   0.014   1.648
  107SOL    HW1 1220   5.858   0.084   1.631
  107SOL    HW2 1221   5.830   6.947   1.646
  108SOL     OW 1222   2.724   1.285   4.436
  108SOL    HW1 1223   2.662   1.206   4.437
  108SOL    HW2 1224   2.734   1.321   4.529
  109SOL     OW 1225   1.900   1.321   4.634
  109SOL    HW1 1226   1.849   1.261   4.694
  109SOL    HW2 1227   1.852   1.331   4.547
  110SOL     OW 1228   3.258   4.246   5.636
  110SOL    HW1 1229   3.235   4.151   5.659
  110SOL    HW2 1230   3.245   4.261   5.538
  111SOL     OW 1231   6.047   2.710   0.499
  111SOL    HW1 1232   6.145   2.694   0.506
  111SOL    HW2 1233   6.000   2.661   0.572
  112SOL     OW 1234   5.285   6.713   6.863
  112SOL    HW1 1235   5.326   6.790   6.813
  112SOL    HW2 1236   5.313   6.628   6.820
  113SOL     OW 1237   0.204   5.285   2.495
  113SOL    HW1 1238   0.160   5.373   2.512
  113SOL    HW2 1239   0.291   5.282   2.544
  114SOL     OW 1240   0.037   2.127   1.982
  114SOL    HW1 1241   0.032   2.155   1.887
  114SOL    HW2 1242   0.113   2.174   2.027
  115SOL     OW 1243   5.656   6.713   3.600
  115SOL    HW1 1244   5.558   6.697   3.593
  115SOL    HW2 1245   5.690   6.751   3.513
  116SOL     OW 1246   0.371   4.991   0.512
  116SOL    HW1 1247   0.469   5.004   0.506
  116SOL    HW2 1248   0.349   4.932   0.590
  117SOL     OW 1249   2.305   3.024   7.014
  117SOL    HW1 1250   2.270   2.968   6.940
  117SOL    HW2 1251   2.235   3.088   0.021
  118SOL     OW 1252   0.536   2.300   2.556
  118SOL    HW1 1253   0.531   2.399   2.572
  118SOL    HW2 1254   0.550   2.283   2.459
  119SOL     OW 1255   6.025   6.556   5.148
  119SOL    HW1 1256   5.925   6.566   5.151
  119SOL    HW2 1257   6.062   6.568   5.240
  120SOL     OW 1258   4.968   1.540   4.569
  120SOL    HW1 1259   5.055   1.537   4.618
  120SOL    HW2 1260   4.984   1.562   4.473
  121SOL     OW 1261   0.524   4.964   6.975
  121SOL    HW1 1262   0.541   5.000   0.043
  121SOL    HW2 1263   0.430   4.932   6.968
  122SOL     OW 1264   6.817   4.553   6.295
  122SOL    HW1 1265   6.813   4.535   6.197
  122SOL    HW2 1266   6.876   4.633   6.312
  123SOL     OW 1267   0.739   2.483   1.534
  123SOL    HW1 1268   0.652   2.513   1.495
  123SOL    HW2 1269   0.793   2.563   1.560
  124SOL     OW 1270   1.208   2.849   6.862
  124SOL    HW1 1271   1.134   2.846   6.930
  124SOL    HW2 1272   1.204   2.768   6.805
  125SOL     OW 1273   4.699   3.119   0.478
  125SOL    HW1 1274   4.653   3.104   0.391
  125SOL    HW2 1275   4.794   3.087   0.472
  126SOL     OW 1276   3.537   2.917   4.493
  126SOL    HW1 1277   3.479   2.905   4.412
  126SOL    HW2 1278   3.483   2.958   4.567
  127SOL     OW 1279   0.720   5.602   5.832
  127SOL    HW1 1280   0.661   5.594   5.912
  127SOL    HW2 1281   0.809   5.562   5.851
  128SOL     OW 1282   4.917   3.945   6.845
  128SOL    HW1 1283   4.824   3.910   6.830
  128SOL    HW2 1284   4.983   3.872   6.829
  129SOL     OW 1285   0.885   5.420   2.503
  129SOL    HW1 1286   0.887   5.329   2.462
  129SOL    HW2 1287   0.854   5.413   2.598
  130SOL     OW 1288   5.865   2.919   4.035
  130SOL    HW1 1289   5.820   3.006   4.016
  130SOL    HW2 1290   5.861   2.901   4.133
  131SOL     OW 1291   0.545   2.227   3.481
  131SOL    HW1 1292   0.472   2.272   3.428
  131SOL    HW2 1293   0.580   2.290   3.550
  132SOL     OW 1294   3.463   2.732   1.027
  132SOL    HW1 1295   3.475   2.793   0.949
  132SOL    HW2 1296   3.399   2.773   1.093
  133SOL     OW 1297   5.678   6.249   6.317
  133SOL    HW1 1298   5.626   6.269   6.401
  133SOL    HW2 1299   5.773   6.230   6.341
  134SOL     OW 1300   5.645   1.638   1.249
  134SOL    HW1 1301   5.626   1.685   1.163
  134SOL    HW2 1302   5.703   1.696   1.307
  135SOL     OW 1303   5.051   3.803   3.930
  135SOL    HW1 1304   5.134   3.747   3.933
  135SOL    HW2 1305   4.988   3.773   4.001
  136SOL     OW 1306   3.326   0.729   6.470
  136SOL    HW1 1307   3.250   0.666   6.453
  136SOL    HW2 1308   3.394   0.721   6.397
  137SOL     OW 1309   2.769   4.158   6.010
  137SOL    HW1 1310   2.689   4.158   6.071
  137SOL    HW2 1311   2.763   4.236   5.947
  138SOL     OW 1312   1.394   5.071   6.403
  138SOL    HW1 1313   1.473   5.019   6.436
  138SOL    HW2 1314   1.320   5.064   6.470
  139SOL     OW 1315   1.386   0.038   1.123
  139SOL    HW1 1316   1.478   0.022   1.158
  139SOL    HW2 1317   1.387   0.117   1.061
  140SOL     OW 1318   3.884   0.287   1.425
  140SOL    HW1 1319   3.834   0.347   1.487
  140SOL    HW2 1320   3.832   0.275   1.341
  141SOL     OW 1321   0.576   2.939   0.631
  141SOL    HW1 1322   0.573   3.020   0.689
  141SOL    HW2 1323   0.659   2.942   0.574
  142SOL     OW 1324   2.011   3.262   0.854
  142SOL    HW1 1325   1.958   3.178   0.870
  142SOL    HW2 1326   2.017   3.280   0.756
  143SOL     OW 1327   4.234   6.294   2.542
  143SOL    HW1 1328   4.315   6.353   2.541
  143SOL    HW2 1329   4.248   6.217   2.480
  144SOL     OW 1330   3.294   5.686   3.250
  144SOL    HW1 1331   3.242   5.644   3.324
  144SOL    HW2 1332   3.391   5.688   3.275
  145SOL     OW 1333   0.117   4.435   3.764
  145SOL    HW1 1334   0.098   4.483   3.678
  145SOL    HW2 1335   0.079   4.486   3.841
  146SOL     OW 1336   4.686   1.144   6.086
  146SOL    HW1 1337   4.764   1.176   6.139
  146SOL    HW2 1338   4.677   1.045   6.097
  147SOL     OW 1339   4.741   0.581   4.976
  147SOL    HW1 1340   4.663   0.520   4.992
  147SOL    HW2 1341   4.709   0.663   4.929
  148SOL     OW 1342   1.825   5.940   1.541
  148SOL    HW1 1343   1.878   5.940   1.456
  148SOL    HW2 1344   1.842   5.855   1.591
  149SOL     OW 1345   2.105   2.428   4.778
  149SOL    HW1 1346   2.145   2.500   4.835
  149SOL    HW2 1347   2.175   2.393   4.715
  150SOL     OW 1348   4.060   1.718   4.822
  150SOL    HW1 1349   4.051   1.636   4.879
  150SOL    HW2 1350   4.110   1.694   4.738
  151SOL     OW 1351   4.862   2.458   0.984
  151SOL    HW1 1352   4.829   2.368   0.955
  151SOL    HW2 1353   4.818   2.529   0.928
  152SOL     OW 1354   0.416   2.275   1.033
  152SOL    HW1 1355   0.329   2.325   1.039
  152SOL    HW2 1356   0.406   2.186   1.078
  153SOL     OW 1357   2.420   1.302   3.742
  153SOL    HW1 1358   2.399   1.337   3.651
  153SOL    HW2 1359   2.350   1.236   3.769
  154SOL     OW 1360   6.425   2.517   2.484
  154SOL    HW1 1361   6.380   2.440   2.440
  154SOL    HW2 1362   6.519   2.524   2.452
  155SOL     OW 1363   6.965   5.590   3.029
  155SOL    HW1 1364   6.870   5.569   3.005
  155SOL    HW2 1365   6.966   5.652   3.108
  156SOL     OW 1366   5.310   2.819   0.343
  156SOL    HW1 1367   5.321   2.910   0.383
  156SOL    HW2 1368   5.287   2.754   0.414
  157SOL     OW 1369   5.053   6.151   1.258
  157SOL    HW1 1370   5.100   6.071   1.221
  157SOL    HW2 1371   5.120   6.210   1.305
  158SOL     OW 1372   0.751   2.665   3.640
  158SOL    HW1 1373   0.826   2.625   3.693
  158SOL    HW2 1374   0.781   2.676   3.545
  159SOL     OW 1375   6.226   5.763   0.604
  159SOL    HW1 1376   6.210   5.668   0.577
  159SOL    HW2 1377   6.284   5.808   0.535
  160SOL     OW 1378   5.545   0.144   1.593
  160SOL    HW1 1379   5.619   0.087   1.629
  160SOL    HW2 1380   5.501   0.193   1.668
  161SOL     OW 1381   7.004   6.619   1.210
  161SOL    HW1 1382   0.006   6.703   1.163
  161SOL    HW2 1383   6.999   6.543   1.145
  162SOL     OW 1384   4.595   6.860   6.406
  162SOL    HW1 1385   4.571   6.902   6.493
  162SOL    HW2 1386   4.683   6.897   6.374
  163SOL     OW 1387   0.956   3.865   2.945
  163SOL    HW1 1388   1.028   3.927   2.913
  163SOL    HW2 1389   0.997   3.791   2.999
  164SOL     OW 1390   2.858   1.799   3.819
  164SOL    HW1 1391   2.858   1.872   3.888
  164SOL    HW2 1392   2.809   1.720   3.855
  165SOL     OW 1393   0.267   6.752   3.684
  165SOL    HW1 1394   0.238   6.658   3.662
  165SOL    HW2 1395   0.288   6.758   3.781
  166SOL     OW 1396   6.861   3.974   3.389
  166SOL    HW1 1397   6.778   4.029   3.391
  166SOL    HW2 1398   6.896   3.962   3.482
  167SOL     OW 1399   2.866   1.745   6.334
  167SOL    HW1 1400   2.838   1.650   6.320
  167SOL    HW2 1401   2.786   1.799   6.360
  168SOL     OW 1402   3.935   3.821   1.523
  168SOL    HW1 1403   3.853   3.823   1.580
  168SOL    HW2 1404   3.970   3.914   1.510
  169SOL     OW 1405   4.565   2.096   1.155
  169SOL    HW1 1406   4.565   2.146   1.241
  169SOL    HW2 1407   4.499   2.021   1.161
  170SOL     OW 1408   6.245   5.466   1.586
  170SOL    HW1 1409   6.188   5.547   1.572
  170SOL    HW2 1410   6.197   5.385   1.552
  171SOL     OW 1411   3.579   3.288   0.866
  171SOL    HW1 1412   3.492   3.278   0.817
  171SOL    HW2 1413   3.623   3.199   0.874
  172SOL     OW 1414   0.829   1.872   6.688
  172SOL    HW1 1415   0.798   1.872   6.783
  172SOL    HW2 1416   0.792   1.793   6.640
  173SOL     OW 1417   6.272   1.246   3.827
  173SOL    HW1 1418   6.360   1.266   3.784
  173SOL    HW2 1419   6.199   1.296   3.779
  174SOL     OW 1420   5.616   4.366   4.654
  174SOL    HW1 1421   5.657   4.395   4.568
  174SOL    HW2 1422   5.517   4.377   4.650
  175SOL     OW 1423   0.312   0.038   2.543
  175SOL    HW1 1424   0.317   0.138   2.537
  175SOL    HW2 1425   0.216   0.010   2.550
  176SOL     OW 1426   5.775   3.976   1.798
  176SOL    HW1 1427   5.711   3.918   1.849
  176SOL    HW2 1428   5.744   4.071   1.802
  177SOL     OW 1429   5.718   2.023   3.725
  177SOL    HW1 1430   5.738   2.117   3.752
  177SOL    HW2 1431   5.768   1.960   3.785
  178SOL     OW 1432   2.686   6.191   4.979
  178SOL    HW1 1433   2.667   6.279   4.935
  178SOL    HW2 1434   2.650   6.117   4.922
  179SOL     OW 1435   3.266   4.356   1.561
  179SOL    HW1 1436   3.287   4.263   1.531
  179SOL    HW2 1437   3.349   4.411   1.560
  180SOL     OW 1438   4.086   1.197   0.077
  180SOL    HW1 1439   4.069   1.179   7.003
  180SOL    HW2 1440   4.165   1.143   0.107
  181SOL     OW 1441   3.429   2.005   5.517
  181SOL    HW1 1442   3.459   2.095   5.548
  181SOL    HW2 1443   3.331   2.006   5.499
  182SOL     OW 1444   2.989   2.580   6.185
  182SOL    HW1 1445   2.965   2.558   6.091
  182SOL    HW2 1446   3.035   2.668   6.188
  183SOL     OW 1447   3.154   0.119   3.447
  183SOL    HW1 1448   3.122   0.192   3.386
  183SOL    HW2 1449   3.166   0.035   3.395
  184SOL     OW 1450   5.170   5.788   3.711
  184SOL    HW1 1451   5.255   5.745   3.681
  184SOL    HW2 1452   5.095   5.761   3.650
  185SOL     OW 1453   6.987   0.477   4.663
  185SOL    HW1 1454   6.896   0.435   4.662
  185SOL    HW2 1455   6.979   0.575   4.646
  186SOL     OW 1456   3.986   6.111   4.618
  186SOL    HW1 1457   3.895   6.109   4.659
  186SOL    HW2 1458   4.042   6.039   4.660
  187SOL     OW 1459   4.204   6.445   1.518
  187SOL    HW1 1460   4.250   6.453   1.429
  187SOL    HW2 1461   4.132   6.514   1.524
  188SOL     OW 1462   1.620   3.028   2.803
  188SOL    HW1 1463   1.701   3.060   2.852
  188SOL    HW2 1464   1.604   3.086   2.724
  189SOL     OW 1465   5.774   5.294   5.677
  189SOL    HW1 1466   5.859   5.288   5.728
  189SOL    HW2 1467   5.775   5.229   5.601
  190SOL     OW 1468   5.785   0.529   0.278
  190SOL    HW1 1469   5.885   0.519   0.273
  190SOL    HW2 1470   5.755   0.520   0.373
  191SOL     OW 1471   0.107   1.179   5.730
  191SOL    HW1 1472   0.165   1.254   5.761
  191SOL    HW2 1473   0.014   1.212   5.715
  192SOL     OW 1474   0.134   5.481   1.257
  192SOL    HW1 1475   0.190   5.483   1.340
  192SOL    HW2 1476   0.177   5.422   1.189
  193SOL     OW 1477   2.751   6.536   0.440
  193SOL    HW1 1478   2.707   6.569   0.357
  193SOL    HW2 1479   2.683   6.533   0.514
  194SOL     OW 1480   3.820   5.764   2.402
  194SOL    HW1 1481   3.723   5.756   2.381
  194SOL    HW2 1482   3.860   5.673   2.415
  195SOL     OW 1483   3.512   1.250   1.342
  195SOL    HW1 1484   3.449   1.282   1.413
  195SOL    HW2 1485   3.476   1.166   1.301
  196SOL     OW 1486   2.950   2.100   0.288
  196SOL    HW1 1487   3.017   2.174   0.285
  196SOL    HW2 1488   2.858   2.138   0.281
  197SOL     OW 1489   1.836   6.354   0.181
  197SOL    HW1 1490   1.769   6.326   0.250
  197SOL    HW2 1491   1.902   6.417   0.221
  198SOL     OW 1492   4.511   0.248   6.927
  198SOL    HW1 1493   4.529   0.186   7.004
  198SOL    HW2 1494   4.469   0.332   6.961
  199SOL     OW 1495   0.530   0.393   2.670
  199SOL    HW1 1496   0.512   0.490   2.681
  199SOL    HW2 1497   0.579   0.378   2.583
  200SOL     OW 1498   1.059   3.986   3.203
  200SOL    HW1 1499   0.962   3.963   3.199
  200SOL    HW2 1500   1.079   4.032   3.290
  201SOL     OW 1501   4.913   1.280   6.499
  201SOL    HW1 1502   4.902   1.314   6.405
  201SOL    HW2 1503   5.003   1.237   6.508
  202SOL     OW 1504   3.459   1.095   2.393
  202SOL    HW1 1505   3.532   1.056   2.448
  202SOL    HW2 1506   3.372   1.082   2.440
  203SOL     OW 1507   5.583   2.803   6.843
  203SOL    HW1 1508   5.562   2.774   6.749
  203SOL    HW2 1509   5.504   2.785   6.902
  204SOL     OW 1510   2.828   6.127   1.602
  204SOL    HW1 1511   2.762   6.102   1.673
  204SOL    HW2 1512   2.921   6.115   1.638
  205SOL     OW 1513   6.151   0.747   0.386
  205SOL    HW1 1514   6.074   0.803   0.416
  205SOL    HW2 1515   6.209   0.725   0.464
  206SOL     OW 1516   0.397   4.602   2.060
  206SOL    HW1 1517   0.311   4.568   2.096
  206SOL    HW2 1518   0.468   4.596   2.130
  207SOL     OW 1519   4.885   1.339   5.463
  207SOL    HW1 1520   4.796   1.374   5.494
  207SOL    HW2 1521   4.957   1.374   5.523
  208SOL     OW 1522   3.069   4.545   5.866
  208SOL    HW1 1523   3.039   4.640   5.860
  208SOL    HW2 1524   3.036   4.494   5.787
  209SOL     OW 1525   6.708   5.340   5.679
  209SOL    HW1 1526   6.679   5.273   5.748
  209SOL    HW2 1527   6.806   5.329   5.661
  210SOL     OW 1528   3.831   2.092   2.152
  210SOL    HW1 1529   3.789   2.056   2.236
  210SOL    HW2 1530   3.759   2.127   2.092
  211SOL     OW 1531   1.288   1.897   1.900
  211SOL    HW1 1532   1.284   1.950   1.815
  211SOL    HW2 1533   1.241   1.810   1.887
  212SOL     OW 1534   0.608   4.622   3.762
  212SOL    HW1 1535   0.613   4.522   3.762
  212SOL    HW2 1536   0.518   4.652   3.794
  213SOL     OW 1537   3.637   2.536   6.962
  213SOL    HW1 1538   3.668   2.627   6.936
  213SOL    HW2 1539   3.716   2.476   6.976
  214SOL     OW 1540   1.339   6.753   3.044
  214SOL    HW1 1541   1.437   6.770   3.058
  214SOL    HW2 1542   1.322   6.655   3.038
  215SOL     OW 1543   3.468   3.514   2.785
  215SOL    HW1 1544   3.492   3.458   2.706
  215SOL    HW2 1545   3.505   3.471   2.868
  216SOL     OW 1546   1.286   6.097   5.659
  216SOL    HW1 1547   1.377   6.083   5.698
  216SOL    HW2 1548   1.217   6.060   5.721
  217SOL     OW 1549   0.053   2.752   3.794
  217SOL    HW1 1550   0.106   2.782   3.715
  217SOL    HW2 1551   0.057   2.652   3.800
  218SOL     OW 1552   1.440   3.941   5.393
  218SOL    HW1 1553   1.509   3.928   5.322
  218SOL    HW2 1554   1.366   3.875   5.380
  219SOL     OW 1555   4.498   5.336   0.508
  219SOL    HW1 1556   4.560   5.263   0.478
  219SOL    HW2 1557   4.440   5.363   0.431
  220SOL     OW 1558   1.618   4.330   1.055
  220SOL    HW1 1559   1.698   4.279   1.025
  220SOL    HW2 1560   1.587   4.390   0.981
  221SOL     OW 1561   6.990   2.443   3.795
  221SOL    HW1 1562   6.932   2.478   3.721
  221SOL    HW2 1563   6.936   2.385   3.855
  222SOL     OW 1564   1.264   6.343   5.036
  222SOL    HW1 1565   1.215   6.336   4.948
  222SOL    HW2 1566   1.360   6.318   5.022
  223SOL     OW 1567   5.745   4.141   2.196
  223SOL    HW1 1568   5.670   4.104   2.140
  223SOL    HW2 1569   5.750   4.240   2.183
  224SOL     OW 1570   3.370   2.129   2.080
  224SOL    HW1 1571   3.362   2.094   1.987
  224SOL    HW2 1572   3.465   2.154   2.099
  225SOL     OW 1573   0.322   0.279   0.692
  225SOL    HW1 1574   0.377   0.222   0.753
  225SOL    HW2 1575   0.377   0.355   0.660
  226SOL     OW 1576   0.278   5.367   1.053
  226SOL    HW1 1577   0.280   5.443   0.988
  226SOL    HW2 1578   0.351   5.303   1.031
  227SOL     OW 1579   1.681   2.766   3.272
  227SOL    HW1 1580   1.721   2.806   3.189
  227SOL    HW2 1581   1.749   2.768   3.345
  228SOL     OW 1582   3.771   6.915   2.922
  228SOL    HW1 1583   3.764   6.979   2.999
  228SOL    HW2 1584   3.727   6.956   2.842
  229SOL     OW 1585   6.208   5.792   3.084
  229SOL    HW1 1586   6.270   5.833   3.017
  229SOL    HW2 1587   6.176   5.862   3.148
  230SOL     OW 1588   1.710   4.255   5.269
  230SOL    HW1 1589   1.639   4.318   5.300
  230SOL    HW2 1590   1.685   4.217   5.180
  231SOL     OW 1591   0.575   1.923   0.131
  231SOL    HW1 1592   0.478   1.898   0.133
  231SOL    HW2 1593   0.585   2.019   0.158
  232SOL     OW 1594   2.106   4.910   6.698
  232SOL    HW1 1595   2.200   4.910   6.734
  232SOL    HW2 1596   2.096   4.836   6.632
  233SOL     OW 1597   3.060   0.989   6.173
  233SOL    HW1 1598   3.072   1.071   6.117
  233SOL    HW2 1599   3.078   0.908   6.118
  234SOL     OW 1600   3.056   5.714   6.996
  234SOL    HW1 1601   2.982   5.679   0.030
  234SOL    HW2 1602   3.073   5.810   7.019
  235SOL     OW 1603   3.454   2.990   4.952
  235SOL    HW1 1604   3.461   3.090   4.954
  235SOL    HW2 1605   3.545   2.951   4.961
  236SOL     OW 1606   6.789   2.152   5.511
  236SOL    HW1 1607   6.872   2.151   5.567
  236SOL    HW2 1608   6.712   2.116   5.563
  237SOL     OW 1609   0.357   6.878   1.892
  237SOL    HW1 1610   0.423   6.840   1.957
  237SOL    HW2 1611   0.286   6.810   1.873
  238SOL     OW 1612   6.650   2.139   2.196
  238SOL    HW1 1613   6.728   2.121   2.255
  238SOL    HW2 1614   6.643   2.066   2.127
  239SOL     OW 1615   0.552   5.312   0.691
  239SOL    HW1 1616   0.646   5.340   0.712
  239SOL    HW2 1617   0.546   5.283   0.596
  240SOL     OW 1618   6.614   3.584   5.595
  240SOL    HW1 1619   6.664   3.501   5.572
  240SOL    HW2 1620   6.640   3.657   5.532
  241SOL     OW 1621   6.252   1.655   3.846
  241SOL    HW1 1622   6.196   1.734   3.821
  241SOL    HW2 1623   6.211   1.571   3.809
  242SOL     OW 1624   2.032   2.558   3.384
  242SOL    HW1 1625   1.955   2.532   3.325
  242SOL    HW2 1626   1.998   2.610   3.462
  243SOL     OW 1627   4.508   1.064   5.374
  243SOL    HW1 1628   4.580   1.059   5.443
  243SOL    HW2 1629   4.429   1.112   5.411
  244SOL     OW 1630   6.753   0.518   5.784
  244SOL    HW1 1631   6.657   0.527   5.812
  244SOL    HW2 1632   6.758   0.508   5.685
  245SOL     OW 1633   5.532   2.632   3.434
  245SOL    HW1 1634   5.449   2.677   3.401
  245SOL    HW2 1635   5.608   2.656   3.374
  246SOL     OW 1636   4.902   3.150   3.776
  246SOL    HW1 1637   4.887   3.241   3.737
  246SOL    HW2 1638   4.957   3.158   3.859
  247SOL     OW 1639   3.215   0.624   3.657
  247SOL    HW1 1640   3.248   0.709   3.615
  247SOL    HW2 1641   3.292   0.573   3.695
  248SOL     OW 1642   5.960   1.908   2.130
  248SOL    HW1 1643   5.891   1.949   2.190
  248SOL    HW2 1644   6.050   1.943   2.155
  249SOL     OW 1645   2.455   6.580   3.998
  249SOL    HW1 1646   2.473   6.501   4.056
  249SOL    HW2 1647   2.388   6.640   4.041
  250SOL     OW 1648   5.304   3.493   6.359
  250SOL    HW1 1649   5.325   3.443   6.443
  250SOL    HW2 1650   5.280   3.428   6.287
  251SOL     OW 1651   2.083   2.424   0.700
  251SOL    HW1 1652   1.989   2.398   0.676
  251SOL    HW2 1653   2.126   2.468   0.622
  252SOL     OW 1654   0.247   1.665   0.013
  252SOL    HW1 1655   0.167   1.604   0.008
  252SOL    HW2 1656   0.330   1.613   7.016
  253SOL     OW 1657   1.733   4.337   5.001
  253SOL    HW1 1658   1.800   4.411   5.008
  253SOL    HW2 1659   1.781   4.250   4.993
  254SOL     OW 1660   5.284   3.991   5.629
  254SOL    HW1 1661   5.303   4.031   5.719
  254SOL    HW2 1662   5.266   3.893   5.640
  255SOL     OW 1663   3.491   1.915   3.276
  255SOL    HW1 1664   3.470   1.832   3.328
  255SOL    HW2 1665   3.415   1.980   3.284
  256SOL     OW 1666   6.442   5.853   0.470
  256SOL    HW1 1667   6.534   5.857   0.510
  256SOL    HW2 1668   6.447   5.876   0.373
  257SOL     OW 1669   3.338   5.217   6.594
  257SOL    HW1 1670   3.327   5.309   6.632
  257SOL    HW2 1671   3.303   5.215   6.500
  258SOL     OW 1672   5.186   3.797   4.600
  258SOL    HW1 1673   5.269   3.840   4.636
  258SOL    HW2 1674   5.109   3.817   4.661
  259SOL     OW 1675   0.990   2.002   3.357
  259SOL    HW1 1676   1.064   1.936   3.342
  259SOL    HW2 1677   0.994   2.073   3.287
  260SOL     OW 1678   6.597   6.714   5.613
  260SOL    HW1 1679   6.508   6.707   5.657
  260SOL    HW2 1680   6.663   6.755   5.677
  261SOL     OW 1681   1.149   1.606   2.902
  261SOL    HW1 1682   1.214   1.620   2.828
  261SOL    HW2 1683   1.137   1.690   2.954
  262SOL     OW 1684   1.896   5.006   1.644
  262SOL    HW1 1685   1.842   4.939   1.695
  262SOL    HW2 1686   1.839   5.087   1.627
  263SOL     OW 1687   6.740   1.822   5.496
  263SOL    HW1 1688   6.659   1.856   5.449
  263SOL    HW2 1689   6.786   1.898   5.543
  264SOL     OW 1690   2.966   3.978   6.110
  264SOL    HW1 1691   2.869   3.992   6.091
  264SOL    HW2 1692   3.017   4.061   6.088
  265SOL     OW 1693   5.491   5.370   5.662
  265SOL    HW1 1694   5.474   5.432   5.740
  265SOL    HW2 1695   5.585   5.337   5.666
  266SOL     OW 1696   3.346   2.607   6.715
  266SOL    HW1 1697   3.301   2.533   6.665
  266SOL    HW2 1698   3.340   2.590   6.813
  267SOL     OW 1699   1.433   1.589   6.043
  267SOL    HW1 1700   1.478   1.677   6.031
  267SOL    HW2 1701   1.437   1.537   5.958
  268SOL     OW 1702   3.253   5.854   3.583
  268SOL    HW1 1703   3.341   5.899   3.568
  268SOL    HW2 1704   3.181   5.923   3.590
  269SOL     OW 1705   1.873   1.212   5.243
  269SOL    HW1 1706   1.914   1.177   5.327
  269SOL    HW2 1707   1.944   1.247   5.183
  270SOL     OW 1708   5.272   6.690   4.643
  270SOL    HW1 1709   5.220   6.624   4.589
  270SOL    HW2 1710   5.260   6.670   4.740
  271SOL     OW 1711   1.207   1.747   6.904
  271SOL    HW1 1712   1.209   1.807   6.984
  271SOL    HW2 1713   1.191   1.801   6.822
  272SOL     OW 1714   5.059   6.021   2.161
  272SOL    HW1 1715   5.113   6.005   2.078
  272SOL    HW2 1716   5.106   6.088   2.218
  273SOL     OW 1717   2.898   6.678   4.763
  273SOL    HW1 1718   2.900   6.647   4.858
  273SOL    HW2 1719   2.970   6.746   4.749
  274SOL     OW 1720   5.702   1.754   0.994
  274SOL    HW1 1721   5.684   1.656   0.985
  274SOL    HW2 1722   5.653   1.804   0.923
  275SOL     OW 1723   5.650   5.800   5.516
  275SOL    HW1 1724   5.603   5.719   5.482
  275SOL    HW2 1725   5.725   5.823   5.455
  276SOL     OW 1726   0.262   6.446   3.625
  276SOL    HW1 1727   0.315   6.362   3.623
  276SOL    HW2 1728   0.174   6.432   3.580
  277SOL     OW 1729   4.787   2.386   5.522
  277SOL    HW1 1730   4.825   2.422   5.607
  277SOL    HW2 1731   4.742   2.299   5.540
  278SOL     OW 1732   5.836   3.567   2.983
  278SOL    HW1 1733   5.843   3.523   2.894
  278SOL    HW2 1734   5.921   3.553   3.034
  279SOL     OW 1735   0.624   3.773   4.311
  279SOL    HW1 1736   0.614   3.677   4.336
  279SOL    HW2 1737   0.642   3.780   4.213
  280SOL     OW 1738   3.279   1.059   3.381
  280SOL    HW1 1739   3.369   1.032   3.416
  280SOL    HW2 1740   3.289   1.139   3.323
  281SOL     OW 1741   5.634   6.225   4.525
  281SOL    HW1 1742   5.657   6.173   4.443
  281SOL    HW2 1743   5.707   6.290   4.545
  282SOL     OW 1744   1.489   2.436   0.293
  282SOL    HW1 1745   1.465   2.488   0.211
  282SOL    HW2 1746   1.588   2.434   0.304
  283SOL     OW 1747   5.719   2.611   4.388
  283SOL    HW1 1748   5.746   2.704   4.366
  283SOL    HW2 1749   5.709   2.558   4.304
  284SOL     OW 1750   4.900   5.569   3.025
  284SOL    HW1 1751   4.848   5.484   3.029
  284SOL    HW2 1752   4.900   5.603   2.931
  285SOL     OW 1753   4.272   0.525   5.735
  285SOL    HW1 1754   4.326   0.512   5.652
  285SOL    HW2 1755   4.175   0.531   5.712
  286SOL     OW 1756   2.569   5.126   5.618
  286SOL    HW1 1757   2.571   5.165   5.710
  286SOL    HW2 1758   2.520   5.039   5.621
  287SOL     OW 1759   3.347   0.547   6.799
  287SOL    HW1 1760   3.344   0.646   6.782
  287SOL    HW2 1761   3.254   0.513   6.814
  288SOL     OW 1762   4.436   1.292   1.029
  288SOL    HW1 1763   4.440   1.302   0.930
  288SOL    HW2 1764   4.528   1.285   1.067
  289SOL     OW 1765   6.474   5.515   3.558
  289SOL    HW1 1766   6.382   5.480   3.538
  289SOL    HW2 1767   6.533   5.497   3.479
  290SOL     OW 1768   3.708   0.960   6.411
  290SOL    HW1 1769   3.803   0.977   6.435
  290SOL    HW2 1770   3.663   0.910   6.486
  291SOL     OW 1771   3.735   0.487   5.452
  291SOL    HW1 1772   3.782   0.559   5.503
  291SOL    HW2 1773   3.759   0.398   5.491
  292SOL     OW 1774   4.694   0.798   4.102
  292SOL    HW1 1775   4.749   0.804   4.185
  292SOL    HW2 1776   4.600   0.773   4.126
  293SOL     OW 1777   5.840   6.847   2.180
  293SOL    HW1 1778   5.930   6.885   2.201
  293SOL    HW2 1779   5.833   6.756   2.221
  294SOL     OW 1780   5.603   1.002   6.241
  294SOL    HW1 1781   5.538   1.068   6.280
  294SOL    HW2 1782   5.687   1.050   6.215
  295SOL     OW 1783   1.314   0.672   4.768
  295SOL    HW1 1784   1.310   0.669   4.868
  295SOL    HW2 1785   1.245   0.735   4.734
  296SOL     OW 1786   0.689   2.417   1.183
  296SOL    HW1 1787   0.697   2.516   1.189
  296SOL    HW2 1788   0.595   2.389   1.201
  297SOL     OW 1789   5.237   3.562   3.579
  297SOL    HW1 1790   5.223   3.657   3.605
  297SOL    HW2 1791   5.190   3.544   3.492
  298SOL     OW 1792   4.518   0.659   6.187
  298SOL    HW1 1793   4.445   0.709   6.234
  298SOL    HW2 1794   4.580   0.724   6.144
  299SOL     OW 1795   0.797   0.413   0.225
  299SOL    HW1 1796   0.826   0.416   0.130
  299SOL    HW2 1797   0.773   0.319   0.250
  300SOL     OW 1798   3.951   0.064   3.547
  300SOL    HW1 1799   3.915   6.995   3.537
  300SOL    HW2 1800   4.050   0.062   3.536
  301SOL     OW 1801   6.735   5.007   0.273
  301SOL    HW1 1802   6.731   5.052   0.183
  301SOL    HW2 1803   6.702   5.070   0.343
  302SOL     OW 1804   0.121   5.141   2.264
  302SOL    HW1 1805   0.168   5.182   2.343
  302SOL    HW2 1806   0.184   5.079   2.217
  303SOL     OW 1807   5.358   5.834   3.392
  303SOL    HW1 1808   5.323   5.762   3.332
  303SOL    HW2 1809   5.449   5.861   3.361
  304SOL     OW 1810   2.584   5.957   4.882
  304SOL    HW1 1811   2.623   5.874   4.923
  304SOL    HW2 1812   2.504   5.985   4.935
  305SOL     OW 1813   1.044   2.785   1.916
  305SOL    HW1 1814   1.008   2.692   1.917
  305SOL    HW2 1815   1.134   2.786   1.871
  306SOL     OW 1816   0.045   6.987   3.518
  306SOL    HW1 1817   0.117   7.023   3.459
  306SOL    HW2 1818   0.009   0.038   3.575
  307SOL     OW 1819   3.352   3.088   4.657
  307SOL    HW1 1820   3.365   3.058   4.751
  307SOL    HW2 1821   3.416   3.161   4.635
  308SOL     OW 1822   5.935   2.176   3.146
  308SOL    HW1 1823   5.902   2.091   3.106
  308SOL    HW2 1824   6.018   2.206   3.099
  309SOL     OW 1825   1.912   5.921   6.554
  309SOL    HW1 1826   1.832   5.903   6.496
  309SOL    HW2 1827   1.995   5.894   6.504
  310SOL     OW 1828   5.348   0.046   5.148
  310SOL    HW1 1829   5.359   7.004   5.074
  310SOL    HW2 1830   5.396   0.012   5.230
  311SOL     OW 1831   1.378   5.706   2.396
  311SOL    HW1 1832   1.418   5.620   2.429
  311SOL    HW2 1833   1.416   5.782   2.449
  312SOL     OW 1834   3.598   0.313   3.750
  312SOL    HW1 1835   3.589   0.282   3.655
  312SOL    HW2 1836   3.519   0.368   3.775
  313SOL     OW 1837   3.291   3.883   2.846
  313SOL    HW1 1838   3.322   3.947   2.916
  313SOL    HW2 1839   3.201   3.848   2.871
  314SOL     OW 1840   3.233   5.492   6.240
  314SOL    HW1 1841   3.134   5.504   6.225
  314SOL    HW2 1842   3.282   5.571   6.203
  315SOL     OW 1843   6.448   0.755   4.256
  315SOL    HW1 1844   6.438   0.828   4.189
  315SOL    HW2 1845   6.540   0.759   4.296
  316SOL     OW 1846   4.221   1.173   6.550
  316SOL    HW1 1847   4.315   1.142   6.538
  316SOL    HW2 1848   4.203   1.251   6.491
  317SOL     OW 1849   1.256   1.709   1.175
  317SOL    HW1 1850   1.336   1.648   1.173
  317SOL    HW2 1851   1.198   1.686   1.252
  318SOL     OW 1852   0.555   0.337   5.121
  318SOL    HW1 1853   0.546   0.436   5.108
  318SOL    HW2 1854   0.505   0.309   5.203
  319SOL     OW 1855   0.810   1.085   3.254
  319SOL    HW1 1856   0.812   1.099   3.353
  319SOL    HW2 1857   0.749   1.152   3.212
  320SOL     OW 1858   5.723   2.387   6.267
  320SOL    HW1 1859   5.675   2.426   6.188
  320SOL    HW2 1860   5.819   2.369   6.242
  321SOL     OW 1861   4.791   2.625   0.551
  321SOL    HW1 1862   4.703   2.642   0.596
  321SOL    HW2 1863   4.863   2.672   0.601
  322SOL     OW 1864   2.922   3.301   6.204
  322SOL    HW1 1865   2.976   3.342   6.278
  322SOL    HW2 1866   2.857   3.368   6.169
  323SOL     OW 1867   1.595   3.798   2.341
  323SOL    HW1 1868   1.648   3.808   2.256
  323SOL    HW2 1869   1.539   3.879   2.356
  324SOL     OW 1870   0.961   0.549   3.088
  324SOL    HW1 1871   0.983   0.634   3.040
  324SOL    HW2 1872   0.981   0.471   3.029
  325SOL     OW 1873   6.760   3.989   1.230
  325SOL    HW1 1874   6.690   3.923   1.258
  325SOL    HW2 1875   6.739   4.078   1.270
  326SOL     OW 1876   0.886   6.210   6.522
  326SOL    HW1 1877   0.894   6.126   6.575
  326SOL    HW2 1878   0.878   6.187   6.425
  327SOL     OW 1879   5.198   5.267   4.768
  327SOL    HW1 1880   5.200   5.353   4.717
  327SOL    HW2 1881   5.291   5.233   4.779
  328SOL     OW 1882   1.751   4.026   3.145
  328SOL    HW1 1883   1.799   3.973   3.075
  328SOL    HW2 1884   1.809   4.038   3.225
  329SOL     OW 1885   3.172   2.823   1.794
  329SOL    HW1 1886   3.270   2.822   1.775
  329SOL    HW2 1887   3.151   2.758   1.867
  330SOL     OW 1888   2.870   4.721   0.899
  330SOL    HW1 1889   2.812   4.643   0.920
  330SOL    HW2 1890   2.812   4.802   0.887
  331SOL     OW 1891   6.463   5.163   6.226
  331SOL    HW1 1892   6.518   5.102   6.282
  331SOL    HW2 1893   6.504   5.255   6.226
  332SOL     OW 1894   5.825   2.404   3.139
  332SOL    HW1 1895   5.856   2.309   3.147
  332SOL    HW2 1896   5.887   2.453   3.077
  333SOL     OW 1897   3.380   0.805   5.313
  333SOL    HW1 1898   3.349   0.793   5.218
  333SOL    HW2 1899   3.300   0.808   5.374
  334SOL     OW 1900   3.648   3.864   3.264
  334SOL    HW1 1901   3.725   3.871   3.200
  334SOL    HW2 1902   3.662   3.787   3.325
  335SOL     OW 1903   4.008   1.711   1.069
  335SOL    HW1 1904   3.982   1.743   1.160
  335SOL    HW2 1905   4.040   1.788   1.014
  336SOL     OW 1906   2.798   1.784   4.247
  336SOL    HW1 1907   2.806   1.685   4.243
  336SOL    HW2 1908   2.876   1.821   4.298
  337SOL     OW 1909   1.232   0.846   5.564
  337SOL    HW1 1910   1.137   0.817   5.553
  337SOL    HW2 1911   1.270   0.872   5.475
  338SOL     OW 1912   4.111   1.568   1.414
  338SOL    HW1 1913   4.123   1.530   1.322
  338SOL    HW2 1914   4.187   1.630   1.434
  339SOL     OW 1915   4.075   6.260   5.563
  339SOL    HW1 1916   4.153   6.200   5.584
  339SOL    HW2 1917   4.091   6.306   5.476
  340SOL     OW 1918   4.914   1.905   4.309
  340SOL    HW1 1919   4.989   1.946   4.257
  340SOL    HW2 1920   4.916   1.806   4.298
  341SOL     OW 1921   6.175   6.412   2.774
  341SOL    HW1 1922   6.184   6.486   2.708
  341SOL    HW2 1923   6.209   6.327   2.734
  342SOL     OW 1924   4.717   2.019   2.446
  342SOL    HW1 1925   4.740   2.079   2.369
  342SOL    HW2 1926   4.781   2.036   2.521
  343SOL     OW 1927   6.778   6.459   2.718
  343SOL    HW1 1928   6.699   6.399   2.725
  343SOL    HW2 1929   6.748   6.554   2.727
  344SOL     OW 1930   0.902   1.923   0.803
  344SOL    HW1 1931   0.814   1.919   0.755
  344SOL    HW2 1932   0.972   1.961   0.742
  345SOL     OW 1933   6.475   3.111   4.187
  345SOL    HW1 1934   6.451   3.047   4.114
  345SOL    HW2 1935   6.396   3.168   4.208
  346SOL     OW 1936   1.990   6.632   3.713
  346SOL    HW1 1937   1.916   6.697   3.732
  346SOL    HW2 1938   1.955   6.559   3.653
  347SOL     OW 1939   2.281   4.906   0.477
  347SOL    HW1 1940   2.271   4.993   0.525
  347SOL    HW2 1941   2.201   4.891   0.419
  348SOL     OW 1942   4.245   5.392   1.545
  348SOL    HW1 1943   4.345   5.403   1.542
  348SOL    HW2 1944   4.208   5.445   1.621
  349SOL     OW 1945   5.690   4.457   1.614
  349SOL    HW1 1946   5.679   4.432   1.518
  349SOL    HW2 1947   5.664   4.553   1.627
  350SOL     OW 1948   3.486   2.821   0.319
  350SOL    HW1 1949   3.571   2.847   0.364
  350SOL    HW2 1950   3.446   2.902   0.274
  351SOL     OW 1951   3.278   4.572   1.109
  351SOL    HW1 1952   3.244   4.536   1.196
  351SOL    HW2 1953   3.227   4.654   1.085
  352SOL     OW 1954   4.292   0.447   2.834
  352SOL    HW1 1955   4.340   0.415   2.752
  352SOL    HW2 1956   4.278   0.370   2.896
  353SOL     OW 1957   1.946   6.839   6.024
  353SOL    HW1 1958   1.972   6.933   6.042
  353SOL    HW2 1959   2.008   6.777   6.073
  354SOL     OW 1960   0.275   2.445   0.407
  354SOL    HW1 1961   0.352   2.431   0.469
  354SOL    HW2 1962   0.193   2.469   0.459
  355SOL     OW 1963   1.574   1.719   3.006
  355SOL    HW1 1964   1.507   1.786   3.037
  355SOL    HW2 1965   1.651   1.766   2.964
  356SOL     OW 1966   1.706   0.924   5.664
  356SOL    HW1 1967   1.764   0.920   5.582
  356SOL    HW2 1968   1.762   0.950   5.743
  357SOL     OW 1969   5.079   0.119   5.258
  357SOL    HW1 1970   5.168   0.090   5.223
  357SOL    HW2 1971   5.019   0.142   5.182
  358SOL     OW 1972   3.823   5.875   6.393
  358SOL    HW1 1973   3.827   5.900   6.490
  358SOL    HW2 1974   3.808   5.777   6.384
  359SOL     OW 1975   2.162   2.062   2.785
  359SOL    HW1 1976   2.122   2.025   2.701
  359SOL    HW2 1977   2.225   2.136   2.763
  360SOL     OW 1978   1.070   4.536   4.371
  360SOL    HW1 1979   1.049   4.594   4.449
  360SOL    HW2 1980   1.169   4.518   4.369
  361SOL     OW 1981   6.546   1.812   2.655
  361SOL    HW1 1982   6.612   1.866   2.707
  361SOL    HW2 1983   6.537   1.722   2.697
  362SOL     OW 1984   3.561   4.270   0.875
  362SOL    HW1 1985   3.538   4.320   0.959
  362SOL    HW2 1986   3.532   4.324   0.795
  363SOL     OW 1987   5.133   5.427   1.540
  363SOL    HW1 1988   5.217   5.482   1.537
  363SOL    HW2 1989   5.072   5.457   1.467
  364SOL     OW 1990   0.887   6.111   6.259
  364SOL    HW1 1991   0.843   6.109   6.169
  364SOL    HW2 1992   0.959   6.180   6.259
  365SOL     OW 1993   4.339   1.708   3.534
  365SOL    HW1 1994   4.258   1.688   3.588
  365SOL    HW2 1995   4.327   1.673   3.441
  366SOL     OW 1996   5.358   1.610   0.125
  366SOL    HW1 1997   5.262   1.629   0.146
  366SOL    HW2 1998   5.418   1.661   0.186
  367SOL     OW 1999   5.471   1.574   5.531
  367SOL    HW1 2000   5.390   1.554   5.477
  367SOL    HW2 2001   5.543   1.509   5.508
  368SOL     OW 2002   6.559   2.050   5.620
  368SOL    HW1 2003   6.466   2.061   5.586
  368SOL    HW2 2004   6.563   1.973   5.683
  369SOL     OW 2005   6.823   3.294   2.240
  369SOL    HW1 2006   6.741   3.255   2.198
  369SOL    HW2 2007   6.890   3.221   2.254
  370SOL     OW 2008   1.240   3.272   3.830
  370SOL    HW1 2009   1.269   3.286   3.735
  370SOL    HW2 2010   1.206   3.179   3.842
  371SOL     OW 2011   1.084   4.968   0.035
  371SOL    HW1 2012   0.988   4.944   0.030
  371SOL    HW2 2013   1.112   5.014   6.974
  372SOL     OW 2014   3.895   6.162   5.910
  372SOL    HW1 2015   3.855   6.117   5.990
  372SOL    HW2 2016   3.954   6.098   5.862
  373SOL     OW 2017   5.509   5.269   3.595
  373SOL    HW1 2018   5.492   5.173   3.618
  373SOL    HW2 2019   5.562   5.312   3.668
  374SOL     OW 2020   3.025   1.644   3.389
  374SOL    HW1 2021   2.958   1.643   3.464
  374SOL    HW2 2022   3.008   1.723   3.331
  375SOL     OW 2023   1.150   5.108   4.533
  375SOL    HW1 2024   1.172   5.177   4.463
  375SOL    HW2 2025   1.145   5.018   4.490
  376SOL     OW 2026   3.067   0.898   3.795
  376SOL    HW1 2027   3.020   0.985   3.814
  376SOL    HW2 2028   2.999   0.825   3.788
  377SOL     OW 2029   1.045   1.472   6.844
  377SOL    HW1 2030   1.114   1.541   6.866
  377SOL    HW2 2031   1.088   1.398   6.792
  378SOL     OW 2032   4.024   0.914   2.291
  378SOL    HW1 2033   4.104   0.904   2.231
  378SOL    HW2 2034   4.055   0.942   2.382
  379SOL     OW 2035   5.781   1.453   6.400
  379SOL    HW1 2036   5.764   1.440   6.498
  379SOL    HW2 2037   5.822   1.370   6.363
  380SOL     OW 2038   4.131   2.251   0.558
  380SOL    HW1 2039   4.052   2.305   0.528
  380SOL    HW2 2040   4.194   2.309   0.609
  381SOL     OW 2041   1.838   3.683   3.295
  381SOL    HW1 2042   1.902   3.750   3.330
  381SOL    HW2 2043   1.888   3.602   3.263
  382SOL     OW 2044   4.865   0.686   0.089
  382SOL    HW1 2045   4.793   0.617   0.094
  382SOL    HW2 2046   4.877   0.716   7.018
  383SOL     OW 2047   4.600   2.328   0.688
  383SOL    HW1 2048   4.679   2.303   0.631
  383SOL    HW2 2049   4.614   2.295   0.781
  384SOL     OW 2050   5.894   3.809   4.828
  384SOL    HW1 2051   5.988   3.795   4.797
  384SOL    HW2 2052   5.864   3.901   4.804
  385SOL     OW 2053   4.409   3.639   0.376
  385SOL    HW1 2054   4.492   3.633   0.431
  385SOL    HW2 2055   4.425   3.697   0.297
  386SOL     OW 2056   3.857   6.265   3.619
  386SOL    HW1 2057   3.951   6.250   3.588
  386SOL    HW2 2058   3.828   6.358   3.593
  387SOL     OW 2059   2.678   6.497   3.591
  387SOL    HW1 2060   2.771   6.489   3.556
  387SOL    HW2 2061   2.680   6.527   3.687
  388SOL     OW 2062   1.937   4.166   6.377
  388SOL    HW1 2063   1.951   4.264   6.369
  388SOL    HW2 2064   1.850   4.148   6.425
  389SOL     OW 2065   2.896   3.693   3.158
  389SOL    HW1 2066   2.899   3.617   3.223
  389SOL    HW2 2067   2.960   3.764   3.187
  390SOL     OW 2068   2.271   1.308   4.068
  390SOL    HW1 2069   2.235   1.349   3.984
  390SOL    HW2 2070   2.315   1.221   4.046
  391SOL     OW 2071   0.687   3.137   7.008
  391SOL    HW1 2072   0.648   3.150   6.917
  391SOL    HW2 2073   0.660   3.213   0.044
  392SOL     OW 2074   2.414   5.489   2.357
  392SOL    HW1 2075   2.374   5.452   2.441
  392SOL    HW2 2076   2.370   5.446   2.278
  393SOL     OW 2077   6.026   4.523   5.146
  393SOL    HW1 2078   5.951   4.589   5.144
  393SOL    HW2 2079   6.083   4.534   5.064
  394SOL     OW 2080   2.391   0.606   0.099
  394SOL    HW1 2081   2.365   0.581   0.006
  394SOL    HW2 2082   2.339   0.550   0.164
  395SOL     OW 2083   6.253   3.526   1.287
  395SOL    HW1 2084   6.163   3.496   1.318
  395SOL    HW2 2085   6.310   3.549   1.366
  396SOL     OW 2086   3.225   4.009   4.066
  396SOL    HW1 2087   3.274   3.936   4.113
  396SOL    HW2 2088   3.127   3.990   4.068
  397SOL     OW 2089   4.396   2.573   6.027
  397SOL    HW1 2090   4.362   2.483   5.997
  397SOL    HW2 2091   4.465   2.606   5.963
  398SOL     OW 2092   0.945   5.110   1.727
  398SOL    HW1 2093   1.006   5.085   1.652
  398SOL    HW2 2094   0.913   5.204   1.714
  399SOL     OW 2095   4.761   5.316   1.801
  399SOL    HW1 2096   4.809   5.245   1.852
  399SOL    HW2 2097   4.724   5.278   1.716
  400SOL     OW 2098   1.325   5.634   5.164
  400SOL    HW1 2099   1.361   5.570   5.232
  400SOL    HW2 2100   1.238   5.599   5.128
  401SOL     OW 2101   4.933   1.438   0.156
  401SOL    HW1 2102   4.836   1.445   0.176
  401SOL    HW2 2103   4.979   1.384   0.226
  402SOL     OW 2104   5.456   4.679   1.189
  402SOL    HW1 2105   5.431   4.620   1.113
  402SOL    HW2 2106   5.533   4.737   1.161
  403SOL     OW 2107   4.854   2.629   6.077
  403SOL    HW1 2108   4.925   2.601   6.141
  403SOL    HW2 2109   4.769   2.580   6.098
  404SOL     OW 2110   0.430   0.276   4.552
  404SOL    HW1 2111   0.336   0.256   4.524
  404SOL    HW2 2112   0.430   0.353   4.615
  405SOL     OW 2113   0.421   2.205   0.644
  405SOL    HW1 2114   0.430   2.304   0.635
  405SOL    HW2 2115   0.424   2.162   0.554
  406SOL     OW 2116   1.893   3.251   4.011
  406SOL    HW1 2117   1.876   3.345   4.038
  406SOL    HW2 2118   1.839   3.229   3.930
  407SOL     OW 2119   2.981   0.608   4.630
  407SOL    HW1 2120   3.075   0.593   4.660
  407SOL    HW2 2121   2.925   0.528   4.652
  408SOL     OW 2122   1.943   0.480   3.569
  408SOL    HW1 2123   1.997   0.489   3.486
  408SOL    HW2 2124   1.857   0.433   3.549
  409SOL     OW 2125   6.330   3.329   3.420
  409SOL    HW1 2126   6.300   3.257   3.357
  409SOL    HW2 2127   6.331   3.294   3.514
  410SOL     OW 2128   2.612   1.140   6.626
  410SOL    HW1 2129   2.611   1.081   6.545
  410SOL    HW2 2130   2.541   1.110   6.690
  411SOL     OW 2131   6.171   4.524   5.706
  411SOL    HW1 2132   6.159   4.452   5.638
  411SOL    HW2 2133   6.268   4.547   5.715
  412SOL     OW 2134   3.652   0.667   2.695
  412SOL    HW1 2135   3.580   0.605   2.664
  412SOL    HW2 2136   3.689   0.633   2.782
  413SOL     OW 2137   2.447   6.793   0.658
  413SOL    HW1 2138   2.484   6.839   0.577
  413SOL    HW2 2139   2.370   6.736   0.631
  414SOL     OW 2140   3.774   3.903   0.335
  414SOL    HW1 2141   3.863   3.881   0.375
  414SOL    HW2 2142   3.722   3.962   0.398
  415SOL     OW 2143   2.327   6.726   1.194
  415SOL    HW1 2144   2.421   6.698   1.213
  415SOL    HW2 2145   2.274   6.729   1.279
  416SOL     OW 2146   4.222   5.966   4.864
  416SOL    HW1 2147   4.186   6.058   4.883
  416SOL    HW2 2148   4.230   5.915   4.949
  417SOL     OW 2149   4.468   6.331   1.635
  417SOL    HW1 2150   4.445   6.356   1.730
  417SOL    HW2 2151   4.384   6.324   1.582
  418SOL     OW 2152   4.980   5.170   1.260
  418SOL    HW1 2153   4.985   5.143   1.356
  418SOL    HW2 2154   4.887   5.203   1.239
  419SOL     OW 2155   6.774   6.550   1.386
  419SOL    HW1 2156   6.678   6.531   1.366
  419SOL    HW2 2157   6.820   6.583   1.303
  420SOL     OW 2158   4.909   4.853   0.498
  420SOL    HW1 2159   4.974   4.856   0.573
  420SOL    HW2 2160   4.821   4.889   0.528
  421SOL     OW 2161   2.272   6.414   6.457
  421SOL    HW1 2162   2.299   6.504   6.492
  421SOL    HW2 2163   2.352   6.369   6.417
  422SOL     OW 2164   5.415   4.005   6.541
  422SOL    HW1 2165   5.349   4.022   6.614
  422SOL    HW2 2166   5.464   4.090   6.520
  423SOL     OW 2167   6.894   3.086   0.004
  423SOL    HW1 2168   6.885   3.185   7.014
  423SOL    HW2 2169   6.814   3.052   0.054
  424SOL     OW 2170   2.816   4.166   0.485
  424SOL    HW1 2171   2.885   4.105   0.523
  424SOL    HW2 2172   2.778   4.126   0.401
  425SOL     OW 2173   3.280   1.700   0.443
  425SOL    HW1 2174   3.269   1.695   0.542
  425SOL    HW2 2175   3.266   1.609   0.403
  426SOL     OW 2176   5.401   4.433   5.876
  426SOL    HW1 2177   5.421   4.459   5.781
  426SOL    HW2 2178   5.393   4.516   5.932
  427SOL     OW 2179   5.387   3.687   1.161
  427SOL    HW1 2180   5.365   3.606   1.215
  427SOL    HW2 2181   5.463   3.667   1.099
  428SOL     OW 2182   3.823   0.995   5.238
  428SOL    HW1 2183   3.907   0.945   5.257
  428SOL    HW2 2184   3.753   0.968   5.305
  429SOL     OW 2185   1.489   4.716   7.022
  429SOL    HW1 2186   1.442   4.803   7.007
  429SOL    HW2 2187   1.544   4.721   0.082
  430SOL     OW 2188   1.477   0.404   5.343
  430SOL    HW1 2189   1.409   0.428   5.411
  430SOL    HW2 2190   1.548   0.346   5.384
  431SOL     OW 2191   3.345   1.615   0.700
  431SOL    HW1 2192   3.423   1.667   0.734
  431SOL    HW2 2193   3.371   1.518   0.692
  432SOL     OW 2194   0.146   1.455   1.245
  432SOL    HW1 2195   0.063   1.497   1.282
  432SOL    HW2 2196   0.122   1.395   1.169
  433SOL     OW 2197   3.328   6.463   5.322
  433SOL    HW1 2198   3.274   6.388   5.360
  433SOL    HW2 2199   3.395   6.494   5.389
  434SOL     OW 2200   6.760   3.649   1.807
  434SOL    HW1 2201   6.788   3.740   1.777
  434SOL    HW2 2202   6.663   3.650   1.831
  435SOL     OW 2203   3.149   4.477   6.930
  435SOL    HW1 2204   3.064   4.429   6.910
  435SOL    HW2 2205   3.177   4.529   6.850
  436SOL     OW 2206   1.941   0.558   0.648
  436SOL    HW1 2207   1.973   0.635   0.703
  436SOL    HW2 2208   2.006   0.540   0.574
  437SOL     OW 2209   0.064   0.034   6.516
  437SOL    HW1 2210   0.014   0.013   6.600
  437SOL    HW2 2211   0.026   0.117   6.475
  438SOL     OW 2212   1.273   2.783   1.775
  438SOL    HW1 2213   1.277   2.876   1.740
  438SOL    HW2 2214   1.292   2.719   1.701
  439SOL     OW 2215   6.655   4.910   2.985
  439SOL    HW1 2216   6.746   4.942   3.014
  439SOL    HW2 2217   6.642   4.930   2.888
  440SOL     OW 2218   1.093   2.693   4.043
  440SOL    HW1 2219   1.122   2.705   4.138
  440SOL    HW2 2220   1.163   2.641   3.993
  441SOL     OW 2221   1.197   1.504   3.361
  441SOL    HW1 2222   1.186   1.438   3.286
  441SOL    HW2 2223   1.294   1.525   3.373
  442SOL     OW 2224   0.132   3.498   0.053
  442SOL    HW1 2225   0.033   3.502   0.042
  442SOL    HW2 2226   0.156   3.519   0.147
  443SOL     OW 2227   0.794   4.105   5.468
  443SOL    HW1 2228   0.759   4.083   5.377
  443SOL    HW2 2229   0.876   4.162   5.458
  444SOL     OW 2230   4.410   2.731   6.264
  444SOL    HW1 2231   4.449   2.670   6.333
  444SOL    HW2 2232   4.399   2.682   6.178
  445SOL     OW 2233   2.283   4.342   3.325
  445SOL    HW1 2234   2.271   4.423   3.384
  445SOL    HW2 2235   2.307   4.263   3.381
  446SOL     OW 2236   4.238   5.010   3.992
  446SOL    HW1 2237   4.199   5.044   3.906
  446SOL    HW2 2238   4.195   5.058   4.068
  447SOL     OW 2239   6.551   5.385   0.629
  447SOL    HW1 2240   6.624   5.332   0.585
  447SOL    HW2 2241   6.495   5.324   0.685
  448SOL     OW 2242   4.136   0.840   4.717
  448SOL    HW1 2243   4.234   0.849   4.701
  448SOL    HW2 2244   4.093   0.797   4.637
  449SOL     OW 2245   5.533   0.900   4.402
  449SOL    HW1 2246   5.488   0.966   4.462
  449SOL    HW2 2247   5.620   0.937   4.370
  450SOL     OW 2248   0.533   6.115   3.758
  450SOL    HW1 2249   0.463   6.166   3.809
  450SOL    HW2 2250   0.524   6.017   3.777
  451SOL     OW 2251   0.370   2.187   2.801
  451SOL    HW1 2252   0.399   2.274   2.761
  451SOL    HW2 2253   0.428   2.165   2.880
  452SOL     OW 2254   0.329   4.483   6.790
  452SOL    HW1 2255   0.313   4.419   6.866
  452SOL    HW2 2256   0.427   4.487   6.771
  453SOL     OW 2257   3.188   1.478   6.556
  453SOL    HW1 2258   3.220   1.450   6.465
  453SOL    HW2 2259   3.200   1.577   6.566
  454SOL     OW 2260   1.051   6.148   6.964
  454SOL    HW1 2261   1.067   6.160   0.038
  454SOL    HW2 2262   1.056   6.050   6.941
  455SOL     OW 2263   5.920   0.679   4.931
  455SOL    HW1 2264   5.860   0.678   5.011
  455SOL    HW2 2265   5.961   0.589   4.920
  456SOL     OW 2266   4.455   6.008   6.079
  456SOL    HW1 2267   4.459   6.017   5.979
  456SOL    HW2 2268   4.392   6.076   6.116
  457SOL     OW 2269   2.489   4.827   3.129
  457SOL    HW1 2270   2.398   4.870   3.129
  457SOL    HW2 2271   2.488   4.747   3.071
  458SOL     OW 2272   6.081   5.356   5.499
  458SOL    HW1 2273   6.102   5.361   5.596
  458SOL    HW2 2274   6.002   5.414   5.478
  459SOL     OW 2275   1.820   0.692   2.435
  459SOL    HW1 2276   1.724   0.708   2.458
  459SOL    HW2 2277   1.871   0.674   2.519
  460SOL     OW 2278   6.768   1.971   2.807
  460SOL    HW1 2279   6.799   2.060   2.840
  460SOL    HW2 2280   6.788   1.901   2.876
  461SOL     OW 2281   4.928   6.600   5.301
  461SOL    HW1 2282   4.925   6.698   5.279
  461SOL    HW2 2283   4.908   6.587   5.398
  462SOL     OW 2284   3.341   3.122   6.552
  462SOL    HW1 2285   3.248   3.087   6.564
  462SOL    HW2 2286   3.404   3.070   6.610
  463SOL     OW 2287   0.089   4.960   3.025
  463SOL    HW1 2288   0.049   4.923   2.941
  463SOL    HW2 2289   0.018   5.009   3.077
  464SOL     OW 2290   1.657   1.354   6.026
  464SOL    HW1 2291   1.586   1.315   6.086
  464SOL    HW2 2292   1.721   1.282   6.000
  465SOL     OW 2293   0.192   2.407   3.964
  465SOL    HW1 2294   0.103   2.421   3.920
  465SOL    HW2 2295   0.201   2.468   4.042
  466SOL     OW 2296   1.385   6.697   4.323
  466SOL    HW1 2297   1.452   6.666   4.390
  466SOL    HW2 2298   1.346   6.619   4.275
  467SOL     OW 2299   1.474   0.468   5.793
  467SOL    HW1 2300   1.485   0.558   5.750
  467SOL    HW2 2301   1.405   0.416   5.744
  468SOL     OW 2302   3.661   5.220   1.046
  468SOL    HW1 2303   3.702   5.311   1.056
  468SOL    HW2 2304   3.562   5.228   1.057
  469SOL     OW 2305   2.255   5.645   6.751
  469SOL    HW1 2306   2.272   5.585   6.829
  469SOL    HW2 2307   2.157   5.659   6.740
  470SOL     OW 2308   4.330   0.682   2.585
  470SOL    HW1 2309   4.330   0.631   2.498
  470SOL    HW2 2310   4.240   0.674   2.628
  471SOL     OW 2311   2.255   2.945   4.749
  471SOL    HW1 2312   2.311   2.936   4.831
  471SOL    HW2 2313   2.235   2.855   4.712
  472SOL     OW 2314   4.439   5.504   6.115
  472SOL    HW1 2315   4.390   5.526   6.200
  472SOL    HW2 2316   4.373   5.474   6.046
  473SOL     OW 2317   1.240   3.384   2.703
  473SOL    HW1 2318   1.175   3.457   2.683
  473SOL    HW2 2319   1.332   3.413   2.675
  474SOL     OW 2320   3.991   5.125   5.066
  474SOL    HW1 2321   4.011   5.094   5.158
  474SOL    HW2 2322   3.975   5.224   5.067
  475SOL     OW 2323   0.225   6.782   6.071
  475SOL    HW1 2324   0.219   6.822   6.162
  475SOL    HW2 2325   0.266   6.691   6.077
  476SOL     OW 2326   6.630   4.944   2.722
  476SOL    HW1 2327   6.692   5.018   2.699
  476SOL    HW2 2328   6.537   4.980   2.733
  477SOL     OW 2329   2.134   5.231   3.805
  477SOL    HW1 2330   2.061   5.270   3.749
  477SOL    HW2 2331   2.109   5.139   3.834
  478SOL     OW 2332   3.746   5.595   3.662
  478SOL    HW1 2333   3.776   5.526   3.728
  478SOL    HW2 2334   3.743   5.685   3.707
  479SOL     OW 2335   3.309   2.661   0.442
  479SOL    HW1 2336   3.377   2.721   0.400
  479SOL    HW2 2337   3.349   2.572   0.461
  480SOL     OW 2338   0.808   6.616   2.855
  480SOL    HW1 2339   0.900   6.637   2.888
  480SOL    HW2 2340   0.743   6.622   2.932
  481SOL     OW 2341   3.395   0.199   1.384
  481SOL    HW1 2342   3.313   0.182   1.329
  481SOL    HW2 2343   3.419   0.117   1.436
  482SOL     OW 2344   5.779   4.940   2.688
  482SOL    HW1 2345   5.860   4.997   2.672
  482SOL    HW2 2346   5.806   4.853   2.729
  483SOL     OW 2347   5.565   1.807   1.886
  483SOL    HW1 2348   5.641   1.865   1.857
  483SOL    HW2 2349   5.554   1.731   1.821
  484SOL     OW 2350   0.475   2.977   4.106
  484SOL    HW1 2351   0.395   3.033   4.086
  484SOL    HW2 2352   0.508   2.997   4.198
  485SOL     OW 2353   3.618   5.143   2.146
  485SOL    HW1 2354   3.538   5.086   2.167
  485SOL    HW2 2355   3.588   5.232   2.113
  486SOL     OW 2356   0.660   0.589   0.412
  486SOL    HW1 2357   0.701   0.679   0.425
  486SOL    HW2 2358   0.729   0.525   0.377
  487SOL     OW 2359   0.655   2.453   0.243
  487SOL    HW1 2360   0.617   2.545   0.250
  487SOL    HW2 2361   0.722   2.451   0.168
  488SOL     OW 2362   7.022   1.788   2.151
  488SOL    HW1 2363   6.953   1.737   2.100
  488SOL    HW2 2364   0.089   1.772   2.110
  489SOL     OW 2365   3.355   6.158   0.152
  489SOL    HW1 2366   3.392   6.188   0.064
  489SOL    HW2 2367   3.298   6.231   0.191
  490SOL     OW 2368   6.361   6.233   4.311
  490SOL    HW1 2369   6.365   6.331   4.295
  490SOL    HW2 2370   6.414   6.185   4.241
  491SOL     OW 2371   1.177   2.941   2.509
  491SOL    HW1 2372   1.218   2.979   2.592
  491SOL    HW2 2373   1.161   2.843   2.521
  492SOL     OW 2374   2.868   0.200   6.040
  492SOL    HW1 2375   2.952   0.155   6.070
  492SOL    HW2 2376   2.791   0.164   6.092
  493SOL     OW 2377   6.238   4.254   5.295
  493SOL    HW1 2378   6.275   4.292   5.210
  493SOL    HW2 2379   6.185   4.325   5.343
  494SOL     OW 2380   0.384   0.001   0.375
  494SOL    HW1 2381   0.314   0.066   0.403
  494SOL    HW2 2382   0.348   6.965   0.303
  495SOL     OW 2383   4.735   4.539   1.740
  495SOL    HW1 2384   4.827   4.579   1.740
  495SOL    HW2 2385   4.697   4.544   1.832
  496SOL     OW 2386   5.154   3.303   2.849
  496SOL    HW1 2387   5.195   3.373   2.791
  496SOL    HW2 2388   5.212   3.286   2.928
  497SOL     OW 2389   3.629   0.879   4.709
  497SOL    HW1 2390   3.599   0.829   4.790
  497SOL    HW2 2391   3.550   0.917   4.661
  498SOL     OW 2392   0.341   2.942   2.743
  498SOL    HW1 2393   0.287   2.988   2.673
  498SOL    HW2 2394   0.438   2.946   2.718
  499SOL     OW 2395   3.634   0.627   4.946
  499SOL    HW1 2396   3.617   0.542   4.997
  499SOL    HW2 2397   3.596   0.704   4.998
  500SOL     OW 2398   0.672   3.390   2.842
  500SOL    HW1 2399   0.578   3.425   2.838
  500SOL    HW2 2400   0.681   3.328   2.920
  501SOL     OW 2401   1.787   3.184   6.614
  501SOL    HW1 2402   1.779   3.084   6.623
  501SOL    HW2 2403   1.699   3.222   6.588
  502SOL     OW 2404   4.252   5.163   6.930
  502SOL    HW1 2405   4.174   5.103   6.943
  502SOL    HW2 2406   4.239   5.218   6.847
  503SOL     OW 2407   5.958   4.708   5.427
  503SOL    HW1 2408   5.925   4.745   5.340
  503SOL    HW2 2409   5.881   4.674   5.480
  504SOL     OW 2410   2.189   6.275   4.097
  504SOL    HW1 2411   2.255   6.249   4.168
  504SOL    HW2 2412   2.213   6.230   4.011
  505SOL     OW 2413   4.574   0.269   5.758
  505SOL    HW1 2414   4.524   0.200   5.705
  505SOL    HW2 2415   4.629   0.325   5.696
  506SOL     OW 2416   1.523   4.467   4.740
  506SOL    HW1 2417   1.514   4.553   4.689
  506SOL    HW2 2418   1.611   4.466   4.788
  507SOL     OW 2419   3.486   0.196   5.077
  507SOL    HW1 2420   3.427   0.128   5.121
  507SOL    HW2 2421   3.470   0.195   4.978
  508SOL     OW 2422   6.773   3.956   3.054
  508SOL    HW1 2423   6.746   3.902   2.975
  508SOL    HW2 2424   6.831   3.902   3.114
  509SOL     OW 2425   4.765   1.094   2.122
  509SOL    HW1 2426   4.700   1.019   2.116
  509SOL    HW2 2427   4.726   1.175   2.078
  510SOL     OW 2428   6.701   4.740   5.079
  510SOL    HW1 2429   6.752   4.801   5.140
  510SOL    HW2 2430   6.755   4.724   4.996
  511SOL     OW 2431   0.708   6.271   0.339
  511SOL    HW1 2432   0.663   6.188   0.372
  511SOL    HW2 2433   0.679   6.289   0.246
  512SOL     OW 2434   1.119   3.444   0.049
  512SOL    HW1 2435   1.195   3.508   0.039
  512SOL    HW2 2436   1.147   3.353   0.017
  513SOL     OW 2437   6.597   5.665   3.774
  513SOL    HW1 2438   6.556   5.617   3.697
  513SOL    HW2 2439   6.649   5.601   3.830
  514SOL     OW 2440   6.464   1.825   4.335
  514SOL    HW1 2441   6.467   1.730   4.363
  514SOL    HW2 2442   6.542   1.845   4.277
  515SOL     OW 2443   2.135   6.669   5.711
  515SOL    HW1 2444   2.200   6.631   5.776
  515SOL    HW2 2445   2.044   6.671   5.752
  516SOL     OW 2446   1.978   4.945   1.377
  516SOL    HW1 2447   1.894   4.980   1.335
  516SOL    HW2 2448   1.976   4.963   1.476
  517SOL     OW 2449   4.504   6.792   1.809
  517SOL    HW1 2450   4.505   6.886   1.775
  517SOL    HW2 2451   4.548   6.732   1.742
  518SOL     OW 2452   2.490   2.684   1.509
  518SOL    HW1 2453   2.397   2.720   1.509
  518SOL    HW2 2454   2.488   2.586   1.525
  519SOL     OW 2455   0.369   0.304   6.205
  519SOL    HW1 2456   0.278   0.345   6.213
  519SOL    HW2 2457   0.433   0.372   6.171
  520SOL     OW 2458   5.607   5.045   6.052
  520SOL    HW1 2459   5.537   5.013   5.989
  520SOL    HW2 2460   5.601   4.993   6.138
  521SOL     OW 2461   6.983   1.855   6.859
  521SOL    HW1 2462   6.978   1.926   6.929
  521SOL    HW2 2463   6.971   1.896   6.768
  522SOL     OW 2464   3.840   2.969   4.435
  522SOL    HW1 2465   3.764   2.913   4.466
  522SOL    HW2 2466   3.891   3.002   4.515
  523SOL     OW 2467   6.918   0.005   4.415
  523SOL    HW1 2468   6.868   0.017   4.501
  523SOL    HW2 2469   6.854   6.998   4.344
  524SOL     OW 2470   2.981   0.911   6.423
  524SOL    HW1 2471   2.932   0.986   6.465
  524SOL    HW2 2472   3.009   0.936   6.330
  525SOL     OW 2473   2.596   4.031   6.661
  525SOL    HW1 2474   2.619   4.024   6.758
  525SOL    HW2 2475   2.655   3.969   6.609
  526SOL     OW 2476   3.487   5.196   4.361
  526SOL    HW1 2477   3.462   5.108   4.402
  526SOL    HW2 2478   3.497   5.184   4.262
  527SOL     OW 2479   0.030   1.500   0.087
  527SOL    HW1 2480   6.976   1.563   0.081
  527SOL    HW2 2481   0.005   1.412   0.046
  528SOL     OW 2482   2.322   1.355   5.279
  528SOL    HW1 2483   2.283   1.390   5.194
  528SOL    HW2 2484   2.372   1.427   5.326
  529SOL     OW 2485   1.101   4.860   4.436
  529SOL    HW1 2486   1.092   4.777   4.492
  529SOL    HW2 2487   1.195   4.866   4.401
  530SOL     OW 2488   2.298   3.172   5.348
  530SOL    HW1 2489   2.205   3.174   5.310
  530SOL    HW2 2490   2.360   3.130   5.282
  531SOL     OW 2491   0.954   0.299   1.311
  531SOL    HW1 2492   1.028   0.319   1.246
  531SOL    HW2 2493   0.946   0.374   1.376
  532SOL     OW 2494   1.043   1.224   5.550
  532SOL    HW1 2495   0.946   1.204   5.533
  532SOL    HW2 2496   1.050   1.307   5.605
  533SOL     OW 2497   5.743   6.617   4.899
  533SOL    HW1 2498   5.809   6.669   4.845
  533SOL    HW2 2499   5.776   6.523   4.911
  534SOL     OW 2500   4.535   5.484   2.873
  534SOL    HW1 2501   4.436   5.492   2.886
  534SOL    HW2 2502   4.564   5.551   2.805
  535SOL     OW 2503   0.226   4.192   3.685
  535SOL    HW1 2504   0.196   4.282   3.715
  535SOL    HW2 2505   0.292   4.155   3.750
  536SOL     OW 2506   1.551   5.676   1.268
  536SOL    HW1 2507   1.474   5.732   1.297
  536SOL    HW2 2508   1.579   5.616   1.343
  537SOL     OW 2509   2.209   0.220   2.216
  537SOL    HW1 2510   2.304   0.199   2.191
  537SOL    HW2 2511   2.208   0.284   2.293
  538SOL     OW 2512   0.962   5.943   2.928
  538SOL    HW1 2513   0.899   5.907   2.859
  538SOL    HW2 2514   0.914   5.955   3.015
  539SOL     OW 2515   1.720   4.998   2.206
  539SOL    HW1 2516   1.763   5.021   2.118
  539SOL    HW2 2517   1.695   4.901   2.207
  540SOL     OW 2518   1.710   2.592   2.418
  540SOL    HW1 2519   1.740   2.654   2.491
  540SOL    HW2 2520   1.720   2.497   2.448
  541SOL     OW 2521   2.949   5.845   5.745
  541SOL    HW1 2522   2.913   5.888   5.662
  541SOL    HW2 2523   2.907   5.755   5.756
  542SOL     OW 2524   6.044   5.494   6.792
  542SOL    HW1 2525   6.143   5.478   6.792
  542SOL    HW2 2526   6.024   5.574   6.849
  543SOL     OW 2527   1.128   4.833   6.761
  543SOL    HW1 2528   1.044   4.887   6.764
  543SOL    HW2 2529   1.207   4.894   6.762
  544SOL     OW 2530   0.864   4.667   0.552
  544SOL    HW1 2531   0.848   4.694   0.647
  544SOL    HW2 2532   0.899   4.574   0.549
  545SOL     OW 2533   3.740   1.147   2.920
  545SOL    HW1 2534   3.744   1.230   2.865
  545SOL    HW2 2535   3.749   1.171   3.017
  546SOL     OW 2536   1.649   3.520   0.772
  546SOL    HW1 2537   1.641   3.526   0.672
  546SOL    HW2 2538   1.587   3.450   0.806
  547SOL     OW 2539   2.659   3.396   0.244
  547SOL    HW1 2540   2.623   3.370   0.155
  547SOL    HW2 2541   2.733   3.334   0.270
  548SOL     OW 2542   3.436   2.887   4.218
  548SOL    HW1 2543   3.527   2.918   4.190
  548SOL    HW2 2544   3.387   2.851   4.139
  549SOL     OW 2545   5.790   3.590   1.368
  549SOL    HW1 2546   5.887   3.569   1.374
  549SOL    HW2 2547   5.772   3.642   1.285
  550SOL     OW 2548   6.751   3.890   2.554
  550SOL    HW1 2549   6.810   3.821   2.512
  550SOL    HW2 2550   6.808   3.958   2.600
  551SOL     OW 2551   6.474   1.852   0.643
  551SOL    HW1 2552   6.559   1.808   0.673
  551SOL    HW2 2553   6.431   1.897   0.721
  552SOL     OW 2554   3.490   5.444   0.542
  552SOL    HW1 2555   3.423   5.371   0.533
  552SOL    HW2 2556   3.522   5.449   0.637
  553SOL     OW 2557   1.959   1.195   1.445
  553SOL    HW1 2558   1.877   1.252   1.459
  553SOL    HW2 2559   1.937   1.100   1.466
  554SOL     OW 2560   6.030   6.291   5.298
  554SOL    HW1 2561   6.073   6.379   5.316
  554SOL    HW2 2562   5.981   6.261   5.380
  555SOL     OW 2563   1.468   4.529   4.123
  555SOL    HW1 2564   1.512   4.615   4.098
  555SOL    HW2 2565   1.488   4.460   4.053
  556SOL     OW 2566   5.675   2.697   3.677
  556SOL    HW1 2567   5.633   2.680   3.588
  556SOL    HW2 2568   5.773   2.682   3.671
  557SOL     OW 2569   0.160   6.433   6.387
  557SOL    HW1 2570   0.205   6.454   6.300
  557SOL    HW2 2571   0.228   6.413   6.456
  558SOL     OW 2572   4.084   3.975   5.223
  558SOL    HW1 2573   4.120   3.914   5.152
  558SOL    HW2 2574   3.985   3.962   5.230
  559SOL     OW 2575   0.059   6.210   6.263
  559SOL    HW1 2576   0.102   6.156   6.335
  559SOL    HW2 2577   0.055   6.306   6.291
  560SOL     OW 2578   4.432   0.350   0.441
  560SOL    HW1 2579   4.453   0.278   0.507
  560SOL    HW2 2580   4.355   0.404   0.473
  561SOL     OW 2581   5.857   6.930   0.511
  561SOL    HW1 2582   5.900   7.020   0.522
  561SOL    HW2 2583   5.757   6.940   0.516
  562SOL     OW 2584   5.236   1.577   5.405
  562SOL    HW1 2585   5.177   1.658   5.407
  562SOL    HW2 2586   5.263   1.558   5.311
  563SOL     OW 2587   3.132   6.529   4.345
  563SOL    HW1 2588   3.070   6.576   4.408
  563SOL    HW2 2589   3.079   6.476   4.279
  564SOL     OW 2590   6.977   1.233   6.587
  564SOL    HW1 2591   6.961   1.280   6.675
  564SOL    HW2 2592   6.891   1.230   6.536
  565SOL     OW 2593   4.639   3.966   5.234
  565SOL    HW1 2594   4.593   3.917   5.308
  565SOL    HW2 2595   4.607   4.060   5.231
  566SOL     OW 2596   4.953   4.528   2.881
  566SOL    HW1 2597   4.978   4.433   2.859
  566SOL    HW2 2598   4.889   4.563   2.812
  567SOL     OW 2599   3.526   3.254   4.887
  567SOL    HW1 2600   3.612   3.266   4.936
  567SOL    HW2 2601   3.544   3.245   4.789
  568SOL     OW 2602   2.635   1.654   0.132
  568SOL    HW1 2603   2.615   1.617   0.041
  568SOL    HW2 2604   2.695   1.591   0.181
  569SOL     OW 2605   2.121   2.922   0.765
  569SOL    HW1 2606   2.082   2.833   0.789
  569SOL    HW2 2607   2.158   2.965   0.847
  570SOL     OW 2608   0.183   6.086   0.985
  570SOL    HW1 2609   0.089   6.073   0.955
  570SOL    HW2 2610   0.190   6.065   1.083
  571SOL     OW 2611   4.190   5.261   2.853
  571SOL    HW1 2612   4.157   5.196   2.785
  571SOL    HW2 2613   4.255   5.215   2.914
  572SOL     OW 2614   1.442   3.809   4.933
  572SOL    HW1 2615   1.437   3.887   4.870
  572SOL    HW2 2616   1.414   3.838   5.024
  573SOL     OW 2617   3.685   1.914   5.531
  573SOL    HW1 2618   3.729   1.837   5.577
  573SOL    HW2 2619   3.609   1.880   5.476
  574SOL     OW 2620   1.966   1.821   4.431
  574SOL    HW1 2621   1.977   1.918   4.411
  574SOL    HW2 2622   2.049   1.772   4.404
  575SOL     OW 2623   5.514   2.500   0.086
  575SOL    HW1 2624   5.607   2.463   0.089
  575SOL    HW2 2625   5.516   2.598   0.104
  576SOL     OW 2626   1.324   1.412   2.566
  576SOL    HW1 2627   1.383   1.478   2.613
  576SOL    HW2 2628   1.232   1.416   2.607
  577SOL     OW 2629   3.143   2.014   3.469
  577SOL    HW1 2630   3.152   2.067   3.553
  577SOL    HW2 2631   3.215   1.944   3.466
  578SOL     OW 2632   0.214   3.417   3.919
  578SOL    HW1 2633   0.178   3.483   3.854
  578SOL    HW2 2634   0.290   3.458   3.970
  579SOL     OW 2635   4.549   2.546   6.695
  579SOL    HW1 2636   4.456   2.552   6.729
  579SOL    HW2 2637   4.612   2.533   6.772
  580SOL     OW 2638   1.348   5.914   6.569
  580SOL    HW1 2639   1.279   5.981   6.594
  580SOL    HW2 2640   1.408   5.897   6.648
  581SOL     OW 2641   4.174   3.336   2.582
  581SOL    HW1 2642   4.134   3.278   2.653
  581SOL    HW2 2643   4.261   3.374   2.616
  582SOL     OW 2644   5.561   3.455   2.375
  582SOL    HW1 2645   5.498   3.501   2.313
  582SOL    HW2 2646   5.571   3.510   2.459
  583SOL     OW 2647   2.328   4.466   0.284
  583SOL    HW1 2648   2.395   4.526   0.240
  583SOL    HW2 2649   2.374   4.402   0.344
  584SOL     OW 2650   0.031   5.020   4.857
  584SOL    HW1 2651   0.122   5.004   4.821
  584SOL    HW2 2652   0.011   5.118   4.855
  585SOL     OW 2653   6.856   1.681   7.022
  585SOL    HW1 2654   6.907   1.745   6.964
  585SOL    HW2 2655   6.774   1.727   0.034
  586SOL     OW 2656   2.535   6.505   0.605
  586SOL    HW1 2657   2.491   6.585   0.644
  586SOL    HW2 2658   2.473   6.427   0.609
  587SOL     OW 2659   0.992   3.343   5.165
  587SOL    HW1 2660   0.930   3.315   5.238
  587SOL    HW2 2661   0.940   3.396   5.097
  588SOL     OW 2662   3.353   6.558   1.635
  588SOL    HW1 2663   3.283   6.488   1.647
  588SOL    HW2 2664   3.322   6.644   1.675
  589SOL     OW 2665   4.125   5.068   2.660
  589SOL    HW1 2666   4.181   5.009   2.718
  589SOL    HW2 2667   4.104   5.019   2.575
  590SOL     OW 2668   0.018   1.555   1.977
  590SOL    HW1 2669   7.002   1.495   2.047
  590SOL    HW2 2670   0.021   1.508   1.889
  591SOL     OW 2671   3.569   6.578   3.129
  591SOL    HW1 2672   3.537   6.614   3.217
  591SOL    HW2 2673   3.662   6.610   3.111
  592SOL     OW 2674   4.982   1.028   0.567
  592SOL    HW1 2675   4.966   1.121   0.600
  592SOL    HW2 2676   4.897   0.991   0.528
  593SOL     OW 2677   5.126   2.656   3.969
  593SOL    HW1 2678   5.190   2.713   4.019
  593SOL    HW2 2679   5.135   2.673   3.871
  594SOL     OW 2680   3.904   2.900   1.501
  594SOL    HW1 2681   3.871   2.992   1.524
  594SOL    HW2 2682   3.837   2.832   1.529
  595SOL     OW 2683   3.906   6.580   3.419
  595SOL    HW1 2684   3.821   6.537   3.447
  595SOL    HW2 2685   3.968   6.511   3.382
  596SOL     OW 2686   1.567   4.263   3.040
  596SOL    HW1 2687   1.556   4.173   2.997
  596SOL    HW2 2688   1.483   4.316   3.027
  597SOL     OW 2689   3.608   1.543   5.368
  597SOL    HW1 2690   3.676   1.562   5.297
  597SOL    HW2 2691   3.532   1.607   5.360
  598SOL     OW 2692   3.991   4.566   0.839
  598SOL    HW1 2693   3.917   4.558   0.906
  598SOL    HW2 2694   3.963   4.524   0.753
  599SOL     OW 2695   6.338   6.410   2.490
  599SOL    HW1 2696   6.354   6.319   2.528
  599SOL    HW2 2697   6.246   6.415   2.452
  600SOL     OW 2698   2.038   6.768   0.016
  600SOL    HW1 2699   2.016   6.842   6.975
  600SOL    HW2 2700   2.105   6.707   6.997
  601SOL     OW 2701   3.267   5.494   3.889
  601SOL    HW1 2702   3.315   5.477   3.803
  601SOL    HW2 2703   3.169   5.505   3.871
  602SOL     OW 2704   2.416   0.626   1.040
  602SOL    HW1 2705   2.423   0.721   1.008
  602SOL    HW2 2706   2.322   0.607   1.067
  603SOL     OW 2707   4.136   2.258   3.430
  603SOL    HW1 2708   4.186   2.179   3.393
  603SOL    HW2 2709   4.046   2.228   3.460
  604SOL     OW 2710   0.272   4.021   6.280
  604SOL    HW1 2711   0.226   3.934   6.266
  604SOL    HW2 2712   0.242   4.062   6.366
  605SOL     OW 2713   5.887   0.548   4.225
  605SOL    HW1 2714   5.890   0.628   4.285
  605SOL    HW2 2715   5.806   0.493   4.247
  606SOL     OW 2716   3.208   6.882   3.386
  606SOL    HW1 2717   3.254   6.800   3.420
  606SOL    HW2 2718   3.205   6.878   3.286
  607SOL     OW 2719   5.225   1.097   4.292
  607SOL    HW1 2720   5.160   1.122   4.364
  607SOL    HW2 2721   5.315   1.137   4.313
  608SOL     OW 2722   4.107   1.136   1.540
  608SOL    HW1 2723   4.087   1.185   1.455
  608SOL    HW2 2724   4.142   1.045   1.517
  609SOL     OW 2725   3.704   4.149   4.623
  609SOL    HW1 2726   3.606   4.159   4.603
  609SOL    HW2 2727   3.715   4.109   4.714
  610SOL     OW 2728   5.100   1.999   4.112
  610SOL    HW1 2729   5.063   2.042   4.030
  610SOL    HW2 2730   5.200   2.000   4.109
  611SOL     OW 2731   0.758   6.979   0.688
  611SOL    HW1 2732   0.776   0.054   0.676
  611SOL    HW2 2733   0.814   6.927   0.623
  612SOL     OW 2734   3.474   5.253   5.631
  612SOL    HW1 2735   3.477   5.352   5.643
  612SOL    HW2 2736   3.563   5.214   5.657
  613SOL     OW 2737   3.259   2.030   7.021
  613SOL    HW1 2738   3.329   1.990   0.056
  613SOL    HW2 2739   3.169   2.003   0.031
  614SOL     OW 2740   4.984   4.775   0.874
  614SOL    HW1 2741   5.014   4.763   0.968
  614SOL    HW2 2742   4.924   4.698   0.848
  615SOL     OW 2743   6.420   6.891   0.896
  615SOL    HW1 2744   6.393   6.871   0.802
  615SOL    HW2 2745   6.474   6.975   0.898
  616SOL     OW 2746   5.621   1.893   4.645
  616SOL    HW1 2747   5.713   1.859   4.659
  616SOL    HW2 2748   5.610   1.922   4.550
  617SOL     OW 2749   0.350   5.237   5.858
  617SOL    HW1 2750   0.297   5.240   5.943
  617SOL    HW2 2751   0.300   5.186   5.789
  618SOL     OW 2752   6.508   3.493   0.523
  618SOL    HW1 2753   6.429   3.549   0.548
  618SOL    HW2 2754   6.492   3.398   0.550
  619SOL     OW 2755   2.379   0.528   6.650
  619SOL    HW1 2756   2.338   0.502   6.737
  619SOL    HW2 2757   2.414   0.446   6.604
  620SOL     OW 2758   6.618   1.470   2.525
  620SOL    HW1 2759   6.673   1.391   2.551
  620SOL    HW2 2760   6.677   1.549   2.511
  621SOL     OW 2761   3.523   0.990   6.887
  621SOL    HW1 2762   3.460   1.067   6.880
  621SOL    HW2 2763   3.494   0.931   6.962
  622SOL     OW 2764   0.915   1.545   5.090
  622SOL    HW1 2765   0.841   1.553   5.023
  622SOL    HW2 2766   0.923   1.630   5.142
  623SOL     OW 2767   6.065   6.788   4.495
  623SOL    HW1 2768   5.999   6.738   4.551
  623SOL    HW2 2769   6.142   6.727   4.472
  624SOL     OW 2770   6.266   0.898   6.343
  624SOL    HW1 2771   6.273   0.923   6.247
  624SOL    HW2 2772   6.177   0.857   6.361
  625SOL     OW 2773   2.250   1.566   0.557
  625SOL    HW1 2774   2.304   1.600   0.635
  625SOL    HW2 2775   2.263   1.467   0.549
  626SOL     OW 2776   0.314   5.046   3.709
  626SOL    HW1 2777   0.277   4.953   3.718
  626SOL    HW2 2778   0.407   5.047   3.745
  627SOL     OW 2779   6.477   0.197   6.761
  627SOL    HW1 2780   6.442   0.126   6.699
  627SOL    HW2 2781   6.465   0.168   6.855
  628SOL     OW 2782   4.541   4.814   5.957
  628SOL    HW1 2783   4.483   4.765   6.023
  628SOL    HW2 2784   4.595   4.747   5.905
  629SOL     OW 2785   0.510   6.607   6.011
  629SOL    HW1 2786   0.555   6.611   6.100
  629SOL    HW2 2787   0.572   6.642   5.941
  630SOL     OW 2788   6.884   0.806   1.340
  630SOL    HW1 2789   6.917   0.830   1.431
  630SOL    HW2 2790   6.957   0.762   1.288
  631SOL     OW 2791   1.872   2.772   4.651
  631SOL    HW1 2792   1.834   2.835   4.583
  631SOL    HW2 2793   1.799   2.741   4.712
  632SOL     OW 2794   3.530   3.604   6.865
  632SOL    HW1 2795   3.567   3.564   6.948
  632SOL    HW2 2796   3.469   3.680   6.888
  633SOL     OW 2797   2.189   6.377   1.230
  633SOL    HW1 2798   2.141   6.318   1.295
  633SOL    HW2 2799   2.179   6.341   1.138
  634SOL     OW 2800   3.062   3.159   3.957
  634SOL    HW1 2801   3.045   3.196   4.049
  634SOL    HW2 2802   3.077   3.061   3.963
  635SOL     OW 2803   5.384   0.972   6.817
  635SOL    HW1 2804   5.429   0.966   6.906
  635SOL    HW2 2805   5.437   1.032   6.757
  636SOL     OW 2806   2.756   0.729   6.054
  636SOL    HW1 2807   2.785   0.822   6.031
  636SOL    HW2 2808   2.827   0.686   6.111
  637SOL     OW 2809   6.523   1.044   2.555
  637SOL    HW1 2810   6.438   0.992   2.545
  637SOL    HW2 2811   6.596   0.983   2.585
  638SOL     OW 2812   5.999   3.384   4.460
  638SOL    HW1 2813   6.011   3.377   4.559
  638SOL    HW2 2814   6.047   3.465   4.426
  639SOL     OW 2815   5.393   4.705   2.516
  639SOL    HW1 2816   5.317   4.756   2.475
  639SOL    HW2 2817   5.479   4.750   2.494
  640SOL     OW 2818   0.672   1.990   1.970
  640SOL    HW1 2819   0.706   2.084   1.977
  640SOL    HW2 2820   0.577   1.991   1.938
  641SOL     OW 2821   2.281   5.262   4.551
  641SOL    HW1 2822   2.249   5.320   4.476
  641SOL    HW2 2823   2.223   5.181   4.558
  642SOL     OW 2824   0.760   3.843   4.899
  642SOL    HW1 2825   0.763   3.770   4.830
  642SOL    HW2 2826   0.755   3.801   4.990
  643SOL     OW 2827   5.078   5.436   0.229
  643SOL    HW1 2828   5.042   5.447   0.137
  643SOL    HW2 2829   5.004   5.414   0.292
  644SOL     OW 2830   6.734   6.645   5.056
  644SOL    HW1 2831   6.731   6.673   5.152
  644SOL    HW2 2832   6.641   6.625   5.024
  645SOL     OW 2833   3.803   5.181   1.858
  645SOL    HW1 2834   3.762   5.192   1.949
  645SOL    HW2 2835   3.791   5.087   1.826
  646SOL     OW 2836   3.723   1.466   4.994
  646SOL    HW1 2837   3.753   1.505   5.081
  646SOL    HW2 2838   3.762   1.375   4.983
  647SOL     OW 2839   4.356   2.876   5.911
  647SOL    HW1 2840   4.443   2.905   5.952
  647SOL    HW2 2841   4.309   2.813   5.973
  648SOL     OW 2842   5.935   1.403   2.979
  648SOL    HW1 2843   5.881   1.342   3.037
  648SOL    HW2 2844   5.989   1.465   3.036
  649SOL     OW 2845   2.260   6.074   0.377
  649SOL    HW1 2846   2.348   6.050   0.338
  649SOL    HW2 2847   2.242   6.172   0.366
  650SOL     OW 2848   0.370   4.161   1.062
  650SOL    HW1 2849   0.316   4.094   1.115
  650SOL    HW2 2850   0.313   4.200   0.990
  651SOL     OW 2851   1.447   6.964   4.914
  651SOL    HW1 2852   1.373   6.907   4.951
  651SOL    HW2 2853   1.444   0.031   4.958
  652SOL     OW 2854   3.494   6.323   2.119
  652SOL    HW1 2855   3.489   6.328   2.019
  652SOL    HW2 2856   3.570   6.263   2.145
  653SOL     OW 2857   1.289   6.805   1.862
  653SOL    HW1 2858   1.317   6.809   1.958
  653SOL    HW2 2859   1.338   6.731   1.816
  654SOL     OW 2860   0.281   0.102   4.843
  654SOL    HW1 2861   0.347   0.160   4.891
  654SOL    HW2 2862   0.329   0.039   4.782
  655SOL     OW 2863   6.585   4.042   2.383
  655SOL    HW1 2864   6.491   4.022   2.412
  655SOL    HW2 2865   6.649   3.981   2.431
  656SOL     OW 2866   3.757   6.064   0.570
  656SOL    HW1 2867   3.805   6.037   0.486
  656SOL    HW2 2868   3.659   6.074   0.551
  657SOL     OW 2869   3.560   3.210   2.064
  657SOL    HW1 2870   3.618   3.281   2.102
  657SOL    HW2 2871   3.531   3.148   2.136
  658SOL     OW 2872   1.612   2.905   4.623
  658SOL    HW1 2873   1.516   2.876   4.618
  658SOL    HW2 2874   1.619   2.986   4.681
  659SOL     OW 2875   2.073   5.874   6.179
  659SOL    HW1 2876   2.049   5.778   6.172
  659SOL    HW2 2877   1.991   5.930   6.165
  660SOL     OW 2878   5.036   4.429   2.470
  660SOL    HW1 2879   5.104   4.427   2.544
  660SOL    HW2 2880   4.987   4.342   2.468
  661SOL     OW 2881   4.900   4.404   4.243
  661SOL    HW1 2882   4.894   4.307   4.220
  661SOL    HW2 2883   4.926   4.457   4.162
  662SOL     OW 2884   4.893   3.565   0.214
  662SOL    HW1 2885   4.853   3.620   0.141
  662SOL    HW2 2886   4.880   3.468   0.193
  663SOL     OW 2887   0.673   4.120   0.306
  663SOL    HW1 2888   0.593   4.139   0.250
  663SOL    HW2 2889   0.747   4.085   0.248
  664SOL     OW 2890   2.243   6.689   6.899
  664SOL    HW1 2891   2.272   6.598   6.868
  664SOL    HW2 2892   2.270   6.757   6.831
  665SOL     OW 2893   4.055   4.882   1.331
  665SOL    HW1 2894   4.066   4.902   1.234
  665SOL    HW2 2895   4.135   4.917   1.381
  666SOL     OW 2896   3.211   1.454   0.008
  666SOL    HW1 2897   3.301   1.418   0.031
  666SOL    HW2 2898   3.145   1.425   0.077
  667SOL     OW 2899   1.220   3.102   3.117
  667SOL    HW1 2900   1.200   3.171   3.048
  667SOL    HW2 2901   1.282   3.034   3.079
  668SOL     OW 2902   5.150   6.972   0.480
  668SOL    HW1 2903   5.196   0.029   0.517
  668SOL    HW2 2904   5.062   6.959   0.526
  669SOL     OW 2905   1.772   5.943   3.168
  669SOL    HW1 2906   1.850   5.930   3.229
  669SOL    HW2 2907   1.712   5.863   3.173
  670SOL     OW 2908   3.143   3.054   3.480
  670SOL    HW1 2909   3.092   3.029   3.399
  670SOL    HW2 2910   3.102   3.134   3.523
  671SOL     OW 2911   1.700   0.369   5.951
  671SOL    HW1 2912   1.610   0.370   5.908
  671SOL    HW2 2913   1.727   0.275   5.971
  672SOL     OW 2914   2.590   2.521   3.876
  672SOL    HW1 2915   2.505   2.564   3.846
  672SOL    HW2 2916   2.569   2.451   3.944
  673SOL     OW 2917   5.937   0.047   1.366
  673SOL    HW1 2918   5.838   0.053   1.381
  673SOL    HW2 2919   5.957   0.065   1.270
  674SOL     OW 2920   0.584   1.927   3.825
  674SOL    HW1 2921   0.546   1.941   3.734
  674SOL    HW2 2922   0.586   2.015   3.874
  675SOL     OW 2923   6.037   2.659   4.910
  675SOL    HW1 2924   5.993   2.671   4.999
  675SOL    HW2 2925   5.999   2.579   4.865
  676SOL     OW 2926   2.074   4.691   4.392
  676SOL    HW1 2927   2.098   4.705   4.488
  676SOL    HW2 2928   1.999   4.752   4.367
  677SOL     OW 2929   6.147   6.892   0.741
  677SOL    HW1 2930   6.190   6.926   0.658
  677SOL    HW2 2931   6.092   6.811   0.720
  678SOL     OW 2932   2.476   1.419   6.620
  678SOL    HW1 2933   2.475   1.353   6.695
  678SOL    HW2 2934   2.413   1.390   6.549
  679SOL     OW 2935   5.415   0.062   2.788
  679SOL    HW1 2936   5.350   0.050   2.713
  679SOL    HW2 2937   5.505   0.087   2.751
  680SOL     OW 2938   4.832   4.284   5.184
  680SOL    HW1 2939   4.779   4.260   5.103
  680SOL    HW2 2940   4.861   4.201   5.232
  681SOL     OW 2941   1.107   6.937   2.016
  681SOL    HW1 2942   1.131   6.931   1.919
  681SOL    HW2 2943   1.017   6.979   2.025
  682SOL     OW 2944   1.774   5.808   0.857
  682SOL    HW1 2945   1.859   5.849   0.823
  682SOL    HW2 2946   1.790   5.712   0.879
  683SOL     OW 2947   5.422   1.273   0.521
  683SOL    HW1 2948   5.401   1.367   0.494
  683SOL    HW2 2949   5.368   1.250   0.602
  684SOL     OW 2950   6.915   6.011   6.209
  684SOL    HW1 2951   6.958   5.926   6.240
  684SOL    HW2 2952   6.971   6.089   6.237
  685SOL     OW 2953   5.900   0.628   5.515
  685SOL    HW1 2954   5.879   0.610   5.611
  685SOL    HW2 2955   5.969   0.700   5.508
  686SOL     OW 2956   5.525   5.052   2.688
  686SOL    HW1 2957   5.619   5.022   2.673
  686SOL    HW2 2958   5.484   5.078   2.600
  687SOL     OW 2959   6.351   3.364   5.532
  687SOL    HW1 2960   6.308   3.416   5.459
  687SOL    HW2 2961   6.431   3.316   5.496
  688SOL     OW 2962   6.879   4.276   5.291
  688SOL    HW1 2963   6.855   4.359   5.241
  688SOL    HW2 2964   6.799   4.243   5.341
  689SOL     OW 2965   5.757   4.339   6.095
  689SOL    HW1 2966   5.681   4.275   6.107
  689SOL    HW2 2967   5.816   4.307   6.020
  690SOL     OW 2968   1.073   1.746   3.275
  690SOL    HW1 2969   0.975   1.744   3.295
  690SOL    HW2 2970   1.116   1.664   3.312
  691SOL     OW 2971   0.567   3.151   6.255
  691SOL    HW1 2972   0.552   3.148   6.354
  691SOL    HW2 2973   0.666   3.155   6.237
  692SOL     OW 2974   2.005   0.259   3.139
  692SOL    HW1 2975   1.926   0.302   3.094
  692SOL    HW2 2976   2.059   0.209   3.071
  693SOL     OW 2977   6.909   1.562   2.391
  693SOL    HW1 2978   7.002   1.593   2.411
  693SOL    HW2 2979   6.846   1.638   2.401
  694SOL     OW 2980   1.827   0.331   1.392
  694SOL    HW1 2981   1.745   0.323   1.448
  694SOL    HW2 2982   1.908   0.314   1.448
  695SOL     OW 2983   4.293   6.754   5.659
  695SOL    HW1 2984   4.338   6.674   5.699
  695SOL    HW2 2985   4.301   6.831   5.722
  696SOL     OW 2986   4.339   5.604   2.366
  696SOL    HW1 2987   4.331   5.613   2.465
  696SOL    HW2 2988   4.265   5.546   2.332
  697SOL     OW 2989   1.216   4.083   3.673
  697SOL    HW1 2990   1.311   4.068   3.647
  697SOL    HW2 2991   1.159   4.087   3.591
  698SOL     OW 2992   4.709   0.224   3.669
  698SOL    HW1 2993   4.771   0.154   3.634
  698SOL    HW2 2994   4.638   0.181   3.724
  699SOL     OW 2995   1.819   4.601   0.841
  699SOL    HW1 2996   1.781   4.642   0.758
  699SOL    HW2 2997   1.915   4.577   0.825
  700SOL     OW 2998   2.168   1.229   4.657
  700SOL    HW1 2999   2.172   1.129   4.664
  700SOL    HW2 3000   2.075   1.256   4.629
  701SOL     OW 3001   0.117   4.237   5.982
  701SOL    HW1 3002   0.148   4.266   5.891
  701SOL    HW2 3003   0.196   4.205   6.035
  702SOL     OW 3004   5.683   5.733   4.854
  702SOL    HW1 3005   5.730   5.645   4.848
  702SOL    HW2 3006   5.751   5.806   4.863
  703SOL     OW 3007   3.967   3.891   6.709
  703SOL    HW1 3008   4.040   3.914   6.772
  703SOL    HW2 3009   3.952   3.792   6.709
  704SOL     OW 3010   2.260   6.927   0.054
  704SOL    HW1 3011   2.345   6.943   0.105
  704SOL    HW2 3012   2.270   6.845   7.021
  705SOL     OW 3013   6.219   2.285   2.455
  705SOL    HW1 3014   6.225   2.303   2.357
  705SOL    HW2 3015   6.305   2.243   2.485
  706SOL     OW 3016   3.756   1.931   4.066
  706SOL    HW1 3017   3.675   1.881   4.037
  706SOL    HW2 3018   3.833   1.907   4.006
  707SOL     OW 3019   4.885   0.941   1.577
  707SOL    HW1 3020   4.905   1.004   1.652
  707SOL    HW2 3021   4.837   0.990   1.504
  708SOL     OW 3022   3.985   0.717   1.704
  708SOL    HW1 3023   3.941   0.807   1.700
  708SOL    HW2 3024   4.084   0.728   1.701
  709SOL     OW 3025   0.823   4.895   0.054
  709SOL    HW1 3026   0.852   4.832   0.126
  709SOL    HW2 3027   0.735   4.866   0.017
  710SOL     OW 3028   3.059   3.913   2.599
  710SOL    HW1 3029   3.016   3.904   2.509
  710SOL    HW2 3030   3.143   3.967   2.590
  711SOL     OW 3031   0.492   0.630   3.843
  711SOL    HW1 3032   0.534   0.559   3.786
  711SOL    HW2 3033   0.552   0.651   3.920
  712SOL     OW 3034   1.722   4.074   1.800
  712SOL    HW1 3035   1.765   4.129   1.728
  712SOL    HW2 3036   1.726   4.123   1.887
  713SOL     OW 3037   4.005   3.122   2.751
  713SOL    HW1 3038   3.973   3.211   2.785
  713SOL    HW2 3039   3.927   3.060   2.743
  714SOL     OW 3040   4.675   5.299   4.942
  714SOL    HW1 3041   4.576   5.300   4.929
  714SOL    HW2 3042   4.721   5.285   4.854
  715SOL     OW 3043   4.396   0.410   6.410
  715SOL    HW1 3044   4.345   0.491   6.439
  715SOL    HW2 3045   4.375   0.391   6.314
  716SOL     OW 3046   0.255   4.746   1.851
  716SOL    HW1 3047   0.208   4.658   1.858
  716SOL    HW2 3048   0.323   4.753   1.925
  717SOL     OW 3049   6.210   2.468   0.166
  717SOL    HW1 3050   6.194   2.467   0.067
  717SOL    HW2 3051   6.290   2.411   0.187
  718SOL     OW 3052   3.822   3.738   6.415
  718SOL    HW1 3053   3.880   3.770   6.340
  718SOL    HW2 3054   3.736   3.789   6.415
  719SOL     OW 3055   5.549   4.034   0.854
  719SOL    HW1 3056   5.619   4.096   0.889
  719SOL    HW2 3057   5.591   3.947   0.828
  720SOL     OW 3058   2.596   1.209   6.221
  720SOL    HW1 3059   2.683   1.245   6.188
  720SOL    HW2 3060   2.543   1.175   6.143
  721SOL     OW 3061   1.577   6.981   5.756
  721SOL    HW1 3062   1.537   6.914   5.818
  721SOL    HW2 3063   1.551   6.959   5.662
  722SOL     OW 3064   4.021   0.134   4.882
  722SOL    HW1 3065   4.061   0.179   4.962
  722SOL    HW2 3066   4.066   0.046   4.867
  723SOL     OW 3067   1.043   3.108   2.103
  723SOL    HW1 3068   0.987   3.045   2.157
  723SOL    HW2 3069   0.983   3.168   2.050
  724SOL     OW 3070   0.146   1.094   4.932
  724SOL    HW1 3071   0.180   1.179   4.892
  724SOL    HW2 3072   0.169   1.090   5.029
  725SOL     OW 3073   2.335   5.165   1.316
  725SOL    HW1 3074   2.352   5.077   1.360
  725SOL    HW2 3075   2.390   5.236   1.361
  726SOL     OW 3076   4.270   0.079   6.758
  726SOL    HW1 3077   4.170   0.072   6.751
  726SOL    HW2 3078   4.295   0.170   6.792
  727SOL     OW 3079   3.125   5.049   4.185
  727SOL    HW1 3080   3.113   5.098   4.098
  727SOL    HW2 3081   3.206   4.991   4.179
  728SOL     OW 3082   6.857   3.744   5.196
  728SOL    HW1 3083   6.909   3.821   5.232
  728SOL    HW2 3084   6.772   3.776   5.156
  729SOL     OW 3085   2.762   0.015   1.454
  729SOL    HW1 3086   2.731   0.104   1.421
  729SOL    HW2 3087   2.862   0.014   1.459
  730SOL     OW 3088   5.669   0.316   4.009
  730SOL    HW1 3089   5.699   0.403   4.048
  730SOL    HW2 3090   5.574   0.299   4.034
  731SOL     OW 3091   5.726   3.594   3.602
  731SOL    HW1 3092   5.775   3.624   3.684
  731SOL    HW2 3093   5.791   3.553   3.538
  732SOL     OW 3094   6.398   2.536   1.743
  732SOL    HW1 3095   6.385   2.464   1.675
  732SOL    HW2 3096   6.333   2.610   1.726
  733SOL     OW 3097   4.758   4.198   3.935
  733SOL    HW1 3098   4.698   4.258   3.882
  733SOL    HW2 3099   4.764   4.109   3.891
  734SOL     OW 3100   6.481   4.487   0.814
  734SOL    HW1 3101   6.483   4.435   0.729
  734SOL    HW2 3102   6.396   4.467   0.863
  735SOL     OW 3103   1.615   4.382   6.343
  735SOL    HW1 3104   1.562   4.298   6.327
  735SOL    HW2 3105   1.669   4.402   6.262
  736SOL     OW 3106   6.379   1.446   3.507
  736SOL    HW1 3107   6.308   1.376   3.499
  736SOL    HW2 3108   6.467   1.403   3.526
  737SOL     OW 3109   5.198   3.148   0.691
  737SOL    HW1 3110   5.213   3.245   0.675
  737SOL    HW2 3111   5.104   3.132   0.721
  738SOL     OW 3112   0.845   3.924   4.074
  738SOL    HW1 3113   0.792   3.840   4.064
  738SOL    HW2 3114   0.935   3.913   4.032
  739SOL     OW 3115   4.451   6.302   6.533
  739SOL    HW1 3116   4.448   6.347   6.623
  739SOL    HW2 3117   4.539   6.258   6.521
  740SOL     OW 3118   6.248   6.473   1.566
  740SOL    HW1 3119   6.323   6.498   1.627
  740SOL    HW2 3120   6.276   6.399   1.506
  741SOL     OW 3121   2.189   0.405   2.424
  741SOL    HW1 3122   2.189   0.382   2.521
  741SOL    HW2 3123   2.103   0.449   2.399
  742SOL     OW 3124   1.190   6.903   3.547
  742SOL    HW1 3125   1.188   6.932   3.643
  742SOL    HW2 3126   1.151   6.976   3.490
  743SOL     OW 3127   2.211   4.088   4.729
  743SOL    HW1 3128   2.227   4.009   4.669
  743SOL    HW2 3129   2.247   4.067   4.820
  744SOL     OW 3130   0.012   5.284   0.504
  744SOL    HW1 3131   0.074   5.300   0.581
  744SOL    HW2 3132   0.023   5.357   0.437
  745SOL     OW 3133   1.479   5.908   2.555
  745SOL    HW1 3134   1.528   5.862   2.629
  745SOL    HW2 3135   1.430   5.986   2.592
  746SOL     OW 3136   1.634   1.037   5.173
  746SOL    HW1 3137   1.658   0.968   5.241
  746SOL    HW2 3138   1.704   1.108   5.171
  747SOL     OW 3139   5.128   4.906   2.904
  747SOL    HW1 3140   5.036   4.890   2.870
  747SOL    HW2 3141   5.124   4.943   2.996
  748SOL     OW 3142   4.605   3.301   1.338
  748SOL    HW1 3143   4.607   3.391   1.295
  748SOL    HW2 3144   4.685   3.291   1.398
  749SOL     OW 3145   6.652   1.608   5.648
  749SOL    HW1 3146   6.680   1.650   5.561
  749SOL    HW2 3147   6.710   1.644   5.721
  750SOL     OW 3148   2.497   4.295   0.412
  750SOL    HW1 3149   2.552   4.242   0.347
  750SOL    HW2 3150   2.493   4.246   0.499
  751SOL     OW 3151   4.322   1.040   0.159
  751SOL    HW1 3152   4.357   1.132   0.176
  751SOL    HW2 3153   4.354   0.977   0.230
  752SOL     OW 3154   4.918   2.406   1.985
  752SOL    HW1 3155   4.948   2.497   1.956
  752SOL    HW2 3156   4.832   2.383   1.941
  753SOL     OW 3157   2.060   2.554   4.085
  753SOL    HW1 3158   2.139   2.543   4.025
  753SOL    HW2 3159   2.022   2.646   4.073
  754SOL     OW 3160   4.186   5.755   6.992
  754SOL    HW1 3161   4.119   5.817   0.010
  754SOL    HW2 3162   4.140   5.698   6.924
  755SOL     OW 3163   0.235   5.978   0.599
  755SOL    HW1 3164   0.287   5.911   0.546
  755SOL    HW2 3165   0.286   6.002   0.681
  756SOL     OW 3166   4.946   0.697   2.955
  756SOL    HW1 3167   4.956   0.769   3.025
  756SOL    HW2 3168   4.953   0.738   2.864
  757SOL     OW 3169   0.052   6.944   3.921
  757SOL    HW1 3170   0.106   6.924   3.839
  757SOL    HW2 3171   6.990   6.988   3.894
  758SOL     OW 3172   3.719   2.606   1.149
  758SOL    HW1 3173   3.630   2.559   1.147
  758SOL    HW2 3174   3.714   2.688   1.093
  759SOL     OW 3175   1.294   1.141   6.635
  759SOL    HW1 3176   1.263   1.151   6.730
  759SOL    HW2 3177   1.384   1.183   6.624
  760SOL     OW 3178   4.912   1.700   5.764
  760SOL    HW1 3179   4.880   1.605   5.765
  760SOL    HW2 3180   5.004   1.704   5.723
  761SOL     OW 3181   5.661   2.296   6.708
  761SOL    HW1 3182   5.683   2.218   6.767
  761SOL    HW2 3183   5.736   2.363   6.712
  762SOL     OW 3184   2.370   6.700   4.304
  762SOL    HW1 3185   2.363   6.799   4.296
  762SOL    HW2 3186   2.292   6.657   4.258
  763SOL     OW 3187   3.835   5.964   6.652
  763SOL    HW1 3188   3.761   5.926   6.708
  763SOL    HW2 3189   3.922   5.951   6.699
  764SOL     OW 3190   4.170   1.443   2.258
  764SOL    HW1 3191   4.237   1.443   2.331
  764SOL    HW2 3192   4.208   1.398   2.177
  765SOL     OW 3193   6.943   0.146   3.291
  765SOL    HW1 3194   6.964   0.085   3.368
  765SOL    HW2 3195   7.014   0.217   3.285
  766SOL     OW 3196   0.324   6.132   0.162
  766SOL    HW1 3197   0.331   6.218   0.212
  766SOL    HW2 3198   0.314   6.151   0.065
  767SOL     OW 3199   6.211   6.693   2.868
  767SOL    HW1 3200   6.171   6.689   2.776
  767SOL    HW2 3201   6.304   6.728   2.862
  768SOL     OW 3202   2.839   6.267   3.027
  768SOL    HW1 3203   2.767   6.199   3.038
  768SOL    HW2 3204   2.825   6.316   2.941
  769SOL     OW 3205   4.249   1.082   5.452
  769SOL    HW1 3206   4.179   1.136   5.499
  769SOL    HW2 3207   4.225   1.073   5.356
  770SOL     OW 3208   3.254   4.880   3.936
  770SOL    HW1 3209   3.212   4.801   3.890
  770SOL    HW2 3210   3.351   4.884   3.912
  771SOL     OW 3211   0.634   5.586   3.246
  771SOL    HW1 3212   0.726   5.603   3.210
  771SOL    HW2 3213   0.625   5.489   3.268
  772SOL     OW 3214   7.014   3.650   6.116
  772SOL    HW1 3215   6.956   3.572   6.138
  772SOL    HW2 3216   7.014   3.664   6.017
  773SOL     OW 3217   0.340   3.768   2.256
  773SOL    HW1 3218   0.344   3.740   2.160
  773SOL    HW2 3219   0.420   3.731   2.305
  774SOL     OW 3220   1.584   1.032   1.215
  774SOL    HW1 3221   1.506   1.064   1.271
  774SOL    HW2 3222   1.628   1.111   1.173
  775SOL     OW 3223   1.591   2.261   4.657
  775SOL    HW1 3224   1.677   2.303   4.685
  775SOL    HW2 3225   1.571   2.183   4.716
  776SOL     OW 3226   2.385   0.528   5.996
  776SOL    HW1 3227   2.408   0.620   6.029
  776SOL    HW2 3228   2.314   0.489   6.053
  777SOL     OW 3229   4.146   1.471   1.143
  777SOL    HW1 3230   4.083   1.534   1.097
  777SOL    HW2 3231   4.239   1.490   1.114
  778SOL     OW 3232   4.411   6.251   3.955
  778SOL    HW1 3233   4.342   6.302   3.902
  778SOL    HW2 3234   4.499   6.299   3.950
  779SOL     OW 3235   1.263   1.351   2.111
  779SOL    HW1 3236   1.352   1.353   2.065
  779SOL    HW2 3237   1.272   1.306   2.200
  780SOL     OW 3238   6.130   3.423   5.019
  780SOL    HW1 3239   6.135   3.331   4.982
  780SOL    HW2 3240   6.039   3.441   5.054
  781SOL     OW 3241   6.914   0.936   5.882
  781SOL    HW1 3242   6.921   1.000   5.958
  781SOL    HW2 3243   6.878   0.983   5.801
  782SOL     OW 3244   6.724   2.952   1.059
  782SOL    HW1 3245   6.640   3.000   1.085
  782SOL    HW2 3246   6.789   2.955   1.135
  783SOL     OW 3247   2.692   5.028   0.490
  783SOL    HW1 3248   2.631   5.083   0.433
  783SOL    HW2 3249   2.762   5.087   0.529
  784SOL     OW 3250   4.760   0.846   5.239
  784SOL    HW1 3251   4.674   0.891   5.262
  784SOL    HW2 3252   4.755   0.749   5.264
  785SOL     OW 3253   6.685   2.059   3.129
  785SOL    HW1 3254   6.678   1.972   3.177
  785SOL    HW2 3255   6.714   2.130   3.193
  786SOL     OW 3256   0.141   6.538   0.079
  786SOL    HW1 3257   0.107   6.496   7.018
  786SOL    HW2 3258   0.121   6.477   0.156
  787SOL     OW 3259   3.029   2.342   6.302
  787SOL    HW1 3260   3.006   2.419   6.242
  787SOL    HW2 3261   3.126   2.346   6.326
  788SOL     OW 3262   1.474   3.820   4.159
  788SOL    HW1 3263   1.514   3.907   4.130
  788SOL    HW2 3264   1.385   3.808   4.116
  789SOL     OW 3265   5.317   4.270   1.535
  789SOL    HW1 3266   5.330   4.334   1.459
  789SOL    HW2 3267   5.229   4.224   1.525
  790SOL     OW 3268   2.971   1.188   3.560
  790SOL    HW1 3269   2.956   1.182   3.658
  790SOL    HW2 3270   3.062   1.225   3.542
  791SOL     OW 3271   3.079   1.340   4.255
  791SOL    HW1 3272   3.118   1.373   4.169
  791SOL    HW2 3273   2.988   1.380   4.267
  792SOL     OW 3274   5.572   0.840   3.503
  792SOL    HW1 3275   5.508   0.784   3.452
  792SOL    HW2 3276   5.663   0.833   3.462
  793SOL     OW 3277   5.563   0.102   6.928
  793SOL    HW1 3278   5.661   0.085   6.939
  793SOL    HW2 3279   5.515   0.075   7.011
  794SOL     OW 3280   2.284   5.439   6.043
  794SOL    HW1 3281   2.347   5.478   5.976
  794SOL    HW2 3282   2.192   5.438   6.005
  795SOL     OW 3283   4.750   4.198   6.433
  795SOL    HW1 3284   4.656   4.165   6.423
  795SOL    HW2 3285   4.814   4.124   6.414
  796SOL     OW 3286   0.282   2.433   6.826
  796SOL    HW1 3287   0.336   2.356   6.859
  796SOL    HW2 3288   0.197   2.439   6.878
  797SOL     OW 3289   6.098   2.921   3.933
  797SOL    HW1 3290   6.017   2.888   3.983
  797SOL    HW2 3291   6.070   2.959   3.845
  798SOL     OW 3292   5.154   1.204   6.349
  798SOL    HW1 3293   5.123   1.125   6.402
  798SOL    HW2 3294   5.249   1.225   6.373
  799SOL     OW 3295   6.987   2.556   2.472
  799SOL    HW1 3296   6.996   2.456   2.475
  799SOL    HW2 3297   6.914   2.586   2.532
  800SOL     OW 3298   6.250   1.170   2.309
  800SOL    HW1 3299   6.250   1.123   2.221
  800SOL    HW2 3300   6.339   1.213   2.324
  801SOL     OW 3301   0.327   2.626   3.011
  801SOL    HW1 3302   0.262   2.687   3.058
  801SOL    HW2 3303   0.369   2.565   3.078
  802SOL     OW 3304   5.452   0.937   0.459
  802SOL    HW1 3305   5.510   0.996   0.404
  802SOL    HW2 3306   5.369   0.914   0.407
  803SOL     OW 3307   6.573   6.390   4.546
  803SOL    HW1 3308   6.618   6.360   4.462
  803SOL    HW2 3309   6.540   6.310   4.596
  804SOL     OW 3310   0.596   6.707   0.140
  804SOL    HW1 3311   0.679   6.733   0.091
  804SOL    HW2 3312   0.597   6.747   0.232
  805SOL     OW 3313   2.607   3.257   6.047
  805SOL    HW1 3314   2.543   3.186   6.077
  805SOL    HW2 3315   2.624   3.321   6.122
  806SOL     OW 3316   5.182   0.902   0.391
  806SOL    HW1 3317   5.131   0.938   0.469
  806SOL    HW2 3318   5.144   0.938   0.306
  807SOL     OW 3319   1.350   0.422   3.626
  807SOL    HW1 3320   1.333   0.349   3.693
  807SOL    HW2 3321   1.282   0.495   3.640
  808SOL     OW 3322   5.277   3.383   5.340
  808SOL    HW1 3323   5.336   3.463   5.347
  808SOL    HW2 3324   5.224   3.373   5.425
  809SOL     OW 3325   0.208   4.097   6.527
  809SOL    HW1 3326   0.130   4.053   6.571
  809SOL    HW2 3327   0.203   4.196   6.541
  810SOL     OW 3328   5.790   3.892   0.271
  810SOL    HW1 3329   5.781   3.797   0.242
  810SOL    HW2 3330   5.811   3.949   0.192
  811SOL     OW 3331   5.267   4.933   3.805
  811SOL    HW1 3332   5.220   4.873   3.870
  811SOL    HW2 3333   5.329   4.994   3.854
  812SOL     OW 3334   0.249   6.994   1.657
  812SOL    HW1 3335   0.246   0.070   1.648
  812SOL    HW2 3336   0.279   6.970   1.749
  813SOL     OW 3337   5.006   5.115   2.416
  813SOL    HW1 3338   4.967   5.206   2.433
  813SOL    HW2 3339   4.933   5.047   2.420
  814SOL     OW 3340   5.851   6.073   1.959
  814SOL    HW1 3341   5.876   6.080   2.056
  814SOL    HW2 3342   5.889   6.150   1.909
  815SOL     OW 3343   6.617   1.949   1.015
  815SOL    HW1 3344   6.692   1.919   0.957
  815SOL    HW2 3345   6.634   1.921   1.109
  816SOL     OW 3346   6.658   6.345   0.879
  816SOL    HW1 3347   6.748   6.388   0.871
  816SOL    HW2 3348   6.633   6.302   0.792
  817SOL     OW 3349   1.792   3.034   2.302
  817SOL    HW1 3350   1.868   3.072   2.248
  817SOL    HW2 3351   1.713   3.019   2.243
  818SOL     OW 3352   6.144   0.837   0.908
  818SOL    HW1 3353   6.186   0.778   0.977
  818SOL    HW2 3354   6.210   0.854   0.835
  819SOL     OW 3355   6.637   3.473   3.933
  819SOL    HW1 3356   6.735   3.490   3.936
  819SOL    HW2 3357   6.589   3.544   3.985
  820SOL     OW 3358   1.103   3.151   4.789
  820SOL    HW1 3359   1.007   3.174   4.806
  820SOL    HW2 3360   1.157   3.235   4.791
  821SOL     OW 3361   1.208   3.185   6.986
  821SOL    HW1 3362   1.281   3.116   6.984
  821SOL    HW2 3363   1.119   3.140   6.979
  822SOL     OW 3364   1.724   3.856   4.824
  822SOL    HW1 3365   1.683   3.920   4.759
  822SOL    HW2 3366   1.655   3.827   4.890
  823SOL     OW 3367   3.957   4.122   7.015
  823SOL    HW1 3368   4.013   4.150   0.070
  823SOL    HW2 3369   4.003   4.049   6.965
  824SOL     OW 3370   5.273   2.408   5.525
  824SOL    HW1 3371   5.292   2.389   5.621
  824SOL    HW2 3372   5.270   2.323   5.474
  825SOL     OW 3373   2.194   3.866   2.598
  825SOL    HW1 3374   2.285   3.840   2.630
  825SOL    HW2 3375   2.165   3.805   2.524
  826SOL     OW 3376   6.949   3.774   6.735
  826SOL    HW1 3377   6.890   3.713   6.682
  826SOL    HW2 3378   6.896   3.814   6.810
  827SOL     OW 3379   3.435   5.884   0.145
  827SOL    HW1 3380   3.397   5.972   0.171
  827SOL    HW2 3381   3.500   5.896   0.070
  828SOL     OW 3382   5.558   0.190   5.845
  828SOL    HW1 3383   5.583   0.149   5.758
  828SOL    HW2 3384   5.633   0.248   5.877
  829SOL     OW 3385   3.148   3.041   4.484
  829SOL    HW1 3386   3.114   2.954   4.519
  829SOL    HW2 3387   3.228   3.069   4.537
  830SOL     OW 3388   4.512   4.214   5.248
  830SOL    HW1 3389   4.521   4.312   5.229
  830SOL    HW2 3390   4.419   4.196   5.280
  831SOL     OW 3391   6.964   1.172   5.278
  831SOL    HW1 3392   6.993   1.090   5.329
  831SOL    HW2 3393   6.911   1.145   5.198
  832SOL     OW 3394   2.511   1.691   6.579
  832SOL    HW1 3395   2.546   1.733   6.663
  832SOL    HW2 3396   2.477   1.599   6.600
  833SOL     OW 3397   6.723   6.879   6.087
  833SOL    HW1 3398   6.805   6.822   6.080
  833SOL    HW2 3399   6.654   6.845   6.024
  834SOL     OW 3400   2.922   3.581   4.483
  834SOL    HW1 3401   2.898   3.484   4.485
  834SOL    HW2 3402   2.919   3.618   4.576
  835SOL     OW 3403   3.521   6.762   3.345
  835SOL    HW1 3404   3.550   6.844   3.297
  835SOL    HW2 3405   3.553   6.765   3.440
  836SOL     OW 3406   3.041   1.108   0.613
  836SOL    HW1 3407   2.982   1.094   0.692
  836SOL    HW2 3408   3.113   1.038   0.612
  837SOL     OW 3409   5.116   1.412   5.610
  837SOL    HW1 3410   5.161   1.483   5.556
  837SOL    HW2 3411   5.137   1.424   5.707
  838SOL     OW 3412   2.002   5.435   3.254
  838SOL    HW1 3413   1.943   5.392   3.322
  838SOL    HW2 3414   1.951   5.448   3.170
  839SOL     OW 3415   2.962   2.059   2.790
  839SOL    HW1 3416   3.029   2.114   2.740
  839SOL    HW2 3417   2.918   1.995   2.727
  840SOL     OW 3418   0.970   1.136   6.970
  840SOL    HW1 3419   0.952   1.202   0.020
  840SOL    HW2 3420   1.051   1.163   6.919
  841SOL     OW 3421   0.709   3.322   6.584
  841SOL    HW1 3422   0.709   3.365   6.675
  841SOL    HW2 3423   0.787   3.356   6.532
  842SOL     OW 3424   3.648   5.000   2.998
  842SOL    HW1 3425   3.649   4.935   3.074
  842SOL    HW2 3426   3.599   4.959   2.920
  843SOL     OW 3427   6.624   1.960   1.991
  843SOL    HW1 3428   6.559   1.891   2.021
  843SOL    HW2 3429   6.580   2.022   1.926
  844SOL     OW 3430   4.826   5.866   0.852
  844SOL    HW1 3431   4.887   5.792   0.882
  844SOL    HW2 3432   4.875   5.952   0.852
  845SOL     OW 3433   0.577   4.982   5.227
  845SOL    HW1 3434   0.542   4.915   5.292
  845SOL    HW2 3435   0.602   5.065   5.277
  846SOL     OW 3436   6.085   1.433   6.580
  846SOL    HW1 3437   6.012   1.484   6.626
  846SOL    HW2 3438   6.097   1.468   6.488
  847SOL     OW 3439   4.943   3.641   2.180
  847SOL    HW1 3440   4.894   3.650   2.094
  847SOL    HW2 3441   5.010   3.566   2.174
  848SOL     OW 3442   6.017   0.995   5.802
  848SOL    HW1 3443   6.059   1.053   5.872
  848SOL    HW2 3444   5.998   0.905   5.841
  849SOL     OW 3445   0.631   5.352   5.045
  849SOL    HW1 3446   0.697   5.409   4.997
  849SOL    HW2 3447   0.643   5.256   5.020
  850SOL     OW 3448   3.824   0.881   2.795
  850SOL    HW1 3449   3.779   0.969   2.803
  850SOL    HW2 3450   3.756   0.808   2.788
  851SOL     OW 3451   1.699   0.106   6.803
  851SOL    HW1 3452   1.614   0.089   6.753
  851SOL    HW2 3453   1.683   0.175   6.873
  852SOL     OW 3454   1.751   3.843   6.260
  852SOL    HW1 3455   1.829   3.859   6.321
  852SOL    HW2 3456   1.745   3.746   6.238
  853SOL     OW 3457   1.158   3.760   1.533
  853SOL    HW1 3458   1.127   3.840   1.480
  853SOL    HW2 3459   1.126   3.677   1.488
  854SOL     OW 3460   4.994   5.467   1.821
  854SOL    HW1 3461   4.918   5.408   1.795
  854SOL    HW2 3462   5.073   5.447   1.762
  855SOL     OW 3463   5.258   0.051   1.788
  855SOL    HW1 3464   5.183   7.008   1.789
  855SOL    HW2 3465   5.346   0.003   1.782
  856SOL     OW 3466   2.113   6.563   5.229
  856SOL    HW1 3467   2.188   6.564   5.163
  856SOL    HW2 3468   2.088   6.469   5.250
  857SOL     OW 3469   6.404   3.176   1.868
  857SOL    HW1 3470   6.355   3.089   1.869
  857SOL    HW2 3471   6.342   3.249   1.895
  858SOL     OW 3472   3.182   4.527   1.374
  858SOL    HW1 3473   3.212   4.469   1.450
  858SOL    HW2 3474   3.140   4.610   1.411
  859SOL     OW 3475   6.656   4.769   6.914
  859SOL    HW1 3476   6.616   4.762   7.005
  859SOL    HW2 3477   6.718   4.692   6.899
  860SOL     OW 3478   1.977   4.955   1.084
  860SOL    HW1 3479   1.970   4.933   1.181
  860SOL    HW2 3480   2.059   5.011   1.068
  861SOL     OW 3481   3.773   5.578   5.451
  861SOL    HW1 3482   3.839   5.544   5.518
  861SOL    HW2 3483   3.715   5.502   5.421
  862SOL     OW 3484   4.754   4.405   4.485
  862SOL    HW1 3485   4.729   4.320   4.440
  862SOL    HW2 3486   4.841   4.438   4.449
  863SOL     OW 3487   5.732   1.226   1.095
  863SOL    HW1 3488   5.737   1.152   1.028
  863SOL    HW2 3489   5.725   1.314   1.048
  864SOL     OW 3490   5.960   4.009   2.616
  864SOL    HW1 3491   6.052   4.032   2.648
  864SOL    HW2 3492   5.915   3.950   2.683
  865SOL     OW 3493   1.829   6.375   4.548
  865SOL    HW1 3494   1.868   6.425   4.470
  865SOL    HW2 3495   1.733   6.356   4.529
  866SOL     OW 3496   2.977   1.944   1.822
  866SOL    HW1 3497   3.037   1.868   1.849
  866SOL    HW2 3498   2.954   1.935   1.725
  867SOL     OW 3499   2.054   2.839   6.232
  867SOL    HW1 3500   2.033   2.921   6.286
  867SOL    HW2 3501   2.029   2.855   6.137
  868SOL     OW 3502   5.328   2.771   3.312
  868SOL    HW1 3503   5.247   2.744   3.364
  868SOL    HW2 3504   5.336   2.870   3.310
  869SOL     OW 3505   6.257   5.252   2.924
  869SOL    HW1 3506   6.238   5.263   3.021
  869SOL    HW2 3507   6.198   5.313   2.871
  870SOL     OW 3508   6.834   1.079   1.250
  870SOL    HW1 3509   6.834   0.979   1.244
  870SOL    HW2 3510   6.901   1.108   1.318
  871SOL     OW 3511   6.263   2.618   0.956
  871SOL    HW1 3512   6.167   2.604   0.932
  871SOL    HW2 3513   6.321   2.573   0.888
  872SOL     OW 3514   5.994   2.174   3.412
  872SOL    HW1 3515   5.897   2.186   3.430
  872SOL    HW2 3516   6.010   2.168   3.313
  873SOL     OW 3517   4.604   6.990   5.324
  873SOL    HW1 3518   4.518   6.941   5.339
  873SOL    HW2 3519   4.647   6.957   5.240
  874SOL     OW 3520   0.948   3.295   5.690
  874SOL    HW1 3521   0.990   3.374   5.645
  874SOL    HW2 3522   0.849   3.298   5.679
  875SOL     OW 3523   6.287   4.530   6.860
  875SOL    HW1 3524   6.249   4.570   6.944
  875SOL    HW2 3525   6.383   4.508   6.875
  876SOL     OW 3526   0.427   3.259   2.139
  876SOL    HW1 3527   0.362   3.228   2.070
  876SOL    HW2 3528   0.514   3.281   2.095
  877SOL     OW 3529   5.943   5.844   0.701
  877SOL    HW1 3530   5.969   5.816   0.793
  877SOL    HW2 3531   6.001   5.797   0.635
  878SOL     OW 3532   2.946   4.718   0.149
  878SOL    HW1 3533   2.928   4.787   0.219
  878SOL    HW2 3534   3.035   4.676   0.167
  879SOL     OW 3535   4.575   2.530   2.127
  879SOL    HW1 3536   4.615   2.614   2.090
  879SOL    HW2 3537   4.640   2.484   2.186
  880SOL     OW 3538   3.796   5.200   0.368
  880SOL    HW1 3539   3.738   5.130   0.410
  880SOL    HW2 3540   3.745   5.285   0.359
  881SOL     OW 3541   4.301   5.282   5.199
  881SOL    HW1 3542   4.337   5.256   5.109
  881SOL    HW2 3543   4.225   5.222   5.223
  882SOL     OW 3544   1.289   1.029   4.860
  882SOL    HW1 3545   1.284   0.991   4.768
  882SOL    HW2 3546   1.292   1.129   4.855
  883SOL     OW 3547   3.247   5.244   6.340
  883SOL    HW1 3548   3.194   5.198   6.269
  883SOL    HW2 3549   3.272   5.336   6.308
  884SOL     OW 3550   4.379   3.819   1.284
  884SOL    HW1 3551   4.419   3.851   1.370
  884SOL    HW2 3552   4.333   3.896   1.239
  885SOL     OW 3553   4.336   6.171   0.018
  885SOL    HW1 3554   4.243   6.173   0.054
  885SOL    HW2 3555   4.401   6.158   0.092
  886SOL     OW 3556   4.271   1.745   5.933
  886SOL    HW1 3557   4.222   1.832   5.936
  886SOL    HW2 3558   4.218   1.678   5.881
  887SOL     OW 3559   4.315   0.656   6.484
  887SOL    HW1 3560   4.374   0.693   6.556
  887SOL    HW2 3561   4.219   0.670   6.509
  888SOL     OW 3562   6.208   6.068   3.147
  888SOL    HW1 3563   6.200   6.161   3.111
  888SOL    HW2 3564   6.304   6.041   3.152
  889SOL     OW 3565   0.764   6.742   4.781
  889SOL    HW1 3566   0.810   6.722   4.694
  889SOL    HW2 3567   0.721   6.832   4.777
  890SOL     OW 3568   2.561   4.688   2.044
  890SOL    HW1 3569   2.505   4.605   2.035
  890SOL    HW2 3570   2.658   4.663   2.038
  891SOL     OW 3571   5.079   3.324   6.756
  891SOL    HW1 3572   5.034   3.245   6.798
  891SOL    HW2 3573   5.011   3.376   6.703
  892SOL     OW 3574   2.139   4.737   1.311
  892SOL    HW1 3575   2.126   4.663   1.377
  892SOL    HW2 3576   2.071   4.809   1.328
  893SOL     OW 3577   1.733   0.128   0.290
  893SOL    HW1 3578   1.723   0.226   0.276
  893SOL    HW2 3579   1.795   0.111   0.367
  894SOL     OW 3580   0.839   5.639   3.656
  894SOL    HW1 3581   0.873   5.701   3.727
  894SOL    HW2 3582   0.778   5.572   3.696
  895SOL     OW 3583   2.384   6.615   5.361
  895SOL    HW1 3584   2.340   6.673   5.429
  895SOL    HW2 3585   2.439   6.545   5.407
  896SOL     OW 3586   5.528   0.038   3.218
  896SOL    HW1 3587   5.477   0.103   3.274
  896SOL    HW2 3588   5.625   0.046   3.238
  897SOL     OW 3589   5.511   2.414   5.916
  897SOL    HW1 3590   5.582   2.473   5.878
  897SOL    HW2 3591   5.480   2.452   6.003
  898SOL     OW 3592   5.844   6.357   3.928
  898SOL    HW1 3593   5.863   6.359   3.829
  898SOL    HW2 3594   5.806   6.445   3.955
  899SOL     OW 3595   0.905   4.736   5.735
  899SOL    HW1 3596   0.962   4.697   5.807
  899SOL    HW2 3597   0.870   4.825   5.765
  900SOL     OW 3598   0.545   6.035   3.433
  900SOL    HW1 3599   0.588   5.958   3.387
  900SOL    HW2 3600   0.468   6.004   3.488
  901SOL     OW 3601   6.153   2.389   3.209
  901SOL    HW1 3602   6.179   2.348   3.121
  901SOL    HW2 3603   6.231   2.383   3.272
  902SOL     OW 3604   0.309   6.318   6.963
  902SOL    HW1 3605   0.352   6.405   6.989
  902SOL    HW2 3606   0.218   6.336   6.926
  903SOL     OW 3607   1.415   5.120   0.636
  903SOL    HW1 3608   1.496   5.177   0.639
  903SOL    HW2 3609   1.418   5.062   0.554
  904SOL     OW 3610   1.996   1.410   3.535
  904SOL    HW1 3611   1.956   1.426   3.445
  904SOL    HW2 3612   1.926   1.374   3.597
  905SOL     OW 3613   5.303   2.104   4.898
  905SOL    HW1 3614   5.381   2.097   4.836
  905SOL    HW2 3615   5.258   2.192   4.885
  906SOL     OW 3616   5.916   4.232   5.523
  906SOL    HW1 3617   5.965   4.314   5.492
  906SOL    HW2 3618   5.979   4.155   5.523
  907SOL     OW 3619   6.579   3.206   2.144
  907SOL    HW1 3620   6.561   3.129   2.206
  907SOL    HW2 3621   6.503   3.272   2.151
  908SOL     OW 3622   2.239   0.609   3.877
  908SOL    HW1 3623   2.149   0.650   3.862
  908SOL    HW2 3624   2.310   0.670   3.842
  909SOL     OW 3625   3.309   1.209   1.711
  909SOL    HW1 3626   3.265   1.278   1.769
  909SOL    HW2 3627   3.349   1.137   1.768
  910SOL     OW 3628   2.172   2.090   1.342
  910SOL    HW1 3629   2.105   2.164   1.334
  910SOL    HW2 3630   2.258   2.121   1.301
  911SOL     OW 3631   0.184   4.019   1.230
  911SOL    HW1 3632   0.132   4.066   1.302
  911SOL    HW2 3633   0.142   3.930   1.212
  912SOL     OW 3634   1.118   0.236   5.747
  912SOL    HW1 3635   1.087   0.231   5.653
  912SOL    HW2 3636   1.080   0.159   5.799
  913SOL     OW 3637   2.733   1.102   1.869
  913SOL    HW1 3638   2.737   1.171   1.941
  913SOL    HW2 3639   2.712   1.146   1.781
  914SOL     OW 3640   3.208   6.286   2.950
  914SOL    HW1 3641   3.156   6.260   2.868
  914SOL    HW2 3642   3.144   6.312   3.022
  915SOL     OW 3643   1.062   2.358   0.243
  915SOL    HW1 3644   1.064   2.455   0.220
  915SOL    HW2 3645   1.027   2.347   0.336
  916SOL     OW 3646   2.182   3.119   3.072
  916SOL    HW1 3647   2.160   3.216   3.077
  916SOL    HW2 3648   2.221   3.098   2.983
  917SOL     OW 3649   3.319   2.277   6.892
  917SOL    HW1 3650   3.310   2.180   6.915
  917SOL    HW2 3651   3.230   2.312   6.860
  918SOL     OW 3652   1.162   0.591   6.198
  918SOL    HW1 3653   1.231   0.586   6.126
  918SOL    HW2 3654   1.077   0.547   6.167
  919SOL     OW 3655   2.192   6.161   2.248
  919SOL    HW1 3656   2.232   6.252   2.242
  919SOL    HW2 3657   2.093   6.166   2.234
  920SOL     OW 3658   2.464   0.342   3.916
  920SOL    HW1 3659   2.486   0.244   3.919
  920SOL    HW2 3660   2.429   0.371   4.005
  921SOL     OW 3661   5.500   4.711   5.463
  921SOL    HW1 3662   5.499   4.810   5.478
  921SOL    HW2 3663   5.448   4.689   5.381
  922SOL     OW 3664   2.136   4.030   6.817
  922SOL    HW1 3665   2.160   4.060   6.909
  922SOL    HW2 3666   2.169   4.096   6.750
  923SOL     OW 3667   4.027   0.383   6.750
  923SOL    HW1 3668   4.007   0.413   6.843
  923SOL    HW2 3669   4.125   0.389   6.733
  924SOL     OW 3670   5.962   3.425   3.241
  924SOL    HW1 3671   6.028   3.406   3.168
  924SOL    HW2 3672   6.007   3.422   3.330
  925SOL     OW 3673   6.631   1.693   2.996
  925SOL    HW1 3674   6.556   1.708   2.932
  925SOL    HW2 3675   6.606   1.729   3.086
  926SOL     OW 3676   5.318   6.384   0.982
  926SOL    HW1 3677   5.260   6.360   0.904
  926SOL    HW2 3678   5.370   6.466   0.960
  927SOL     OW 3679   3.975   5.115   5.574
  927SOL    HW1 3680   4.031   5.071   5.504
  927SOL    HW2 3681   4.030   5.132   5.655
  928SOL     OW 3682   0.488   1.084   1.336
  928SOL    HW1 3683   0.527   1.143   1.266
  928SOL    HW2 3684   0.455   1.139   1.413
  929SOL     OW 3685   1.112   2.621   2.151
  929SOL    HW1 3686   1.143   2.716   2.144
  929SOL    HW2 3687   1.187   2.564   2.184
  930SOL     OW 3688   4.678   6.408   3.692
  930SOL    HW1 3689   4.746   6.335   3.698
  930SOL    HW2 3690   4.637   6.408   3.601
  931SOL     OW 3691   1.169   3.025   1.690
  931SOL    HW1 3692   1.076   2.991   1.708
  931SOL    HW2 3693   1.193   3.093   1.759
  932SOL     OW 3694   4.799   6.898   1.460
  932SOL    HW1 3695   4.764   6.844   1.536
  932SOL    HW2 3696   4.733   6.896   1.385
  933SOL     OW 3697   2.134   6.190   2.775
  933SOL    HW1 3698   2.076   6.270   2.759
  933SOL    HW2 3699   2.079   6.115   2.812
  934SOL     OW 3700   2.941   1.417   5.298
  934SOL    HW1 3701   2.889   1.435   5.382
  934SOL    HW2 3702   2.917   1.485   5.229
  935SOL     OW 3703   3.156   3.552   6.297
  935SOL    HW1 3704   3.147   3.651   6.289
  935SOL    HW2 3705   3.217   3.530   6.373
  936SOL     OW 3706   0.336   1.461   1.455
  936SOL    HW1 3707   0.417   1.520   1.460
  936SOL    HW2 3708   0.288   1.477   1.370
  937SOL     OW 3709   4.753   2.371   4.207
  937SOL    HW1 3710   4.739   2.360   4.109
  937SOL    HW2 3711   4.713   2.294   4.256
  938SOL     OW 3712   0.247   2.460   0.138
  938SOL    HW1 3713   0.242   2.457   0.238
  938SOL    HW2 3714   0.307   2.535   0.111
  939SOL     OW 3715   6.125   1.137   6.036
  939SOL    HW1 3716   6.169   1.225   6.053
  939SOL    HW2 3717   6.060   1.117   6.110
  940SOL     OW 3718   0.741   1.062   4.252
  940SOL    HW1 3719   0.815   1.064   4.319
  940SOL    HW2 3720   0.777   1.032   4.164
  941SOL     OW 3721   5.351   2.907   4.840
  941SOL    HW1 3722   5.400   2.974   4.896
  941SOL    HW2 3723   5.366   2.815   4.876
  942SOL     OW 3724   5.464   6.896   4.916
  942SOL    HW1 3725   5.401   6.954   4.864
  942SOL    HW2 3726   5.546   6.879   4.862
  943SOL     OW 3727   5.125   1.928   0.767
  943SOL    HW1 3728   5.156   1.836   0.746
  943SOL    HW2 3729   5.200   1.993   0.755
  944SOL     OW 3730   6.175   3.975   5.136
  944SOL    HW1 3731   6.151   4.030   5.216
  944SOL    HW2 3732   6.095   3.969   5.075
  945SOL     OW 3733   5.283   4.469   4.924
  945SOL    HW1 3734   5.212   4.539   4.931
  945SOL    HW2 3735   5.243   4.379   4.938
  946SOL     OW 3736   5.518   2.521   5.350
  946SOL    HW1 3737   5.445   2.471   5.397
  946SOL    HW2 3738   5.528   2.487   5.257
  947SOL     OW 3739   1.873   3.330   5.636
  947SOL    HW1 3740   1.886   3.256   5.570
  947SOL    HW2 3741   1.943   3.400   5.622
  948SOL     OW 3742   3.475   1.886   0.137
  948SOL    HW1 3743   3.503   1.896   0.233
  948SOL    HW2 3744   3.410   1.810   0.129
  949SOL     OW 3745   5.400   6.233   6.212
  949SOL    HW1 3746   5.386   6.273   6.121
  949SOL    HW2 3747   5.487   6.265   6.250
  950SOL     OW 3748   3.847   5.299   1.500
  950SOL    HW1 3749   3.935   5.281   1.456
  950SOL    HW2 3750   3.773   5.273   1.438
  951SOL     OW 3751   1.196   2.108   3.192
  951SOL    HW1 3752   1.150   2.197   3.189
  951SOL    HW2 3753   1.160   2.049   3.119
  952SOL     OW 3754   4.908   1.875   1.966
  952SOL    HW1 3755   4.941   1.790   1.924
  952SOL    HW2 3756   4.962   1.952   1.932
  953SOL     OW 3757   3.999   0.077   6.779
  953SOL    HW1 3758   3.917   0.078   6.836
  953SOL    HW2 3759   3.989   0.143   6.705
  954SOL     OW 3760   6.371   6.092   0.585
  954SOL    HW1 3761   6.283   6.102   0.632
  954SOL    HW2 3762   6.388   5.995   0.567
  955SOL     OW 3763   6.803   6.899   2.546
  955SOL    HW1 3764   6.765   6.840   2.617
  955SOL    HW2 3765   6.736   6.909   2.472
  956SOL     OW 3766   0.740   2.233   0.996
  956SOL    HW1 3767   0.650   2.205   0.963
  956SOL    HW2 3768   0.729   2.302   1.067
  957SOL     OW 3769   2.479   6.325   5.166
  957SOL    HW1 3770   2.563   6.279   5.138
  957SOL    HW2 3771   2.468   6.409   5.114
  958SOL     OW 3772   5.490   2.597   0.682
  958SOL    HW1 3773   5.529   2.683   0.716
  958SOL    HW2 3774   5.552   2.556   0.615
  959SOL     OW 3775   1.727   4.379   2.694
  959SOL    HW1 3776   1.633   4.410   2.679
  959SOL    HW2 3777   1.748   4.383   2.792
  960SOL     OW 3778   1.744   5.742   5.299
  960SOL    HW1 3779   1.708   5.743   5.392
  960SOL    HW2 3780   1.668   5.734   5.234
  961SOL     OW 3781   3.788   6.856   1.958
  961SOL    HW1 3782   3.874   6.903   1.976
  961SOL    HW2 3783   3.727   6.867   2.037
  962SOL     OW 3784   1.568   6.895   4.692
  962SOL    HW1 3785   1.539   6.943   4.610
  962SOL    HW2 3786   1.528   6.938   4.773
  963SOL     OW 3787   6.533   6.799   1.132
  963SOL    HW1 3788   6.473   6.826   1.056
  963SOL    HW2 3789   6.488   6.728   1.186
  964SOL     OW 3790   5.304   4.226   1.810
  964SOL    HW1 3791   5.322   4.245   1.714
  964SOL    HW2 3792   5.216   4.179   1.818
  965SOL     OW 3793   0.482   2.044   0.851
  965SOL    HW1 3794   0.424   1.963   0.862
  965SOL    HW2 3795   0.438   2.107   0.787
  966SOL     OW 3796   0.279   2.263   2.067
  966SOL    HW1 3797   0.299   2.327   2.142
  966SOL    HW2 3798   0.334   2.180   2.078
  967SOL     OW 3799   0.739   5.829   1.995
  967SOL    HW1 3800   0.673   5.842   1.922
  967SOL    HW2 3801   0.812   5.769   1.964
  968SOL     OW 3802   5.391   3.320   2.536
  968SOL    HW1 3803   5.328   3.398   2.546
  968SOL    HW2 3804   5.472   3.350   2.484
  969SOL     OW 3805   4.567   5.961   5.633
  969SOL    HW1 3806   4.644   5.914   5.676
  969SOL    HW2 3807   4.593   5.990   5.541
  970SOL     OW 3808   4.311   2.231   5.251
  970SOL    HW1 3809   4.307   2.169   5.173
  970SOL    HW2 3810   4.379   2.198   5.316
  971SOL     OW 3811   6.651   1.803   1.707
  971SOL    HW1 3812   6.747   1.789   1.732
  971SOL    HW2 3813   6.633   1.902   1.701
  972SOL     OW 3814   6.868   5.111   0.853
  972SOL    HW1 3815   6.941   5.109   0.921
  972SOL    HW2 3816   6.816   5.195   0.862
  973SOL     OW 3817   5.625   4.126   5.840
  973SOL    HW1 3818   5.652   4.057   5.773
  973SOL    HW2 3819   5.693   4.131   5.913
  974SOL     OW 3820   2.786   1.394   4.197
  974SOL    HW1 3821   2.710   1.451   4.164
  974SOL    HW2 3822   2.755   1.339   4.275
  975SOL     OW 3823   3.972   6.747   5.658
  975SOL    HW1 3824   3.930   6.659   5.638
  975SOL    HW2 3825   4.059   6.732   5.705
  976SOL     OW 3826   0.148   4.861   3.859
  976SOL    HW1 3827   0.058   4.821   3.843
  976SOL    HW2 3828   0.139   4.943   3.914
  977SOL     OW 3829   1.940   1.105   3.893
  977SOL    HW1 3830   1.903   1.197   3.904
  977SOL    HW2 3831   1.868   1.038   3.913
  978SOL     OW 3832   6.042   3.118   4.397
  978SOL    HW1 3833   5.994   3.204   4.413
  978SOL    HW2 3834   6.092   3.092   4.479
  979SOL     OW 3835   5.968   0.562   3.573
  979SOL    HW1 3836   5.883   0.570   3.625
  979SOL    HW2 3837   6.044   0.599   3.627
  980SOL     OW 3838   6.428   0.996   4.678
  980SOL    HW1 3839   6.516   1.044   4.678
  980SOL    HW2 3840   6.397   0.985   4.584
  981SOL     OW 3841   6.832   2.784   5.903
  981SOL    HW1 3842   6.748   2.730   5.893
  981SOL    HW2 3843   6.866   2.809   5.812
  982SOL     OW 3844   1.887   2.524   1.016
  982SOL    HW1 3845   1.831   2.579   1.078
  982SOL    HW2 3846   1.857   2.429   1.020
  983SOL     OW 3847   5.459   1.461   2.799
  983SOL    HW1 3848   5.439   1.367   2.828
  983SOL    HW2 3849   5.472   1.463   2.700
  984SOL     OW 3850   4.711   1.226   4.577
  984SOL    HW1 3851   4.756   1.154   4.630
  984SOL    HW2 3852   4.679   1.189   4.490
  985SOL     OW 3853   3.071   5.428   0.302
  985SOL    HW1 3854   3.160   5.404   0.263
  985SOL    HW2 3855   3.082   5.446   0.400
  986SOL     OW 3856   4.492   5.001   6.550
  986SOL    HW1 3857   4.480   5.046   6.462
  986SOL    HW2 3858   4.432   4.920   6.555
  987SOL     OW 3859   4.017   0.037   2.747
  987SOL    HW1 3860   4.002   0.130   2.782
  987SOL    HW2 3861   4.055   7.003   2.820
  988SOL     OW 3862   3.339   3.732   1.767
  988SOL    HW1 3863   3.300   3.820   1.796
  988SOL    HW2 3864   3.266   3.670   1.740
  989SOL     OW 3865   0.465   6.849   5.711
  989SOL    HW1 3866   0.477   6.853   5.612
  989SOL    HW2 3867   0.371   6.875   5.735
  990SOL     OW 3868   4.585   6.833   3.780
  990SOL    HW1 3869   4.522   6.766   3.818
  990SOL    HW2 3870   4.665   6.841   3.839
  991SOL     OW 3871   6.268   1.508   4.858
  991SOL    HW1 3872   6.278   1.607   4.873
  991SOL    HW2 3873   6.252   1.491   4.761
  992SOL     OW 3874   0.800   3.309   0.591
  992SOL    HW1 3875   0.777   3.403   0.619
  992SOL    HW2 3876   0.719   3.266   0.552
  993SOL     OW 3877   3.249   5.202   3.404
  993SOL    HW1 3878   3.255   5.103   3.415
  993SOL    HW2 3879   3.284   5.228   3.314
  994SOL     OW 3880   2.892   3.576   2.917
  994SOL    HW1 3881   2.889   3.633   2.999
  994SOL    HW2 3882   2.890   3.479   2.944
  995SOL     OW 3883   1.169   1.739   4.897
  995SOL    HW1 3884   1.113   1.809   4.941
  995SOL    HW2 3885   1.250   1.721   4.952
  996SOL     OW 3886   1.690   3.784   2.605
  996SOL    HW1 3887   1.663   3.801   2.510
  996SOL    HW2 3888   1.610   3.792   2.664
  997SOL     OW 3889   6.637   0.882   1.438
  997SOL    HW1 3890   6.724   0.860   1.394
  997SOL    HW2 3891   6.654   0.939   1.518
  998SOL     OW 3892   5.172   0.263   3.047
  998SOL    HW1 3893   5.139   0.174   3.078
  998SOL    HW2 3894   5.222   0.251   2.960
  999SOL     OW 3895   0.352   4.922   1.469
  999SOL    HW1 3896   0.401   4.854   1.523
  999SOL    HW2 3897   0.391   5.013   1.486
 1000SOL     OW 3898   3.829   1.611   4.040
 1000SOL    HW1 3899   3.898   1.563   4.094
 1000SOL    HW2 3900   3.738   1.595   4.079
 1001SOL     OW 3901   4.917   0.426   5.598
 1001SOL    HW1 3902   4.857   0.388   5.528
 1001SOL    HW2 3903   4.994   0.472   5.554
 1002SOL     OW 3904   6.436   1.220   1.241
 1002SOL    HW1 3905   6.352   1.210   1.187
 1002SOL    HW2 3906   6.482   1.305   1.215
 1003SOL     OW 3907   3.675   5.575   2.716
 1003SOL    HW1 3908   3.773   5.561   2.701
 1003SOL    HW2 3909   3.657   5.583   2.814
 1004SOL     OW 3910   6.013   6.175   6.953
 1004SOL    HW1 3911   6.092   6.119   6.928
 1004SOL    HW2 3912   6.024   6.206   0.024
 1005SOL     OW 3913   0.139   6.529   3.228
 1005SOL    HW1 3914   0.163   6.501   3.135
 1005SOL    HW2 3915   0.190   6.611   3.253
 1006SOL     OW 3916   2.071   4.640   1.017
 1006SOL    HW1 3917   2.091   4.693   1.099
 1006SOL    HW2 3918   2.131   4.560   1.013
 1007SOL     OW 3919   0.137   0.968   3.725
 1007SOL    HW1 3920   0.120   1.040   3.659
 1007SOL    HW2 3921   0.231   0.934   3.714
 1008SOL     OW 3922   2.052   3.425   3.393
 1008SOL    HW1 3923   2.101   3.494   3.340
 1008SOL    HW2 3924   2.060   3.336   3.348
 1009SOL     OW 3925   1.391   6.247   5.449
 1009SOL    HW1 3926   1.364   6.186   5.522
 1009SOL    HW2 3927   1.483   6.283   5.468
 1010SOL     OW 3928   4.899   1.878   0.041
 1010SOL    HW1 3929   4.880   1.972   0.070
 1010SOL    HW2 3930   4.816   1.838   0.003
 1011SOL     OW 3931   3.323   6.173   3.267
 1011SOL    HW1 3932   3.391   6.240   3.237
 1011SOL    HW2 3933   3.321   6.097   3.202
 1012SOL     OW 3934   4.949   5.706   6.733
 1012SOL    HW1 3935   5.017   5.634   6.746
 1012SOL    HW2 3936   4.993   5.795   6.743
 1013SOL     OW 3937   0.746   1.051   1.547
 1013SOL    HW1 3938   0.716   0.987   1.618
 1013SOL    HW2 3939   0.678   1.124   1.537
 1014SOL     OW 3940   4.722   0.059   6.075
 1014SOL    HW1 3941   4.796   0.111   6.034
 1014SOL    HW2 3942   4.754   0.014   6.158
 1015SOL     OW 3943   3.444   5.729   3.959
 1015SOL    HW1 3944   3.398   5.807   4.001
 1015SOL    HW2 3945   3.381   5.681   3.898
 1016SOL     OW 3946   3.996   2.530   1.200
 1016SOL    HW1 3947   3.959   2.443   1.235
 1016SOL    HW2 3948   3.928   2.572   1.140
 1017SOL     OW 3949   4.240   1.907   6.344
 1017SOL    HW1 3950   4.147   1.919   6.379
 1017SOL    HW2 3951   4.290   1.843   6.402
 1018SOL     OW 3952   1.870   3.487   2.943
 1018SOL    HW1 3953   1.854   3.515   2.848
 1018SOL    HW2 3954   1.968   3.466   2.955
 1019SOL     OW 3955   6.556   1.112   6.936
 1019SOL    HW1 3956   6.617   1.129   6.859
 1019SOL    HW2 3957   6.508   1.197   6.960
 1020SOL     OW 3958   2.741   1.821   1.641
 1020SOL    HW1 3959   2.671   1.798   1.709
 1020SOL    HW2 3960   2.711   1.899   1.587
 1021SOL     OW 3961   6.559   1.424   1.103
 1021SOL    HW1 3962   6.656   1.442   1.116
 1021SOL    HW2 3963   6.542   1.403   1.006
 1022SOL     OW 3964   4.294   3.475   6.477
 1022SOL    HW1 3965   4.264   3.495   6.571
 1022SOL    HW2 3966   4.216   3.442   6.423
 1023SOL     OW 3967   5.453   1.187   2.890
 1023SOL    HW1 3968   5.407   1.151   2.809
 1023SOL    HW2 3969   5.403   1.160   2.972
 1024SOL     OW 3970   6.609   1.604   3.649
 1024SOL    HW1 3971   6.522   1.603   3.602
 1024SOL    HW2 3972   6.683   1.614   3.583
 1025SOL     OW 3973   2.994   4.902   1.276
 1025SOL    HW1 3974   2.970   4.828   1.339
 1025SOL    HW2 3975   2.982   4.990   1.322
 1026SOL     OW 3976   1.327   2.499   0.492
 1026SOL    HW1 3977   1.372   2.478   0.405
 1026SOL    HW2 3978   1.293   2.593   0.489
 1027SOL     OW 3979   2.640   4.724   2.334
 1027SOL    HW1 3980   2.599   4.727   2.243
 1027SOL    HW2 3981   2.725   4.776   2.333
 1028SOL     OW 3982   1.766   6.276   0.970
 1028SOL    HW1 3983   1.696   6.287   1.040
 1028SOL    HW2 3984   1.724   6.253   0.883
 1029SOL     OW 3985   2.460   0.450   6.377
 1029SOL    HW1 3986   2.431   0.544   6.392
 1029SOL    HW2 3987   2.534   0.428   6.440
 1030SOL     OW 3988   3.962   3.948   4.889
 1030SOL    HW1 3989   3.975   3.973   4.793
 1030SOL    HW2 3990   3.943   4.031   4.942
 1031SOL     OW 3991   2.461   5.730   1.929
 1031SOL    HW1 3992   2.468   5.631   1.941
 1031SOL    HW2 3993   2.398   5.767   1.997
 1032SOL     OW 3994   2.108   0.602   4.320
 1032SOL    HW1 3995   2.090   0.505   4.331
 1032SOL    HW2 3996   2.036   0.644   4.265
 1033SOL     OW 3997   2.760   5.852   2.578
 1033SOL    HW1 3998   2.751   5.801   2.493
 1033SOL    HW2 3999   2.694   5.818   2.645
 1034SOL     OW 4000   1.100   4.461   3.755
 1034SOL    HW1 4001   1.168   4.413   3.698
 1034SOL    HW2 4002   1.146   4.501   3.834
 1035SOL     OW 4003   2.358   1.446   4.681
 1035SOL    HW1 4004   2.297   1.366   4.679
 1035SOL    HW2 4005   2.446   1.419   4.721
 1036SOL     OW 4006   4.291   2.183   0.340
 1036SOL    HW1 4007   4.243   2.157   0.257
 1036SOL    HW2 4008   4.225   2.200   0.413
 1037SOL     OW 4009   2.389   2.077   6.756
 1037SOL    HW1 4010   2.383   2.134   6.674
 1037SOL    HW2 4011   2.367   2.132   6.837
 1038SOL     OW 4012   2.044   0.781   4.738
 1038SOL    HW1 4013   2.082   0.696   4.773
 1038SOL    HW2 4014   1.953   0.764   4.701
 1039SOL     OW 4015   3.850   1.801   3.521
 1039SOL    HW1 4016   3.768   1.841   3.480
 1039SOL    HW2 4017   3.823   1.735   3.592
 1040SOL     OW 4018   6.570   4.284   3.067
 1040SOL    HW1 4019   6.526   4.228   3.137
 1040SOL    HW2 4020   6.509   4.359   3.042
 1041SOL     OW 4021   1.016   0.640   4.468
 1041SOL    HW1 4022   0.966   0.672   4.388
 1041SOL    HW2 4023   1.009   0.541   4.475
 1042SOL     OW 4024   5.435   4.543   0.946
 1042SOL    HW1 4025   5.381   4.604   0.888
 1042SOL    HW2 4026   5.442   4.453   0.903
 1043SOL     OW 4027   2.826   1.464   6.269
 1043SOL    HW1 4028   2.726   1.471   6.271
 1043SOL    HW2 4029   2.852   1.385   6.214
 1044SOL     OW 4030   4.164   3.229   1.967
 1044SOL    HW1 4031   4.110   3.185   2.040
 1044SOL    HW2 4032   4.224   3.298   2.008
 1045SOL     OW 4033   2.944   1.423   3.221
 1045SOL    HW1 4034   2.923   1.329   3.247
 1045SOL    HW2 4035   2.943   1.481   3.302
 1046SOL     OW 4036   4.244   0.460   1.938
 1046SOL    HW1 4037   4.289   0.371   1.936
 1046SOL    HW2 4038   4.233   0.494   1.845
 1047SOL     OW 4039   1.109   4.673   2.687
 1047SOL    HW1 4040   1.133   4.730   2.766
 1047SOL    HW2 4041   1.109   4.577   2.714
 1048SOL     OW 4042   5.004   4.518   5.392
 1048SOL    HW1 4043   5.073   4.460   5.434
 1048SOL    HW2 4044   5.002   4.502   5.293
 1049SOL     OW 4045   0.390   3.181   4.625
 1049SOL    HW1 4046   0.447   3.103   4.597
 1049SOL    HW2 4047   0.306   3.147   4.668
 1050SOL     OW 4048   3.254   0.590   0.096
 1050SOL    HW1 4049   3.182   0.530   0.131
 1050SOL    HW2 4050   3.343   0.557   0.128
 1051SOL     OW 4051   4.770   4.200   1.325
 1051SOL    HW1 4052   4.756   4.229   1.230
 1051SOL    HW2 4053   4.682   4.181   1.367
 1052SOL     OW 4054   3.710   0.333   4.584
 1052SOL    HW1 4055   3.620   0.370   4.608
 1052SOL    HW2 4056   3.747   0.284   4.662
 1053SOL     OW 4057   4.222   4.724   3.603
 1053SOL    HW1 4058   4.287   4.651   3.583
 1053SOL    HW2 4059   4.195   4.719   3.699
 1054SOL     OW 4060   3.740   6.150   4.148
 1054SOL    HW1 4061   3.742   6.091   4.229
 1054SOL    HW2 4062   3.722   6.244   4.177
 1055SOL     OW 4063   4.500   5.328   4.707
 1055SOL    HW1 4064   4.408   5.368   4.698
 1055SOL    HW2 4065   4.565   5.400   4.732
 1056SOL     OW 4066   1.798   6.259   5.257
 1056SOL    HW1 4067   1.734   6.265   5.180
 1056SOL    HW2 4068   1.891   6.274   5.224
 1057SOL     OW 4069   3.323   4.012   2.079
 1057SOL    HW1 4070   3.412   4.009   2.032
 1057SOL    HW2 4071   3.300   3.920   2.110
 1058SOL     OW 4072   3.749   1.222   1.772
 1058SOL    HW1 4073   3.688   1.155   1.730
 1058SOL    HW2 4074   3.724   1.234   1.868
 1059SOL     OW 4075   3.456   1.743   0.941
 1059SOL    HW1 4076   3.388   1.713   1.008
 1059SOL    HW2 4077   3.433   1.834   0.908
 1060SOL     OW 4078   2.527   2.047   5.706
 1060SOL    HW1 4079   2.518   1.980   5.633
 1060SOL    HW2 4080   2.576   2.127   5.672
 1061SOL     OW 4081   2.975   5.756   1.640
 1061SOL    HW1 4082   2.895   5.700   1.660
 1061SOL    HW2 4083   2.976   5.837   1.699
 1062SOL     OW 4084   5.859   4.980   4.503
 1062SOL    HW1 4085   5.873   4.927   4.587
 1062SOL    HW2 4086   5.763   5.005   4.495
 1063SOL     OW 4087   2.015   2.442   6.551
 1063SOL    HW1 4088   2.003   2.393   6.465
 1063SOL    HW2 4089   2.035   2.377   6.624
 1064SOL     OW 4090   6.614   3.058   1.353
 1064SOL    HW1 4091   6.709   3.077   1.331
 1064SOL    HW2 4092   6.604   3.048   1.452
 1065SOL     OW 4093   6.465   6.410   4.852
 1065SOL    HW1 4094   6.494   6.503   4.826
 1065SOL    HW2 4095   6.393   6.380   4.790
 1066SOL     OW 4096   3.702   0.353   3.421
 1066SOL    HW1 4097   3.681   0.450   3.414
 1066SOL    HW2 4098   3.783   0.339   3.478
 1067SOL     OW 4099   1.751   3.269   1.073
 1067SOL    HW1 4100   1.658   3.302   1.085
 1067SOL    HW2 4101   1.813   3.347   1.061
 1068SOL     OW 4102   0.710   3.686   2.112
 1068SOL    HW1 4103   0.745   3.773   2.148
 1068SOL    HW2 4104   0.617   3.701   2.076
 1069SOL     OW 4105   3.762   3.787   1.297
 1069SOL    HW1 4106   3.821   3.775   1.378
 1069SOL    HW2 4107   3.758   3.702   1.245
 1070SOL     OW 4108   2.144   0.858   0.075
 1070SOL    HW1 4109   2.239   0.881   0.094
 1070SOL    HW2 4110   2.110   0.794   0.144
 1071SOL     OW 4111   4.268   6.970   3.258
 1071SOL    HW1 4112   4.235   6.977   3.164
 1071SOL    HW2 4113   4.355   6.921   3.259
 1072SOL     OW 4114   3.838   5.727   3.162
 1072SOL    HW1 4115   3.844   5.665   3.241
 1072SOL    HW2 4116   3.769   5.797   3.179
 1073SOL     OW 4117   2.471   4.717   2.582
 1073SOL    HW1 4118   2.508   4.683   2.495
 1073SOL    HW2 4119   2.478   4.646   2.652
 1074SOL     OW 4120   1.409   5.505   1.947
 1074SOL    HW1 4121   1.368   5.587   1.986
 1074SOL    HW2 4122   1.359   5.478   1.865
 1075SOL     OW 4123   7.022   4.143   4.125
 1075SOL    HW1 4124   0.098   4.132   4.121
 1075SOL    HW2 4125   6.979   4.054   4.137
 1076SOL     OW 4126   0.107   4.570   3.493
 1076SOL    HW1 4127   0.078   4.661   3.524
 1076SOL    HW2 4128   0.205   4.570   3.477
 1077SOL     OW 4129   4.734   0.278   0.607
 1077SOL    HW1 4130   4.647   0.231   0.622
 1077SOL    HW2 4131   4.734   0.318   0.515
 1078SOL     OW 4132   0.622   2.024   1.301
 1078SOL    HW1 4133   0.658   1.981   1.218
 1078SOL    HW2 4134   0.679   1.997   1.379
 1079SOL     OW 4135   2.877   5.512   3.113
 1079SOL    HW1 4136   2.926   5.432   3.147
 1079SOL    HW2 4137   2.780   5.491   3.101
 1080SOL     OW 4138   1.879   5.451   4.238
 1080SOL    HW1 4139   1.908   5.358   4.216
 1080SOL    HW2 4140   1.909   5.513   4.165
 1081SOL     OW 4141   1.878   0.575   6.856
 1081SOL    HW1 4142   1.919   0.493   6.896
 1081SOL    HW2 4143   1.811   0.549   6.787
 1082SOL     OW 4144   2.277   0.023   6.266
 1082SOL    HW1 4145   2.189   0.019   6.312
 1082SOL    HW2 4146   2.293   0.116   6.233
 1083SOL     OW 4147   4.104   3.054   1.420
 1083SOL    HW1 4148   4.169   3.073   1.494
 1083SOL    HW2 4149   4.081   2.957   1.422
 1084SOL     OW 4150   6.303   3.673   0.574
 1084SOL    HW1 4151   6.233   3.613   0.612
 1084SOL    HW2 4152   6.337   3.735   0.645
 1085SOL     OW 4153   2.133   3.842   4.024
 1085SOL    HW1 4154   2.156   3.796   4.109
 1085SOL    HW2 4155   2.140   3.777   3.948
 1086SOL     OW 4156   4.204   4.718   1.932
 1086SOL    HW1 4157   4.206   4.630   1.886
 1086SOL    HW2 4158   4.109   4.745   1.950
 1087SOL     OW 4159   4.517   2.871   5.244
 1087SOL    HW1 4160   4.444   2.819   5.287
 1087SOL    HW2 4161   4.510   2.967   5.271
 1088SOL     OW 4162   5.060   3.810   3.233
 1088SOL    HW1 4163   5.134   3.874   3.254
 1088SOL    HW2 4164   5.082   3.760   3.150
 1089SOL     OW 4165   6.672   0.531   3.336
 1089SOL    HW1 4166   6.590   0.565   3.382
 1089SOL    HW2 4167   6.722   0.469   3.396
 1090SOL     OW 4168   0.467   2.034   5.504
 1090SOL    HW1 4169   0.493   2.005   5.596
 1090SOL    HW2 4170   0.546   2.072   5.457
 1091SOL     OW 4171   0.654   1.707   5.008
 1091SOL    HW1 4172   0.558   1.728   5.029
 1091SOL    HW2 4173   0.712   1.781   5.041
 1092SOL     OW 4174   1.912   4.497   1.223
 1092SOL    HW1 4175   1.977   4.435   1.266
 1092SOL    HW2 4176   1.935   4.506   1.126
 1093SOL     OW 4177   0.667   2.057   2.239
 1093SOL    HW1 4178   0.648   1.981   2.301
 1093SOL    HW2 4179   0.651   2.028   2.144
 1094SOL     OW 4180   0.425   6.517   2.039
 1094SOL    HW1 4181   0.373   6.432   2.037
 1094SOL    HW2 4182   0.382   6.581   2.103
 1095SOL     OW 4183   5.746   3.940   6.314
 1095SOL    HW1 4184   5.775   3.955   6.408
 1095SOL    HW2 4185   5.762   3.845   6.288
 1096SOL     OW 4186   3.427   4.575   1.624
 1096SOL    HW1 4187   3.341   4.534   1.656
 1096SOL    HW2 4188   3.478   4.610   1.703
 1097SOL     OW 4189   1.861   5.169   5.644
 1097SOL    HW1 4190   1.940   5.118   5.613
 1097SOL    HW2 4191   1.887   5.264   5.660
 1098SOL     OW 4192   4.379   1.897   2.655
 1098SOL    HW1 4193   4.453   1.849   2.609
 1098SOL    HW2 4194   4.325   1.831   2.708
 1099SOL     OW 4195   3.515   1.848   2.847
 1099SOL    HW1 4196   3.551   1.937   2.819
 1099SOL    HW2 4197   3.582   1.802   2.905
 1100SOL     OW 4198   1.046   0.447   0.316
 1100SOL    HW1 4199   0.955   0.422   0.284
 1100SOL    HW2 4200   1.074   0.385   0.390
 1101SOL     OW 4201   5.605   2.826   0.818
 1101SOL    HW1 4202   5.518   2.845   0.865
 1101SOL    HW2 4203   5.677   2.812   0.885
 1102SOL     OW 4204   0.874   4.975   3.346
 1102SOL    HW1 4205   0.807   4.992   3.418
 1102SOL    HW2 4206   0.963   5.010   3.375
 1103SOL     OW 4207   0.399   3.090   1.079
 1103SOL    HW1 4208   0.394   2.991   1.090
 1103SOL    HW2 4209   0.388   3.134   1.168
 1104SOL     OW 4210   2.595   5.133   5.913
 1104SOL    HW1 4211   2.693   5.116   5.912
 1104SOL    HW2 4212   2.575   5.211   5.973
 1105SOL     OW 4213   4.299   5.598   0.161
 1105SOL    HW1 4214   4.368   5.541   0.119
 1105SOL    HW2 4215   4.276   5.674   0.100
 1106SOL     OW 4216   0.449   2.203   6.899
 1106SOL    HW1 4217   0.549   2.210   6.894
 1106SOL    HW2 4218   0.416   2.142   6.827
 1107SOL     OW 4219   1.658   0.620   1.024
 1107SOL    HW1 4220   1.737   0.581   0.976
 1107SOL    HW2 4221   1.658   0.589   1.119
 1108SOL     OW 4222   0.686   2.245   5.259
 1108SOL    HW1 4223   0.736   2.313   5.204
 1108SOL    HW2 4224   0.602   2.286   5.295
 1109SOL     OW 4225   5.222   0.984   4.014
 1109SOL    HW1 4226   5.303   1.025   3.972
 1109SOL    HW2 4227   5.192   1.040   4.091
 1110SOL     OW 4228   3.565   3.139   2.365
 1110SOL    HW1 4229   3.658   3.107   2.382
 1110SOL    HW2 4230   3.500   3.064   2.377
 1111SOL     OW 4231   5.737   6.921   0.184
 1111SOL    HW1 4232   5.683   6.848   0.227
 1111SOL    HW2 4233   5.767   6.985   0.254
 1112SOL     OW 4234   6.261   0.802   2.688
 1112SOL    HW1 4235   6.202   0.726   2.663
 1112SOL    HW2 4236   6.267   0.866   2.611
 1113SOL     OW 4237   6.497   3.909   1.921
 1113SOL    HW1 4238   6.514   3.816   1.889
 1113SOL    HW2 4239   6.543   3.924   2.009
 1114SOL     OW 4240   4.880   1.145   4.970
 1114SOL    HW1 4241   4.909   1.174   5.061
 1114SOL    HW2 4242   4.943   1.076   4.935
 1115SOL     OW 4243   2.475   3.228   0.844
 1115SOL    HW1 4244   2.545   3.295   0.870
 1115SOL    HW2 4245   2.437   3.254   0.756
 1116SOL     OW 4246   4.704   6.395   4.441
 1116SOL    HW1 4247   4.684   6.319   4.380
 1116SOL    HW2 4248   4.653   6.476   4.412
 1117SOL     OW 4249   2.592   3.327   1.312
 1117SOL    HW1 4250   2.494   3.314   1.326
 1117SOL    HW2 4251   2.629   3.250   1.260
 1118SOL     OW 4252   2.130   3.839   3.687
 1118SOL    HW1 4253   2.051   3.884   3.729
 1118SOL    HW2 4254   2.125   3.741   3.705
 1119SOL     OW 4255   3.746   3.947   2.096
 1119SOL    HW1 4256   3.680   3.974   2.166
 1119SOL    HW2 4257   3.837   3.941   2.137
 1120SOL     OW 4258   4.461   0.651   4.213
 1120SOL    HW1 4259   4.402   0.621   4.138
 1120SOL    HW2 4260   4.528   0.580   4.232
 1121SOL     OW 4261   5.518   3.395   1.994
 1121SOL    HW1 4262   5.464   3.474   2.025
 1121SOL    HW2 4263   5.456   3.324   1.959
 1122SOL     OW 4264   5.060   4.406   6.855
 1122SOL    HW1 4265   5.031   4.344   6.781
 1122SOL    HW2 4266   5.021   4.497   6.839
 1123SOL     OW 4267   3.161   0.815   2.418
 1123SOL    HW1 4268   3.196   0.819   2.324
 1123SOL    HW2 4269   3.159   0.907   2.456
 1124SOL     OW 4270   0.842   4.403   4.751
 1124SOL    HW1 4271   0.834   4.322   4.809
 1124SOL    HW2 4272   0.768   4.404   4.684
 1125SOL     OW 4273   3.809   3.438   5.049
 1125SOL    HW1 4274   3.891   3.449   5.105
 1125SOL    HW2 4275   3.814   3.350   5.002
 1126SOL     OW 4276   5.787   6.639   2.001
 1126SOL    HW1 4277   5.800   6.615   1.905
 1126SOL    HW2 4278   5.788   6.738   2.011
 1127SOL     OW 4279   1.619   5.130   0.105
 1127SOL    HW1 4280   1.707   5.141   0.060
 1127SOL    HW2 4281   1.595   5.214   0.153
 1128SOL     OW 4282   2.694   1.904   4.617
 1128SOL    HW1 4283   2.665   1.831   4.555
 1128SOL    HW2 4284   2.655   1.991   4.587
 1129SOL     OW 4285   5.851   0.273   7.012
 1129SOL    HW1 4286   5.892   0.361   6.987
 1129SOL    HW2 4287   5.848   0.214   6.932
 1130SOL     OW 4288   6.873   4.293   6.386
 1130SOL    HW1 4289   6.963   4.288   6.344
 1130SOL    HW2 4290   6.837   4.386   6.376
 1131SOL     OW 4291   0.916   5.025   6.451
 1131SOL    HW1 4292   0.873   5.011   6.540
 1131SOL    HW2 4293   0.854   4.995   6.378
 1132SOL     OW 4294   5.127   0.112   5.735
 1132SOL    HW1 4295   5.190   0.189   5.739
 1132SOL    HW2 4296   5.069   0.112   5.816
 1133SOL     OW 4297   0.422   3.371   1.680
 1133SOL    HW1 4298   0.323   3.366   1.671
 1133SOL    HW2 4299   0.459   3.434   1.612
 1134SOL     OW 4300   5.635   3.282   5.944
 1134SOL    HW1 4301   5.703   3.344   5.905
 1134SOL    HW2 4302   5.591   3.231   5.870
 1135SOL     OW 4303   3.836   2.071   2.976
 1135SOL    HW1 4304   3.838   1.985   3.026
 1135SOL    HW2 4305   3.929   2.101   2.956
 1136SOL     OW 4306   3.703   4.854   4.222
 1136SOL    HW1 4307   3.785   4.826   4.172
 1136SOL    HW2 4308   3.727   4.870   4.318
 1137SOL     OW 4309   1.829   1.301   5.752
 1137SOL    HW1 4310   1.901   1.258   5.806
 1137SOL    HW2 4311   1.845   1.400   5.749
 1138SOL     OW 4312   1.015   4.242   5.517
 1138SOL    HW1 4313   1.016   4.212   5.613
 1138SOL    HW2 4314   1.109   4.256   5.486
 1139SOL     OW 4315   1.375   6.250   1.582
 1139SOL    HW1 4316   1.281   6.274   1.559
 1139SOL    HW2 4317   1.435   6.327   1.558
 1140SOL     OW 4318   3.434   1.838   3.584
 1140SOL    HW1 4319   3.432   1.755   3.639
 1140SOL    HW2 4320   3.461   1.916   3.641
 1141SOL     OW 4321   6.708   5.615   5.612
 1141SOL    HW1 4322   6.751   5.680   5.675
 1141SOL    HW2 4323   6.727   5.522   5.641
 1142SOL     OW 4324   6.430   0.882   4.026
 1142SOL    HW1 4325   6.530   0.877   4.014
 1142SOL    HW2 4326   6.399   0.975   4.005
 1143SOL     OW 4327   4.196   1.936   3.168
 1143SOL    HW1 4328   4.111   1.883   3.161
 1143SOL    HW2 4329   4.191   2.014   3.105
 1144SOL     OW 4330   0.120   6.216   5.125
 1144SOL    HW1 4331   0.072   6.148   5.069
 1144SOL    HW2 4332   0.141   6.296   5.069
 1145SOL     OW 4333   0.938   5.130   5.143
 1145SOL    HW1 4334   1.027   5.137   5.097
 1145SOL    HW2 4335   0.896   5.042   5.123
 1146SOL     OW 4336   5.843   2.216   0.609
 1146SOL    HW1 4337   5.801   2.125   0.608
 1146SOL    HW2 4338   5.821   2.263   0.524
 1147SOL     OW 4339   6.374   2.377   1.533
 1147SOL    HW1 4340   6.413   2.288   1.510
 1147SOL    HW2 4341   6.296   2.395   1.473
 1148SOL     OW 4342   3.897   0.277   0.668
 1148SOL    HW1 4343   3.847   0.234   0.743
 1148SOL    HW2 4344   3.844   0.354   0.631
 1149SOL     OW 4345   6.736   3.511   2.384
 1149SOL    HW1 4346   6.808   3.579   2.401
 1149SOL    HW2 4347   6.777   3.430   2.340
 1150SOL     OW 4348   1.333   4.528   6.407
 1150SOL    HW1 4349   1.420   4.508   6.361
 1150SOL    HW2 4350   1.273   4.577   6.345
 1151SOL     OW 4351   4.764   5.308   0.104
 1151SOL    HW1 4352   4.846   5.359   0.077
 1151SOL    HW2 4353   4.768   5.216   0.065
 1152SOL     OW 4354   0.548   0.231   4.879
 1152SOL    HW1 4355   0.582   0.265   4.967
 1152SOL    HW2 4356   0.572   0.296   4.807
 1153SOL     OW 4357   2.257   5.235   2.093
 1153SOL    HW1 4358   2.260   5.165   2.164
 1153SOL    HW2 4359   2.339   5.292   2.099
 1154SOL     OW 4360   1.777   5.340   1.474
 1154SOL    HW1 4361   1.786   5.306   1.568
 1154SOL    HW2 4362   1.734   5.430   1.476
 1155SOL     OW 4363   3.444   5.884   2.126
 1155SOL    HW1 4364   3.458   5.932   2.212
 1155SOL    HW2 4365   3.430   5.951   2.053
 1156SOL     OW 4366   2.519   0.424   4.333
 1156SOL    HW1 4367   2.485   0.438   4.240
 1156SOL    HW2 4368   2.474   0.489   4.394
 1157SOL     OW 4369   0.913   2.889   4.013
 1157SOL    HW1 4370   0.977   2.813   4.004
 1157SOL    HW2 4371   0.819   2.856   4.001
 1158SOL     OW 4372   4.651   5.459   5.203
 1158SOL    HW1 4373   4.648   5.384   5.137
 1158SOL    HW2 4374   4.615   5.428   5.291
 1159SOL     OW 4375   5.107   4.987   3.162
 1159SOL    HW1 4376   5.029   5.041   3.193
 1159SOL    HW2 4377   5.191   5.042   3.167
 1160SOL     OW 4378   3.047   3.409   0.221
 1160SOL    HW1 4379   3.143   3.430   0.237
 1160SOL    HW2 4380   3.011   3.356   0.297
 1161SOL     OW 4381   4.855   0.346   3.861
 1161SOL    HW1 4382   4.919   0.421   3.848
 1161SOL    HW2 4383   4.810   0.325   3.774
 1162SOL     OW 4384   3.670   4.235   1.907
 1162SOL    HW1 4385   3.574   4.241   1.881
 1162SOL    HW2 4386   3.683   4.277   1.997
 1163SOL     OW 4387   4.904   2.551   2.876
 1163SOL    HW1 4388   4.952   2.468   2.847
 1163SOL    HW2 4389   4.890   2.611   2.798
 1164SOL     OW 4390   5.825   3.277   3.490
 1164SOL    HW1 4391   5.855   3.320   3.575
 1164SOL    HW2 4392   5.903   3.236   3.444
 1165SOL     OW 4393   1.282   4.998   2.285
 1165SOL    HW1 4394   1.298   4.998   2.186
 1165SOL    HW2 4395   1.336   4.925   2.327
 1166SOL     OW 4396   3.943   2.991   6.883
 1166SOL    HW1 4397   4.042   2.981   6.883
 1166SOL    HW2 4398   3.901   2.909   6.845
 1167SOL     OW 4399   4.943   1.232   5.220
 1167SOL    HW1 4400   4.897   1.256   5.306
 1167SOL    HW2 4401   5.029   1.281   5.213
 1168SOL     OW 4402   5.949   6.080   3.644
 1168SOL    HW1 4403   5.920   6.016   3.714
 1168SOL    HW2 4404   6.049   6.083   3.640
 1169SOL     OW 4405   1.059   3.478   1.765
 1169SOL    HW1 4406   1.148   3.518   1.744
 1169SOL    HW2 4407   1.005   3.542   1.819
 1170SOL     OW 4408   2.897   0.401   1.074
 1170SOL    HW1 4409   2.829   0.349   1.023
 1170SOL    HW2 4410   2.870   0.498   1.077
 1171SOL     OW 4411   2.072   6.457   0.476
 1171SOL    HW1 4412   1.993   6.478   0.535
 1171SOL    HW2 4413   2.138   6.403   0.527
 1172SOL     OW 4414   3.214   3.632   5.246
 1172SOL    HW1 4415   3.208   3.559   5.315
 1172SOL    HW2 4416   3.196   3.594   5.156
 1173SOL     OW 4417   4.286   1.109   6.119
 1173SOL    HW1 4418   4.321   1.199   6.147
 1173SOL    HW2 4419   4.321   1.039   6.181
 1174SOL     OW 4420   3.241   6.277   0.889
 1174SOL    HW1 4421   3.168   6.334   0.852
 1174SOL    HW2 4422   3.250   6.194   0.833
 1175SOL     OW 4423   6.227   4.648   6.052
 1175SOL    HW1 4424   6.222   4.627   6.150
 1175SOL    HW2 4425   6.139   4.627   6.009
 1176SOL     OW 4426   6.183   3.918   0.798
 1176SOL    HW1 4427   6.195   4.008   0.840
 1176SOL    HW2 4428   6.269   3.868   0.798
 1177SOL     OW 4429   6.292   2.629   6.674
 1177SOL    HW1 4430   6.297   2.568   6.596
 1177SOL    HW2 4431   6.197   2.646   6.698
 1178SOL     OW 4432   5.362   4.630   2.114
 1178SOL    HW1 4433   5.428   4.657   2.044
 1178SOL    HW2 4434   5.404   4.563   2.175
 1179SOL     OW 4435   2.612   6.049   6.155
 1179SOL    HW1 4436   2.584   6.010   6.243
 1179SOL    HW2 4437   2.701   6.094   6.165
 1180SOL     OW 4438   2.175   1.675   4.353
 1180SOL    HW1 4439   2.155   1.715   4.264
 1180SOL    HW2 4440   2.274   1.668   4.366
 1181SOL     OW 4441   2.448   4.484   2.753
 1181SOL    HW1 4442   2.402   4.442   2.832
 1181SOL    HW2 4443   2.449   4.420   2.677
 1182SOL     OW 4444   1.517   3.974   2.954
 1182SOL    HW1 4445   1.609   3.953   2.987
 1182SOL    HW2 4446   1.450   3.941   3.020
 1183SOL     OW 4447   4.859   5.981   1.470
 1183SOL    HW1 4448   4.909   5.952   1.552
 1183SOL    HW2 4449   4.791   5.912   1.446
 1184SOL     OW 4450   2.993   3.122   5.321
 1184SOL    HW1 4451   2.908   3.130   5.373
 1184SOL    HW2 4452   3.005   3.027   5.292
 1185SOL     OW 4453   1.992   1.513   6.476
 1185SOL    HW1 4454   1.969   1.431   6.423
 1185SOL    HW2 4455   1.940   1.512   6.562
 1186SOL     OW 4456   4.116   1.478   4.948
 1186SOL    HW1 4457   4.179   1.407   4.918
 1186SOL    HW2 4458   4.030   1.436   4.978
 1187SOL     OW 4459   6.917   0.705   5.359
 1187SOL    HW1 4460   6.847   0.641   5.391
 1187SOL    HW2 4461   6.979   0.658   5.295
 1188SOL     OW 4462   1.029   0.027   5.885
 1188SOL    HW1 4463   1.079   6.982   5.832
 1188SOL    HW2 4464   0.938   0.039   5.847
 1189SOL     OW 4465   6.098   1.133   1.474
 1189SOL    HW1 4466   6.168   1.106   1.540
 1189SOL    HW2 4467   6.017   1.075   1.485
 1190SOL     OW 4468   4.132   5.024   3.142
 1190SOL    HW1 4469   4.119   5.065   3.233
 1190SOL    HW2 4470   4.055   5.047   3.083
 1191SOL     OW 4471   3.333   5.173   6.854
 1191SOL    HW1 4472   3.405   5.106   6.876
 1191SOL    HW2 4473   3.326   5.183   6.754
 1192SOL     OW 4474   4.660   5.046   2.661
 1192SOL    HW1 4475   4.612   4.982   2.601
 1192SOL    HW2 4476   4.696   5.122   2.606
 1193SOL     OW 4477   4.389   0.527   3.596
 1193SOL    HW1 4478   4.448   0.477   3.533
 1193SOL    HW2 4479   4.446   0.577   3.662
 1194SOL     OW 4480   5.974   0.305   0.833
 1194SOL    HW1 4481   6.023   0.218   0.847
 1194SOL    HW2 4482   5.875   0.288   0.835
 1195SOL     OW 4483   4.338   0.877   6.239
 1195SOL    HW1 4484   4.378   0.900   6.327
 1195SOL    HW2 4485   4.241   0.857   6.251
 1196SOL     OW 4486   0.393   5.256   2.227
 1196SOL    HW1 4487   0.383   5.177   2.168
 1196SOL    HW2 4488   0.303   5.292   2.251
 1197SOL     OW 4489   3.124   5.091   6.128
 1197SOL    HW1 4490   3.176   5.051   6.052
 1197SOL    HW2 4491   3.097   5.018   6.191
 1198SOL     OW 4492   3.000   1.864   3.217
 1198SOL    HW1 4493   3.051   1.948   3.232
 1198SOL    HW2 4494   3.051   1.804   3.155
 1199SOL     OW 4495   3.851   3.889   3.096
 1199SOL    HW1 4496   3.802   3.835   3.028
 1199SOL    HW2 4497   3.944   3.853   3.108
 1200SOL     OW 4498   3.354   4.253   6.953
 1200SOL    HW1 4499   3.290   4.327   6.937
 1200SOL    HW2 4500   3.405   4.270   0.015
 1201SOL     OW 4501   1.220   0.662   5.114
 1201SOL    HW1 4502   1.129   0.665   5.155
 1201SOL    HW2 4503   1.272   0.743   5.140
 1202SOL     OW 4504   5.978   6.762   4.780
 1202SOL    HW1 4505   6.061   6.707   4.771
 1202SOL    HW2 4506   6.002   6.854   4.811
 1203SOL     OW 4507   6.090   0.071   1.880
 1203SOL    HW1 4508   6.165   0.124   1.919
 1203SOL    HW2 4509   6.113   0.045   1.786
 1204SOL     OW 4510   3.056   0.217   0.635
 1204SOL    HW1 4511   3.129   0.216   0.566
 1204SOL    HW2 4512   3.068   0.295   0.696
 1205SOL     OW 4513   0.630   2.663   5.366
 1205SOL    HW1 4514   0.725   2.641   5.344
 1205SOL    HW2 4515   0.625   2.756   5.402
 1206SOL     OW 4516   1.285   1.338   4.805
 1206SOL    HW1 4517   1.222   1.415   4.816
 1206SOL    HW2 4518   1.361   1.365   4.746
 1207SOL     OW 4519   5.648   6.420   7.021
 1207SOL    HW1 4520   5.718   6.394   6.954
 1207SOL    HW2 4521   5.658   6.517   0.021
 1208SOL     OW 4522   3.797   3.324   3.514
 1208SOL    HW1 4523   3.874   3.303   3.575
 1208SOL    HW2 4524   3.770   3.241   3.465
 1209SOL     OW 4525   6.137   5.287   4.146
 1209SOL    HW1 4526   6.107   5.220   4.214
 1209SOL    HW2 4527   6.141   5.243   4.057
 1210SOL     OW 4528   3.415   6.767   2.479
 1210SOL    HW1 4529   3.505   6.729   2.497
 1210SOL    HW2 4530   3.403   6.851   2.532
 1211SOL     OW 4531   1.101   4.042   4.753
 1211SOL    HW1 4532   1.199   4.060   4.762
 1211SOL    HW2 4533   1.059   4.033   4.843
 1212SOL     OW 4534   2.112   3.848   4.619
 1212SOL    HW1 4535   2.158   3.767   4.583
 1212SOL    HW2 4536   2.017   3.849   4.586
 1213SOL     OW 4537   5.796   2.509   5.489
 1213SOL    HW1 4538   5.724   2.536   5.424
 1213SOL    HW2 4539   5.798   2.573   5.565
 1214SOL     OW 4540   2.309   2.683   3.473
 1214SOL    HW1 4541   2.308   2.758   3.407
 1214SOL    HW2 4542   2.227   2.627   3.462
 1215SOL     OW 4543   0.665   5.074   1.714
 1215SOL    HW1 4544   0.655   5.084   1.615
 1215SOL    HW2 4545   0.760   5.092   1.740
 1216SOL     OW 4546   2.714   0.080   2.143
 1216SOL    HW1 4547   2.764   0.072   2.057
 1216SOL    HW2 4548   2.756   0.150   2.199
 1217SOL     OW 4549   1.450   0.786   2.581
 1217SOL    HW1 4550   1.354   0.812   2.574
 1217SOL    HW2 4551   1.486   0.813   2.670
 1218SOL     OW 4552   0.780   3.544   3.651
 1218SOL    HW1 4553   0.794   3.577   3.557
 1218SOL    HW2 4554   0.682   3.543   3.671
 1219SOL     OW 4555   3.209   6.005   2.661
 1219SOL    HW1 4556   3.151   6.070   2.710
 1219SOL    HW2 4557   3.151   5.946   2.604
 1220SOL     OW 4558   6.500   3.538   2.750
 1220SOL    HW1 4559   6.547   3.530   2.838
 1220SOL    HW2 4560   6.401   3.539   2.765
 1221SOL     OW 4561   4.560   3.073   0.233
 1221SOL    HW1 4562   4.462   3.067   0.249
 1221SOL    HW2 4563   4.577   3.102   0.139
 1222SOL     OW 4564   6.646   6.156   1.290
 1222SOL    HW1 4565   6.581   6.183   1.218
 1222SOL    HW2 4566   6.735   6.195   1.270
 1223SOL     OW 4567   6.268   6.225   5.170
 1223SOL    HW1 4568   6.285   6.126   5.176
 1223SOL    HW2 4569   6.184   6.248   5.218
 1224SOL     OW 4570   5.545   5.047   2.163
 1224SOL    HW1 4571   5.554   5.146   2.173
 1224SOL    HW2 4572   5.518   5.026   2.069
 1225SOL     OW 4573   5.073   1.668   0.137
 1225SOL    HW1 4574   5.021   1.583   0.136
 1225SOL    HW2 4575   5.023   1.739   0.088
 1226SOL     OW 4576   5.456   5.051   0.810
 1226SOL    HW1 4577   5.418   5.142   0.789
 1226SOL    HW2 4578   5.555   5.054   0.802
 1227SOL     OW 4579   5.118   4.085   6.576
 1227SOL    HW1 4580   5.077   4.082   6.667
 1227SOL    HW2 4581   5.170   4.170   6.565
 1228SOL     OW 4582   3.449   3.315   3.362
 1228SOL    HW1 4583   3.546   3.315   3.335
 1228SOL    HW2 4584   3.436   3.250   3.437
 1229SOL     OW 4585   1.888   5.267   2.867
 1229SOL    HW1 4586   1.956   5.280   2.939
 1229SOL    HW2 4587   1.872   5.353   2.820
 1230SOL     OW 4588   5.629   4.727   1.630
 1230SOL    HW1 4589   5.603   4.776   1.546
 1230SOL    HW2 4590   5.600   4.779   1.710
 1231SOL     OW 4591   1.818   1.782   6.709
 1231SOL    HW1 4592   1.864   1.868   6.688
 1231SOL    HW2 4593   1.877   1.706   6.682
 1232SOL     OW 4594   2.944   0.638   5.700
 1232SOL    HW1 4595   2.981   0.560   5.648
 1232SOL    HW2 4596   2.904   0.605   5.785
 1233SOL     OW 4597   1.163   5.587   5.469
 1233SOL    HW1 4598   1.190   5.559   5.377
 1233SOL    HW2 4599   1.167   5.508   5.531
 1234SOL     OW 4600   0.272   3.404   0.550
 1234SOL    HW1 4601   0.203   3.332   0.547
 1234SOL    HW2 4602   0.278   3.440   0.644
 1235SOL     OW 4603   6.214   4.680   1.259
 1235SOL    HW1 4604   6.125   4.646   1.228
 1235SOL    HW2 4605   6.234   4.767   1.215
 1236SOL     OW 4606   1.833   1.490   2.681
 1236SOL    HW1 4607   1.744   1.450   2.661
 1236SOL    HW2 4608   1.904   1.435   2.638
 1237SOL     OW 4609   0.372   0.226   5.299
 1237SOL    HW1 4610   0.423   0.248   5.383
 1237SOL    HW2 4611   0.283   0.272   5.303
 1238SOL     OW 4612   0.606   0.480   4.341
 1238SOL    HW1 4613   0.686   0.505   4.396
 1238SOL    HW2 4614   0.558   0.403   4.385
 1239SOL     OW 4615   5.372   5.185   4.997
 1239SOL    HW1 4616   5.423   5.138   4.926
 1239SOL    HW2 4617   5.339   5.119   5.064
 1240SOL     OW 4618   6.912   4.114   2.666
 1240SOL    HW1 4619   6.845   4.127   2.739
 1240SOL    HW2 4620   6.900   4.186   2.597
 1241SOL     OW 4621   4.915   4.845   5.208
 1241SOL    HW1 4622   4.902   4.928   5.155
 1241SOL    HW2 4623   4.916   4.766   5.147
 1242SOL     OW 4624   1.209   5.128   0.218
 1242SOL    HW1 4625   1.193   5.040   0.174
 1242SOL    HW2 4626   1.164   5.200   0.166
 1243SOL     OW 4627   1.324   4.313   4.796
 1243SOL    HW1 4628   1.406   4.368   4.777
 1243SOL    HW2 4629   1.263   4.365   4.856
 1244SOL     OW 4630   5.954   0.144   5.447
 1244SOL    HW1 4631   6.005   0.061   5.423
 1244SOL    HW2 4632   5.930   0.194   5.363
 1245SOL     OW 4633   4.832   6.851   0.804
 1245SOL    HW1 4634   4.806   6.918   0.875
 1245SOL    HW2 4635   4.859   6.900   0.721
 1246SOL     OW 4636   5.126   0.698   0.132
 1246SOL    HW1 4637   5.137   0.795   0.114
 1246SOL    HW2 4638   5.029   0.675   0.133
 1247SOL     OW 4639   6.833   0.189   3.032
 1247SOL    HW1 4640   6.880   0.178   3.119
 1247SOL    HW2 4641   6.845   0.283   2.998
 1248SOL     OW 4642   1.330   6.462   4.236
 1248SOL    HW1 4643   1.377   6.492   4.154
 1248SOL    HW2 4644   1.275   6.381   4.216
 1249SOL     OW 4645   5.646   5.805   6.943
 1249SOL    HW1 4646   5.671   5.770   0.010
 1249SOL    HW2 4647   5.569   5.752   6.907
 1250SOL     OW 4648   6.840   3.105   5.067
 1250SOL    HW1 4649   6.780   3.030   5.037
 1250SOL    HW2 4650   6.896   3.074   5.144
 1251SOL     OW 4651   3.183   0.767   2.721
 1251SOL    HW1 4652   3.172   0.783   2.623
 1251SOL    HW2 4653   3.115   0.820   2.771
 1252SOL     OW 4654   1.788   6.207   6.570
 1252SOL    HW1 4655   1.861   6.258   6.526
 1252SOL    HW2 4656   1.814   6.111   6.578
 1253SOL     OW 4657   3.170   0.865   0.616
 1253SOL    HW1 4658   3.226   0.833   0.539
 1253SOL    HW2 4659   3.178   0.800   0.692
 1254SOL     OW 4660   6.051   0.598   2.603
 1254SOL    HW1 4661   5.975   0.637   2.655
 1254SOL    HW2 4662   6.073   0.508   2.640
 1255SOL     OW 4663   5.871   1.460   5.669
 1255SOL    HW1 4664   5.966   1.443   5.645
 1255SOL    HW2 4665   5.811   1.400   5.616
 1256SOL     OW 4666   1.064   5.263   4.023
 1256SOL    HW1 4667   1.141   5.209   3.988
 1256SOL    HW2 4668   0.978   5.215   4.004
 1257SOL     OW 4669   0.842   6.530   4.031
 1257SOL    HW1 4670   0.927   6.508   3.982
 1257SOL    HW2 4671   0.864   6.567   4.121
 1258SOL     OW 4672   4.555   6.492   4.889
 1258SOL    HW1 4673   4.524   6.499   4.794
 1258SOL    HW2 4674   4.489   6.538   4.949
 1259SOL     OW 4675   6.040   0.253   4.318
 1259SOL    HW1 4676   6.095   0.273   4.237
 1259SOL    HW2 4677   6.086   0.182   4.372
 1260SOL     OW 4678   2.395   1.017   1.580
 1260SOL    HW1 4679   2.465   1.044   1.513
 1260SOL    HW2 4680   2.326   1.089   1.587
 1261SOL     OW 4681   6.317   4.266   6.086
 1261SOL    HW1 4682   6.222   4.297   6.089
 1261SOL    HW2 4683   6.324   4.189   6.023
 1262SOL     OW 4684   4.267   4.971   0.610
 1262SOL    HW1 4685   4.233   4.881   0.582
 1262SOL    HW2 4686   4.322   5.011   0.536
 1263SOL     OW 4687   6.704   1.936   1.294
 1263SOL    HW1 4688   6.735   1.872   1.364
 1263SOL    HW2 4689   6.782   1.983   1.255
 1264SOL     OW 4690   0.522   3.470   3.680
 1264SOL    HW1 4691   0.573   3.387   3.705
 1264SOL    HW2 4692   0.472   3.454   3.596
 1265SOL     OW 4693   6.683   5.437   4.744
 1265SOL    HW1 4694   6.731   5.418   4.830
 1265SOL    HW2 4695   6.714   5.524   4.707
 1266SOL     OW 4696   1.995   1.821   4.698
 1266SOL    HW1 4697   2.042   1.759   4.761
 1266SOL    HW2 4698   2.017   1.796   4.604
 1267SOL     OW 4699   6.975   5.150   2.521
 1267SOL    HW1 4700   6.963   5.151   2.620
 1267SOL    HW2 4701   0.042   5.186   2.498
 1268SOL     OW 4702   6.691   2.983   0.169
 1268SOL    HW1 4703   6.695   2.971   0.268
 1268SOL    HW2 4704   6.603   3.025   0.144
 1269SOL     OW 4705   6.891   5.753   5.765
 1269SOL    HW1 4706   6.950   5.693   5.709
 1269SOL    HW2 4707   6.948   5.810   5.823
 1270SOL     OW 4708   1.732   3.210   4.580
 1270SOL    HW1 4709   1.731   3.234   4.483
 1270SOL    HW2 4710   1.638   3.213   4.616
 1271SOL     OW 4711   4.973   0.990   3.134
 1271SOL    HW1 4712   4.933   1.056   3.070
 1271SOL    HW2 4713   4.907   0.969   3.206
 1272SOL     OW 4714   0.734   6.491   1.578
 1272SOL    HW1 4715   0.784   6.546   1.645
 1272SOL    HW2 4716   0.654   6.451   1.621
 1273SOL     OW 4717   2.958   6.539   6.328
 1273SOL    HW1 4718   2.939   6.554   6.231
 1273SOL    HW2 4719   2.877   6.561   6.382
 1274SOL     OW 4720   6.827   2.476   1.781
 1274SOL    HW1 4721   6.782   2.405   1.835
 1274SOL    HW2 4722   6.888   2.529   1.840
 1275SOL     OW 4723   3.241   2.163   4.234
 1275SOL    HW1 4724   3.283   2.166   4.325
 1275SOL    HW2 4725   3.169   2.232   4.229
 1276SOL     OW 4726   6.658   0.369   3.557
 1276SOL    HW1 4727   6.560   0.387   3.573
 1276SOL    HW2 4728   6.691   0.301   3.623
 1277SOL     OW 4729   0.475   0.997   4.909
 1277SOL    HW1 4730   0.384   0.959   4.927
 1277SOL    HW2 4731   0.466   1.084   4.861
 1278SOL     OW 4732   2.111   1.703   5.927
 1278SOL    HW1 4733   2.086   1.775   5.991
 1278SOL    HW2 4734   2.122   1.617   5.976
 1279SOL     OW 4735   2.573   5.612   6.941
 1279SOL    HW1 4736   2.625   5.658   6.869
 1279SOL    HW2 4737   2.636   5.563   7.002
 1280SOL     OW 4738   2.033   0.096   3.364
 1280SOL    HW1 4739   2.032   0.163   3.289
 1280SOL    HW2 4740   2.095   0.022   3.341
 1281SOL     OW 4741   1.161   6.101   3.549
 1281SOL    HW1 4742   1.076   6.052   3.565
 1281SOL    HW2 4743   1.159   6.188   3.598
 1282SOL     OW 4744   0.642   0.468   2.189
 1282SOL    HW1 4745   0.664   0.380   2.148
 1282SOL    HW2 4746   0.722   0.504   2.237
 1283SOL     OW 4747   5.281   5.481   6.233
 1283SOL    HW1 4748   5.282   5.383   6.252
 1283SOL    HW2 4749   5.260   5.530   6.318
 1284SOL     OW 4750   2.603   2.421   1.952
 1284SOL    HW1 4751   2.551   2.396   2.033
 1284SOL    HW2 4752   2.701   2.410   1.971
 1285SOL     OW 4753   4.476   2.412   5.434
 1285SOL    HW1 4754   4.407   2.396   5.504
 1285SOL    HW2 4755   4.567   2.412   5.476
 1286SOL     OW 4756   5.930   5.084   1.476
 1286SOL    HW1 4757   5.851   5.146   1.483
 1286SOL    HW2 4758   5.931   5.022   1.554
 1287SOL     OW 4759   6.919   5.355   6.690
 1287SOL    HW1 4760   6.873   5.357   6.779
 1287SOL    HW2 4761   6.873   5.418   6.627
 1288SOL     OW 4762   6.362   3.392   2.181
 1288SOL    HW1 4763   6.307   3.353   2.107
 1288SOL    HW2 4764   6.304   3.449   2.239
 1289SOL     OW 4765   0.335   6.067   2.517
 1289SOL    HW1 4766   0.298   6.075   2.609
 1289SOL    HW2 4767   0.312   5.978   2.479
 1290SOL     OW 4768   0.716   6.472   1.294
 1290SOL    HW1 4769   0.735   6.456   1.391
 1290SOL    HW2 4770   0.748   6.563   1.268
 1291SOL     OW 4771   2.490   6.201   6.892
 1291SOL    HW1 4772   2.512   6.279   6.951
 1291SOL    HW2 4773   2.514   6.116   6.938
 1292SOL     OW 4774   1.124   5.980   0.718
 1292SOL    HW1 4775   1.048   6.028   0.673
 1292SOL    HW2 4776   1.211   6.012   0.678
 1293SOL     OW 4777   0.030   2.037   6.195
 1293SOL    HW1 4778   6.998   2.112   6.232
 1293SOL    HW2 4779   0.076   1.990   6.270
 1294SOL     OW 4780   0.944   2.077   2.230
 1294SOL    HW1 4781   0.846   2.086   2.245
 1294SOL    HW2 4782   0.993   2.112   2.311
 1295SOL     OW 4783   6.239   3.233   1.422
 1295SOL    HW1 4784   6.198   3.143   1.436
 1295SOL    HW2 4785   6.319   3.242   1.481
 1296SOL     OW 4786   3.693   2.107   5.726
 1296SOL    HW1 4787   3.669   2.031   5.666
 1296SOL    HW2 4788   3.708   2.189   5.670
 1297SOL     OW 4789   6.270   1.368   6.065
 1297SOL    HW1 4790   6.346   1.313   6.031
 1297SOL    HW2 4791   6.282   1.463   6.036
 1298SOL     OW 4792   5.476   3.017   3.121
 1298SOL    HW1 4793   5.415   3.096   3.108
 1298SOL    HW2 4794   5.422   2.933   3.119
 1299SOL     OW 4795   0.737   4.130   4.184
 1299SOL    HW1 4796   0.808   4.188   4.225
 1299SOL    HW2 4797   0.779   4.050   4.141
 1300SOL     OW 4798   3.157   3.089   1.525
 1300SOL    HW1 4799   3.100   3.094   1.606
 1300SOL    HW2 4800   3.246   3.130   1.544
 1301SOL     OW 4801   1.164   0.331   3.271
 1301SOL    HW1 4802   1.116   0.261   3.217
 1301SOL    HW2 4803   1.120   0.340   3.361
 1302SOL     OW 4804   3.124   6.171   4.980
 1302SOL    HW1 4805   3.051   6.187   5.046
 1302SOL    HW2 4806   3.139   6.073   4.969
 1303SOL     OW 4807   3.941   1.849   1.342
 1303SOL    HW1 4808   3.996   1.917   1.391
 1303SOL    HW2 4809   3.861   1.824   1.397
 1304SOL     OW 4810   2.999   0.670   6.929
 1304SOL    HW1 4811   2.929   0.740   6.918
 1304SOL    HW2 4812   3.006   0.643   0.002
 1305SOL     OW 4813   4.724   6.905   5.087
 1305SOL    HW1 4814   4.718   6.856   5.000
 1305SOL    HW2 4815   4.812   6.884   5.131
 1306SOL     OW 4816   0.693   4.417   4.354
 1306SOL    HW1 4817   0.673   4.359   4.433
 1306SOL    HW2 4818   0.779   4.388   4.312
 1307SOL     OW 4819   1.315   2.285   4.669
 1307SOL    HW1 4820   1.405   2.249   4.642
 1307SOL    HW2 4821   1.324   2.381   4.694
 1308SOL     OW 4822   4.873   5.901   3.226
 1308SOL    HW1 4823   4.844   5.985   3.179
 1308SOL    HW2 4824   4.961   5.870   3.189
 1309SOL     OW 4825   6.198   2.488   4.749
 1309SOL    HW1 4826   6.146   2.571   4.729
 1309SOL    HW2 4827   6.264   2.508   4.822
 1310SOL     OW 4828   5.193   3.672   4.970
 1310SOL    HW1 4829   5.163   3.602   5.035
 1310SOL    HW2 4830   5.119   3.694   4.907
 1311SOL     OW 4831   6.238   5.937   5.227
 1311SOL    HW1 4832   6.293   5.897   5.153
 1311SOL    HW2 4833   6.145   5.901   5.223
 1312SOL     OW 4834   0.797   6.428   0.548
 1312SOL    HW1 4835   0.881   6.478   0.530
 1312SOL    HW2 4836   0.778   6.365   0.472
 1313SOL     OW 4837   3.623   5.465   4.883
 1313SOL    HW1 4838   3.575   5.424   4.961
 1313SOL    HW2 4839   3.600   5.416   4.800
 1314SOL     OW 4840   0.159   1.543   5.068
 1314SOL    HW1 4841   0.151   1.494   5.155
 1314SOL    HW2 4842   0.142   1.640   5.082
 1315SOL     OW 4843   2.264   1.362   2.549
 1315SOL    HW1 4844   2.295   1.432   2.613
 1315SOL    HW2 4845   2.343   1.311   2.514
 1316SOL     OW 4846   3.151   6.574   3.177
 1316SOL    HW1 4847   3.142   6.480   3.210
 1316SOL    HW2 4848   3.198   6.574   3.089
 1317SOL     OW 4849   0.101   5.736   3.980
 1317SOL    HW1 4850   0.110   5.644   3.942
 1317SOL    HW2 4851   0.191   5.780   3.982
 1318SOL     OW 4852   0.274   6.516   0.492
 1318SOL    HW1 4853   0.230   6.503   0.580
 1318SOL    HW2 4854   0.270   6.613   0.466
 1319SOL     OW 4855   6.356   1.136   6.448
 1319SOL    HW1 4856   6.291   1.153   6.522
 1319SOL    HW2 4857   6.336   1.048   6.406
 1320SOL     OW 4858   5.219   5.628   6.462
 1320SOL    HW1 4859   5.179   5.582   6.541
 1320SOL    HW2 4860   5.184   5.722   6.457
 1321SOL     OW 4861   3.466   2.869   6.633
 1321SOL    HW1 4862   3.409   2.788   6.643
 1321SOL    HW2 4863   3.520   2.882   6.716
 1322SOL     OW 4864   6.246   1.606   4.353
 1322SOL    HW1 4865   6.334   1.565   4.330
 1322SOL    HW2 4866   6.196   1.628   4.270
 1323SOL     OW 4867   6.525   1.653   4.923
 1323SOL    HW1 4868   6.540   1.748   4.898
 1323SOL    HW2 4869   6.509   1.646   5.021
 1324SOL     OW 4870   1.522   3.416   1.119
 1324SOL    HW1 4871   1.582   3.492   1.097
 1324SOL    HW2 4872   1.431   3.451   1.143
 1325SOL     OW 4873   2.985   5.983   2.234
 1325SOL    HW1 4874   3.016   6.060   2.291
 1325SOL    HW2 4875   3.034   5.900   2.260
 1326SOL     OW 4876   5.361   3.472   4.713
 1326SOL    HW1 4877   5.286   3.435   4.770
 1326SOL    HW2 4878   5.356   3.571   4.712
 1327SOL     OW 4879   3.873   5.389   3.011
 1327SOL    HW1 4880   3.879   5.377   3.110
 1327SOL    HW2 4881   3.777   5.390   2.983
 1328SOL     OW 4882   2.178   2.667   6.541
 1328SOL    HW1 4883   2.207   2.706   6.629
 1328SOL    HW2 4884   2.125   2.584   6.558
 1329SOL     OW 4885   0.477   0.445   0.531
 1329SOL    HW1 4886   0.555   0.499   0.499
 1329SOL    HW2 4887   0.392   0.487   0.498
 1330SOL     OW 4888   5.838   6.624   1.275
 1330SOL    HW1 4889   5.781   6.628   1.357
 1330SOL    HW2 4890   5.932   6.602   1.302
 1331SOL     OW 4891   5.490   0.159   2.209
 1331SOL    HW1 4892   5.533   0.083   2.258
 1331SOL    HW2 4893   5.437   0.124   2.132
 1332SOL     OW 4894   4.395   1.351   1.424
 1332SOL    HW1 4895   4.485   1.390   1.406
 1332SOL    HW2 4896   4.324   1.416   1.395
 1333SOL     OW 4897   3.943   4.333   5.267
 1333SOL    HW1 4898   4.028   4.286   5.243
 1333SOL    HW2 4899   3.965   4.417   5.317
 1334SOL     OW 4900   6.990   3.906   4.456
 1334SOL    HW1 4901   6.943   3.917   4.543
 1334SOL    HW2 4902   0.020   3.989   4.436
 1335SOL     OW 4903   2.720   4.993   3.133
 1335SOL    HW1 4904   2.633   4.947   3.143
 1335SOL    HW2 4905   2.786   4.931   3.091
 1336SOL     OW 4906   0.507   0.654   5.092
 1336SOL    HW1 4907   0.490   0.706   5.177
 1336SOL    HW2 4908   0.586   0.694   5.045
 1337SOL     OW 4909   2.212   2.005   6.338
 1337SOL    HW1 4910   2.273   1.981   6.262
 1337SOL    HW2 4911   2.201   1.926   6.398
 1338SOL     OW 4912   3.992   5.561   0.397
 1338SOL    HW1 4913   4.038   5.480   0.360
 1338SOL    HW2 4914   4.017   5.574   0.492
 1339SOL     OW 4915   6.565   4.017   5.578
 1339SOL    HW1 4916   6.488   4.023   5.643
 1339SOL    HW2 4917   6.560   3.931   5.528
 1340SOL     OW 4918   1.510   2.012   6.798
 1340SOL    HW1 4919   1.477   2.058   6.880
 1340SOL    HW2 4920   1.603   2.041   6.778
 1341SOL     OW 4921   3.718   1.064   3.871
 1341SOL    HW1 4922   3.729   0.991   3.939
 1341SOL    HW2 4923   3.704   1.151   3.917
 1342SOL     OW 4924   0.228   6.341   0.903
 1342SOL    HW1 4925   0.184   6.251   0.911
 1342SOL    HW2 4926   0.327   6.330   0.909
 1343SOL     OW 4927   4.311   5.078   3.436
 1343SOL    HW1 4928   4.211   5.084   3.434
 1343SOL    HW2 4929   4.349   5.117   3.352
 1344SOL     OW 4930   6.414   1.217   2.765
 1344SOL    HW1 4931   6.353   1.281   2.717
 1344SOL    HW2 4932   6.456   1.155   2.698
 1345SOL     OW 4933   0.356   6.992   3.583
 1345SOL    HW1 4934   0.282   6.968   3.520
 1345SOL    HW2 4935   0.354   6.931   3.662
 1346SOL     OW 4936   0.322   0.899   4.202
 1346SOL    HW1 4937   0.388   0.824   4.193
 1346SOL    HW2 4938   0.245   0.881   4.140
 1347SOL     OW 4939   5.971   0.415   3.125
 1347SOL    HW1 4940   6.065   0.419   3.158
 1347SOL    HW2 4941   5.924   0.501   3.147
 1348SOL     OW 4942   5.532   4.779   5.160
 1348SOL    HW1 4943   5.458   4.827   5.112
 1348SOL    HW2 4944   5.499   4.689   5.189
 1349SOL     OW 4945   3.930   3.246   6.749
 1349SOL    HW1 4946   3.985   3.180   6.799
 1349SOL    HW2 4947   3.851   3.273   6.804
 1350SOL     OW 4948   3.057   0.657   6.475
 1350SOL    HW1 4949   3.006   0.743   6.479
 1350SOL    HW2 4950   3.043   0.607   6.561
 1351SOL     OW 4951   0.572   0.766   4.291
 1351SOL    HW1 4952   0.547   0.803   4.381
 1351SOL    HW2 4953   0.555   0.667   4.291
 1352SOL     OW 4954   0.284   0.982   3.418
 1352SOL    HW1 4955   0.378   1.015   3.414
 1352SOL    HW2 4956   0.225   1.043   3.366
 1353SOL     OW 4957   1.284   4.196   3.919
 1353SOL    HW1 4958   1.249   4.281   3.958
 1353SOL    HW2 4959   1.243   4.182   3.829
 1354SOL     OW 4960   0.258   6.623   2.220
 1354SOL    HW1 4961   0.174   6.671   2.194
 1354SOL    HW2 4962   0.285   6.651   2.312
 1355SOL     OW 4963   4.474   2.933   6.896
 1355SOL    HW1 4964   4.526   3.015   6.920
 1355SOL    HW2 4965   4.512   2.893   6.812
 1356SOL     OW 4966   2.999   3.882   2.864
 1356SOL    HW1 4967   2.994   3.903   2.766
 1356SOL    HW2 4968   2.946   3.800   2.884
 1357SOL     OW 4969   2.772   3.004   5.483
 1357SOL    HW1 4970   2.829   2.941   5.430
 1357SOL    HW2 4971   2.759   2.967   5.575
 1358SOL     OW 4972   1.957   1.885   6.126
 1358SOL    HW1 4973   1.885   1.954   6.125
 1358SOL    HW2 4974   2.009   1.892   6.211
 1359SOL     OW 4975   6.000   1.514   0.039
 1359SOL    HW1 4976   6.048   1.574   6.998
 1359SOL    HW2 4977   5.998   1.558   0.129
 1360SOL     OW 4978   3.616   3.617   4.194
 1360SOL    HW1 4979   3.544   3.655   4.136
 1360SOL    HW2 4980   3.674   3.557   4.140
 1361SOL     OW 4981   0.914   5.990   0.459
 1361SOL    HW1 4982   0.908   6.062   0.528
 1361SOL    HW2 4983   0.854   5.914   0.484
 1362SOL     OW 4984   2.443   3.452   5.911
 1362SOL    HW1 4985   2.509   3.380   5.933
 1362SOL    HW2 4986   2.455   3.529   5.974
 1363SOL     OW 4987   5.831   6.362   2.094
 1363SOL    HW1 4988   5.807   6.452   2.057
 1363SOL    HW2 4989   5.748   6.311   2.114
 1364SOL     OW 4990   6.802   3.347   1.672
 1364SOL    HW1 4991   6.779   3.443   1.686
 1364SOL    HW2 4992   6.775   3.295   1.754
 1365SOL     OW 4993   0.847   4.023   5.978
 1365SOL    HW1 4994   0.786   3.993   6.051
 1365SOL    HW2 4995   0.904   3.945   5.948
 1366SOL     OW 4996   5.923   0.862   0.502
 1366SOL    HW1 4997   5.917   0.953   0.543
 1366SOL    HW2 4998   5.838   0.812   0.521
 1367SOL     OW 4999   0.971   5.687   4.499
 1367SOL    HW1 5000   1.020   5.690   4.586
 1367SOL    HW2 5001   0.955   5.592   4.473
 1368SOL     OW 5002   0.605   6.167   5.521
 1368SOL    HW1 5003   0.629   6.077   5.559
 1368SOL    HW2 5004   0.562   6.155   5.431
 1369SOL     OW 5005   2.615   6.646   3.179
 1369SOL    HW1 5006   2.571   6.656   3.268
 1369SOL    HW2 5007   2.669   6.562   3.178
 1370SOL     OW 5008   6.501   2.241   2.756
 1370SOL    HW1 5009   6.429   2.248   2.825
 1370SOL    HW2 5010   6.461   2.240   2.665
 1371SOL     OW 5011   6.066   1.873   5.050
 1371SOL    HW1 5012   6.031   1.967   5.059
 1371SOL    HW2 5013   6.077   1.851   4.953
 1372SOL     OW 5014   6.631   2.343   0.081
 1372SOL    HW1 5015   6.700   2.368   0.150
 1372SOL    HW2 5016   6.585   2.426   0.049
 1373SOL     OW 5017   4.821   2.539   1.545
 1373SOL    HW1 5018   4.823   2.611   1.475
 1373SOL    HW2 5019   4.824   2.449   1.500
 1374SOL     OW 5020   4.291   4.366   7.005
 1374SOL    HW1 5021   4.290   4.426   0.062
 1374SOL    HW2 5022   4.301   4.271   0.012
 1375SOL     OW 5023   5.498   5.765   4.325
 1375SOL    HW1 5024   5.406   5.728   4.315
 1375SOL    HW2 5025   5.508   5.805   4.416
 1376SOL     OW 5026   2.274   5.148   5.885
 1376SOL    HW1 5027   2.279   5.204   5.802
 1376SOL    HW2 5028   2.324   5.063   5.871
 1377SOL     OW 5029   1.716   1.361   2.982
 1377SOL    HW1 5030   1.716   1.347   2.883
 1377SOL    HW2 5031   1.795   1.418   3.008
 1378SOL     OW 5032   4.692   2.373   4.581
 1378SOL    HW1 5033   4.787   2.404   4.582
 1378SOL    HW2 5034   4.679   2.306   4.508
 1379SOL     OW 5035   5.000   5.581   1.332
 1379SOL    HW1 5036   5.077   5.552   1.276
 1379SOL    HW2 5037   4.915   5.545   1.293
 1380SOL     OW 5038   6.873   5.392   1.711
 1380SOL    HW1 5039   6.941   5.361   1.778
 1380SOL    HW2 5040   6.918   5.448   1.641
 1381SOL     OW 5041   5.985   2.541   5.828
 1381SOL    HW1 5042   6.052   2.590   5.772
 1381SOL    HW2 5043   6.029   2.507   5.911
 1382SOL     OW 5044   4.404   2.465   0.311
 1382SOL    HW1 5045   4.385   2.369   0.334
 1382SOL    HW2 5046   4.363   2.525   0.380
 1383SOL     OW 5047   0.228   1.013   2.130
 1383SOL    HW1 5048   0.157   0.956   2.172
 1383SOL    HW2 5049   0.216   1.108   2.157
 1384SOL     OW 5050   5.686   0.945   1.868
 1384SOL    HW1 5051   5.647   0.984   1.785
 1384SOL    HW2 5052   5.703   1.018   1.934
 1385SOL     OW 5053   1.021   5.619   1.969
 1385SOL    HW1 5054   1.026   5.718   1.986
 1385SOL    HW2 5055   1.025   5.570   2.057
 1386SOL     OW 5056   3.105   5.908   4.336
 1386SOL    HW1 5057   3.076   5.869   4.423
 1386SOL    HW2 5058   3.129   5.834   4.273
 1387SOL     OW 5059   3.172   5.716   2.201
 1387SOL    HW1 5060   3.199   5.671   2.116
 1387SOL    HW2 5061   3.250   5.767   2.238
 1388SOL     OW 5062   6.665   0.082   1.430
 1388SOL    HW1 5063   6.723   0.005   1.455
 1388SOL    HW2 5064   6.570   0.061   1.453
 1389SOL     OW 5065   6.087   1.232   2.786
 1389SOL    HW1 5066   6.143   1.160   2.826
 1389SOL    HW2 5067   5.997   1.232   2.829
 1390SOL     OW 5068   6.689   1.820   6.337
 1390SOL    HW1 5069   6.622   1.811   6.263
 1390SOL    HW2 5070   6.711   1.730   6.374
 1391SOL     OW 5071   0.841   2.660   2.891
 1391SOL    HW1 5072   0.748   2.695   2.880
 1391SOL    HW2 5073   0.901   2.700   2.821
 1392SOL     OW 5074   5.076   4.878   5.449
 1392SOL    HW1 5075   5.034   4.843   5.365
 1392SOL    HW2 5076   5.024   4.846   5.528
 1393SOL     OW 5077   4.315   6.975   5.822
 1393SOL    HW1 5078   4.410   6.952   5.843
 1393SOL    HW2 5079   4.294   0.043   5.857
 1394SOL     OW 5080   2.832   5.903   5.510
 1394SOL    HW1 5081   2.884   5.925   5.428
 1394SOL    HW2 5082   2.735   5.894   5.487
 1395SOL     OW 5083   3.774   4.710   5.811
 1395SOL    HW1 5084   3.726   4.641   5.864
 1395SOL    HW2 5085   3.734   4.800   5.830
 1396SOL     OW 5086   5.810   5.807   4.563
 1396SOL    HW1 5087   5.876   5.785   4.492
 1396SOL    HW2 5088   5.843   5.773   4.651
 1397SOL     OW 5089   4.868   6.206   4.634
 1397SOL    HW1 5090   4.825   6.284   4.589
 1397SOL    HW2 5091   4.831   6.121   4.596
 1398SOL     OW 5092   1.347   1.286   5.167
 1398SOL    HW1 5093   1.346   1.220   5.242
 1398SOL    HW2 5094   1.259   1.282   5.118
 1399SOL     OW 5095   3.296   6.162   1.601
 1399SOL    HW1 5096   3.326   6.185   1.509
 1399SOL    HW2 5097   3.199   6.187   1.612
 1400SOL     OW 5098   0.525   0.129   2.160
 1400SOL    HW1 5099   0.443   0.072   2.166
 1400SOL    HW2 5100   0.540   0.155   2.064
 1401SOL     OW 5101   0.243   1.204   4.455
 1401SOL    HW1 5102   0.159   1.162   4.420
 1401SOL    HW2 5103   0.291   1.249   4.380
 1402SOL     OW 5104   6.769   2.840   0.800
 1402SOL    HW1 5105   6.694   2.800   0.746
 1402SOL    HW2 5106   6.746   2.833   0.898
 1403SOL     OW 5107   2.688   6.858   2.276
 1403SOL    HW1 5108   2.702   6.771   2.229
 1403SOL    HW2 5109   2.723   6.933   2.219
 1404SOL     OW 5110   5.575   0.395   0.119
 1404SOL    HW1 5111   5.670   0.412   0.143
 1404SOL    HW2 5112   5.516   0.409   0.199
 1405SOL     OW 5113   1.912   3.650   0.797
 1405SOL    HW1 5114   1.855   3.568   0.788
 1405SOL    HW2 5115   1.880   3.721   0.734
 1406SOL     OW 5116   1.171   4.020   1.394
 1406SOL    HW1 5117   1.265   3.985   1.389
 1406SOL    HW2 5118   1.170   4.117   1.372
 1407SOL     OW 5119   6.581   1.713   2.178
 1407SOL    HW1 5120   6.677   1.691   2.194
 1407SOL    HW2 5121   6.527   1.690   2.259
 1408SOL     OW 5122   5.293   0.722   6.156
 1408SOL    HW1 5123   5.391   0.729   6.138
 1408SOL    HW2 5124   5.275   0.739   6.252
 1409SOL     OW 5125   0.175   0.581   4.459
 1409SOL    HW1 5126   0.126   0.503   4.498
 1409SOL    HW2 5127   0.217   0.554   4.372
 1410SOL     OW 5128   0.337   3.008   6.423
 1410SOL    HW1 5129   0.391   2.925   6.434
 1410SOL    HW2 5130   0.307   3.041   6.512
 1411SOL     OW 5131   1.833   6.949   2.494
 1411SOL    HW1 5132   1.821   6.850   2.493
 1411SOL    HW2 5133   1.859   6.981   2.403
 1412SOL     OW 5134   1.522   2.736   0.235
 1412SOL    HW1 5135   1.565   2.796   0.167
 1412SOL    HW2 5136   1.484   2.656   0.188
 1413SOL     OW 5137   2.366   0.496   4.116
 1413SOL    HW1 5138   2.438   0.564   4.121
 1413SOL    HW2 5139   2.313   0.509   4.033
 1414SOL     OW 5140   2.332   1.735   1.768
 1414SOL    HW1 5141   2.419   1.761   1.810
 1414SOL    HW2 5142   2.337   1.640   1.738
 1415SOL     OW 5143   4.068   6.573   5.334
 1415SOL    HW1 5144   4.002   6.601   5.264
 1415SOL    HW2 5145   4.112   6.488   5.305
 1416SOL     OW 5146   4.391   4.685   2.136
 1416SOL    HW1 5147   4.465   4.749   2.158
 1416SOL    HW2 5148   4.334   4.725   2.064
 1417SOL     OW 5149   2.585   1.854   6.792
 1417SOL    HW1 5150   2.540   1.935   6.755
 1417SOL    HW2 5151   2.676   1.845   6.751
 1418SOL     OW 5152   3.355   4.052   3.074
 1418SOL    HW1 5153   3.338   4.140   3.117
 1418SOL    HW2 5154   3.426   4.003   3.124
 1419SOL     OW 5155   3.665   6.716   4.908
 1419SOL    HW1 5156   3.593   6.646   4.909
 1419SOL    HW2 5157   3.672   6.754   4.816
 1420SOL     OW 5158   1.018   5.898   2.019
 1420SOL    HW1 5159   0.940   5.953   2.048
 1420SOL    HW2 5160   1.081   5.955   1.965
 1421SOL     OW 5161   2.806   2.198   2.470
 1421SOL    HW1 5162   2.783   2.243   2.384
 1421SOL    HW2 5163   2.752   2.238   2.544
 1422SOL     OW 5164   2.203   5.115   1.043
 1422SOL    HW1 5165   2.225   5.146   1.136
 1422SOL    HW2 5166   2.225   5.188   0.978
 1423SOL     OW 5167   4.839   6.856   2.696
 1423SOL    HW1 5168   4.795   6.943   2.672
 1423SOL    HW2 5169   4.839   6.845   2.795
 1424SOL     OW 5170   6.124   4.851   5.084
 1424SOL    HW1 5171   6.192   4.900   5.029
 1424SOL    HW2 5172   6.164   4.823   5.170
 1425SOL     OW 5173   1.943   6.685   4.079
 1425SOL    HW1 5174   1.975   6.780   4.072
 1425SOL    HW2 5175   1.846   6.684   4.102
 1426SOL     OW 5176   0.979   1.641   5.525
 1426SOL    HW1 5177   0.960   1.571   5.594
 1426SOL    HW2 5178   0.914   1.716   5.536
 1427SOL     OW 5179   6.306   0.502   3.689
 1427SOL    HW1 5180   6.297   0.403   3.691
 1427SOL    HW2 5181   6.227   0.544   3.735
 1428SOL     OW 5182   5.580   1.972   0.046
 1428SOL    HW1 5183   5.590   1.873   0.031
 1428SOL    HW2 5184   5.557   1.988   0.142
 1429SOL     OW 5185   6.852   0.413   0.758
 1429SOL    HW1 5186   6.900   0.325   0.761
 1429SOL    HW2 5187   6.770   0.408   0.816
 1430SOL     OW 5188   1.894   4.578   3.635
 1430SOL    HW1 5189   1.949   4.587   3.717
 1430SOL    HW2 5190   1.920   4.493   3.587
 1431SOL     OW 5191   2.797   0.822   1.656
 1431SOL    HW1 5192   2.738   0.846   1.734
 1431SOL    HW2 5193   2.862   0.752   1.685
 1432SOL     OW 5194   2.316   0.648   2.646
 1432SOL    HW1 5195   2.294   0.592   2.725
 1432SOL    HW2 5196   2.415   0.652   2.634
 1433SOL     OW 5197   4.518   0.682   3.808
 1433SOL    HW1 5198   4.612   0.700   3.834
 1433SOL    HW2 5199   4.475   0.622   3.876
 1434SOL     OW 5200   0.558   0.964   5.718
 1434SOL    HW1 5201   0.500   1.017   5.779
 1434SOL    HW2 5202   0.636   0.927   5.769
 1435SOL     OW 5203   5.675   1.521   2.573
 1435SOL    HW1 5204   5.656   1.619   2.574
 1435SOL    HW2 5205   5.750   1.501   2.636
 1436SOL     OW 5206   4.097   3.674   0.305
 1436SOL    HW1 5207   4.143   3.661   0.393
 1436SOL    HW2 5208   4.003   3.639   0.312
 1437SOL     OW 5209   3.072   1.251   2.751
 1437SOL    HW1 5210   3.077   1.278   2.847
 1437SOL    HW2 5211   2.977   1.237   2.725
 1438SOL     OW 5212   3.054   6.862   0.970
 1438SOL    HW1 5213   3.047   6.774   1.017
 1438SOL    HW2 5214   3.025   6.935   1.032
 1439SOL     OW 5215   7.017   6.006   2.363
 1439SOL    HW1 5216   6.963   5.953   2.299
 1439SOL    HW2 5217   0.060   6.063   2.313
 1440SOL     OW 5218   3.006   3.951   0.580
 1440SOL    HW1 5219   2.984   3.892   0.503
 1440SOL    HW2 5220   2.990   3.902   0.666
 1441SOL     OW 5221   5.777   6.642   1.014
 1441SOL    HW1 5222   5.780   6.738   0.984
 1441SOL    HW2 5223   5.832   6.631   1.096
 1442SOL     OW 5224   5.696   5.550   0.538
 1442SOL    HW1 5225   5.688   5.647   0.513
 1442SOL    HW2 5226   5.645   5.534   0.623
 1443SOL     OW 5227   1.504   2.668   2.936
 1443SOL    HW1 5228   1.594   2.699   2.969
 1443SOL    HW2 5229   1.499   2.568   2.942
 1444SOL     OW 5230   6.251   6.043   6.896
 1444SOL    HW1 5231   6.290   6.034   6.988
 1444SOL    HW2 5232   6.298   6.116   6.847
 1445SOL     OW 5233   0.887   3.420   2.371
 1445SOL    HW1 5234   0.904   3.321   2.369
 1445SOL    HW2 5235   0.853   3.446   2.461
 1446SOL     OW 5236   6.598   6.889   6.326
 1446SOL    HW1 5237   6.567   6.795   6.336
 1446SOL    HW2 5238   6.626   6.905   6.231
 1447SOL     OW 5239   6.375   5.131   4.397
 1447SOL    HW1 5240   6.324   5.215   4.380
 1447SOL    HW2 5241   6.320   5.052   4.372
 1448SOL     OW 5242   1.058   2.811   5.656
 1448SOL    HW1 5243   1.088   2.825   5.750
 1448SOL    HW2 5244   1.066   2.897   5.605
 1449SOL     OW 5245   1.608   4.028   4.631
 1449SOL    HW1 5246   1.662   4.105   4.599
 1449SOL    HW2 5247   1.559   3.988   4.554
 1450SOL     OW 5248   1.892   2.280   5.186
 1450SOL    HW1 5249   1.808   2.323   5.220
 1450SOL    HW2 5250   1.886   2.181   5.197
 1451SOL     OW 5251   2.550   6.643   1.720
 1451SOL    HW1 5252   2.639   6.633   1.676
 1451SOL    HW2 5253   2.500   6.556   1.716
 1452SOL     OW 5254   4.799   3.633   5.850
 1452SOL    HW1 5255   4.715   3.685   5.841
 1452SOL    HW2 5256   4.790   3.567   5.925
 1453SOL     OW 5257   0.546   4.233   5.498
 1453SOL    HW1 5258   0.634   4.197   5.468
 1453SOL    HW2 5259   0.556   4.278   5.586
 1454SOL     OW 5260   2.675   2.029   3.835
 1454SOL    HW1 5261   2.585   2.031   3.880
 1454SOL    HW2 5262   2.664   2.058   3.740
 1455SOL     OW 5263   1.306   5.730   2.113
 1455SOL    HW1 5264   1.306   5.703   2.209
 1455SOL    HW2 5265   1.218   5.772   2.091
 1456SOL     OW 5266   6.279   5.354   5.816
 1456SOL    HW1 5267   6.349   5.337   5.746
 1456SOL    HW2 5268   6.298   5.298   5.896
 1457SOL     OW 5269   0.682   4.056   6.247
 1457SOL    HW1 5270   0.605   4.060   6.183
 1457SOL    HW2 5271   0.668   3.981   6.311
 1458SOL     OW 5272   5.892   5.122   5.469
 1458SOL    HW1 5273   5.879   5.126   5.370
 1458SOL    HW2 5274   5.968   5.181   5.495
 1459SOL     OW 5275   4.826   6.600   4.966
 1459SOL    HW1 5276   4.730   6.571   4.970
 1459SOL    HW2 5277   4.868   6.586   5.055
 1460SOL     OW 5278   2.144   6.100   5.349
 1460SOL    HW1 5279   2.135   6.105   5.449
 1460SOL    HW2 5280   2.097   6.019   5.315
 1461SOL     OW 5281   7.009   2.756   2.322
 1461SOL    HW1 5282   7.001   2.674   2.378
 1461SOL    HW2 5283   6.975   2.835   2.374
 1462SOL     OW 5284   0.623   6.881   0.886
 1462SOL    HW1 5285   0.657   6.795   0.925
 1462SOL    HW2 5286   0.683   6.910   0.812
 1463SOL     OW 5287   1.630   6.061   6.969
 1463SOL    HW1 5288   1.542   6.044   7.013
 1463SOL    HW2 5289   1.704   6.036   0.008
 1464SOL     OW 5290   6.943   4.269   4.609
 1464SOL    HW1 5291   6.899   4.212   4.678
 1464SOL    HW2 5292   7.013   4.215   4.561
 1465SOL     OW 5293   1.471   1.549   3.364
 1465SOL    HW1 5294   1.539   1.588   3.303
 1465SOL    HW2 5295   1.491   1.576   3.458
 1466SOL     OW 5296   4.286   2.092   1.816
 1466SOL    HW1 5297   4.232   2.008   1.825
 1466SOL    HW2 5298   4.289   2.138   1.905
 1467SOL     OW 5299   1.393   0.706   3.799
 1467SOL    HW1 5300   1.383   0.792   3.851
 1467SOL    HW2 5301   1.398   0.630   3.863
 1468SOL     OW 5302   2.533   6.340   2.205
 1468SOL    HW1 5303   2.607   6.274   2.192
 1468SOL    HW2 5304   2.456   6.316   2.147
 1469SOL     OW 5305   6.349   5.625   3.252
 1469SOL    HW1 5306   6.384   5.567   3.178
 1469SOL    HW2 5307   6.282   5.690   3.215
 1470SOL     OW 5308   6.410   2.443   0.745
 1470SOL    HW1 5309   6.369   2.419   0.658
 1470SOL    HW2 5310   6.423   2.360   0.799
 1471SOL     OW 5311   5.677   6.666   1.485
 1471SOL    HW1 5312   5.745   6.648   1.556
 1471SOL    HW2 5313   5.610   6.733   1.518
 1472SOL     OW 5314   2.297   6.884   5.881
 1472SOL    HW1 5315   2.307   6.799   5.932
 1472SOL    HW2 5316   2.200   6.906   5.869
 1473SOL     OW 5317   3.190   4.974   4.639
 1473SOL    HW1 5318   3.217   5.049   4.699
 1473SOL    HW2 5319   3.151   4.900   4.693
 1474SOL     OW 5320   4.371   4.486   1.274
 1474SOL    HW1 5321   4.379   4.568   1.331
 1474SOL    HW2 5322   4.333   4.511   1.185
 1475SOL     OW 5323   5.159   0.448   0.589
 1475SOL    HW1 5324   5.198   0.537   0.567
 1475SOL    HW2 5325   5.110   0.412   0.510
 1476SOL     OW 5326   4.039   1.013   1.824
 1476SOL    HW1 5327   4.077   1.095   1.780
 1476SOL    HW2 5328   3.939   1.015   1.817
 1477SOL     OW 5329   4.359   5.340   1.129
 1477SOL    HW1 5330   4.379   5.387   1.044
 1477SOL    HW2 5331   4.302   5.398   1.187
 1478SOL     OW 5332   5.228   5.785   5.566
 1478SOL    HW1 5333   5.271   5.725   5.633
 1478SOL    HW2 5334   5.260   5.879   5.579
 1479SOL     OW 5335   3.641   3.286   1.313
 1479SOL    HW1 5336   3.697   3.261   1.393
 1479SOL    HW2 5337   3.552   3.242   1.320
 1480SOL     OW 5338   3.018   0.730   5.076
 1480SOL    HW1 5339   2.983   0.813   5.032
 1480SOL    HW2 5340   2.998   0.651   5.018
 1481SOL     OW 5341   4.872   2.338   5.087
 1481SOL    HW1 5342   4.819   2.253   5.085
 1481SOL    HW2 5343   4.827   2.403   5.148
 1482SOL     OW 5344   4.426   0.841   0.379
 1482SOL    HW1 5345   4.485   0.911   0.419
 1482SOL    HW2 5346   4.330   0.864   0.396
 1483SOL     OW 5347   4.451   1.336   6.167
 1483SOL    HW1 5348   4.545   1.314   6.142
 1483SOL    HW2 5349   4.449   1.422   6.218
 1484SOL     OW 5350   3.021   5.718   4.501
 1484SOL    HW1 5351   2.984   5.629   4.473
 1484SOL    HW2 5352   3.056   5.710   4.594
 1485SOL     OW 5353   5.333   2.690   2.710
 1485SOL    HW1 5354   5.380   2.774   2.737
 1485SOL    HW2 5355   5.239   2.711   2.685
 1486SOL     OW 5356   4.988   6.726   4.110
 1486SOL    HW1 5357   4.998   6.664   4.033
 1486SOL    HW2 5358   4.984   6.820   4.077
 1487SOL     OW 5359   6.811   0.435   0.501
 1487SOL    HW1 5360   6.718   0.472   0.493
 1487SOL    HW2 5361   6.832   0.420   0.598
 1488SOL     OW 5362   6.328   1.240   3.221
 1488SOL    HW1 5363   6.367   1.173   3.158
 1488SOL    HW2 5364   6.328   1.330   3.178
 1489SOL     OW 5365   4.157   4.993   6.588
 1489SOL    HW1 5366   4.197   5.074   6.546
 1489SOL    HW2 5367   4.219   4.915   6.575
 1490SOL     OW 5368   0.715   2.263   2.009
 1490SOL    HW1 5369   0.801   2.238   1.964
 1490SOL    HW2 5370   0.689   2.355   1.980
 1491SOL     OW 5371   0.199   2.828   2.148
 1491SOL    HW1 5372   0.228   2.749   2.093
 1491SOL    HW2 5373   0.121   2.801   2.205
 1492SOL     OW 5374   6.366   1.525   3.147
 1492SOL    HW1 5375   6.409   1.571   3.225
 1492SOL    HW2 5376   6.437   1.488   3.087
 1493SOL     OW 5377   4.613   2.377   5.778
 1493SOL    HW1 5378   4.621   2.290   5.731
 1493SOL    HW2 5379   4.588   2.362   5.874
 1494SOL     OW 5380   6.012   3.681   6.098
 1494SOL    HW1 5381   6.046   3.597   6.055
 1494SOL    HW2 5382   6.089   3.741   6.119
 1495SOL     OW 5383   5.931   3.890   4.075
 1495SOL    HW1 5384   6.029   3.882   4.093
 1495SOL    HW2 5385   5.888   3.947   4.145
 1496SOL     OW 5386   0.153   5.866   6.705
 1496SOL    HW1 5387   0.069   5.903   6.666
 1496SOL    HW2 5388   0.217   5.941   6.723
 1497SOL     OW 5389   5.385   3.047   2.615
 1497SOL    HW1 5390   5.407   3.144   2.629
 1497SOL    HW2 5391   5.302   3.025   2.666
 1498SOL     OW 5392   3.273   4.989   1.046
 1498SOL    HW1 5393   3.235   5.081   1.050
 1498SOL    HW2 5394   3.199   4.922   1.052
 1499SOL     OW 5395   0.381   4.008   5.433
 1499SOL    HW1 5396   0.305   4.016   5.497
 1499SOL    HW2 5397   0.455   4.067   5.462
 1500SOL     OW 5398   0.543   5.569   1.202
 1500SOL    HW1 5399   0.617   5.556   1.136
 1500SOL    HW2 5400   0.477   5.494   1.193
 1501SOL     OW 5401   5.194   1.848   5.895
 1501SOL    HW1 5402   5.250   1.788   5.953
 1501SOL    HW2 5403   5.104   1.861   5.938
 1502SOL     OW 5404   6.464   0.337   6.501
 1502SOL    HW1 5405   6.504   0.246   6.498
 1502SOL    HW2 5406   6.482   0.380   6.589
 1503SOL     OW 5407   0.593   3.929   2.265
 1503SOL    HW1 5408   0.690   3.906   2.270
 1503SOL    HW2 5409   0.574   3.974   2.178
 1504SOL     OW 5410   0.623   0.782   3.357
 1504SOL    HW1 5411   0.577   0.699   3.325
 1504SOL    HW2 5412   0.721   0.775   3.338
 1505SOL     OW 5413   5.807   6.323   4.925
 1505SOL    HW1 5414   5.905   6.305   4.916
 1505SOL    HW2 5415   5.755   6.248   4.883
 1506SOL     OW 5416   1.349   1.482   0.272
 1506SOL    HW1 5417   1.372   1.386   0.287
 1506SOL    HW2 5418   1.289   1.514   0.346
 1507SOL     OW 5419   1.647   2.610   4.500
 1507SOL    HW1 5420   1.550   2.618   4.474
 1507SOL    HW2 5421   1.668   2.676   4.571
 1508SOL     OW 5422   1.108   0.741   0.263
 1508SOL    HW1 5423   1.086   0.643   0.259
 1508SOL    HW2 5424   1.179   0.761   0.196
 1509SOL     OW 5425   5.168   0.573   4.195
 1509SOL    HW1 5426   5.207   0.657   4.232
 1509SOL    HW2 5427   5.074   0.590   4.165
 1510SOL     OW 5428   3.954   6.184   3.979
 1510SOL    HW1 5429   3.875   6.164   4.037
 1510SOL    HW2 5430   3.942   6.274   3.936
 1511SOL     OW 5431   3.978   3.438   4.411
 1511SOL    HW1 5432   3.927   3.465   4.493
 1511SOL    HW2 5433   4.007   3.519   4.362
 1512SOL     OW 5434   6.545   5.922   1.048
 1512SOL    HW1 5435   6.625   5.969   1.011
 1512SOL    HW2 5436   6.483   5.898   0.973
 1513SOL     OW 5437   3.124   0.329   5.829
 1513SOL    HW1 5438   3.153   0.236   5.807
 1513SOL    HW2 5439   3.152   0.391   5.755
 1514SOL     OW 5440   3.668   2.396   5.357
 1514SOL    HW1 5441   3.657   2.309   5.310
 1514SOL    HW2 5442   3.731   2.385   5.433
 1515SOL     OW 5443   6.371   1.623   2.011
 1515SOL    HW1 5444   6.279   1.662   2.004
 1515SOL    HW2 5445   6.423   1.670   2.082
 1516SOL     OW 5446   6.196   6.271   4.815
 1516SOL    HW1 5447   6.242   6.230   4.894
 1516SOL    HW2 5448   6.165   6.199   4.754
 1517SOL     OW 5449   4.203   6.533   3.525
 1517SOL    HW1 5450   4.112   6.502   3.497
 1517SOL    HW2 5451   4.201   6.632   3.542
 1518SOL     OW 5452   0.360   2.489   0.817
 1518SOL    HW1 5453   0.416   2.548   0.875
 1518SOL    HW2 5454   0.375   2.393   0.842
 1519SOL     OW 5455   6.830   4.126   0.415
 1519SOL    HW1 5456   6.736   4.149   0.389
 1519SOL    HW2 5457   6.834   4.111   0.514
 1520SOL     OW 5458   0.217   5.610   1.717
 1520SOL    HW1 5459   0.252   5.522   1.749
 1520SOL    HW2 5460   0.268   5.640   1.636
 1521SOL     OW 5461   2.217   5.076   6.140
 1521SOL    HW1 5462   2.122   5.043   6.148
 1521SOL    HW2 5463   2.234   5.105   6.046
 1522SOL     OW 5464   5.033   5.234   4.981
 1522SOL    HW1 5465   4.943   5.237   4.937
 1522SOL    HW2 5466   5.104   5.253   4.913
 1523SOL     OW 5467   3.447   6.054   6.696
 1523SOL    HW1 5468   3.458   6.119   6.620
 1523SOL    HW2 5469   3.517   5.983   6.689
 1524SOL     OW 5470   2.234   1.891   2.414
 1524SOL    HW1 5471   2.316   1.841   2.388
 1524SOL    HW2 5472   2.153   1.840   2.384
 1525SOL     OW 5473   5.323   2.926   0.842
 1525SOL    HW1 5474   5.292   3.006   0.790
 1525SOL    HW2 5475   5.261   2.849   0.824
 1526SOL     OW 5476   1.022   1.311   0.558
 1526SOL    HW1 5477   0.950   1.319   0.627
 1526SOL    HW2 5478   1.105   1.356   0.592
 1527SOL     OW 5479   3.640   1.176   4.458
 1527SOL    HW1 5480   3.695   1.160   4.540
 1527SOL    HW2 5481   3.551   1.213   4.484
 1528SOL     OW 5482   4.723   3.809   1.159
 1528SOL    HW1 5483   4.799   3.859   1.118
 1528SOL    HW2 5484   4.683   3.747   1.091
 1529SOL     OW 5485   4.896   1.409   6.215
 1529SOL    HW1 5486   4.970   1.454   6.164
 1529SOL    HW2 5487   4.816   1.399   6.156
 1530SOL     OW 5488   3.766   6.752   1.412
 1530SOL    HW1 5489   3.826   6.830   1.430
 1530SOL    HW2 5490   3.805   6.670   1.453
 1531SOL     OW 5491   3.726   6.836   4.243
 1531SOL    HW1 5492   3.745   6.898   4.167
 1531SOL    HW2 5493   3.665   6.763   4.213
 1532SOL     OW 5494   2.870   5.172   5.944
 1532SOL    HW1 5495   2.916   5.255   5.913
 1532SOL    HW2 5496   2.914   5.139   6.028
 1533SOL     OW 5497   5.468   5.372   1.386
 1533SOL    HW1 5498   5.443   5.288   1.337
 1533SOL    HW2 5499   5.502   5.349   1.477
 1534SOL     OW 5500   3.810   6.173   6.467
 1534SOL    HW1 5501   3.817   6.095   6.529
 1534SOL    HW2 5502   3.889   6.232   6.479
 1535SOL     OW 5503   6.285   6.616   4.463
 1535SOL    HW1 5504   6.342   6.624   4.545
 1535SOL    HW2 5505   6.336   6.571   4.391
 1536SOL     OW 5506   4.056   4.070   6.517
 1536SOL    HW1 5507   4.004   3.997   6.561
 1536SOL    HW2 5508   4.072   4.143   6.583
 1537SOL     OW 5509   3.566   5.229   3.369
 1537SOL    HW1 5510   3.538   5.133   3.364
 1537SOL    HW2 5511   3.492   5.283   3.409
 1538SOL     OW 5512   3.426   1.457   0.160
 1538SOL    HW1 5513   3.467   1.503   0.238
 1538SOL    HW2 5514   3.459   1.499   0.075
 1539SOL     OW 5515   5.730   3.340   1.289
 1539SOL    HW1 5516   5.766   3.425   1.328
 1539SOL    HW2 5517   5.655   3.307   1.347
 1540SOL     OW 5518   2.650   0.097   4.622
 1540SOL    HW1 5519   2.667   0.130   4.714
 1540SOL    HW2 5520   2.697   0.157   4.556
 1541SOL     OW 5521   3.204   2.932   5.049
 1541SOL    HW1 5522   3.287   2.936   4.993
 1541SOL    HW2 5523   3.175   2.837   5.057
 1542SOL     OW 5524   6.573   0.308   2.253
 1542SOL    HW1 5525   6.553   0.211   2.263
 1542SOL    HW2 5526   6.503   0.351   2.195
 1543SOL     OW 5527   3.012   5.353   6.493
 1543SOL    HW1 5528   3.102   5.347   6.449
 1543SOL    HW2 5529   3.024   5.384   6.587
 1544SOL     OW 5530   3.718   3.059   3.468
 1544SOL    HW1 5531   3.762   3.051   3.558
 1544SOL    HW2 5532   3.629   3.013   3.470
 1545SOL     OW 5533   6.214   0.006   2.534
 1545SOL    HW1 5534   6.204   0.006   2.633
 1545SOL    HW2 5535   6.305   6.994   2.510
 1546SOL     OW 5536   4.952   6.441   5.771
 1546SOL    HW1 5537   4.890   6.434   5.849
 1546SOL    HW2 5538   4.986   6.535   5.764
 1547SOL     OW 5539   1.368   4.179   0.265
 1547SOL    HW1 5540   1.287   4.151   0.215
 1547SOL    HW2 5541   1.349   4.264   0.315
 1548SOL     OW 5542   5.977   2.056   0.207
 1548SOL    HW1 5543   6.030   2.018   0.283
 1548SOL    HW2 5544   6.006   2.013   0.121
 1549SOL     OW 5545   4.150   1.225   4.552
 1549SOL    HW1 5546   4.165   1.208   4.649
 1549SOL    HW2 5547   4.237   1.216   4.503
 1550SOL     OW 5548   3.523   3.349   2.579
 1550SOL    HW1 5549   3.564   3.300   2.502
 1550SOL    HW2 5550   3.425   3.334   2.580
 1551SOL     OW 5551   0.798   5.230   6.719
 1551SOL    HW1 5552   0.703   5.196   6.715
 1551SOL    HW2 5553   0.839   5.200   6.805
 1552SOL     OW 5554   2.504   4.425   1.724
 1552SOL    HW1 5555   2.463   4.457   1.809
 1552SOL    HW2 5556   2.584   4.480   1.703
 1553SOL     OW 5557   6.795   1.721   5.865
 1553SOL    HW1 5558   6.866   1.791   5.866
 1553SOL    HW2 5559   6.829   1.638   5.909
 1554SOL     OW 5560   2.860   2.086   3.477
 1554SOL    HW1 5561   2.960   2.076   3.478
 1554SOL    HW2 5562   2.820   2.008   3.430
 1555SOL     OW 5563   6.331   3.413   6.089
 1555SOL    HW1 5564   6.351   3.414   6.187
 1555SOL    HW2 5565   6.369   3.495   6.047
 1556SOL     OW 5566   2.061   1.198   5.856
 1556SOL    HW1 5567   2.143   1.214   5.800
 1556SOL    HW2 5568   2.076   1.235   5.948
 1557SOL     OW 5569   1.326   3.318   6.784
 1557SOL    HW1 5570   1.282   3.313   6.874
 1557SOL    HW2 5571   1.257   3.336   6.714
 1558SOL     OW 5572   0.114   0.334   5.184
 1558SOL    HW1 5573   0.079   0.240   5.186
 1558SOL    HW2 5574   0.134   0.359   5.089
 1559SOL     OW 5575   0.546   2.281   6.231
 1559SOL    HW1 5576   0.457   2.263   6.273
 1559SOL    HW2 5577   0.538   2.358   6.168
 1560SOL     OW 5578   0.078   0.762   6.640
 1560SOL    HW1 5579   0.015   0.731   6.710
 1560SOL    HW2 5580   0.074   0.700   6.561
 1561SOL     OW 5581   5.038   5.992   2.720
 1561SOL    HW1 5582   5.077   6.060   2.781
 1561SOL    HW2 5583   5.099   5.977   2.642
 1562SOL     OW 5584   5.464   0.298   2.927
 1562SOL    HW1 5585   5.498   0.286   3.020
 1562SOL    HW2 5586   5.452   0.208   2.884
 1563SOL     OW 5587   3.300   1.454   6.321
 1563SOL    HW1 5588   3.344   1.495   6.240
 1563SOL    HW2 5589   3.264   1.364   6.297
 1564SOL     OW 5590   1.784   2.040   1.971
 1564SOL    HW1 5591   1.784   1.963   2.036
 1564SOL    HW2 5592   1.872   2.087   1.976
 1565SOL     OW 5593   4.874   3.641   1.905
 1565SOL    HW1 5594   4.800   3.671   1.846
 1565SOL    HW2 5595   4.914   3.557   1.870
 1566SOL     OW 5596   5.475   4.030   3.448
 1566SOL    HW1 5597   5.435   3.943   3.478
 1566SOL    HW2 5598   5.522   4.016   3.361
 1567SOL     OW 5599   6.682   5.537   5.962
 1567SOL    HW1 5600   6.664   5.486   5.878
 1567SOL    HW2 5601   6.597   5.545   6.014
 1568SOL     OW 5602   0.964   0.617   0.524
 1568SOL    HW1 5603   1.035   0.620   0.594
 1568SOL    HW2 5604   1.003   0.587   0.437
 1569SOL     OW 5605   3.850   6.397   4.976
 1569SOL    HW1 5606   3.813   6.306   4.993
 1569SOL    HW2 5607   3.815   6.433   4.890
 1570SOL     OW 5608   2.987   1.871   1.506
 1570SOL    HW1 5609   2.892   1.878   1.536
 1570SOL    HW2 5610   2.991   1.859   1.407
 1571SOL     OW 5611   6.412   3.569   1.493
 1571SOL    HW1 5612   6.422   3.477   1.530
 1571SOL    HW2 5613   6.368   3.628   1.561
 1572SOL     OW 5614   0.809   0.387   1.883
 1572SOL    HW1 5615   0.857   0.372   1.796
 1572SOL    HW2 5616   0.871   0.370   1.959
 1573SOL     OW 5617   4.575   0.264   1.768
 1573SOL    HW1 5618   4.596   0.360   1.782
 1573SOL    HW2 5619   4.657   0.209   1.786
 1574SOL     OW 5620   6.548   2.408   2.038
 1574SOL    HW1 5621   6.555   2.498   1.997
 1574SOL    HW2 5622   6.613   2.401   2.114
 1575SOL     OW 5623   1.958   2.033   0.392
 1575SOL    HW1 5624   1.888   1.962   0.393
 1575SOL    HW2 5625   2.037   2.002   0.444
 1576SOL     OW 5626   5.638   6.135   4.004
 1576SOL    HW1 5627   5.706   6.208   4.009
 1576SOL    HW2 5628   5.671   6.063   3.943
 1577SOL     OW 5629   2.993   0.413   5.511
 1577SOL    HW1 5630   2.989   0.315   5.526
 1577SOL    HW2 5631   3.058   0.434   5.438
 1578SOL     OW 5632   5.182   4.363   5.557
 1578SOL    HW1 5633   5.148   4.301   5.628
 1578SOL    HW2 5634   5.281   4.355   5.549
 1579SOL     OW 5635   1.087   0.807   3.879
 1579SOL    HW1 5636   1.163   0.769   3.931
 1579SOL    HW2 5637   1.121   0.843   3.792
 1580SOL     OW 5638   3.037   4.408   5.332
 1580SOL    HW1 5639   3.011   4.331   5.275
 1580SOL    HW2 5640   3.003   4.493   5.290
 1581SOL     OW 5641   6.758   3.991   4.671
 1581SOL    HW1 5642   6.747   3.980   4.770
 1581SOL    HW2 5643   6.672   3.970   4.625
 1582SOL     OW 5644   0.352   4.928   4.030
 1582SOL    HW1 5645   0.315   4.901   4.119
 1582SOL    HW2 5646   0.312   4.870   3.959
 1583SOL     OW 5647   1.784   2.521   3.592
 1583SOL    HW1 5648   1.813   2.440   3.541
 1583SOL    HW2 5649   1.686   2.515   3.612
 1584SOL     OW 5650   2.346   0.215   5.756
 1584SOL    HW1 5651   2.339   0.234   5.854
 1584SOL    HW2 5652   2.439   0.233   5.724
 1585SOL     OW 5653   5.575   1.245   3.933
 1585SOL    HW1 5654   5.607   1.323   3.879
 1585SOL    HW2 5655   5.639   1.230   4.009
 1586SOL     OW 5656   3.991   3.860   2.465
 1586SOL    HW1 5657   4.031   3.908   2.387
 1586SOL    HW2 5658   4.046   3.780   2.488
 1587SOL     OW 5659   3.541   6.502   6.961
 1587SOL    HW1 5660   3.452   6.532   6.996
 1587SOL    HW2 5661   3.533   6.409   6.925
 1588SOL     OW 5662   5.671   2.583   1.476
 1588SOL    HW1 5663   5.690   2.614   1.383
 1588SOL    HW2 5664   5.631   2.492   1.474
 1589SOL     OW 5665   6.069   4.312   4.785
 1589SOL    HW1 5666   5.988   4.370   4.779
 1589SOL    HW2 5667   6.150   4.369   4.798
 1590SOL     OW 5668   1.814   0.377   6.435
 1590SOL    HW1 5669   1.781   0.455   6.382
 1590SOL    HW2 5670   1.846   0.305   6.372
 1591SOL     OW 5671   1.046   4.489   2.262
 1591SOL    HW1 5672   1.077   4.582   2.284
 1591SOL    HW2 5673   0.954   4.493   2.223
 1592SOL     OW 5674   3.181   3.666   2.675
 1592SOL    HW1 5675   3.140   3.752   2.646
 1592SOL    HW2 5676   3.122   3.589   2.650
 1593SOL     OW 5677   1.367   5.488   4.395
 1593SOL    HW1 5678   1.342   5.580   4.425
 1593SOL    HW2 5679   1.433   5.448   4.460
 1594SOL     OW 5680   6.620   5.257   2.795
 1594SOL    HW1 5681   6.635   5.322   2.721
 1594SOL    HW2 5682   6.522   5.246   2.811
 1595SOL     OW 5683   6.573   4.657   6.301
 1595SOL    HW1 5684   6.547   4.698   6.213
 1595SOL    HW2 5685   6.650   4.596   6.288
 1596SOL     OW 5686   2.547   5.312   6.119
 1596SOL    HW1 5687   2.630   5.356   6.156
 1596SOL    HW2 5688   2.469   5.373   6.134
 1597SOL     OW 5689   2.839   6.398   1.455
 1597SOL    HW1 5690   2.805   6.391   1.361
 1597SOL    HW2 5691   2.828   6.309   1.501
 1598SOL     OW 5692   0.310   4.909   1.185
 1598SOL    HW1 5693   0.373   4.864   1.248
 1598SOL    HW2 5694   0.219   4.915   1.227
 1599SOL     OW 5695   3.782   5.184   6.736
 1599SOL    HW1 5696   3.858   5.120   6.744
 1599SOL    HW2 5697   3.696   5.137   6.757
 1600SOL     OW 5698   4.582   1.214   4.141
 1600SOL    HW1 5699   4.675   1.185   4.164
 1600SOL    HW2 5700   4.576   1.313   4.146
 1601SOL     OW 5701   1.427   5.195   4.150
 1601SOL    HW1 5702   1.457   5.099   4.156
 1601SOL    HW2 5703   1.388   5.212   4.059
 1602SOL     OW 5704   1.017   5.188   3.585
 1602SOL    HW1 5705   1.025   5.288   3.588
 1602SOL    HW2 5706   1.083   5.151   3.519
 1603SOL     OW 5707   0.039   6.453   2.111
 1603SOL    HW1 5708   6.991   6.508   2.067
 1603SOL    HW2 5709   0.051   6.485   2.205
 1604SOL     OW 5710   6.904   4.810   6.383
 1604SOL    HW1 5711   6.887   4.786   6.479
 1604SOL    HW2 5712   6.846   4.887   6.357
 1605SOL     OW 5713   6.053   6.798   3.086
 1605SOL    HW1 5714   5.955   6.776   3.091
 1605SOL    HW2 5715   6.094   6.749   3.010
 1606SOL     OW 5716   5.058   0.021   6.417
 1606SOL    HW1 5717   5.006   0.091   6.466
 1606SOL    HW2 5718   5.088   0.058   6.329
 1607SOL     OW 5719   4.020   2.541   0.823
 1607SOL    HW1 5720   4.076   2.616   0.859
 1607SOL    HW2 5721   3.971   2.497   0.898
 1608SOL     OW 5722   2.323   6.814   0.364
 1608SOL    HW1 5723   2.404   6.865   0.390
 1608SOL    HW2 5724   2.346   6.748   0.293
 1609SOL     OW 5725   4.619   2.175   5.604
 1609SOL    HW1 5726   4.522   2.161   5.580
 1609SOL    HW2 5727   4.666   2.086   5.604
 1610SOL     OW 5728   6.386   5.940   4.321
 1610SOL    HW1 5729   6.404   5.877   4.397
 1610SOL    HW2 5730   6.467   5.995   4.304
 1611SOL     OW 5731   3.147   3.538   1.673
 1611SOL    HW1 5732   3.056   3.501   1.651
 1611SOL    HW2 5733   3.216   3.468   1.657
 1612SOL     OW 5734   2.492   0.616   4.572
 1612SOL    HW1 5735   2.457   0.671   4.647
 1612SOL    HW2 5736   2.513   0.524   4.605
 1613SOL     OW 5737   2.541   6.048   0.300
 1613SOL    HW1 5738   2.561   6.026   0.396
 1613SOL    HW2 5739   2.626   6.062   0.250
 1614SOL     OW 5740   5.784   2.264   0.111
 1614SOL    HW1 5741   5.859   2.205   0.140
 1614SOL    HW2 5742   5.754   2.236   0.020
 1615SOL     OW 5743   6.754   4.235   0.050
 1615SOL    HW1 5744   6.731   4.329   0.077
 1615SOL    HW2 5745   6.850   4.218   0.071
 1616SOL     OW 5746   3.581   2.262   5.942
 1616SOL    HW1 5747   3.539   2.347   5.910
 1616SOL    HW2 5748   3.608   2.206   5.864
 1617SOL     OW 5749   5.103   0.428   3.741
 1617SOL    HW1 5750   5.177   0.478   3.697
 1617SOL    HW2 5751   5.116   0.329   3.728
 1618SOL     OW 5752   5.747   2.950   0.601
 1618SOL    HW1 5753   5.806   2.890   0.548
 1618SOL    HW2 5754   5.710   2.900   0.679
 1619SOL     OW 5755   1.931   3.416   4.558
 1619SOL    HW1 5756   1.937   3.473   4.640
 1619SOL    HW2 5757   1.864   3.344   4.573
 1620SOL     OW 5758   2.645   5.276   1.595
 1620SOL    HW1 5759   2.665   5.203   1.529
 1620SOL    HW2 5760   2.623   5.359   1.545
 1621SOL     OW 5761   1.492   0.840   1.036
 1621SOL    HW1 5762   1.547   0.916   1.073
 1621SOL    HW2 5763   1.548   0.757   1.034
 1622SOL     OW 5764   2.177   2.040   5.001
 1622SOL    HW1 5765   2.100   2.022   5.062
 1622SOL    HW2 5766   2.204   2.136   5.009
 1623SOL     OW 5767   2.796   2.252   5.206
 1623SOL    HW1 5768   2.785   2.316   5.129
 1623SOL    HW2 5769   2.718   2.262   5.268
 1624SOL     OW 5770   2.635   1.063   0.053
 1624SOL    HW1 5771   2.665   1.017   6.993
 1624SOL    HW2 5772   2.698   1.138   0.074
 1625SOL     OW 5773   0.654   5.138   2.479
 1625SOL    HW1 5774   0.617   5.215   2.427
 1625SOL    HW2 5775   0.615   5.138   2.571
 1626SOL     OW 5776   1.656   2.550   6.491
 1626SOL    HW1 5777   1.674   2.540   6.393
 1626SOL    HW2 5778   1.740   2.573   6.539
 1627SOL     OW 5779   5.876   2.871   3.434
 1627SOL    HW1 5780   5.918   2.809   3.500
 1627SOL    HW2 5781   5.838   2.819   3.358
 1628SOL     OW 5782   3.270   4.158   0.387
 1628SOL    HW1 5783   3.282   4.127   0.481
 1628SOL    HW2 5784   3.257   4.258   0.387
 1629SOL     OW 5785   3.628   2.147   3.928
 1629SOL    HW1 5786   3.678   2.064   3.902
 1629SOL    HW2 5787   3.681   2.199   3.994
 1630SOL     OW 5788   0.077   4.609   5.302
 1630SOL    HW1 5789   0.157   4.551   5.292
 1630SOL    HW2 5790   7.023   4.568   5.254
 1631SOL     OW 5791   7.012   0.079   5.813
 1631SOL    HW1 5792   6.932   0.020   5.799
 1631SOL    HW2 5793   7.014   0.110   5.908
 1632SOL     OW 5794   6.481   0.906   1.204
 1632SOL    HW1 5795   6.494   1.004   1.190
 1632SOL    HW2 5796   6.509   0.881   1.297
 1633SOL     OW 5797   5.796   2.300   3.775
 1633SOL    HW1 5798   5.779   2.371   3.707
 1633SOL    HW2 5799   5.796   2.341   3.866
 1634SOL     OW 5800   3.241   0.796   6.873
 1634SOL    HW1 5801   3.304   0.784   6.950
 1634SOL    HW2 5802   3.149   0.768   6.900
 1635SOL     OW 5803   0.400   5.471   4.905
 1635SOL    HW1 5804   0.490   5.432   4.922
 1635SOL    HW2 5805   0.398   5.515   4.815
 1636SOL     OW 5806   2.342   6.066   1.262
 1636SOL    HW1 5807   2.260   6.099   1.308
 1636SOL    HW2 5808   2.408   6.141   1.255
 1637SOL     OW 5809   6.910   3.052   1.756
 1637SOL    HW1 5810   6.865   3.139   1.732
 1637SOL    HW2 5811   6.867   3.013   1.837
 1638SOL     OW 5812   0.237   3.307   4.989
 1638SOL    HW1 5813   0.198   3.283   4.900
 1638SOL    HW2 5814   0.317   3.250   5.007
 1639SOL     OW 5815   5.079   5.414   2.276
 1639SOL    HW1 5816   5.101   5.318   2.260
 1639SOL    HW2 5817   4.996   5.438   2.226
 1640SOL     OW 5818   6.670   0.044   1.160
 1640SOL    HW1 5819   6.685   0.047   1.259
 1640SOL    HW2 5820   6.631   6.979   1.136
 1641SOL     OW 5821   5.632   2.795   5.000
 1641SOL    HW1 5822   5.626   2.857   5.078
 1641SOL    HW2 5823   5.547   2.743   4.992
 1642SOL     OW 5824   0.021   1.965   1.426
 1642SOL    HW1 5825   0.024   1.868   1.402
 1642SOL    HW2 5826   0.099   1.988   1.484
 1643SOL     OW 5827   4.414   0.135   5.492
 1643SOL    HW1 5828   4.372   0.100   5.408
 1643SOL    HW2 5829   4.503   0.090   5.505
 1644SOL     OW 5830   2.925   0.940   1.429
 1644SOL    HW1 5831   2.992   1.001   1.473
 1644SOL    HW2 5832   2.866   0.899   1.498
 1645SOL     OW 5833   2.740   6.578   6.483
 1645SOL    HW1 5834   2.690   6.522   6.548
 1645SOL    HW2 5835   2.676   6.625   6.422
 1646SOL     OW 5836   1.125   4.050   1.060
 1646SOL    HW1 5837   1.147   4.040   1.157
 1646SOL    HW2 5838   1.037   4.006   1.041
 1647SOL     OW 5839   5.950   2.666   3.596
 1647SOL    HW1 5840   6.033   2.637   3.643
 1647SOL    HW2 5841   5.943   2.619   3.508
 1648SOL     OW 5842   4.255   0.022   2.376
 1648SOL    HW1 5843   4.311   0.044   2.296
 1648SOL    HW2 5844   4.311   0.028   2.458
 1649SOL     OW 5845   3.407   0.810   3.857
 1649SOL    HW1 5846   3.358   0.873   3.798
 1649SOL    HW2 5847   3.495   0.787   3.817
 1650SOL     OW 5848   2.844   6.928   4.162
 1650SOL    HW1 5849   2.893   7.010   4.130
 1650SOL    HW2 5850   2.810   6.944   4.255
 1651SOL     OW 5851   1.212   6.985   0.636
 1651SOL    HW1 5852   1.183   6.999   0.542
 1651SOL    HW2 5853   1.135   7.003   0.698
 1652SOL     OW 5854   2.772   2.428   1.655
 1652SOL    HW1 5855   2.789   2.403   1.750
 1652SOL    HW2 5856   2.856   2.415   1.601
 1653SOL     OW 5857   0.887   5.594   1.242
 1653SOL    HW1 5858   0.853   5.686   1.259
 1653SOL    HW2 5859   0.983   5.588   1.271
 1654SOL     OW 5860   6.998   3.613   2.714
 1654SOL    HW1 5861   6.932   3.594   2.787
 1654SOL    HW2 5862   0.013   3.705   2.727
 1655SOL     OW 5863   4.868   4.628   6.499
 1655SOL    HW1 5864   4.911   4.665   6.416
 1655SOL    HW2 5865   4.784   4.680   6.518
 1656SOL     OW 5866   0.908   4.914   3.671
 1656SOL    HW1 5867   0.991   4.859   3.675
 1656SOL    HW2 5868   0.929   5.003   3.631
 1657SOL     OW 5869   1.515   0.660   5.402
 1657SOL    HW1 5870   1.488   0.574   5.359
 1657SOL    HW2 5871   1.480   0.664   5.496
 1658SOL     OW 5872   5.813   6.225   3.245
 1658SOL    HW1 5873   5.740   6.213   3.313
 1658SOL    HW2 5874   5.786   6.295   3.179
 1659SOL     OW 5875   3.842   2.693   6.010
 1659SOL    HW1 5876   3.790   2.776   6.032
 1659SOL    HW2 5877   3.870   2.647   6.094
 1660SOL     OW 5878   1.810   5.644   3.524
 1660SOL    HW1 5879   1.807   5.663   3.425
 1660SOL    HW2 5880   1.905   5.632   3.553
 1661SOL     OW 5881   3.220   0.445   2.441
 1661SOL    HW1 5882   3.181   0.369   2.493
 1661SOL    HW2 5883   3.157   0.522   2.443
 1662SOL     OW 5884   0.826   0.653   3.780
 1662SOL    HW1 5885   0.845   0.711   3.859
 1662SOL    HW2 5886   0.782   0.708   3.708
 1663SOL     OW 5887   2.587   0.149   2.694
 1663SOL    HW1 5888   2.678   0.112   2.676
 1663SOL    HW2 5889   2.595   0.243   2.727
 1664SOL     OW 5890   2.052   5.603   3.610
 1664SOL    HW1 5891   2.140   5.561   3.631
 1664SOL    HW2 5892   2.027   5.666   3.684
 1665SOL     OW 5893   6.753   0.448   3.890
 1665SOL    HW1 5894   6.772   0.351   3.902
 1665SOL    HW2 5895   6.684   0.477   3.955
 1666SOL     OW 5896   5.737   2.966   6.430
 1666SOL    HW1 5897   5.652   2.960   6.378
 1666SOL    HW2 5898   5.741   3.054   6.477
 1667SOL     OW 5899   7.023   0.482   5.915
 1667SOL    HW1 5900   6.979   0.542   5.981
 1667SOL    HW2 5901   6.956   0.453   5.846
 1668SOL     OW 5902   4.193   0.716   5.347
 1668SOL    HW1 5903   4.229   0.786   5.408
 1668SOL    HW2 5904   4.259   0.641   5.341
 1669SOL     OW 5905   5.964   6.706   5.587
 1669SOL    HW1 5906   5.913   6.726   5.504
 1669SOL    HW2 5907   5.955   6.782   5.651
 1670SOL     OW 5908   5.563   4.664   6.023
 1670SOL    HW1 5909   5.547   4.654   6.121
 1670SOL    HW2 5910   5.485   4.710   5.981
 1671SOL     OW 5911   4.598   3.193   6.998
 1671SOL    HW1 5912   4.656   3.210   6.918
 1671SOL    HW2 5913   4.541   3.273   7.015
 1672SOL     OW 5914   1.617   5.250   2.605
 1672SOL    HW1 5915   1.683   5.183   2.641
 1672SOL    HW2 5916   1.648   5.282   2.516
 1673SOL     OW 5917   6.915   3.240   4.241
 1673SOL    HW1 5918   6.962   3.231   4.329
 1673SOL    HW2 5919   6.922   3.335   4.209
 1674SOL     OW 5920   0.538   4.249   6.841
 1674SOL    HW1 5921   0.535   4.327   6.778
 1674SOL    HW2 5922   0.628   4.206   6.836
 1675SOL     OW 5923   4.393   1.747   6.499
 1675SOL    HW1 5924   4.477   1.801   6.504
 1675SOL    HW2 5925   4.388   1.701   6.410
 1676SOL     OW 5926   1.527   0.146   2.790
 1676SOL    HW1 5927   1.602   0.213   2.788
 1676SOL    HW2 5928   1.530   0.091   2.707
 1677SOL     OW 5929   5.673   2.016   4.929
 1677SOL    HW1 5930   5.762   2.061   4.940
 1677SOL    HW2 5931   5.633   2.043   4.841
 1678SOL     OW 5932   5.274   0.439   1.535
 1678SOL    HW1 5933   5.373   0.435   1.548
 1678SOL    HW2 5934   5.242   0.532   1.552
 1679SOL     OW 5935   0.589   3.515   6.393
 1679SOL    HW1 5936   0.681   3.513   6.431
 1679SOL    HW2 5937   0.532   3.578   6.445
 1680SOL     OW 5938   1.170   2.014   4.387
 1680SOL    HW1 5939   1.203   1.962   4.465
 1680SOL    HW2 5940   1.142   2.106   4.417
 1681SOL     OW 5941   6.415   5.544   0.999
 1681SOL    HW1 5942   6.498   5.496   0.970
 1681SOL    HW2 5943   6.348   5.477   1.032
 1682SOL     OW 5944   6.780   3.469   5.949
 1682SOL    HW1 5945   6.856   3.498   5.890
 1682SOL    HW2 5946   6.702   3.444   5.892
 1683SOL     OW 5947   5.496   6.457   1.317
 1683SOL    HW1 5948   5.556   6.513   1.375
 1683SOL    HW2 5949   5.475   6.372   1.364
 1684SOL     OW 5950   0.941   5.849   4.988
 1684SOL    HW1 5951   0.991   5.934   4.972
 1684SOL    HW2 5952   0.956   5.819   5.082
 1685SOL     OW 5953   1.546   0.917   6.988
 1685SOL    HW1 5954   1.516   0.851   0.033
 1685SOL    HW2 5955   1.639   0.894   6.959
 1686SOL     OW 5956   1.420   6.612   0.083
 1686SOL    HW1 5957   1.493   6.641   0.021
 1686SOL    HW2 5958   1.396   6.688   0.143
 1687SOL     OW 5959   1.623   6.285   2.031
 1687SOL    HW1 5960   1.681   6.286   1.950
 1687SOL    HW2 5961   1.666   6.229   2.102
 1688SOL     OW 5962   1.342   1.877   3.171
 1688SOL    HW1 5963   1.265   1.819   3.197
 1688SOL    HW2 5964   1.336   1.964   3.220
 1689SOL     OW 5965   2.136   2.034   3.119
 1689SOL    HW1 5966   2.232   2.017   3.142
 1689SOL    HW2 5967   2.109   2.123   3.154
 1690SOL     OW 5968   1.237   1.164   1.027
 1690SOL    HW1 5969   1.191   1.136   0.942
 1690SOL    HW2 5970   1.274   1.256   1.016
 1691SOL     OW 5971   5.380   4.216   2.733
 1691SOL    HW1 5972   5.299   4.221   2.791
 1691SOL    HW2 5973   5.369   4.279   2.655
 1692SOL     OW 5974   1.387   0.389   2.013
 1692SOL    HW1 5975   1.357   0.410   2.106
 1692SOL    HW2 5976   1.395   0.290   2.002
 1693SOL     OW 5977   2.756   2.309   3.342
 1693SOL    HW1 5978   2.786   2.237   3.405
 1693SOL    HW2 5979   2.734   2.392   3.393
 1694SOL     OW 5980   5.430   5.702   4.960
 1694SOL    HW1 5981   5.518   5.709   4.913
 1694SOL    HW2 5982   5.437   5.748   5.049
 1695SOL     OW 5983   3.101   2.555   5.693
 1695SOL    HW1 5984   3.053   2.642   5.682
 1695SOL    HW2 5985   3.113   2.511   5.604
 1696SOL     OW 5986   4.422   6.164   0.806
 1696SOL    HW1 5987   4.465   6.246   0.768
 1696SOL    HW2 5988   4.411   6.174   0.905
 1697SOL     OW 5989   0.942   1.413   1.990
 1697SOL    HW1 5990   0.990   1.434   1.905
 1697SOL    HW2 5991   0.970   1.478   2.061
 1698SOL     OW 5992   4.473   2.028   1.641
 1698SOL    HW1 5993   4.427   2.013   1.553
 1698SOL    HW2 5994   4.404   2.046   1.712
 1699SOL     OW 5995   2.174   3.381   1.025
 1699SOL    HW1 5996   2.246   3.416   0.965
 1699SOL    HW2 5997   2.099   3.344   0.970
 1700SOL     OW 5998   6.569   3.178   3.022
 1700SOL    HW1 5999   6.556   3.205   3.118
 1700SOL    HW2 6000   6.536   3.084   3.009
 1701SOL     OW 6001   5.833   3.449   3.935
 1701SOL    HW1 6002   5.774   3.524   3.905
 1701SOL    HW2 6003   5.865   3.398   3.856
 1702SOL     OW 6004   4.599   3.943   0.898
 1702SOL    HW1 6005   4.637   3.936   0.805
 1702SOL    HW2 6006   4.664   3.903   0.963
 1703SOL     OW 6007   1.756   3.798   0.174
 1703SOL    HW1 6008   1.698   3.866   0.130
 1703SOL    HW2 6009   1.700   3.735   0.228
 1704SOL     OW 6010   0.626   0.861   1.771
 1704SOL    HW1 6011   0.535   0.822   1.764
 1704SOL    HW2 6012   0.674   0.821   1.849
 1705SOL     OW 6013   4.399   3.206   1.717
 1705SOL    HW1 6014   4.321   3.155   1.755
 1705SOL    HW2 6015   4.478   3.195   1.777
 1706SOL     OW 6016   3.460   0.460   0.621
 1706SOL    HW1 6017   3.440   0.464   0.719
 1706SOL    HW2 6018   3.512   0.377   0.601
 1707SOL     OW 6019   5.080   2.206   3.389
 1707SOL    HW1 6020   5.137   2.124   3.388
 1707SOL    HW2 6021   5.093   2.256   3.304
 1708SOL     OW 6022   0.060   5.071   3.407
 1708SOL    HW1 6023   0.122   5.149   3.405
 1708SOL    HW2 6024   0.094   4.999   3.346
 1709SOL     OW 6025   2.866   6.263   1.959
 1709SOL    HW1 6026   2.772   6.292   1.940
 1709SOL    HW2 6027   2.906   6.324   2.027
 1710SOL     OW 6028   0.550   5.523   4.456
 1710SOL    HW1 6029   0.481   5.456   4.430
 1710SOL    HW2 6030   0.619   5.530   4.384
 1711SOL     OW 6031   1.199   4.607   5.357
 1711SOL    HW1 6032   1.206   4.589   5.455
 1711SOL    HW2 6033   1.195   4.520   5.307
 1712SOL     OW 6034   0.387   4.400   0.449
 1712SOL    HW1 6035   0.315   4.416   0.517
 1712SOL    HW2 6036   0.473   4.439   0.482
 1713SOL     OW 6037   1.072   2.318   1.224
 1713SOL    HW1 6038   1.047   2.386   1.293
 1713SOL    HW2 6039   1.105   2.365   1.142
 1714SOL     OW 6040   3.170   1.802   0.799
 1714SOL    HW1 6041   3.140   1.761   0.885
 1714SOL    HW2 6042   3.233   1.740   0.753
 1715SOL     OW 6043   0.110   3.170   2.873
 1715SOL    HW1 6044   0.034   3.110   2.898
 1715SOL    HW2 6045   0.083   3.227   2.795
 1716SOL     OW 6046   0.411   5.713   6.970
 1716SOL    HW1 6047   0.353   5.734   0.025
 1716SOL    HW2 6048   0.458   5.795   6.939
 1717SOL     OW 6049   2.870   0.351   6.872
 1717SOL    HW1 6050   2.960   0.385   6.900
 1717SOL    HW2 6051   2.799   0.406   6.915
 1718SOL     OW 6052   1.265   4.287   6.515
 1718SOL    HW1 6053   1.256   4.377   6.471
 1718SOL    HW2 6054   1.267   4.299   6.614
 1719SOL     OW 6055   2.132   3.573   1.333
 1719SOL    HW1 6056   2.193   3.595   1.257
 1719SOL    HW2 6057   2.128   3.474   1.345
 1720SOL     OW 6058   6.515   0.769   0.754
 1720SOL    HW1 6059   6.605   0.810   0.738
 1720SOL    HW2 6060   6.487   0.786   0.848
 1721SOL     OW 6061   2.377   6.418   3.443
 1721SOL    HW1 6062   2.345   6.455   3.355
 1721SOL    HW2 6063   2.392   6.493   3.507
 1722SOL     OW 6064   5.809   6.670   2.370
 1722SOL    HW1 6065   5.737   6.602   2.353
 1722SOL    HW2 6066   5.783   6.726   2.448
 1723SOL     OW 6067   6.423   1.602   2.402
 1723SOL    HW1 6068   6.353   1.534   2.379
 1723SOL    HW2 6069   6.498   1.557   2.450
 1724SOL     OW 6070   4.866   1.129   0.219
 1724SOL    HW1 6071   4.887   1.122   0.122
 1724SOL    HW2 6072   4.860   1.038   0.259
 1725SOL     OW 6073   4.052   4.359   1.580
 1725SOL    HW1 6074   3.960   4.364   1.618
 1725SOL    HW2 6075   4.046   4.341   1.482
 1726SOL     OW 6076   0.544   3.863   4.680
 1726SOL    HW1 6077   0.569   3.950   4.723
 1726SOL    HW2 6078   0.604   3.790   4.713
 1727SOL     OW 6079   3.749   3.968   5.266
 1727SOL    HW1 6080   3.695   3.966   5.350
 1727SOL    HW2 6081   3.770   3.875   5.238
 1728SOL     OW 6082   4.359   4.589   3.266
 1728SOL    HW1 6083   4.404   4.525   3.204
 1728SOL    HW2 6084   4.276   4.625   3.223
 1729SOL     OW 6085   2.137   3.600   2.802
 1729SOL    HW1 6086   2.201   3.559   2.737
 1729SOL    HW2 6087   2.051   3.620   2.755
 1730SOL     OW 6088   6.193   2.523   5.483
 1730SOL    HW1 6089   6.225   2.507   5.577
 1730SOL    HW2 6090   6.231   2.608   5.449
 1731SOL     OW 6091   2.047   5.167   0.716
 1731SOL    HW1 6092   2.017   5.072   0.719
 1731SOL    HW2 6093   2.011   5.210   0.633
 1732SOL     OW 6094   0.262   4.290   6.968
 1732SOL    HW1 6095   0.290   4.205   6.924
 1732SOL    HW2 6096   0.278   4.284   0.043
 1733SOL     OW 6097   1.706   3.125   0.785
 1733SOL    HW1 6098   1.685   3.184   0.863
 1733SOL    HW2 6099   1.761   3.047   0.816
 1734SOL     OW 6100   4.853   2.315   1.391
 1734SOL    HW1 6101   4.953   2.319   1.394
 1734SOL    HW2 6102   4.823   2.224   1.420
 1735SOL     OW 6103   6.152   5.238   1.451
 1735SOL    HW1 6104   6.236   5.196   1.417
 1735SOL    HW2 6105   6.087   5.166   1.477
 1736SOL     OW 6106   3.914   3.128   0.200
 1736SOL    HW1 6107   3.960   3.043   0.224
 1736SOL    HW2 6108   3.943   3.201   0.263
 1737SOL     OW 6109   2.185   6.830   3.590
 1737SOL    HW1 6110   2.091   6.805   3.615
 1737SOL    HW2 6111   2.249   6.761   3.625
 1738SOL     OW 6112   1.982   3.141   2.153
 1738SOL    HW1 6113   2.059   3.078   2.148
 1738SOL    HW2 6114   1.962   3.177   2.062
 1739SOL     OW 6115   4.373   2.008   5.108
 1739SOL    HW1 6116   4.304   1.940   5.082
 1739SOL    HW2 6117   4.415   2.046   5.026
 1740SOL     OW 6118   0.447   1.164   5.886
 1740SOL    HW1 6119   0.419   1.231   5.817
 1740SOL    HW2 6120   0.536   1.191   5.924
 1741SOL     OW 6121   1.343   0.207   3.000
 1741SOL    HW1 6122   1.344   0.121   3.051
 1741SOL    HW2 6123   1.421   0.208   2.936
 1742SOL     OW 6124   6.279   0.532   4.213
 1742SOL    HW1 6125   6.262   0.496   4.305
 1742SOL    HW2 6126   6.352   0.600   4.218
 1743SOL     OW 6127   3.780   1.351   1.294
 1743SOL    HW1 6128   3.782   1.439   1.341
 1743SOL    HW2 6129   3.691   1.308   1.307
 1744SOL     OW 6130   2.713   0.417   1.541
 1744SOL    HW1 6131   2.703   0.508   1.500
 1744SOL    HW2 6132   2.685   0.347   1.475
 1745SOL     OW 6133   7.006   2.216   2.617
 1745SOL    HW1 6134   0.030   2.153   2.678
 1745SOL    HW2 6135   6.964   2.289   2.671
 1746SOL     OW 6136   2.940   0.857   5.888
 1746SOL    HW1 6137   2.935   0.941   5.835
 1746SOL    HW2 6138   2.952   0.779   5.826
 1747SOL     OW 6139   3.142   0.113   2.075
 1747SOL    HW1 6140   3.238   0.113   2.104
 1747SOL    HW2 6141   3.134   0.155   1.985
 1748SOL     OW 6142   5.439   2.251   2.534
 1748SOL    HW1 6143   5.412   2.155   2.527
 1748SOL    HW2 6144   5.526   2.265   2.486
 1749SOL     OW 6145   4.301   0.140   6.324
 1749SOL    HW1 6146   4.335   0.111   6.234
 1749SOL    HW2 6147   4.364   0.207   6.363
 1750SOL     OW 6148   4.549   1.523   2.933
 1750SOL    HW1 6149   4.573   1.612   2.971
 1750SOL    HW2 6150   4.600   1.451   2.980
 1751SOL     OW 6151   1.646   5.085   3.775
 1751SOL    HW1 6152   1.576   5.125   3.716
 1751SOL    HW2 6153   1.687   5.157   3.832
 1752SOL     OW 6154   6.151   1.584   0.714
 1752SOL    HW1 6155   6.079   1.519   0.739
 1752SOL    HW2 6156   6.179   1.636   0.794
 1753SOL     OW 6157   1.169   0.123   1.476
 1753SOL    HW1 6158   1.108   0.044   1.473
 1753SOL    HW2 6159   1.167   0.170   1.388
 1754SOL     OW 6160   4.047   3.199   0.719
 1754SOL    HW1 6161   4.019   3.103   0.721
 1754SOL    HW2 6162   4.002   3.249   0.793
 1755SOL     OW 6163   5.124   3.928   0.700
 1755SOL    HW1 6164   5.180   4.001   0.659
 1755SOL    HW2 6165   5.124   3.938   0.799
 1756SOL     OW 6166   6.889   5.662   4.140
 1756SOL    HW1 6167   6.918   5.751   4.104
 1756SOL    HW2 6168   6.969   5.604   4.154
 1757SOL     OW 6169   3.501   6.492   4.904
 1757SOL    HW1 6170   3.524   6.446   4.990
 1757SOL    HW2 6171   3.403   6.481   4.886
 1758SOL     OW 6172   2.114   0.562   3.074
 1758SOL    HW1 6173   2.026   0.609   3.081
 1758SOL    HW2 6174   2.136   0.519   3.161
 1759SOL     OW 6175   0.719   5.493   6.416
 1759SOL    HW1 6176   0.812   5.479   6.451
 1759SOL    HW2 6177   0.656   5.503   6.493
 1760SOL     OW 6178   6.534   0.733   2.696
 1760SOL    HW1 6179   6.435   0.747   2.696
 1760SOL    HW2 6180   6.563   0.705   2.604
 1761SOL     OW 6181   6.162   1.186   1.165
 1761SOL    HW1 6182   6.140   1.143   1.253
 1761SOL    HW2 6183   6.138   1.283   1.168
 1762SOL     OW 6184   5.884   1.605   6.109
 1762SOL    HW1 6185   5.807   1.646   6.157
 1762SOL    HW2 6186   5.875   1.505   6.109
 1763SOL     OW 6187   2.098   3.823   4.296
 1763SOL    HW1 6188   2.010   3.865   4.319
 1763SOL    HW2 6189   2.124   3.758   4.368
 1764SOL     OW 6190   0.472   3.437   3.394
 1764SOL    HW1 6191   0.460   3.457   3.296
 1764SOL    HW2 6192   0.392   3.388   3.428
 1765SOL     OW 6193   2.829   1.863   6.700
 1765SOL    HW1 6194   2.887   1.867   6.618
 1765SOL    HW2 6195   2.828   1.953   6.744
 1766SOL     OW 6196   5.694   3.011   5.186
 1766SOL    HW1 6197   5.654   3.062   5.262
 1766SOL    HW2 6198   5.698   3.068   5.105
 1767SOL     OW 6199   5.621   3.246   2.235
 1767SOL    HW1 6200   5.610   3.328   2.290
 1767SOL    HW2 6201   5.576   3.258   2.147
 1768SOL     OW 6202   4.923   6.590   3.837
 1768SOL    HW1 6203   4.990   6.536   3.786
 1768SOL    HW2 6204   4.833   6.546   3.830
 1769SOL     OW 6205   3.543   1.767   2.362
 1769SOL    HW1 6206   3.494   1.758   2.449
 1769SOL    HW2 6207   3.493   1.718   2.290
 1770SOL     OW 6208   2.532   5.858   5.405
 1770SOL    HW1 6209   2.502   5.850   5.500
 1770SOL    HW2 6210   2.510   5.949   5.371
 1771SOL     OW 6211   3.785   5.570   6.402
 1771SOL    HW1 6212   3.752   5.481   6.433
 1771SOL    HW2 6213   3.740   5.595   6.316
 1772SOL     OW 6214   2.896   6.594   3.307
 1772SOL    HW1 6215   2.844   6.508   3.298
 1772SOL    HW2 6216   2.976   6.590   3.247
 1773SOL     OW 6217   1.616   5.614   6.116
 1773SOL    HW1 6218   1.554   5.558   6.060
 1773SOL    HW2 6219   1.663   5.555   6.181
 1774SOL     OW 6220   4.297   5.749   1.339
 1774SOL    HW1 6221   4.364   5.719   1.407
 1774SOL    HW2 6222   4.329   5.834   1.297
 1775SOL     OW 6223   0.916   4.123   2.369
 1775SOL    HW1 6224   0.934   4.028   2.346
 1775SOL    HW2 6225   0.874   4.169   2.292
 1776SOL     OW 6226   4.037   6.362   4.509
 1776SOL    HW1 6227   4.077   6.401   4.592
 1776SOL    HW2 6228   4.026   6.263   4.521
 1777SOL     OW 6229   4.249   6.095   0.617
 1777SOL    HW1 6230   4.326   6.120   0.676
 1777SOL    HW2 6231   4.164   6.103   0.669
 1778SOL     OW 6232   5.111   3.961   5.926
 1778SOL    HW1 6233   5.170   4.041   5.934
 1778SOL    HW2 6234   5.018   3.985   5.954
 1779SOL     OW 6235   3.902   0.669   4.965
 1779SOL    HW1 6236   3.954   0.622   4.894
 1779SOL    HW2 6237   3.805   0.651   4.954
 1780SOL     OW 6238   3.092   3.043   6.513
 1780SOL    HW1 6239   3.109   3.062   6.416
 1780SOL    HW2 6240   3.051   2.953   6.523
 1781SOL     OW 6241   4.095   5.667   3.048
 1781SOL    HW1 6242   4.005   5.704   3.071
 1781SOL    HW2 6243   4.166   5.716   3.099
 1782SOL     OW 6244   2.639   0.784   3.315
 1782SOL    HW1 6245   2.661   0.855   3.248
 1782SOL    HW2 6246   2.709   0.782   3.387
 1783SOL     OW 6247   2.669   5.655   6.302
 1783SOL    HW1 6248   2.697   5.646   6.398
 1783SOL    HW2 6249   2.593   5.593   6.284
 1784SOL     OW 6250   3.401   0.118   6.045
 1784SOL    HW1 6251   3.311   0.162   6.043
 1784SOL    HW2 6252   3.409   0.063   6.129
 1785SOL     OW 6253   6.028   3.251   2.508
 1785SOL    HW1 6254   6.123   3.267   2.484
 1785SOL    HW2 6255   5.969   3.279   2.432
 1786SOL     OW 6256   2.320   2.792   0.267
 1786SOL    HW1 6257   2.234   2.795   0.215
 1786SOL    HW2 6258   2.307   2.835   0.356
 1787SOL     OW 6259   3.444   1.832   5.744
 1787SOL    HW1 6260   3.495   1.832   5.830
 1787SOL    HW2 6261   3.470   1.911   5.689
 1788SOL     OW 6262   1.772   5.216   5.222
 1788SOL    HW1 6263   1.812   5.253   5.138
 1788SOL    HW2 6264   1.837   5.153   5.264
 1789SOL     OW 6265   5.899   1.719   0.257
 1789SOL    HW1 6266   5.967   1.784   0.292
 1789SOL    HW2 6267   5.879   1.651   0.327
 1790SOL     OW 6268   3.886   6.828   3.528
 1790SOL    HW1 6269   3.793   6.801   3.555
 1790SOL    HW2 6270   3.929   6.752   3.479
 1791SOL     OW 6271   0.245   0.403   2.583
 1791SOL    HW1 6272   0.169   0.343   2.609
 1791SOL    HW2 6273   0.331   0.366   2.619
 1792SOL     OW 6274   0.957   3.710   5.434
 1792SOL    HW1 6275   0.961   3.619   5.475
 1792SOL    HW2 6276   0.922   3.775   5.501
 1793SOL     OW 6277   6.848   0.747   3.271
 1793SOL    HW1 6278   6.799   0.660   3.272
 1793SOL    HW2 6279   6.868   0.774   3.177
 1794SOL     OW 6280   4.905   5.646   6.193
 1794SOL    HW1 6281   4.843   5.659   6.115
 1794SOL    HW2 6282   4.944   5.734   6.219
 1795SOL     OW 6283   6.904   2.586   0.776
 1795SOL    HW1 6284   6.850   2.522   0.832
 1795SOL    HW2 6285   6.882   2.680   0.803
 1796SOL     OW 6286   2.208   0.794   5.652
 1796SOL    HW1 6287   2.231   0.823   5.559
 1796SOL    HW2 6288   2.250   0.706   5.672
 1797SOL     OW 6289   1.240   6.706   0.748
 1797SOL    HW1 6290   1.253   6.798   0.713
 1797SOL    HW2 6291   1.143   6.690   0.766
 1798SOL     OW 6292   4.815   2.579   3.832
 1798SOL    HW1 6293   4.761   2.598   3.914
 1798SOL    HW2 6294   4.899   2.633   3.834
 1799SOL     OW 6295   0.343   2.038   5.933
 1799SOL    HW1 6296   0.310   2.132   5.944
 1799SOL    HW2 6297   0.320   1.986   6.016
 1800SOL     OW 6298   4.101   4.347   1.293
 1800SOL    HW1 6299   4.192   4.376   1.322
 1800SOL    HW2 6300   4.105   4.317   1.197
 1801SOL     OW 6301   6.855   0.370   2.148
 1801SOL    HW1 6302   6.759   0.348   2.134
 1801SOL    HW2 6303   6.863   0.444   2.215
 1802SOL     OW 6304   6.469   5.770   4.561
 1802SOL    HW1 6305   6.397   5.731   4.619
 1802SOL    HW2 6306   6.546   5.708   4.557
 1803SOL     OW 6307   0.079   5.447   0.257
 1803SOL    HW1 6308   0.086   5.371   0.193
 1803SOL    HW2 6309   0.037   5.526   0.210
 1804SOL     OW 6310   3.109   3.882   5.235
 1804SOL    HW1 6311   3.118   3.912   5.140
 1804SOL    HW2 6312   3.137   3.786   5.242
 1805SOL     OW 6313   5.236   3.778   6.118
 1805SOL    HW1 6314   5.191   3.848   6.062
 1805SOL    HW2 6315   5.311   3.820   6.169
 1806SOL     OW 6316   1.428   0.081   1.508
 1806SOL    HW1 6317   1.444   7.005   1.505
 1806SOL    HW2 6318   1.340   0.102   1.465
 1807SOL     OW 6319   6.161   1.808   4.811
 1807SOL    HW1 6320   6.239   1.870   4.808
 1807SOL    HW2 6321   6.121   1.801   4.719
 1808SOL     OW 6322   0.310   5.031   4.726
 1808SOL    HW1 6323   0.362   5.066   4.804
 1808SOL    HW2 6324   0.349   5.066   4.641
 1809SOL     OW 6325   2.897   2.121   6.198
 1809SOL    HW1 6326   2.942   2.198   6.244
 1809SOL    HW2 6327   2.966   2.060   6.160
 1810SOL     OW 6328   3.130   6.406   3.821
 1810SOL    HW1 6329   3.162   6.323   3.867
 1810SOL    HW2 6330   3.205   6.448   3.771
 1811SOL     OW 6331   5.932   5.405   3.194
 1811SOL    HW1 6332   5.894   5.354   3.270
 1811SOL    HW2 6333   5.880   5.489   3.180
 1812SOL     OW 6334   4.270   5.809   5.377
 1812SOL    HW1 6335   4.304   5.716   5.391
 1812SOL    HW2 6336   4.230   5.817   5.286
 1813SOL     OW 6337   5.656   4.478   0.168
 1813SOL    HW1 6338   5.739   4.431   0.197
 1813SOL    HW2 6339   5.590   4.480   0.243
 1814SOL     OW 6340   4.568   6.949   2.535
 1814SOL    HW1 6341   4.624   0.007   2.518
 1814SOL    HW2 6342   4.489   6.973   2.591
 1815SOL     OW 6343   0.136   1.143   3.254
 1815SOL    HW1 6344   0.090   1.066   3.209
 1815SOL    HW2 6345   0.119   1.226   3.201
 1816SOL     OW 6346   1.637   3.538   0.233
 1816SOL    HW1 6347   1.708   3.535   0.163
 1816SOL    HW2 6348   1.558   3.484   0.203
 1817SOL     OW 6349   1.772   5.680   2.515
 1817SOL    HW1 6350   1.823   5.624   2.450
 1817SOL    HW2 6351   1.825   5.762   2.536
 1818SOL     OW 6352   1.775   0.359   2.999
 1818SOL    HW1 6353   1.773   0.359   2.899
 1818SOL    HW2 6354   1.712   0.429   3.033
 1819SOL     OW 6355   1.431   3.946   1.408
 1819SOL    HW1 6356   1.424   3.919   1.504
 1819SOL    HW2 6357   1.470   3.871   1.355
 1820SOL     OW 6358   4.623   0.509   2.390
 1820SOL    HW1 6359   4.538   0.473   2.352
 1820SOL    HW2 6360   4.615   0.608   2.401
 1821SOL     OW 6361   2.221   1.657   3.020
 1821SOL    HW1 6362   2.150   1.712   3.064
 1821SOL    HW2 6363   2.300   1.714   3.000
 1822SOL     OW 6364   3.370   2.560   1.657
 1822SOL    HW1 6365   3.272   2.554   1.678
 1822SOL    HW2 6366   3.408   2.468   1.651
 1823SOL     OW 6367   4.190   6.553   2.321
 1823SOL    HW1 6368   4.129   6.630   2.338
 1823SOL    HW2 6369   4.254   6.544   2.397
 1824SOL     OW 6370   4.502   2.598   1.306
 1824SOL    HW1 6371   4.529   2.676   1.362
 1824SOL    HW2 6372   4.581   2.563   1.256
 1825SOL     OW 6373   0.883   0.518   1.470
 1825SOL    HW1 6374   0.907   0.615   1.461
 1825SOL    HW2 6375   0.785   0.507   1.456
 1826SOL     OW 6376   3.316   0.400   0.387
 1826SOL    HW1 6377   3.368   0.425   0.470
 1826SOL    HW2 6378   3.377   0.401   0.308
 1827SOL     OW 6379   6.645   5.569   1.705
 1827SOL    HW1 6380   6.738   5.534   1.721
 1827SOL    HW2 6381   6.630   5.649   1.762
 1828SOL     OW 6382   0.483   2.748   6.374
 1828SOL    HW1 6383   0.462   2.727   6.469
 1828SOL    HW2 6384   0.578   2.779   6.367
 1829SOL     OW 6385   5.077   5.767   3.087
 1829SOL    HW1 6386   5.096   5.818   3.003
 1829SOL    HW2 6387   5.010   5.695   3.067
 1830SOL     OW 6388   4.582   6.418   3.022
 1830SOL    HW1 6389   4.619   6.478   3.093
 1830SOL    HW2 6390   4.540   6.338   3.064
 1831SOL     OW 6391   5.379   6.077   1.832
 1831SOL    HW1 6392   5.416   6.122   1.913
 1831SOL    HW2 6393   5.446   6.011   1.797
 1832SOL     OW 6394   4.348   2.634   0.898
 1832SOL    HW1 6395   4.316   2.581   0.977
 1832SOL    HW2 6396   4.321   2.730   0.910
 1833SOL     OW 6397   5.200   0.350   5.033
 1833SOL    HW1 6398   5.209   0.449   5.025
 1833SOL    HW2 6399   5.286   0.311   5.065
 1834SOL     OW 6400   3.760   3.502   1.219
 1834SOL    HW1 6401   3.854   3.476   1.196
 1834SOL    HW2 6402   3.715   3.425   1.265
 1835SOL     OW 6403   1.686   5.010   0.807
 1835SOL    HW1 6404   1.615   4.947   0.775
 1835SOL    HW2 6405   1.776   4.972   0.786
 1836SOL     OW 6406   0.548   0.218   0.340
 1836SOL    HW1 6407   0.491   0.139   0.362
 1836SOL    HW2 6408   0.552   0.279   0.420
 1837SOL     OW 6409   1.049   2.637   4.512
 1837SOL    HW1 6410   1.095   2.697   4.577
 1837SOL    HW2 6411   1.116   2.598   4.449
 1838SOL     OW 6412   0.038   2.853   4.419
 1838SOL    HW1 6413   0.109   2.791   4.453
 1838SOL    HW2 6414   0.074   2.947   4.418
 1839SOL     OW 6415   6.312   2.794   5.164
 1839SOL    HW1 6416   6.352   2.829   5.079
 1839SOL    HW2 6417   6.269   2.869   5.214
 1840SOL     OW 6418   2.867   5.772   0.636
 1840SOL    HW1 6419   2.931   5.715   0.688
 1840SOL    HW2 6420   2.918   5.823   0.567
 1841SOL     OW 6421   2.188   3.215   3.810
 1841SOL    HW1 6422   2.195   3.255   3.902
 1841SOL    HW2 6423   2.128   3.270   3.754
 1842SOL     OW 6424   0.761   4.284   0.972
 1842SOL    HW1 6425   0.770   4.184   0.973
 1842SOL    HW2 6426   0.777   4.319   1.065
 1843SOL     OW 6427   2.498   1.524   5.408
 1843SOL    HW1 6428   2.510   1.517   5.507
 1843SOL    HW2 6429   2.565   1.588   5.371
 1844SOL     OW 6430   4.105   2.199   4.028
 1844SOL    HW1 6431   4.008   2.190   4.049
 1844SOL    HW2 6432   4.117   2.234   3.936
 1845SOL     OW 6433   3.711   0.260   0.355
 1845SOL    HW1 6434   3.800   0.253   0.310
 1845SOL    HW2 6435   3.688   0.356   0.367
 1846SOL     OW 6436   2.837   2.312   6.485
 1846SOL    HW1 6437   2.849   2.358   6.573
 1846SOL    HW2 6438   2.916   2.331   6.426
 1847SOL     OW 6439   0.863   0.199   1.078
 1847SOL    HW1 6440   0.892   0.229   1.169
 1847SOL    HW2 6441   0.900   0.108   1.059
 1848SOL     OW 6442   3.379   6.664   2.051
 1848SOL    HW1 6443   3.406   6.713   1.969
 1848SOL    HW2 6444   3.338   6.728   2.116
 1849SOL     OW 6445   3.333   1.836   6.825
 1849SOL    HW1 6446   3.354   1.767   6.894
 1849SOL    HW2 6447   3.318   1.924   6.869
 1850SOL     OW 6448   6.255   2.621   2.996
 1850SOL    HW1 6449   6.172   2.622   3.051
 1850SOL    HW2 6450   6.298   2.531   3.002
 1851SOL     OW 6451   0.336   2.413   2.298
 1851SOL    HW1 6452   0.426   2.371   2.311
 1851SOL    HW2 6453   0.317   2.475   2.374
 1852SOL     OW 6454   4.277   3.113   0.244
 1852SOL    HW1 6455   4.204   3.079   0.302
 1852SOL    HW2 6456   4.286   3.212   0.254
 1853SOL     OW 6457   0.899   3.918   1.415
 1853SOL    HW1 6458   0.815   3.960   1.380
 1853SOL    HW2 6459   0.975   3.984   1.408
 1854SOL     OW 6460   2.877   5.977   4.591
 1854SOL    HW1 6461   2.824   5.933   4.664
 1854SOL    HW2 6462   2.897   5.910   4.519
 1855SOL     OW 6463   5.412   5.325   0.668
 1855SOL    HW1 6464   5.414   5.422   0.690
 1855SOL    HW2 6465   5.333   5.305   0.611
 1856SOL     OW 6466   5.526   2.421   4.815
 1856SOL    HW1 6467   5.524   2.339   4.759
 1856SOL    HW2 6468   5.580   2.492   4.768
 1857SOL     OW 6469   4.117   1.030   4.122
 1857SOL    HW1 6470   4.072   1.115   4.094
 1857SOL    HW2 6471   4.215   1.037   4.104
 1858SOL     OW 6472   5.252   2.913   3.739
 1858SOL    HW1 6473   5.177   2.860   3.698
 1858SOL    HW2 6474   5.332   2.855   3.750
 1859SOL     OW 6475   4.483   2.461   3.418
 1859SOL    HW1 6476   4.424   2.385   3.389
 1859SOL    HW2 6477   4.497   2.524   3.341
 1860SOL     OW 6478   6.181   1.029   4.217
 1860SOL    HW1 6479   6.172   0.939   4.174
 1860SOL    HW2 6480   6.137   1.028   4.307
 1861SOL     OW 6481   5.333   6.473   3.001
 1861SOL    HW1 6482   5.261   6.461   3.069
 1861SOL    HW2 6483   5.386   6.389   2.994
 1862SOL     OW 6484   2.127   1.196   0.269
 1862SOL    HW1 6485   2.084   1.110   0.297
 1862SOL    HW2 6486   2.213   1.176   0.221
 1863SOL     OW 6487   3.017   2.661   1.401
 1863SOL    HW1 6488   3.000   2.732   1.470
 1863SOL    HW2 6489   3.021   2.702   1.310
 1864SOL     OW 6490   1.054   6.339   4.843
 1864SOL    HW1 6491   1.001   6.281   4.782
 1864SOL    HW2 6492   0.995   6.406   4.886
 1865SOL     OW 6493   4.132   1.891   5.699
 1865SOL    HW1 6494   4.082   1.878   5.785
 1865SOL    HW2 6495   4.106   1.820   5.634
 1866SOL     OW 6496   4.632   4.352   2.237
 1866SOL    HW1 6497   4.607   4.315   2.148
 1866SOL    HW2 6498   4.707   4.298   2.276
 1867SOL     OW 6499   6.859   3.927   6.948
 1867SOL    HW1 6500   6.816   4.017   6.939
 1867SOL    HW2 6501   6.881   3.910   0.020
 1868SOL     OW 6502   5.915   4.808   6.323
 1868SOL    HW1 6503   5.851   4.731   6.328
 1868SOL    HW2 6504   5.904   4.855   6.236
 1869SOL     OW 6505   6.582   1.297   5.280
 1869SOL    HW1 6506   6.519   1.223   5.254
 1869SOL    HW2 6507   6.659   1.299   5.217
 1870SOL     OW 6508   1.848   5.432   4.519
 1870SOL    HW1 6509   1.918   5.456   4.586
 1870SOL    HW2 6510   1.845   5.502   4.448
 1871SOL     OW 6511   2.179   0.069   0.399
 1871SOL    HW1 6512   2.085   0.102   0.409
 1871SOL    HW2 6513   2.178   6.998   0.365
 1872SOL     OW 6514   1.952   4.370   0.301
 1872SOL    HW1 6515   2.015   4.429   0.251
 1872SOL    HW2 6516   1.967   4.380   0.399
 1873SOL     OW 6517   4.164   1.369   6.337
 1873SOL    HW1 6518   4.199   1.398   6.248
 1873SOL    HW2 6519   4.065   1.363   6.334
 1874SOL     OW 6520   1.970   1.638   1.948
 1874SOL    HW1 6521   1.974   1.541   1.974
 1874SOL    HW2 6522   1.895   1.683   1.996
 1875SOL     OW 6523   0.411   6.771   6.319
 1875SOL    HW1 6524   0.389   6.760   6.416
 1875SOL    HW2 6525   0.338   6.824   6.275
 1876SOL     OW 6526   3.100   0.053   4.566
 1876SOL    HW1 6527   3.096   0.128   4.500
 1876SOL    HW2 6528   3.067   0.086   4.655
 1877SOL     OW 6529   1.076   0.108   3.907
 1877SOL    HW1 6530   1.038   0.017   3.893
 1877SOL    HW2 6531   1.040   0.147   3.992
 1878SOL     OW 6532   6.635   2.549   4.519
 1878SOL    HW1 6533   6.644   2.635   4.469
 1878SOL    HW2 6534   6.682   2.557   4.607
 1879SOL     OW 6535   0.995   4.016   4.999
 1879SOL    HW1 6536   0.925   3.944   4.996
 1879SOL    HW2 6537   0.950   4.105   5.008
 1880SOL     OW 6538   6.279   1.742   5.098
 1880SOL    HW1 6539   6.187   1.774   5.073
 1880SOL    HW2 6540   6.272   1.654   5.145
 1881SOL     OW 6541   6.298   1.947   0.412
 1881SOL    HW1 6542   6.358   1.912   0.483
 1881SOL    HW2 6543   6.203   1.942   0.442
 1882SOL     OW 6544   1.068   4.136   6.135
 1882SOL    HW1 6545   0.994   4.086   6.091
 1882SOL    HW2 6546   1.146   4.141   6.072
 1883SOL     OW 6547   0.128   2.874   2.930
 1883SOL    HW1 6548   0.152   2.904   3.022
 1883SOL    HW2 6549   0.204   2.894   2.868
 1884SOL     OW 6550   0.277   2.002   1.562
 1884SOL    HW1 6551   0.258   1.922   1.619
 1884SOL    HW2 6552   0.299   2.080   1.620
 1885SOL     OW 6553   2.004   2.195   5.856
 1885SOL    HW1 6554   2.024   2.219   5.951
 1885SOL    HW2 6555   2.089   2.188   5.804
 1886SOL     OW 6556   1.454   6.743   3.354
 1886SOL    HW1 6557   1.414   6.833   3.369
 1886SOL    HW2 6558   1.521   6.748   3.280
 1887SOL     OW 6559   1.275   6.204   6.314
 1887SOL    HW1 6560   1.358   6.259   6.299
 1887SOL    HW2 6561   1.195   6.258   6.289
 1888SOL     OW 6562   2.709   1.243   1.152
 1888SOL    HW1 6563   2.702   1.320   1.215
 1888SOL    HW2 6564   2.672   1.270   1.063
 1889SOL     OW 6565   1.435   3.641   3.408
 1889SOL    HW1 6566   1.463   3.547   3.387
 1889SOL    HW2 6567   1.481   3.704   3.345
 1890SOL     OW 6568   0.896   5.866   3.841
 1890SOL    HW1 6569   0.895   5.881   3.940
 1890SOL    HW2 6570   0.990   5.857   3.809
 1891SOL     OW 6571   4.150   3.602   2.486
 1891SOL    HW1 6572   4.163   3.588   2.388
 1891SOL    HW2 6573   4.135   3.513   2.530
 1892SOL     OW 6574   6.964   0.287   1.840
 1892SOL    HW1 6575   6.911   0.312   1.921
 1892SOL    HW2 6576   6.901   0.267   1.765
 1893SOL     OW 6577   3.415   3.589   3.357
 1893SOL    HW1 6578   3.452   3.495   3.359
 1893SOL    HW2 6579   3.429   3.628   3.266
 1894SOL     OW 6580   3.703   3.822   4.366
 1894SOL    HW1 6581   3.688   3.733   4.323
 1894SOL    HW2 6582   3.626   3.843   4.427
 1895SOL     OW 6583   4.305   0.247   0.223
 1895SOL    HW1 6584   4.357   0.287   0.299
 1895SOL    HW2 6585   4.361   0.180   0.175
 1896SOL     OW 6586   5.093   1.841   1.129
 1896SOL    HW1 6587   5.051   1.898   1.058
 1896SOL    HW2 6588   5.108   1.896   1.211
 1897SOL     OW 6589   2.611   4.752   3.404
 1897SOL    HW1 6590   2.618   4.848   3.432
 1897SOL    HW2 6591   2.611   4.746   3.305
 1898SOL     OW 6592   1.292   5.872   3.518
 1898SOL    HW1 6593   1.381   5.882   3.473
 1898SOL    HW2 6594   1.259   5.962   3.545
 1899SOL     OW 6595   0.075   0.056   1.951
 1899SOL    HW1 6596   0.073   0.141   1.898
 1899SOL    HW2 6597   7.004   0.024   1.967
 1900SOL     OW 6598   3.122   0.355   6.990
 1900SOL    HW1 6599   3.084   0.266   7.015
 1900SOL    HW2 6600   3.217   0.361   7.021
 1901SOL     OW 6601   3.055   3.890   0.904
 1901SOL    HW1 6602   3.088   3.984   0.906
 1901SOL    HW2 6603   2.970   3.884   0.958
 1902SOL     OW 6604   1.727   6.522   5.007
 1902SOL    HW1 6605   1.673   6.437   5.011
 1902SOL    HW2 6606   1.752   6.540   4.912
 1903SOL     OW 6607   1.035   2.995   4.233
 1903SOL    HW1 6608   1.064   3.090   4.222
 1903SOL    HW2 6609   0.968   2.972   4.162
 1904SOL     OW 6610   5.662   5.609   2.597
 1904SOL    HW1 6611   5.704   5.547   2.532
 1904SOL    HW2 6612   5.573   5.638   2.563
 1905SOL     OW 6613   0.429   0.916   3.730
 1905SOL    HW1 6614   0.423   0.856   3.810
 1905SOL    HW2 6615   0.514   0.897   3.680
 1906SOL     OW 6616   2.703   0.402   5.555
 1906SOL    HW1 6617   2.694   0.340   5.632
 1906SOL    HW2 6618   2.799   0.429   5.545
 1907SOL     OW 6619   4.847   2.665   0.038
 1907SOL    HW1 6620   4.778   2.659   0.109
 1907SOL    HW2 6621   4.898   2.751   0.048
 1908SOL     OW 6622   3.642   1.220   0.873
 1908SOL    HW1 6623   3.637   1.121   0.888
 1908SOL    HW2 6624   3.554   1.261   0.899
 1909SOL     OW 6625   0.027   4.900   5.121
 1909SOL    HW1 6626   0.002   4.928   5.028
 1909SOL    HW2 6627   0.118   4.935   5.144
 1910SOL     OW 6628   6.576   6.233   6.107
 1910SOL    HW1 6629   6.504   6.222   6.039
 1910SOL    HW2 6630   6.588   6.146   6.155
 1911SOL     OW 6631   0.056   5.184   4.094
 1911SOL    HW1 6632   0.066   5.107   4.156
 1911SOL    HW2 6633   0.062   5.152   3.999
 1912SOL     OW 6634   2.357   5.002   2.508
 1912SOL    HW1 6635   2.413   4.933   2.552
 1912SOL    HW2 6636   2.279   5.024   2.567
 1913SOL     OW 6637   2.756   4.720   5.319
 1913SOL    HW1 6638   2.800   4.664   5.248
 1913SOL    HW2 6639   2.732   4.662   5.397
 1914SOL     OW 6640   2.769   4.377   6.260
 1914SOL    HW1 6641   2.769   4.277   6.258
 1914SOL    HW2 6642   2.697   4.409   6.322
 1915SOL     OW 6643   5.069   2.597   6.264
 1915SOL    HW1 6644   5.039   2.588   6.359
 1915SOL    HW2 6645   5.161   2.638   6.262
 1916SOL     OW 6646   3.930   0.776   1.990
 1916SOL    HW1 6647   3.887   0.759   1.901
 1916SOL    HW2 6648   4.029   0.764   1.982
 1917SOL     OW 6649   2.457   4.550   1.246
 1917SOL    HW1 6650   2.536   4.610   1.252
 1917SOL    HW2 6651   2.376   4.599   1.278
 1918SOL     OW 6652   6.732   1.725   4.540
 1918SOL    HW1 6653   6.806   1.790   4.556
 1918SOL    HW2 6654   6.709   1.725   4.443
 1919SOL     OW 6655   1.249   1.867   0.946
 1919SOL    HW1 6656   1.200   1.850   0.861
 1919SOL    HW2 6657   1.241   1.788   1.006
 1920SOL     OW 6658   5.428   2.457   0.929
 1920SOL    HW1 6659   5.392   2.510   1.006
 1920SOL    HW2 6660   5.396   2.498   0.843
 1921SOL     OW 6661   2.133   3.171   6.836
 1921SOL    HW1 6662   2.104   3.196   6.744
 1921SOL    HW2 6663   2.105   3.077   6.856
 1922SOL     OW 6664   2.942   3.494   2.199
 1922SOL    HW1 6665   2.891   3.466   2.281
 1922SOL    HW2 6666   2.896   3.461   2.118
 1923SOL     OW 6667   4.425   0.416   5.542
 1923SOL    HW1 6668   4.407   0.318   5.537
 1923SOL    HW2 6669   4.492   0.441   5.472
 1924SOL     OW 6670   4.461   6.950   0.930
 1924SOL    HW1 6671   4.466   6.928   0.833
 1924SOL    HW2 6672   4.552   6.972   0.964
 1925SOL     OW 6673   1.094   4.348   1.057
 1925SOL    HW1 6674   1.000   4.374   1.034
 1925SOL    HW2 6675   1.095   4.252   1.087
 1926SOL     OW 6676   3.412   0.090   2.140
 1926SOL    HW1 6677   3.471   0.017   2.175
 1926SOL    HW2 6678   3.457   0.178   2.152
 1927SOL     OW 6679   2.045   5.365   1.393
 1927SOL    HW1 6680   1.954   5.337   1.424
 1927SOL    HW2 6681   2.113   5.299   1.423
 1928SOL     OW 6682   4.756   4.193   2.793
 1928SOL    HW1 6683   4.687   4.243   2.845
 1928SOL    HW2 6684   4.728   4.186   2.697
 1929SOL     OW 6685   3.009   0.736   3.005
 1929SOL    HW1 6686   2.971   0.825   2.980
 1929SOL    HW2 6687   2.991   0.670   2.932
 1930SOL     OW 6688   4.531   2.841   6.618
 1930SOL    HW1 6689   4.628   2.843   6.591
 1930SOL    HW2 6690   4.508   2.748   6.649
 1931SOL     OW 6691   0.646   1.690   4.740
 1931SOL    HW1 6692   0.692   1.771   4.703
 1931SOL    HW2 6693   0.653   1.690   4.839
 1932SOL     OW 6694   4.490   2.320   2.455
 1932SOL    HW1 6695   4.531   2.231   2.433
 1932SOL    HW2 6696   4.422   2.343   2.386
 1933SOL     OW 6697   0.889   1.241   1.081
 1933SOL    HW1 6698   0.952   1.198   1.145
 1933SOL    HW2 6699   0.927   1.328   1.049
 1934SOL     OW 6700   0.363   0.276   5.838
 1934SOL    HW1 6701   0.393   0.244   5.749
 1934SOL    HW2 6702   0.275   0.236   5.861
 1935SOL     OW 6703   0.007   4.921   4.166
 1935SOL    HW1 6704   6.946   4.869   4.155
 1935SOL    HW2 6705   0.079   4.861   4.199
 1936SOL     OW 6706   4.737   2.883   5.057
 1936SOL    HW1 6707   4.653   2.882   5.111
 1936SOL    HW2 6708   4.730   2.816   4.983
 1937SOL     OW 6709   5.087   5.136   6.909
 1937SOL    HW1 6710   5.069   5.037   6.908
 1937SOL    HW2 6711   5.108   5.167   6.816
 1938SOL     OW 6712   0.736   2.818   6.296
 1938SOL    HW1 6713   0.774   2.729   6.271
 1938SOL    HW2 6714   0.705   2.865   6.214
 1939SOL     OW 6715   1.275   0.137   4.609
 1939SOL    HW1 6716   1.257   0.201   4.683
 1939SOL    HW2 6717   1.208   0.063   4.611
 1940SOL     OW 6718   6.473   4.632   1.399
 1940SOL    HW1 6719   6.467   4.674   1.490
 1940SOL    HW2 6720   6.389   4.652   1.348
 1941SOL     OW 6721   0.125   2.554   4.172
 1941SOL    HW1 6722   0.190   2.629   4.186
 1941SOL    HW2 6723   0.032   2.587   4.190
 1942SOL     OW 6724   5.547   3.578   2.626
 1942SOL    HW1 6725   5.492   3.654   2.591
 1942SOL    HW2 6726   5.487   3.504   2.656
 1943SOL     OW 6727   1.062   1.451   2.671
 1943SOL    HW1 6728   1.042   1.354   2.660
 1943SOL    HW2 6729   1.059   1.475   2.768
 1944SOL     OW 6730   7.000   2.652   1.903
 1944SOL    HW1 6731   0.013   2.705   1.827
 1944SOL    HW2 6732   0.050   2.632   1.969
 1945SOL     OW 6733   4.951   0.451   2.048
 1945SOL    HW1 6734   4.964   0.402   1.963
 1945SOL    HW2 6735   4.915   0.388   2.118
 1946SOL     OW 6736   5.885   5.365   1.493
 1946SOL    HW1 6737   5.856   5.428   1.421
 1946SOL    HW2 6738   5.974   5.325   1.469
 1947SOL     OW 6739   6.266   4.753   4.109
 1947SOL    HW1 6740   6.323   4.673   4.090
 1947SOL    HW2 6741   6.170   4.731   4.089
 1948SOL     OW 6742   5.058   3.570   3.377
 1948SOL    HW1 6743   5.058   3.493   3.313
 1948SOL    HW2 6744   5.023   3.652   3.331
 1949SOL     OW 6745   3.828   4.999   6.499
 1949SOL    HW1 6746   3.882   4.979   6.581
 1949SOL    HW2 6747   3.731   4.990   6.520
 1950SOL     OW 6748   3.566   4.046   4.147
 1950SOL    HW1 6749   3.561   4.113   4.074
 1950SOL    HW2 6750   3.607   4.087   4.228
 1951SOL     OW 6751   6.000   4.582   5.913
 1951SOL    HW1 6752   6.051   4.537   5.839
 1951SOL    HW2 6753   5.908   4.544   5.917
 1952SOL     OW 6754   5.590   5.108   0.006
 1952SOL    HW1 6755   5.648   5.031   7.002
 1952SOL    HW2 6756   5.648   5.182   0.041
 1953SOL     OW 6757   0.327   1.289   6.638
 1953SOL    HW1 6758   0.420   1.252   6.646
 1953SOL    HW2 6759   0.263   1.214   6.620
 1954SOL     OW 6760   4.351   0.224   1.955
 1954SOL    HW1 6761   4.355   0.152   2.025
 1954SOL    HW2 6762   4.435   0.222   1.900
 1955SOL     OW 6763   1.071   1.796   2.653
 1955SOL    HW1 6764   1.027   1.794   2.743
 1955SOL    HW2 6765   1.162   1.836   2.661
 1956SOL     OW 6766   5.983   0.551   2.120
 1956SOL    HW1 6767   5.954   0.519   2.210
 1956SOL    HW2 6768   5.935   0.635   2.097
 1957SOL     OW 6769   5.202   1.600   4.095
 1957SOL    HW1 6770   5.165   1.657   4.021
 1957SOL    HW2 6771   5.294   1.630   4.118
 1958SOL     OW 6772   4.413   1.867   1.133
 1958SOL    HW1 6773   4.343   1.915   1.186
 1958SOL    HW2 6774   4.409   1.769   1.155
 1959SOL     OW 6775   0.575   0.476   4.769
 1959SOL    HW1 6776   0.649   0.492   4.703
 1959SOL    HW2 6777   0.498   0.535   4.746
 1960SOL     OW 6778   5.991   4.240   3.690
 1960SOL    HW1 6779   5.894   4.228   3.668
 1960SOL    HW2 6780   6.001   4.314   3.756
 1961SOL     OW 6781   6.694   4.019   4.939
 1961SOL    HW1 6782   6.595   4.029   4.949
 1961SOL    HW2 6783   6.739   4.102   4.974
 1962SOL     OW 6784   1.005   0.245   2.615
 1962SOL    HW1 6785   1.089   0.296   2.636
 1962SOL    HW2 6786   0.990   0.176   2.686
 1963SOL     OW 6787   0.761   1.754   2.106
 1963SOL    HW1 6788   0.701   1.832   2.088
 1963SOL    HW2 6789   0.856   1.784   2.099
 1964SOL     OW 6790   5.266   4.034   0.969
 1964SOL    HW1 6791   5.213   4.115   0.991
 1964SOL    HW2 6792   5.363   4.059   0.959
 1965SOL     OW 6793   0.253   4.533   4.055
 1965SOL    HW1 6794   0.200   4.454   4.086
 1965SOL    HW2 6795   0.346   4.528   4.092
 1966SOL     OW 6796   1.713   4.699   6.872
 1966SOL    HW1 6797   1.630   4.695   6.928
 1966SOL    HW2 6798   1.712   4.784   6.819
 1967SOL     OW 6799   5.664   3.444   3.224
 1967SOL    HW1 6800   5.760   3.459   3.245
 1967SOL    HW2 6801   5.656   3.387   3.142
 1968SOL     OW 6802   2.679   1.641   5.251
 1968SOL    HW1 6803   2.738   1.629   5.171
 1968SOL    HW2 6804   2.684   1.736   5.282
 1969SOL     OW 6805   2.904   6.769   0.420
 1969SOL    HW1 6806   2.848   6.687   0.434
 1969SOL    HW2 6807   2.893   6.831   0.498
 1970SOL     OW 6808   6.033   5.762   5.119
 1970SOL    HW1 6809   5.975   5.808   5.052
 1970SOL    HW2 6810   5.978   5.698   5.173
 1971SOL     OW 6811   1.442   6.125   5.189
 1971SOL    HW1 6812   1.395   6.039   5.169
 1971SOL    HW2 6813   1.423   6.152   5.284
 1972SOL     OW 6814   6.011   2.675   2.576
 1972SOL    HW1 6815   6.095   2.691   2.525
 1972SOL    HW2 6816   5.977   2.762   2.613
 1973SOL     OW 6817   1.828   4.140   6.962
 1973SOL    HW1 6818   1.864   4.194   6.886
 1973SOL    HW2 6819   1.845   4.043   6.946
 1974SOL     OW 6820   3.720   6.408   4.726
 1974SOL    HW1 6821   3.622   6.413   4.740
 1974SOL    HW2 6822   3.750   6.484   4.668
 1975SOL     OW 6823   1.459   2.074   3.464
 1975SOL    HW1 6824   1.514   2.113   3.537
 1975SOL    HW2 6825   1.383   2.135   3.442
 1976SOL     OW 6826   0.170   6.887   6.304
 1976SOL    HW1 6827   0.202   6.976   6.273
 1976SOL    HW2 6828   0.130   6.896   6.395
 1977SOL     OW 6829   2.059   4.623   5.536
 1977SOL    HW1 6830   2.018   4.550   5.482
 1977SOL    HW2 6831   2.012   4.630   5.624
 1978SOL     OW 6832   2.753   0.037   1.856
 1978SOL    HW1 6833   2.837   0.000   1.815
 1978SOL    HW2 6834   2.688   6.986   1.872
 1979SOL     OW 6835   0.260   4.798   6.700
 1979SOL    HW1 6836   0.280   4.705   6.732
 1979SOL    HW2 6837   0.319   4.820   6.623
 1980SOL     OW 6838   3.687   1.678   1.118
 1980SOL    HW1 6839   3.632   1.633   1.189
 1980SOL    HW2 6840   3.634   1.684   1.034
 1981SOL     OW 6841   4.292   2.370   3.218
 1981SOL    HW1 6842   4.241   2.328   3.143
 1981SOL    HW2 6843   4.247   2.348   3.305
 1982SOL     OW 6844   6.492   2.577   5.412
 1982SOL    HW1 6845   6.472   2.479   5.417
 1982SOL    HW2 6846   6.512   2.602   5.318
 1983SOL     OW 6847   0.100   0.486   1.972
 1983SOL    HW1 6848   0.056   0.415   1.917
 1983SOL    HW2 6849   0.158   0.445   2.041
 1984SOL     OW 6850   4.994   2.830   5.162
 1984SOL    HW1 6851   4.969   2.871   5.250
 1984SOL    HW2 6852   4.928   2.858   5.093
 1985SOL     OW 6853   5.729   3.747   2.696
 1985SOL    HW1 6854   5.692   3.822   2.642
 1985SOL    HW2 6855   5.681   3.662   2.673
 1986SOL     OW 6856   3.692   2.397   1.480
 1986SOL    HW1 6857   3.611   2.365   1.529
 1986SOL    HW2 6858   3.774   2.359   1.523
 1987SOL     OW 6859   2.475   0.987   2.217
 1987SOL    HW1 6860   2.501   0.946   2.130
 1987SOL    HW2 6861   2.382   0.958   2.242
 1988SOL     OW 6862   6.843   1.841   0.912
 1988SOL    HW1 6863   6.911   1.782   0.956
 1988SOL    HW2 6864   6.880   1.877   0.826
 1989SOL     OW 6865   3.128   5.085   5.011
 1989SOL    HW1 6866   3.047   5.144   5.006
 1989SOL    HW2 6867   3.209   5.138   4.988
 1990SOL     OW 6868   3.879   0.609   0.822
 1990SOL    HW1 6869   3.864   0.533   0.885
 1990SOL    HW2 6870   3.900   0.692   0.873
 1991SOL     OW 6871   2.917   5.157   0.534
 1991SOL    HW1 6872   2.943   5.098   0.611
 1991SOL    HW2 6873   2.989   5.225   0.519
 1992SOL     OW 6874   0.488   5.817   1.151
 1992SOL    HW1 6875   0.499   5.843   1.055
 1992SOL    HW2 6876   0.533   5.730   1.168
 1993SOL     OW 6877   2.169   3.329   4.038
 1993SOL    HW1 6878   2.186   3.324   4.136
 1993SOL    HW2 6879   2.072   3.310   4.020
 1994SOL     OW 6880   2.912   2.951   0.334
 1994SOL    HW1 6881   2.818   2.977   0.355
 1994SOL    HW2 6882   2.919   2.928   0.237
 1995SOL     OW 6883   5.479   2.374   5.063
 1995SOL    HW1 6884   5.482   2.399   4.966
 1995SOL    HW2 6885   5.389   2.397   5.100
 1996SOL     OW 6886   3.625   1.765   0.635
 1996SOL    HW1 6887   3.550   1.829   0.617
 1996SOL    HW2 6888   3.688   1.806   0.701
 1997SOL     OW 6889   3.956   0.770   3.463
 1997SOL    HW1 6890   3.924   0.854   3.507
 1997SOL    HW2 6891   4.030   0.730   3.518
 1998SOL     OW 6892   1.889   3.049   1.058
 1998SOL    HW1 6893   1.825   3.119   1.090
 1998SOL    HW2 6894   1.940   3.012   1.136
 1999SOL     OW 6895   1.899   6.928   6.351
 1999SOL    HW1 6896   1.916   6.830   6.343
 1999SOL    HW2 6897   1.853   6.948   6.437
 2000SOL     OW 6898   3.958   4.302   5.741
 2000SOL    HW1 6899   3.914   4.217   5.772
 2000SOL    HW2 6900   3.957   4.369   5.816
 2001SOL     OW 6901   2.095   1.527   6.896
 2001SOL    HW1 6902   2.009   1.570   6.925
 2001SOL    HW2 6903   2.170   1.563   6.950
 2002SOL     OW 6904   0.052   4.228   0.341
 2002SOL    HW1 6905   6.990   4.183   0.364
 2002SOL    HW2 6906   0.081   4.286   0.417
 2003SOL     OW 6907   6.558   5.478   2.284
 2003SOL    HW1 6908   6.459   5.497   2.285
 2003SOL    HW2 6909   6.579   5.420   2.206
 2004SOL     OW 6910   3.140   6.824   3.086
 2004SOL    HW1 6911   3.152   6.729   3.115
 2004SOL    HW2 6912   3.078   6.828   3.008
 2005SOL     OW 6913   1.561   6.195   1.145
 2005SOL    HW1 6914   1.506   6.275   1.164
 2005SOL    HW2 6915   1.574   6.142   1.228
 2006SOL     OW 6916   5.833   0.019   2.938
 2006SOL    HW1 6917   5.797   7.015   3.027
 2006SOL    HW2 6918   5.870   0.112   2.944
 2007SOL     OW 6919   5.995   4.804   0.112
 2007SOL    HW1 6920   6.002   4.901   0.138
 2007SOL    HW2 6921   5.908   4.767   0.145
 2008SOL     OW 6922   1.887   3.591   3.765
 2008SOL    HW1 6923   1.854   3.596   3.859
 2008SOL    HW2 6924   1.814   3.622   3.703
 2009SOL     OW 6925   6.042   6.972   2.320
 2009SOL    HW1 6926   6.099   6.994   2.399
 2009SOL    HW2 6927   5.998   0.031   2.286
 2010SOL     OW 6928   1.311   1.635   1.551
 2010SOL    HW1 6929   1.336   1.719   1.599
 2010SOL    HW2 6930   1.223   1.648   1.504
 2011SOL     OW 6931   0.791   0.045   5.721
 2011SOL    HW1 6932   0.712   0.069   5.778
 2011SOL    HW2 6933   0.761   0.029   5.627
 2012SOL     OW 6934   1.351   3.402   1.526
 2012SOL    HW1 6935   1.340   3.474   1.595
 2012SOL    HW2 6936   1.265   3.350   1.519
 2013SOL     OW 6937   0.390   3.521   2.821
 2013SOL    HW1 6938   0.341   3.477   2.895
 2013SOL    HW2 6939   0.329   3.534   2.743
 2014SOL     OW 6940   3.578   0.267   4.084
 2014SOL    HW1 6941   3.513   0.343   4.077
 2014SOL    HW2 6942   3.600   0.251   4.180
 2015SOL     OW 6943   4.273   0.503   1.678
 2015SOL    HW1 6944   4.360   0.544   1.653
 2015SOL    HW2 6945   4.256   0.423   1.620
 2016SOL     OW 6946   1.387   0.184   5.714
 2016SOL    HW1 6947   1.288   0.191   5.727
 2016SOL    HW2 6948   1.430   0.149   5.797
 2017SOL     OW 6949   4.195   6.222   2.921
 2017SOL    HW1 6950   4.141   6.200   2.839
 2017SOL    HW2 6951   4.268   6.286   2.897
 2018SOL     OW 6952   1.211   0.963   3.687
 2018SOL    HW1 6953   1.156   0.984   3.607
 2018SOL    HW2 6954   1.304   0.998   3.675
 2019SOL     OW 6955   6.250   5.078   6.360
 2019SOL    HW1 6956   6.324   5.108   6.300
 2019SOL    HW2 6957   6.162   5.099   6.318
 2020SOL     OW 6958   2.433   6.098   5.956
 2020SOL    HW1 6959   2.358   6.034   5.938
 2020SOL    HW2 6960   2.496   6.057   6.022
 2021SOL     OW 6961   0.178   6.009   3.768
 2021SOL    HW1 6962   0.218   6.084   3.821
 2021SOL    HW2 6963   0.158   5.933   3.830
 2022SOL     OW 6964   1.827   4.073   5.036
 2022SOL    HW1 6965   1.912   4.098   5.081
 2022SOL    HW2 6966   1.846   4.006   4.964
 2023SOL     OW 6967   0.109   6.376   0.314
 2023SOL    HW1 6968   0.028   6.433   0.324
 2023SOL    HW2 6969   0.182   6.410   0.374
 2024SOL     OW 6970   1.040   5.826   4.300
 2024SOL    HW1 6971   1.115   5.878   4.341
 2024SOL    HW2 6972   1.016   5.749   4.359
 2025SOL     OW 6973   1.416   6.654   4.807
 2025SOL    HW1 6974   1.429   6.643   4.905
 2025SOL    HW2 6975   1.479   6.724   4.773
 2026SOL     OW 6976   0.017   0.224   6.035
 2026SOL    HW1 6977   7.005   0.315   6.011
 2026SOL    HW2 6978   0.022   0.215   6.134
 2027SOL     OW 6979   6.822   6.176   2.431
 2027SOL    HW1 6980   6.835   6.259   2.485
 2027SOL    HW2 6981   6.911   6.136   2.409
 2028SOL     OW 6982   3.438   4.913   4.228
 2028SOL    HW1 6983   3.529   4.881   4.199
 2028SOL    HW2 6984   3.417   5.000   4.182
 2029SOL     OW 6985   6.091   2.358   6.591
 2029SOL    HW1 6986   6.075   2.262   6.614
 2029SOL    HW2 6987   6.007   2.410   6.607
 2030SOL     OW 6988   2.485   6.657   2.436
 2030SOL    HW1 6989   2.426   6.578   2.420
 2030SOL    HW2 6990   2.435   6.741   2.416
 2031SOL     OW 6991   6.761   6.263   3.751
 2031SOL    HW1 6992   6.785   6.244   3.847
 2031SOL    HW2 6993   6.785   6.184   3.694
 2032SOL     OW 6994   2.506   2.207   6.088
 2032SOL    HW1 6995   2.526   2.127   6.145
 2032SOL    HW2 6996   2.521   2.184   5.992
 2033SOL     OW 6997   2.069   2.021   0.705
 2033SOL    HW1 6998   2.158   2.063   0.723
 2033SOL    HW2 6999   2.081   1.944   0.642
 2034SOL     OW 7000   6.894   4.530   5.143
 2034SOL    HW1 7001   6.833   4.610   5.143
 2034SOL    HW2 7002   6.901   4.494   5.050
 2035SOL     OW 7003   5.659   0.356   3.156
 2035SOL    HW1 7004   5.748   0.324   3.187
 2035SOL    HW2 7005   5.616   0.410   3.229
 2036SOL     OW 7006   1.131   4.073   2.003
 2036SOL    HW1 7007   1.033   4.094   2.000
 2036SOL    HW2 7008   1.179   4.149   2.047
 2037SOL     OW 7009   0.231   2.794   0.366
 2037SOL    HW1 7010   0.302   2.770   0.433
 2037SOL    HW2 7011   0.230   2.725   0.293
 2038SOL     OW 7012   1.634   1.443   6.337
 2038SOL    HW1 7013   1.658   1.534   6.373
 2038SOL    HW2 7014   1.553   1.451   6.280
 2039SOL     OW 7015   5.760   6.421   3.031
 2039SOL    HW1 7016   5.706   6.346   2.992
 2039SOL    HW2 7017   5.825   6.454   2.962
 2040SOL     OW 7018   1.808   2.906   0.592
 2040SOL    HW1 7019   1.715   2.923   0.622
 2040SOL    HW2 7020   1.844   2.825   0.639
 2041SOL     OW 7021   2.135   0.218   6.512
 2041SOL    HW1 7022   2.234   0.209   6.507
 2041SOL    HW2 7023   2.111   0.307   6.550
 2042SOL     OW 7024   5.087   0.957   5.465
 2042SOL    HW1 7025   5.128   0.868   5.485
 2042SOL    HW2 7026   5.159   1.026   5.458
 2043SOL     OW 7027   6.994   3.971   1.407
 2043SOL    HW1 7028   6.929   3.989   1.482
 2043SOL    HW2 7029   6.944   3.958   1.322
 2044SOL     OW 7030   4.473   0.353   1.261
 2044SOL    HW1 7031   4.568   0.346   1.228
 2044SOL    HW2 7032   4.458   0.445   1.298
 2045SOL     OW 7033   1.018   6.386   6.269
 2045SOL    HW1 7034   1.020   6.486   6.282
 2045SOL    HW2 7035   0.977   6.365   6.180
 2046SOL     OW 7036   1.186   2.115   4.888
 2046SOL    HW1 7037   1.126   2.191   4.908
 2046SOL    HW2 7038   1.266   2.148   4.838
 2047SOL     OW 7039   0.229   0.334   0.948
 2047SOL    HW1 7040   0.309   0.363   1.000
 2047SOL    HW2 7041   0.247   0.347   0.850
 2048SOL     OW 7042   0.787   1.883   4.596
 2048SOL    HW1 7043   0.864   1.839   4.549
 2048SOL    HW2 7044   0.715   1.904   4.529
 2049SOL     OW 7045   5.012   1.689   4.971
 2049SOL    HW1 7046   5.089   1.724   4.917
 2049SOL    HW2 7047   5.015   1.589   4.971
 2050SOL     OW 7048   0.931   1.274   4.157
 2050SOL    HW1 7049   0.955   1.180   4.135
 2050SOL    HW2 7050   0.960   1.334   4.083
 2051SOL     OW 7051   2.823   6.342   0.205
 2051SOL    HW1 7052   2.821   6.389   0.293
 2051SOL    HW2 7053   2.878   6.395   0.140
 2052SOL     OW 7054   0.993   4.415   6.598
 2052SOL    HW1 7055   0.980   4.423   6.499
 2052SOL    HW2 7056   0.984   4.505   6.640
 2053SOL     OW 7057   0.259   5.564   3.775
 2053SOL    HW1 7058   0.229   5.474   3.806
 2053SOL    HW2 7059   0.206   5.591   3.695
 2054SOL     OW 7060   3.462   3.285   4.030
 2054SOL    HW1 7061   3.416   3.285   3.941
 2054SOL    HW2 7062   3.400   3.323   4.099
 2055SOL     OW 7063   3.147   2.223   5.622
 2055SOL    HW1 7064   3.178   2.228   5.527
 2055SOL    HW2 7065   3.053   2.188   5.624
 2056SOL     OW 7066   4.161   4.761   0.925
 2056SOL    HW1 7067   4.248   4.773   0.877
 2056SOL    HW2 7068   4.119   4.676   0.894
 2057SOL     OW 7069   5.573   2.192   4.352
 2057SOL    HW1 7070   5.642   2.183   4.424
 2057SOL    HW2 7071   5.528   2.104   4.338
 2058SOL     OW 7072   6.984   6.235   3.004
 2058SOL    HW1 7073   7.015   6.316   2.954
 2058SOL    HW2 7074   0.041   6.186   3.040
 2059SOL     OW 7075   1.726   0.579   6.301
 2059SOL    HW1 7076   1.701   0.615   6.211
 2059SOL    HW2 7077   1.767   0.653   6.355
 2060SOL     OW 7078   1.277   3.124   6.421
 2060SOL    HW1 7079   1.290   3.083   6.511
 2060SOL    HW2 7080   1.204   3.077   6.372
 2061SOL     OW 7081   1.847   2.825   2.099
 2061SOL    HW1 7082   1.789   2.898   2.062
 2061SOL    HW2 7083   1.797   2.738   2.095
 2062SOL     OW 7084   0.061   5.169   4.420
 2062SOL    HW1 7085   0.016   5.202   4.504
 2062SOL    HW2 7086   0.052   5.238   4.348
 2063SOL     OW 7087   0.669   0.796   4.924
 2063SOL    HW1 7088   0.757   0.825   4.961
 2063SOL    HW2 7089   0.609   0.875   4.913
 2064SOL     OW 7090   0.750   2.922   3.443
 2064SOL    HW1 7091   0.842   2.904   3.480
 2064SOL    HW2 7092   0.748   3.015   3.405
 2065SOL     OW 7093   4.226   3.114   5.612
 2065SOL    HW1 7094   4.163   3.191   5.617
 2065SOL    HW2 7095   4.197   3.051   5.540
 2066SOL     OW 7096   0.053   3.111   5.452
 2066SOL    HW1 7097   6.978   3.096   5.462
 2066SOL    HW2 7098   0.099   3.022   5.442
 2067SOL     OW 7099   6.330   5.115   1.282
 2067SOL    HW1 7100   6.416   5.166   1.286
 2067SOL    HW2 7101   6.323   5.069   1.193
 2068SOL     OW 7102   4.021   0.719   4.493
 2068SOL    HW1 7103   4.090   0.771   4.445
 2068SOL    HW2 7104   3.941   0.707   4.434
 2069SOL     OW 7105   0.622   2.956   3.718
 2069SOL    HW1 7106   0.680   2.912   3.649
 2069SOL    HW2 7107   0.613   2.896   3.797
 2070SOL     OW 7108   0.831   4.855   0.780
 2070SOL    HW1 7109   0.925   4.842   0.810
 2070SOL    HW2 7110   0.829   4.920   0.704
 2071SOL     OW 7111   6.952   1.479   5.945
 2071SOL    HW1 7112   0.004   1.438   5.996
 2071SOL    HW2 7113   6.989   1.531   5.867
 2072SOL     OW 7114   4.373   4.564   5.381
 2072SOL    HW1 7115   4.316   4.516   5.314
 2072SOL    HW2 7116   4.314   4.611   5.447
 2073SOL     OW 7117   2.945   5.584   6.246
 2073SOL    HW1 7118   2.978   5.655   6.183
 2073SOL    HW2 7119   2.846   5.573   6.234
 2074SOL     OW 7120   1.028   4.196   5.792
 2074SOL    HW1 7121   0.943   4.150   5.816
 2074SOL    HW2 7122   1.104   4.156   5.844
 2075SOL     OW 7123   6.514   1.654   1.510
 2075SOL    HW1 7124   6.574   1.719   1.559
 2075SOL    HW2 7125   6.441   1.704   1.464
 2076SOL     OW 7126   6.161   6.989   4.899
 2076SOL    HW1 7127   6.109   0.026   4.838
 2076SOL    HW2 7128   6.212   6.922   4.844
 2077SOL     OW 7129   6.293   4.513   0.459
 2077SOL    HW1 7130   6.313   4.491   0.364
 2077SOL    HW2 7131   6.375   4.550   0.503
 2078SOL     OW 7132   1.054   3.031   5.534
 2078SOL    HW1 7133   1.047   3.109   5.596
 2078SOL    HW2 7134   1.119   3.051   5.461
 2079SOL     OW 7135   5.033   1.786   2.196
 2079SOL    HW1 7136   4.951   1.730   2.211
 2079SOL    HW2 7137   5.015   1.853   2.125
 2080SOL     OW 7138   2.251   3.279   6.074
 2080SOL    HW1 7139   2.322   3.328   6.024
 2080SOL    HW2 7140   2.284   3.188   6.099
 2081SOL     OW 7141   5.505   6.059   2.543
 2081SOL    HW1 7142   5.544   5.995   2.477
 2081SOL    HW2 7143   5.411   6.033   2.564
 2082SOL     OW 7144   6.735   5.913   3.852
 2082SOL    HW1 7145   6.796   5.935   3.777
 2082SOL    HW2 7146   6.660   5.856   3.819
 2083SOL     OW 7147   0.589   6.420   3.996
 2083SOL    HW1 7148   0.670   6.476   4.010
 2083SOL    HW2 7149   0.609   6.325   4.020
 2084SOL     OW 7150   6.058   1.969   1.312
 2084SOL    HW1 7151   6.038   1.937   1.405
 2084SOL    HW2 7152   6.038   1.896   1.247
 2085SOL     OW 7153   5.390   5.969   0.864
 2085SOL    HW1 7154   5.431   6.041   0.920
 2085SOL    HW2 7155   5.418   5.880   0.898
 2086SOL     OW 7156   4.705   1.178   6.932
 2086SOL    HW1 7157   4.620   1.127   6.940
 2086SOL    HW2 7158   4.710   1.221   6.842
 2087SOL     OW 7159   4.134   1.585   6.806
 2087SOL    HW1 7160   4.152   1.524   6.729
 2087SOL    HW2 7161   4.176   1.674   6.789
 2088SOL     OW 7162   0.758   5.713   6.110
 2088SOL    HW1 7163   0.667   5.682   6.137
 2088SOL    HW2 7164   0.812   5.635   6.079
 2089SOL     OW 7165   2.597   3.824   0.119
 2089SOL    HW1 7166   2.554   3.746   0.165
 2089SOL    HW2 7167   2.526   3.888   0.089
 2090SOL     OW 7168   5.194   2.689   5.980
 2090SOL    HW1 7169   5.177   2.689   5.882
 2090SOL    HW2 7170   5.126   2.748   6.025
 2091SOL     OW 7171   5.437   6.163   2.070
 2091SOL    HW1 7172   5.481   6.241   2.115
 2091SOL    HW2 7173   5.440   6.084   2.131
 2092SOL     OW 7174   4.301   3.479   1.764
 2092SOL    HW1 7175   4.235   3.505   1.694
 2092SOL    HW2 7176   4.337   3.388   1.743
 2093SOL     OW 7177   3.376   1.026   1.947
 2093SOL    HW1 7178   3.278   1.016   1.959
 2093SOL    HW2 7179   3.408   1.106   1.998
 2094SOL     OW 7180   5.279   2.287   6.351
 2094SOL    HW1 7181   5.206   2.315   6.289
 2094SOL    HW2 7182   5.306   2.193   6.331
 2095SOL     OW 7183   5.406   5.875   3.956
 2095SOL    HW1 7184   5.441   5.924   3.876
 2095SOL    HW2 7185   5.342   5.934   4.005
 2096SOL     OW 7186   4.883   6.797   2.418
 2096SOL    HW1 7187   4.866   6.815   2.515
 2096SOL    HW2 7188   4.832   6.864   2.362
 2097SOL     OW 7189   1.182   5.655   6.585
 2097SOL    HW1 7190   1.203   5.752   6.599
 2097SOL    HW2 7191   1.267   5.603   6.577
 2098SOL     OW 7192   2.902   5.868   3.606
 2098SOL    HW1 7193   2.918   5.770   3.591
 2098SOL    HW2 7194   2.809   5.892   3.578
 2099SOL     OW 7195   4.957   1.689   6.129
 2099SOL    HW1 7196   4.916   1.759   6.187
 2099SOL    HW2 7197   4.886   1.643   6.076
 2100SOL     OW 7198   5.009   0.168   1.303
 2100SOL    HW1 7199   5.086   0.143   1.361
 2100SOL    HW2 7200   5.032   0.249   1.249
 2101SOL     OW 7201   0.728   6.872   2.262
 2101SOL    HW1 7202   0.649   6.884   2.322
 2101SOL    HW2 7203   0.812   6.872   2.316
 2102SOL     OW 7204   3.375   2.512   0.874
 2102SOL    HW1 7205   3.424   2.429   0.848
 2102SOL    HW2 7206   3.438   2.573   0.922
 2103SOL     OW 7207   3.122   6.260   0.457
 2103SOL    HW1 7208   3.177   6.322   0.513
 2103SOL    HW2 7209   3.167   6.171   0.452
 2104SOL     OW 7210   2.016   4.707   2.993
 2104SOL    HW1 7211   2.015   4.671   3.086
 2104SOL    HW2 7212   2.042   4.635   2.929
 2105SOL     OW 7213   6.069   5.212   5.018
 2105SOL    HW1 7214   5.995   5.147   5.035
 2105SOL    HW2 7215   6.115   5.233   5.104
 2106SOL     OW 7216   4.319   3.080   0.746
 2106SOL    HW1 7217   4.231   3.127   0.747
 2106SOL    HW2 7218   4.392   3.145   0.770
 2107SOL     OW 7219   4.928   4.670   5.605
 2107SOL    HW1 7220   4.963   4.630   5.520
 2107SOL    HW2 7221   4.979   4.632   5.682
 2108SOL     OW 7222   5.294   0.330   5.753
 2108SOL    HW1 7223   5.275   0.391   5.676
 2108SOL    HW2 7224   5.392   0.311   5.756
 2109SOL     OW 7225   2.842   6.458   2.828
 2109SOL    HW1 7226   2.844   6.542   2.883
 2109SOL    HW2 7227   2.919   6.459   2.764
 2110SOL     OW 7228   4.154   0.072   0.033
 2110SOL    HW1 7229   4.114   0.093   6.967
 2110SOL    HW2 7230   4.191   0.156   0.074
 2111SOL     OW 7231   1.147   2.332   5.894
 2111SOL    HW1 7232   1.082   2.406   5.874
 2111SOL    HW2 7233   1.150   2.315   5.992
 2112SOL     OW 7234   0.643   0.779   6.811
 2112SOL    HW1 7235   0.708   0.843   6.851
 2112SOL    HW2 7236   0.573   0.829   6.761
 2113SOL     OW 7237   0.391   0.911   4.511
 2113SOL    HW1 7238   0.341   0.988   4.472
 2113SOL    HW2 7239   0.340   0.876   4.590
 2114SOL     OW 7240   1.202   1.434   6.164
 2114SOL    HW1 7241   1.292   1.474   6.145
 2114SOL    HW2 7242   1.209   1.335   6.170
 2115SOL     OW 7243   6.501   6.552   2.913
 2115SOL    HW1 7244   6.494   6.617   2.989
 2115SOL    HW2 7245   6.429   6.483   2.922
 2116SOL     OW 7246   0.874   2.003   0.317
 2116SOL    HW1 7247   0.872   2.053   0.404
 2116SOL    HW2 7248   0.825   1.917   0.327
 2117SOL     OW 7249   6.126   1.650   1.650
 2117SOL    HW1 7250   6.056   1.586   1.617
 2117SOL    HW2 7251   6.214   1.627   1.609
 2118SOL     OW 7252   6.510   2.759   2.121
 2118SOL    HW1 7253   6.518   2.699   2.200
 2118SOL    HW2 7254   6.560   2.719   2.044
 2119SOL     OW 7255   1.694   1.199   0.186
 2119SOL    HW1 7256   1.637   1.192   0.268
 2119SOL    HW2 7257   1.732   1.109   0.164
 2120SOL     OW 7258   5.449   1.041   0.981
 2120SOL    HW1 7259   5.422   1.048   0.885
 2120SOL    HW2 7260   5.404   1.115   1.032
 2121SOL     OW 7261   1.585   0.342   6.878
 2121SOL    HW1 7262   1.505   0.289   6.905
 2121SOL    HW2 7263   1.555   0.424   6.828
 2122SOL     OW 7264   6.354   1.153   4.063
 2122SOL    HW1 7265   6.316   1.192   3.980
 2122SOL    HW2 7266   6.282   1.108   4.116
 2123SOL     OW 7267   1.313   5.372   2.953
 2123SOL    HW1 7268   1.312   5.283   2.998
 2123SOL    HW2 7269   1.346   5.442   3.016
 2124SOL     OW 7270   3.978   3.576   6.096
 2124SOL    HW1 7271   3.904   3.509   6.088
 2124SOL    HW2 7272   4.017   3.592   6.005
 2125SOL     OW 7273   2.098   5.801   3.804
 2125SOL    HW1 7274   2.009   5.842   3.782
 2125SOL    HW2 7275   2.133   5.841   3.888
 2126SOL     OW 7276   3.202   4.591   0.192
 2126SOL    HW1 7277   3.265   4.661   0.160
 2126SOL    HW2 7278   3.181   4.527   0.118
 2127SOL     OW 7279   0.748   2.113   4.340
 2127SOL    HW1 7280   0.769   2.129   4.436
 2127SOL    HW2 7281   0.732   2.016   4.325
 2128SOL     OW 7282   5.145   2.889   1.541
 2128SOL    HW1 7283   5.217   2.819   1.530
 2128SOL    HW2 7284   5.174   2.973   1.495
 2129SOL     OW 7285   5.429   4.081   4.084
 2129SOL    HW1 7286   5.478   4.020   4.022
 2129SOL    HW2 7287   5.340   4.042   4.107
 2130SOL     OW 7288   2.575   0.894   1.961
 2130SOL    HW1 7289   2.619   0.975   1.923
 2130SOL    HW2 7290   2.502   0.863   1.900
 2131SOL     OW 7291   5.434   0.868   4.756
 2131SOL    HW1 7292   5.468   0.777   4.779
 2131SOL    HW2 7293   5.355   0.860   4.696
 2132SOL     OW 7294   2.233   2.593   0.521
 2132SOL    HW1 7295   2.184   2.660   0.465
 2132SOL    HW2 7296   2.331   2.611   0.516
 2133SOL     OW 7297   3.239   2.194   1.630
 2133SOL    HW1 7298   3.231   2.255   1.552
 2133SOL    HW2 7299   3.152   2.188   1.678
 2134SOL     OW 7300   1.993   6.151   4.365
 2134SOL    HW1 7301   1.917   6.164   4.429
 2134SOL    HW2 7302   2.035   6.240   4.344
 2135SOL     OW 7303   1.418   0.511   4.435
 2135SOL    HW1 7304   1.369   0.430   4.403
 2135SOL    HW2 7305   1.439   0.501   4.533
 2136SOL     OW 7306   0.848   4.124   3.842
 2136SOL    HW1 7307   0.838   4.196   3.911
 2136SOL    HW2 7308   0.905   4.051   3.879
 2137SOL     OW 7309   0.994   0.729   5.278
 2137SOL    HW1 7310   0.923   0.691   5.220
 2137SOL    HW2 7311   0.955   0.754   5.366
 2138SOL     OW 7312   0.354   3.030   0.395
 2138SOL    HW1 7313   0.306   2.945   0.374
 2138SOL    HW2 7314   0.307   3.106   0.352
 2139SOL     OW 7315   2.793   1.525   5.028
 2139SOL    HW1 7316   2.697   1.501   5.013
 2139SOL    HW2 7317   2.850   1.444   5.013
 2140SOL     OW 7318   1.881   5.605   3.010
 2140SOL    HW1 7319   1.886   5.555   2.924
 2140SOL    HW2 7320   1.966   5.654   3.025
 2141SOL     OW 7321   6.023   1.345   0.408
 2141SOL    HW1 7322   6.084   1.420   0.383
 2141SOL    HW2 7323   6.025   1.275   0.336
 2142SOL     OW 7324   2.738   1.921   3.293
 2142SOL    HW1 7325   2.683   1.844   3.326
 2142SOL    HW2 7326   2.818   1.887   3.244
 2143SOL     OW 7327   3.803   6.925   0.297
 2143SOL    HW1 7328   3.863   6.901   0.220
 2143SOL    HW2 7329   3.859   6.951   0.375
 2144SOL     OW 7330   6.705   1.162   3.045
 2144SOL    HW1 7331   6.646   1.084   3.065
 2144SOL    HW2 7332   6.786   1.131   2.995
 2145SOL     OW 7333   3.645   5.651   2.962
 2145SOL    HW1 7334   3.719   5.667   3.027
 2145SOL    HW2 7335   3.593   5.735   2.948
 2146SOL     OW 7336   3.609   3.147   1.803
 2146SOL    HW1 7337   3.664   3.213   1.752
 2146SOL    HW2 7338   3.601   3.177   1.898
 2147SOL     OW 7339   0.291   0.922   5.340
 2147SOL    HW1 7340   0.268   1.009   5.295
 2147SOL    HW2 7341   0.389   0.920   5.360
 2148SOL     OW 7342   5.085   3.274   3.255
 2148SOL    HW1 7343   5.174   3.313   3.281
 2148SOL    HW2 7344   5.035   3.340   3.199
 2149SOL     OW 7345   3.320   1.236   3.106
 2149SOL    HW1 7346   3.221   1.241   3.094
 2149SOL    HW2 7347   3.362   1.194   3.025
 2150SOL     OW 7348   3.771   1.724   2.488
 2150SOL    HW1 7349   3.686   1.727   2.435
 2150SOL    HW2 7350   3.758   1.669   2.570
 2151SOL     OW 7351   3.946   3.005   5.723
 2151SOL    HW1 7352   3.900   3.047   5.645
 2151SOL    HW2 7353   3.946   3.068   5.801
 2152SOL     OW 7354   6.596   5.749   1.916
 2152SOL    HW1 7355   6.628   5.798   1.835
 2152SOL    HW2 7356   6.497   5.755   1.923
 2153SOL     OW 7357   5.030   3.011   3.140
 2153SOL    HW1 7358   5.006   2.964   3.225
 2153SOL    HW2 7359   5.052   3.107   3.161
 2154SOL     OW 7360   4.783   6.252   5.159
 2154SOL    HW1 7361   4.850   6.211   5.097
 2154SOL    HW2 7362   4.825   6.269   5.248
 2155SOL     OW 7363   0.024   3.283   0.304
 2155SOL    HW1 7364   0.113   3.244   0.278
 2155SOL    HW2 7365   0.033   3.381   0.318
 2156SOL     OW 7366   1.179   1.158   1.608
 2156SOL    HW1 7367   1.263   1.177   1.660
 2156SOL    HW2 7368   1.188   1.070   1.561
 2157SOL     OW 7369   0.838   1.439   4.638
 2157SOL    HW1 7370   0.830   1.402   4.546
 2157SOL    HW2 7371   0.802   1.373   4.704
 2158SOL     OW 7372   4.389   6.553   2.511
 2158SOL    HW1 7373   4.378   6.607   2.594
 2158SOL    HW2 7374   4.482   6.564   2.475
 2159SOL     OW 7375   2.052   5.736   4.299
 2159SOL    HW1 7376   2.091   5.820   4.263
 2159SOL    HW2 7377   2.073   5.729   4.397
 2160SOL     OW 7378   3.087   3.598   0.467
 2160SOL    HW1 7379   3.134   3.568   0.549
 2160SOL    HW2 7380   2.989   3.583   0.477
 2161SOL     OW 7381   5.323   2.493   3.606
 2161SOL    HW1 7382   5.224   2.481   3.616
 2161SOL    HW2 7383   5.353   2.570   3.663
 2162SOL     OW 7384   0.863   1.356   0.078
 2162SOL    HW1 7385   0.849   1.391   0.171
 2162SOL    HW2 7386   0.831   1.424   0.012
 2163SOL     OW 7387   2.256   2.177   7.001
 2163SOL    HW1 7388   2.235   2.273   7.019
 2163SOL    HW2 7389   2.233   2.122   0.058
 2164SOL     OW 7390   1.056   6.902   1.702
 2164SOL    HW1 7391   1.153   6.893   1.725
 2164SOL    HW2 7392   1.011   6.814   1.716
 2165SOL     OW 7393   2.951   6.601   1.569
 2165SOL    HW1 7394   2.912   6.533   1.507
 2165SOL    HW2 7395   2.985   6.556   1.651
 2166SOL     OW 7396   6.303   2.088   6.969
 2166SOL    HW1 7397   6.395   2.121   6.991
 2166SOL    HW2 7398   6.305   2.039   6.882
 2167SOL     OW 7399   2.467   0.044   1.790
 2167SOL    HW1 7400   2.567   0.047   1.790
 2167SOL    HW2 7401   2.431   0.137   1.801
 2168SOL     OW 7402   6.084   5.493   4.582
 2168SOL    HW1 7403   6.031   5.443   4.651
 2168SOL    HW2 7404   6.127   5.573   4.624
 2169SOL     OW 7405   4.883   1.974   4.935
 2169SOL    HW1 7406   4.951   1.947   5.002
 2169SOL    HW2 7407   4.857   1.895   4.880
 2170SOL     OW 7408   5.162   4.757   4.397
 2170SOL    HW1 7409   5.160   4.659   4.416
 2170SOL    HW2 7410   5.069   4.788   4.375
 2171SOL     OW 7411   6.808   2.445   0.265
 2171SOL    HW1 7412   6.795   2.393   0.350
 2171SOL    HW2 7413   6.897   2.491   0.267
 2172SOL     OW 7414   3.341   1.035   0.832
 2172SOL    HW1 7415   3.353   0.942   0.867
 2172SOL    HW2 7416   3.373   1.039   0.737
 2173SOL     OW 7417   5.018   0.903   5.185
 2173SOL    HW1 7418   5.039   0.972   5.255
 2173SOL    HW2 7419   4.924   0.870   5.199
 2174SOL     OW 7420   1.351   5.261   4.678
 2174SOL    HW1 7421   1.322   5.193   4.610
 2174SOL    HW2 7422   1.435   5.305   4.646
 2175SOL     OW 7423   2.607   6.424   4.809
 2175SOL    HW1 7424   2.654   6.386   4.730
 2175SOL    HW2 7425   2.509   6.408   4.800
 2176SOL     OW 7426   1.815   2.537   2.171
 2176SOL    HW1 7427   1.914   2.535   2.182
 2176SOL    HW2 7428   1.774   2.582   2.250
 2177SOL     OW 7429   6.330   1.363   1.706
 2177SOL    HW1 7430   6.237   1.361   1.744
 2177SOL    HW2 7431   6.381   1.439   1.745
 2178SOL     OW 7432   0.639   5.057   0.483
 2178SOL    HW1 7433   0.653   5.129   0.414
 2178SOL    HW2 7434   0.723   5.043   0.534
 2179SOL     OW 7435   0.727   4.735   3.532
 2179SOL    HW1 7436   0.802   4.795   3.559
 2179SOL    HW2 7437   0.687   4.692   3.614
 2180SOL     OW 7438   3.929   3.211   2.173
 2180SOL    HW1 7439   3.976   3.199   2.261
 2180SOL    HW2 7440   3.906   3.122   2.136
 2181SOL     OW 7441   4.443   6.301   6.822
 2181SOL    HW1 7442   4.441   6.395   6.857
 2181SOL    HW2 7443   4.398   6.241   6.889
 2182SOL     OW 7444   6.040   1.921   0.454
 2182SOL    HW1 7445   6.007   1.851   0.517
 2182SOL    HW2 7446   5.989   2.006   0.468
 2183SOL     OW 7447   2.968   2.905   0.679
 2183SOL    HW1 7448   2.948   2.889   0.582
 2183SOL    HW2 7449   2.890   2.877   0.734
 2184SOL     OW 7450   4.251   3.189   6.091
 2184SOL    HW1 7451   4.287   3.121   6.155
 2184SOL    HW2 7452   4.166   3.155   6.051
 2185SOL     OW 7453   1.442   1.291   0.862
 2185SOL    HW1 7454   1.453   1.334   0.952
 2185SOL    HW2 7455   1.532   1.269   0.824
 2186SOL     OW 7456   0.103   5.537   2.408
 2186SOL    HW1 7457   0.198   5.537   2.375
 2186SOL    HW2 7458   0.041   5.520   2.331
 2187SOL     OW 7459   0.030   1.475   6.419
 2187SOL    HW1 7460   0.008   1.548   6.484
 2187SOL    HW2 7461   0.027   1.387   6.466
 2188SOL     OW 7462   5.484   0.548   2.817
 2188SOL    HW1 7463   5.405   0.609   2.825
 2188SOL    HW2 7464   5.476   0.474   2.883
 2189SOL     OW 7465   2.624   0.512   6.922
 2189SOL    HW1 7466   2.585   0.581   6.862
 2189SOL    HW2 7467   2.700   0.551   6.973
 2190SOL     OW 7468   4.993   1.578   1.141
 2190SOL    HW1 7469   4.996   1.532   1.229
 2190SOL    HW2 7470   5.018   1.674   1.153
 2191SOL     OW 7471   2.964   1.578   0.443
 2191SOL    HW1 7472   3.019   1.548   0.522
 2191SOL    HW2 7473   2.974   1.677   0.432
 2192SOL     OW 7474   3.971   5.484   4.298
 2192SOL    HW1 7475   3.972   5.385   4.286
 2192SOL    HW2 7476   3.909   5.508   4.372
 2193SOL     OW 7477   0.557   5.032   5.944
 2193SOL    HW1 7478   0.495   5.110   5.933
 2193SOL    HW2 7479   0.514   4.964   6.004
 2194SOL     OW 7480   3.052   0.387   1.298
 2194SOL    HW1 7481   3.025   0.309   1.354
 2194SOL    HW2 7482   2.991   0.394   1.219
 2195SOL     OW 7483   1.460   4.453   2.777
 2195SOL    HW1 7484   1.476   4.544   2.814
 2195SOL    HW2 7485   1.362   4.441   2.759
 2196SOL     OW 7486   4.013   3.337   0.327
 2196SOL    HW1 7487   4.033   3.366   0.233
 2196SOL    HW2 7488   4.089   3.362   0.387
 2197SOL     OW 7489   4.503   4.161   0.629
 2197SOL    HW1 7490   4.405   4.155   0.650
 2197SOL    HW2 7491   4.532   4.257   0.636
 2198SOL     OW 7492   5.984   4.445   0.542
 2198SOL    HW1 7493   6.071   4.405   0.569
 2198SOL    HW2 7494   5.991   4.480   0.448
 2199SOL     OW 7495   4.537   0.602   2.051
 2199SOL    HW1 7496   4.535   0.590   1.951
 2199SOL    HW2 7497   4.482   0.531   2.094
 2200SOL     OW 7498   2.724   0.273   4.137
 2200SOL    HW1 7499   2.700   0.356   4.187
 2200SOL    HW2 7500   2.813   0.239   4.168
 2201SOL     OW 7501   4.785   4.128   1.973
 2201SOL    HW1 7502   4.699   4.180   1.971
 2201SOL    HW2 7503   4.860   4.189   1.998
 2202SOL     OW 7504   4.765   6.030   3.475
 2202SOL    HW1 7505   4.758   5.937   3.512
 2202SOL    HW2 7506   4.857   6.045   3.439
 2203SOL     OW 7507   3.326   2.156   2.883
 2203SOL    HW1 7508   3.416   2.147   2.928
 2203SOL    HW2 7509   3.339   2.155   2.784
 2204SOL     OW 7510   2.929   2.580   0.683
 2204SOL    HW1 7511   3.000   2.536   0.738
 2204SOL    HW2 7512   2.971   2.624   0.604
 2205SOL     OW 7513   2.602   0.189   0.173
 2205SOL    HW1 7514   2.679   0.127   0.188
 2205SOL    HW2 7515   2.578   0.189   0.075
 2206SOL     OW 7516   2.038   2.898   6.905
 2206SOL    HW1 7517   2.113   2.835   6.884
 2206SOL    HW2 7518   1.955   2.868   6.858
 2207SOL     OW 7519   0.825   4.231   5.042
 2207SOL    HW1 7520   0.853   4.307   5.101
 2207SOL    HW2 7521   0.781   4.160   5.097
 2208SOL     OW 7522   0.480   4.448   1.819
 2208SOL    HW1 7523   0.555   4.491   1.767
 2208SOL    HW2 7524   0.466   4.498   1.904
 2209SOL     OW 7525   1.012   5.843   0.944
 2209SOL    HW1 7526   1.071   5.903   0.891
 2209SOL    HW2 7527   1.062   5.761   0.972
 2210SOL     OW 7528   1.182   5.310   4.322
 2210SOL    HW1 7529   1.258   5.365   4.357
 2210SOL    HW2 7530   1.182   5.313   4.223
 2211SOL     OW 7531   6.757   1.201   5.999
 2211SOL    HW1 7532   6.729   1.296   6.013
 2211SOL    HW2 7533   6.853   1.190   6.026
 2212SOL     OW 7534   1.648   0.013   6.091
 2212SOL    HW1 7535   1.583   0.087   6.072
 2212SOL    HW2 7536   1.704   7.020   6.010
 2213SOL     OW 7537   3.043   0.897   3.300
 2213SOL    HW1 7538   3.133   0.926   3.333
 2213SOL    HW2 7539   3.054   0.845   3.215
 2214SOL     OW 7540   4.577   0.252   5.237
 2214SOL    HW1 7541   4.602   0.247   5.140
 2214SOL    HW2 7542   4.550   0.161   5.269
 2215SOL     OW 7543   5.710   3.183   4.917
 2215SOL    HW1 7544   5.612   3.197   4.901
 2215SOL    HW2 7545   5.760   3.198   4.832
 2216SOL     OW 7546   2.028   0.264   1.565
 2216SOL    HW1 7547   1.990   0.248   1.656
 2216SOL    HW2 7548   2.074   0.182   1.533
 2217SOL     OW 7549   4.658   0.921   1.837
 2217SOL    HW1 7550   4.605   0.914   1.753
 2217SOL    HW2 7551   4.707   1.009   1.838
 2218SOL     OW 7552   0.916   6.649   2.020
 2218SOL    HW1 7553   0.856   6.612   2.092
 2218SOL    HW2 7554   1.005   6.672   2.060
 2219SOL     OW 7555   1.421   1.985   2.944
 2219SOL    HW1 7556   1.500   2.043   2.966
 2219SOL    HW2 7557   1.378   1.954   3.030
 2220SOL     OW 7558   0.589   0.517   0.993
 2220SOL    HW1 7559   0.569   0.420   1.012
 2220SOL    HW2 7560   0.614   0.526   0.897
 2221SOL     OW 7561   0.106   1.709   0.321
 2221SOL    HW1 7562   0.040   1.640   0.293
 2221SOL    HW2 7563   0.198   1.676   0.303
 2222SOL     OW 7564   5.376   5.986   2.897
 2222SOL    HW1 7565   5.322   5.919   2.847
 2222SOL    HW2 7566   5.438   5.940   2.960
 2223SOL     OW 7567   5.910   4.860   1.635
 2223SOL    HW1 7568   5.937   4.856   1.731
 2223SOL    HW2 7569   5.829   4.802   1.621
 2224SOL     OW 7570   0.832   4.924   2.316
 2224SOL    HW1 7571   0.753   4.950   2.373
 2224SOL    HW2 7572   0.915   4.927   2.371
 2225SOL     OW 7573   0.390   4.449   0.825
 2225SOL    HW1 7574   0.360   4.355   0.845
 2225SOL    HW2 7575   0.490   4.454   0.834
 2226SOL     OW 7576   4.092   4.044   1.450
 2226SOL    HW1 7577   4.161   4.053   1.377
 2226SOL    HW2 7578   4.130   4.079   1.535
 2227SOL     OW 7579   0.832   3.196   4.032
 2227SOL    HW1 7580   0.863   3.101   4.024
 2227SOL    HW2 7581   0.856   3.246   3.949
 2228SOL     OW 7582   2.878   5.186   4.725
 2228SOL    HW1 7583   2.859   5.098   4.770
 2228SOL    HW2 7584   2.820   5.257   4.764
 2229SOL     OW 7585   5.332   0.557   3.190
 2229SOL    HW1 7586   5.315   0.521   3.098
 2229SOL    HW2 7587   5.256   0.534   3.250
 2230SOL     OW 7588   2.379   5.487   0.656
 2230SOL    HW1 7589   2.432   5.572   0.657
 2230SOL    HW2 7590   2.440   5.410   0.642
 2231SOL     OW 7591   2.920   6.118   1.174
 2231SOL    HW1 7592   3.019   6.125   1.187
 2231SOL    HW2 7593   2.874   6.179   1.239
 2232SOL     OW 7594   6.257   2.793   3.540
 2232SOL    HW1 7595   6.209   2.872   3.578
 2232SOL    HW2 7596   6.242   2.714   3.598
 2233SOL     OW 7597   3.263   1.710   0.073
 2233SOL    HW1 7598   3.239   1.624   0.028
 2233SOL    HW2 7599   3.185   1.773   0.068
 2234SOL     OW 7600   2.543   2.305   0.827
 2234SOL    HW1 7601   2.594   2.266   0.903
 2234SOL    HW2 7602   2.601   2.308   0.745
 2235SOL     OW 7603   2.079   0.008   1.258
 2235SOL    HW1 7604   2.116   6.985   1.177
 2235SOL    HW2 7605   2.046   0.099   1.232
 2236SOL     OW 7606   6.564   4.010   6.734
 2236SOL    HW1 7607   6.539   4.050   6.823
 2236SOL    HW2 7608   6.642   4.058   6.696
 2237SOL     OW 7609   6.527   2.209   3.990
 2237SOL    HW1 7610   6.512   2.123   3.941
 2237SOL    HW2 7611   6.451   2.226   4.052
 2238SOL     OW 7612   0.060   5.743   1.915
 2238SOL    HW1 7613   7.005   5.696   1.954
 2238SOL    HW2 7614   0.109   5.682   1.853
 2239SOL     OW 7615   5.549   5.531   2.879
 2239SOL    HW1 7616   5.456   5.515   2.848
 2239SOL    HW2 7617   5.598   5.585   2.811
 2240SOL     OW 7618   5.632   3.852   2.092
 2240SOL    HW1 7619   5.609   3.938   2.047
 2240SOL    HW2 7620   5.562   3.783   2.071
 2241SOL     OW 7621   0.806   6.687   2.597
 2241SOL    HW1 7622   0.808   6.787   2.596
 2241SOL    HW2 7623   0.814   6.655   2.691
 2242SOL     OW 7624   4.701   2.769   2.487
 2242SOL    HW1 7625   4.736   2.681   2.454
 2242SOL    HW2 7626   4.725   2.780   2.584
 2243SOL     OW 7627   3.223   5.926   5.700
 2243SOL    HW1 7628   3.199   5.956   5.607
 2243SOL    HW2 7629   3.143   5.884   5.743
 2244SOL     OW 7630   2.496   0.968   5.062
 2244SOL    HW1 7631   2.457   0.946   5.151
 2244SOL    HW2 7632   2.594   0.984   5.071
 2245SOL     OW 7633   0.369   1.990   2.075
 2245SOL    HW1 7634   0.389   1.932   2.153
 2245SOL    HW2 7635   0.304   1.944   2.015
 2246SOL     OW 7636   1.335   4.268   4.490
 2246SOL    HW1 7637   1.301   4.331   4.560
 2246SOL    HW2 7638   1.313   4.174   4.517
 2247SOL     OW 7639   1.896   1.575   5.793
 2247SOL    HW1 7640   1.971   1.635   5.818
 2247SOL    HW2 7641   1.825   1.578   5.864
 2248SOL     OW 7642   4.627   4.476   5.266
 2248SOL    HW1 7643   4.698   4.406   5.271
 2248SOL    HW2 7644   4.666   4.566   5.287
 2249SOL     OW 7645   4.471   5.309   4.294
 2249SOL    HW1 7646   4.401   5.247   4.329
 2249SOL    HW2 7647   4.507   5.366   4.368
 2250SOL     OW 7648   5.234   5.666   0.478
 2250SOL    HW1 7649   5.274   5.751   0.445
 2250SOL    HW2 7650   5.247   5.594   0.410
 2251SOL     OW 7651   0.132   0.434   6.570
 2251SOL    HW1 7652   0.086   0.509   6.524
 2251SOL    HW2 7653   0.213   0.468   6.616
 2252SOL     OW 7654   3.320   1.364   5.633
 2252SOL    HW1 7655   3.411   1.337   5.601
 2252SOL    HW2 7656   3.280   1.290   5.688
 2253SOL     OW 7657   1.418   2.516   5.876
 2253SOL    HW1 7658   1.406   2.419   5.853
 2253SOL    HW2 7659   1.394   2.572   5.797
 2254SOL     OW 7660   1.766   4.061   6.077
 2254SOL    HW1 7661   1.800   4.014   5.996
 2254SOL    HW2 7662   1.737   3.994   6.145
 2255SOL     OW 7663   5.703   2.519   1.001
 2255SOL    HW1 7664   5.628   2.520   0.935
 2255SOL    HW2 7665   5.769   2.449   0.976
 2256SOL     OW 7666   3.287   5.024   1.496
 2256SOL    HW1 7667   3.200   5.021   1.546
 2256SOL    HW2 7668   3.358   4.979   1.551
 2257SOL     OW 7669   2.164   3.610   3.836
 2257SOL    HW1 7670   2.074   3.577   3.808
 2257SOL    HW2 7671   2.216   3.535   3.876
 2258SOL     OW 7672   2.474   5.512   4.875
 2258SOL    HW1 7673   2.403   5.449   4.843
 2258SOL    HW2 7674   2.564   5.479   4.845
 2259SOL     OW 7675   5.809   3.661   6.344
 2259SOL    HW1 7676   5.904   3.658   6.372
 2259SOL    HW2 7677   5.750   3.634   6.420
 2260SOL     OW 7678   4.945   4.143   0.624
 2260SOL    HW1 7679   4.999   4.059   0.629
 2260SOL    HW2 7680   4.903   4.161   0.713
 2261SOL     OW 7681   4.116   6.815   5.395
 2261SOL    HW1 7682   4.187   6.826   5.465
 2261SOL    HW2 7683   4.103   6.718   5.376
 2262SOL     OW 7684   3.604   1.801   3.872
 2262SOL    HW1 7685   3.517   1.776   3.828
 2262SOL    HW2 7686   3.642   1.721   3.918
 2263SOL     OW 7687   6.930   3.963   6.277
 2263SOL    HW1 7688   6.964   3.869   6.274
 2263SOL    HW2 7689   6.941   3.999   6.370
 2264SOL     OW 7690   4.023   3.495   3.776
 2264SOL    HW1 7691   3.972   3.580   3.784
 2264SOL    HW2 7692   4.074   3.478   3.860
 2265SOL     OW 7693   0.122   0.588   2.727
 2265SOL    HW1 7694   0.173   0.520   2.674
 2265SOL    HW2 7695   0.186   0.651   2.771
 2266SOL     OW 7696   6.342   0.149   7.014
 2266SOL    HW1 7697   6.307   0.229   0.040
 2266SOL    HW2 7698   6.272   0.116   6.950
 2267SOL     OW 7699   5.257   1.188   5.468
 2267SOL    HW1 7700   5.226   1.274   5.508
 2267SOL    HW2 7701   5.325   1.207   5.397
 2268SOL     OW 7702   6.309   4.894   0.375
 2268SOL    HW1 7703   6.367   4.899   0.456
 2268SOL    HW2 7704   6.222   4.851   0.399
 2269SOL     OW 7705   0.108   5.462   4.527
 2269SOL    HW1 7706   0.088   5.537   4.590
 2269SOL    HW2 7707   0.062   5.379   4.558
 2270SOL     OW 7708   3.871   3.396   1.939
 2270SOL    HW1 7709   3.947   3.455   1.912
 2270SOL    HW2 7710   3.899   3.336   2.014
 2271SOL     OW 7711   0.078   4.166   3.147
 2271SOL    HW1 7712   7.006   4.190   3.125
 2271SOL    HW2 7713   0.113   4.230   3.216
 2272SOL     OW 7714   4.787   2.181   6.240
 2272SOL    HW1 7715   4.862   2.223   6.190
 2272SOL    HW2 7716   4.790   2.211   6.336
 2273SOL     OW 7717   0.409   1.484   3.931
 2273SOL    HW1 7718   0.486   1.478   3.995
 2273SOL    HW2 7719   0.402   1.577   3.896
 2274SOL     OW 7720   1.628   3.422   3.091
 2274SOL    HW1 7721   1.706   3.455   3.038
 2274SOL    HW2 7722   1.581   3.351   3.039
 2275SOL     OW 7723   4.956   6.802   3.676
 2275SOL    HW1 7724   4.945   6.723   3.737
 2275SOL    HW2 7725   5.006   6.773   3.594
 2276SOL     OW 7726   4.137   5.577   1.762
 2276SOL    HW1 7727   4.093   5.488   1.766
 2276SOL    HW2 7728   4.104   5.627   1.681
 2277SOL     OW 7729   3.160   3.415   0.686
 2277SOL    HW1 7730   3.227   3.373   0.625
 2277SOL    HW2 7731   3.088   3.350   0.707
 2278SOL     OW 7732   5.506   6.728   0.740
 2278SOL    HW1 7733   5.519   6.699   0.835
 2278SOL    HW2 7734   5.501   6.648   0.681
 2279SOL     OW 7735   4.799   4.641   5.058
 2279SOL    HW1 7736   4.767   4.720   5.005
 2279SOL    HW2 7737   4.737   4.564   5.045
 2280SOL     OW 7738   5.406   6.740   6.264
 2280SOL    HW1 7739   5.328   6.677   6.272
 2280SOL    HW2 7740   5.488   6.688   6.241
 2281SOL     OW 7741   2.760   2.738   0.487
 2281SOL    HW1 7742   2.751   2.716   0.584
 2281SOL    HW2 7743   2.856   2.733   0.460
 2282SOL     OW 7744   4.094   5.773   2.206
 2282SOL    HW1 7745   4.018   5.775   2.271
 2282SOL    HW2 7746   4.097   5.684   2.161
 2283SOL     OW 7747   0.122   3.919   2.301
 2283SOL    HW1 7748   0.206   3.869   2.279
 2283SOL    HW2 7749   0.119   3.937   2.399
 2284SOL     OW 7750   2.696   2.319   2.252
 2284SOL    HW1 7751   2.608   2.350   2.217
 2284SOL    HW2 7752   2.765   2.322   2.179
 2285SOL     OW 7753   1.387   3.982   6.902
 2285SOL    HW1 7754   1.307   4.013   6.953
 2285SOL    HW2 7755   1.373   3.887   6.873
 2286SOL     OW 7756   5.505   6.816   4.572
 2286SOL    HW1 7757   5.445   6.750   4.617
 2286SOL    HW2 7758   5.538   6.778   4.486
 2287SOL     OW 7759   2.155   3.050   1.557
 2287SOL    HW1 7760   2.226   2.982   1.536
 2287SOL    HW2 7761   2.183   3.104   1.636
 2288SOL     OW 7762   1.838   6.404   3.882
 2288SOL    HW1 7763   1.922   6.404   3.828
 2288SOL    HW2 7764   1.860   6.392   3.979
 2289SOL     OW 7765   4.457   1.826   0.418
 2289SOL    HW1 7766   4.480   1.909   0.468
 2289SOL    HW2 7767   4.390   1.848   0.347
 2290SOL     OW 7768   3.604   3.396   3.006
 2290SOL    HW1 7769   3.613   3.297   3.017
 2290SOL    HW2 7770   3.592   3.439   3.095
 2291SOL     OW 7771   0.865   2.467   0.007
 2291SOL    HW1 7772   0.813   2.535   6.979
 2291SOL    HW2 7773   0.830   2.375   7.009
 2292SOL     OW 7774   5.435   1.763   2.591
 2292SOL    HW1 7775   5.534   1.771   2.591
 2292SOL    HW2 7776   5.403   1.754   2.686
 2293SOL     OW 7777   0.495   0.468   0.215
 2293SOL    HW1 7778   0.577   0.512   0.252
 2293SOL    HW2 7779   0.465   0.395   0.277
 2294SOL     OW 7780   6.618   0.965   5.232
 2294SOL    HW1 7781   6.706   1.003   5.203
 2294SOL    HW2 7782   6.569   0.930   5.153
 2295SOL     OW 7783   5.732   6.348   1.190
 2295SOL    HW1 7784   5.796   6.421   1.214
 2295SOL    HW2 7785   5.639   6.375   1.216
 2296SOL     OW 7786   3.773   5.167   3.528
 2296SOL    HW1 7787   3.693   5.184   3.471
 2296SOL    HW2 7788   3.833   5.247   3.527
 2297SOL     OW 7789   4.293   3.871   5.545
 2297SOL    HW1 7790   4.388   3.849   5.523
 2297SOL    HW2 7791   4.281   3.873   5.644
 2298SOL     OW 7792   3.517   3.822   4.691
 2298SOL    HW1 7793   3.424   3.787   4.687
 2298SOL    HW2 7794   3.519   3.918   4.661
 2299SOL     OW 7795   6.147   3.168   4.824
 2299SOL    HW1 7796   6.157   3.071   4.849
 2299SOL    HW2 7797   6.060   3.181   4.776
 2300SOL     OW 7798   4.690   6.347   2.281
 2300SOL    HW1 7799   4.655   6.361   2.189
 2300SOL    HW2 7800   4.762   6.413   2.300
 2301SOL     OW 7801   3.803   2.947   4.770
 2301SOL    HW1 7802   3.773   2.926   4.863
 2301SOL    HW2 7803   3.772   2.874   4.709
 2302SOL     OW 7804   6.241   3.433   6.672
 2302SOL    HW1 7805   6.268   3.510   6.615
 2302SOL    HW2 7806   6.144   3.415   6.661
 2303SOL     OW 7807   2.774   2.082   6.912
 2303SOL    HW1 7808   2.777   2.001   6.970
 2303SOL    HW2 7809   2.836   2.151   6.949
 2304SOL     OW 7810   5.843   6.296   2.472
 2304SOL    HW1 7811   5.918   6.362   2.459
 2304SOL    HW2 7812   5.881   6.204   2.482
 2305SOL     OW 7813   3.157   0.188   4.328
 2305SOL    HW1 7814   3.172   0.114   4.264
 2305SOL    HW2 7815   3.241   0.206   4.380
 2306SOL     OW 7816   0.687   4.716   4.375
 2306SOL    HW1 7817   0.725   4.627   4.399
 2306SOL    HW2 7818   0.630   4.749   4.450
 2307SOL     OW 7819   6.303   3.220   5.911
 2307SOL    HW1 7820   6.316   3.301   5.968
 2307SOL    HW2 7821   6.386   3.165   5.911
 2308SOL     OW 7822   1.833   5.031   1.949
 2308SOL    HW1 7823   1.928   5.055   1.926
 2308SOL    HW2 7824   1.795   4.973   1.877
 2309SOL     OW 7825   1.614   0.294   5.532
 2309SOL    HW1 7826   1.570   0.244   5.606
 2309SOL    HW2 7827   1.702   0.331   5.563
 2310SOL     OW 7828   4.524   0.074   1.375
 2310SOL    HW1 7829   4.489   0.140   1.310
 2310SOL    HW2 7830   4.550   7.013   1.328
 2311SOL     OW 7831   2.946   5.320   1.235
 2311SOL    HW1 7832   2.854   5.281   1.223
 2311SOL    HW2 7833   2.938   5.417   1.255
 2312SOL     OW 7834   3.453   5.439   2.126
 2312SOL    HW1 7835   3.420   5.391   2.045
 2312SOL    HW2 7836   3.492   5.527   2.100
 2313SOL     OW 7837   5.148   6.020   1.513
 2313SOL    HW1 7838   5.160   6.084   1.589
 2313SOL    HW2 7839   5.064   6.043   1.464
 2314SOL     OW 7840   1.411   4.881   4.606
 2314SOL    HW1 7841   1.455   4.921   4.686
 2314SOL    HW2 7842   1.466   4.805   4.572
 2315SOL     OW 7843   3.977   2.786   6.342
 2315SOL    HW1 7844   3.911   2.780   6.417
 2315SOL    HW2 7845   4.040   2.709   6.347
 2316SOL     OW 7846   5.464   4.433   2.307
 2316SOL    HW1 7847   5.561   4.458   2.308
 2316SOL    HW2 7848   5.454   4.340   2.273
 2317SOL     OW 7849   0.373   5.283   3.575
 2317SOL    HW1 7850   0.461   5.282   3.527
 2317SOL    HW2 7851   0.367   5.204   3.635
 2318SOL     OW 7852   6.807   1.049   4.169
 2318SOL    HW1 7853   6.741   1.125   4.172
 2318SOL    HW2 7854   6.892   1.079   4.126
 2319SOL     OW 7855   0.633   4.760   3.266
 2319SOL    HW1 7856   0.634   4.665   3.236
 2319SOL    HW2 7857   0.670   4.767   3.358
 2320SOL     OW 7858   6.301   5.244   4.879
 2320SOL    HW1 7859   6.290   5.314   4.808
 2320SOL    HW2 7860   6.218   5.240   4.935
 2321SOL     OW 7861   3.295   5.473   4.972
 2321SOL    HW1 7862   3.195   5.482   4.977
 2321SOL    HW2 7863   3.319   5.379   4.950
 2322SOL     OW 7864   3.446   1.019   5.591
 2322SOL    HW1 7865   3.444   1.077   5.672
 2322SOL    HW2 7866   3.359   1.027   5.542
 2323SOL     OW 7867   5.228   4.394   2.024
 2323SOL    HW1 7868   5.268   4.345   1.946
 2323SOL    HW2 7869   5.268   4.485   2.030
 2324SOL     OW 7870   6.751   4.608   3.570
 2324SOL    HW1 7871   6.709   4.692   3.605
 2324SOL    HW2 7872   6.742   4.536   3.639
 2325SOL     OW 7873   6.762   2.426   0.940
 2325SOL    HW1 7874   6.731   2.346   0.887
 2325SOL    HW2 7875   6.682   2.476   0.974
 2326SOL     OW 7876   1.867   4.570   6.689
 2326SOL    HW1 7877   1.880   4.471   6.692
 2326SOL    HW2 7878   1.831   4.601   6.778
 2327SOL     OW 7879   5.881   1.597   3.852
 2327SOL    HW1 7880   5.790   1.557   3.866
 2327SOL    HW2 7881   5.902   1.599   3.754
 2328SOL     OW 7882   6.306   0.023   3.800
 2328SOL    HW1 7883   6.285   6.949   3.793
 2328SOL    HW2 7884   6.360   0.040   3.883
 2329SOL     OW 7885   6.562   5.797   3.292
 2329SOL    HW1 7886   6.538   5.894   3.302
 2329SOL    HW2 7887   6.483   5.740   3.313
 2330SOL     OW 7888   0.152   3.471   1.962
 2330SOL    HW1 7889   0.176   3.403   1.893
 2330SOL    HW2 7890   0.054   3.469   1.979
 2331SOL     OW 7891   0.681   4.548   5.667
 2331SOL    HW1 7892   0.704   4.631   5.719
 2331SOL    HW2 7893   0.744   4.539   5.590
 2332SOL     OW 7894   5.826   2.301   4.792
 2332SOL    HW1 7895   5.818   2.391   4.750
 2332SOL    HW2 7896   5.794   2.306   4.887
 2333SOL     OW 7897   2.471   4.530   3.754
 2333SOL    HW1 7898   2.544   4.544   3.822
 2333SOL    HW2 7899   2.406   4.463   3.790
 2334SOL     OW 7900   3.417   0.474   0.960
 2334SOL    HW1 7901   3.397   0.483   1.058
 2334SOL    HW2 7902   3.423   0.377   0.936
 2335SOL     OW 7903   4.136   5.121   4.225
 2335SOL    HW1 7904   4.063   5.188   4.213
 2335SOL    HW2 7905   4.181   5.137   4.313
 2336SOL     OW 7906   4.656   2.818   5.945
 2336SOL    HW1 7907   4.722   2.766   5.998
 2336SOL    HW2 7908   4.631   2.767   5.863
 2337SOL     OW 7909   5.693   0.634   3.699
 2337SOL    HW1 7910   5.699   0.671   3.606
 2337SOL    HW2 7911   5.636   0.552   3.699
 2338SOL     OW 7912   1.274   6.639   6.346
 2338SOL    HW1 7913   1.180   6.663   6.322
 2338SOL    HW2 7914   1.316   6.587   6.271
 2339SOL     OW 7915   4.119   4.655   6.197
 2339SOL    HW1 7916   4.086   4.746   6.170
 2339SOL    HW2 7917   4.126   4.651   6.297
 2340SOL     OW 7918   3.701   5.190   3.779
 2340SOL    HW1 7919   3.713   5.179   3.680
 2340SOL    HW2 7920   3.611   5.230   3.797
 2341SOL     OW 7921   6.650   5.243   6.841
 2341SOL    HW1 7922   6.605   5.292   6.767
 2341SOL    HW2 7923   6.635   5.145   6.830
 2342SOL     OW 7924   6.465   0.168   5.188
 2342SOL    HW1 7925   6.461   0.250   5.245
 2342SOL    HW2 7926   6.373   0.129   5.179
 2343SOL     OW 7927   0.947   6.835   0.542
 2343SOL    HW1 7928   0.996   6.748   0.552
 2343SOL    HW2 7929   0.932   6.853   0.444
 2344SOL     OW 7930   2.206   1.937   3.525
 2344SOL    HW1 7931   2.179   1.840   3.529
 2344SOL    HW2 7932   2.298   1.948   3.562
 2345SOL     OW 7933   1.765   1.313   3.671
 2345SOL    HW1 7934   1.707   1.392   3.691
 2345SOL    HW2 7935   1.715   1.250   3.611
 2346SOL     OW 7936   4.972   3.800   5.752
 2346SOL    HW1 7937   5.021   3.853   5.820
 2346SOL    HW2 7938   4.928   3.722   5.795
 2347SOL     OW 7939   1.126   3.203   0.982
 2347SOL    HW1 7940   1.225   3.190   0.990
 2347SOL    HW2 7941   1.106   3.301   0.983
 2348SOL     OW 7942   2.632   5.679   1.557
 2348SOL    HW1 7943   2.574   5.679   1.476
 2348SOL    HW2 7944   2.622   5.592   1.605
 2349SOL     OW 7945   4.955   4.894   6.045
 2349SOL    HW1 7946   4.915   4.974   6.001
 2349SOL    HW2 7947   4.934   4.812   5.991
 2350SOL     OW 7948   2.286   5.815   5.274
 2350SOL    HW1 7949   2.275   5.896   5.217
 2350SOL    HW2 7950   2.373   5.821   5.323
 2351SOL     OW 7951   2.151   5.777   3.394
 2351SOL    HW1 7952   2.226   5.743   3.338
 2351SOL    HW2 7953   2.111   5.702   3.447
 2352SOL     OW 7954   5.740   4.140   2.487
 2352SOL    HW1 7955   5.826   4.116   2.533
 2352SOL    HW2 7956   5.761   4.172   2.394
 2353SOL     OW 7957   3.067   3.598   5.979
 2353SOL    HW1 7958   3.110   3.509   5.995
 2353SOL    HW2 7959   2.967   3.587   5.981
 2354SOL     OW 7960   3.996   2.679   1.694
 2354SOL    HW1 7961   3.975   2.602   1.755
 2354SOL    HW2 7962   4.014   2.645   1.602
 2355SOL     OW 7963   6.440   0.320   1.342
 2355SOL    HW1 7964   6.532   0.356   1.355
 2355SOL    HW2 7965   6.432   0.285   1.248
 2356SOL     OW 7966   2.588   4.982   3.790
 2356SOL    HW1 7967   2.523   4.942   3.855
 2356SOL    HW2 7968   2.539   5.012   3.708
 2357SOL     OW 7969   6.501   4.789   0.857
 2357SOL    HW1 7970   6.570   4.851   0.896
 2357SOL    HW2 7971   6.536   4.695   0.859
 2358SOL     OW 7972   3.476   1.807   5.309
 2358SOL    HW1 7973   3.441   1.880   5.369
 2358SOL    HW2 7974   3.449   1.827   5.214
 2359SOL     OW 7975   2.257   1.369   5.694
 2359SOL    HW1 7976   2.233   1.463   5.672
 2359SOL    HW2 7977   2.351   1.351   5.667
 2360SOL     OW 7978   3.598   4.259   6.799
 2360SOL    HW1 7979   3.653   4.181   6.769
 2360SOL    HW2 7980   3.527   4.227   6.862
 2361SOL     OW 7981   4.642   5.866   1.652
 2361SOL    HW1 7982   4.727   5.823   1.683
 2361SOL    HW2 7983   4.652   5.965   1.654
 2362SOL     OW 7984   4.654   5.113   3.689
 2362SOL    HW1 7985   4.614   5.022   3.677
 2362SOL    HW2 7986   4.621   5.174   3.616
 2363SOL     OW 7987   1.927   3.925   0.336
 2363SOL    HW1 7988   1.887   3.860   0.272
 2363SOL    HW2 7989   1.886   4.015   0.323
 2364SOL     OW 7990   3.353   1.263   2.705
 2364SOL    HW1 7991   3.258   1.295   2.701
 2364SOL    HW2 7992   3.365   1.209   2.788
 2365SOL     OW 7993   5.179   4.214   3.406
 2365SOL    HW1 7994   5.275   4.238   3.425
 2365SOL    HW2 7995   5.132   4.294   3.370
 2366SOL     OW 7996   3.055   4.858   4.870
 2366SOL    HW1 7997   3.050   4.939   4.930
 2366SOL    HW2 7998   3.015   4.780   4.918
 2367SOL     OW 7999   5.551   4.724   6.496
 2367SOL    HW1 8000   5.630   4.749   6.551
 2367SOL    HW2 8001   5.525   4.629   6.516
 2368SOL     OW 8002   5.696   6.877   4.748
 2368SOL    HW1 8003   5.794   6.861   4.739
 2368SOL    HW2 8004   5.647   6.830   4.675
 2369SOL     OW 8005   2.981   1.875   4.430
 2369SOL    HW1 8006   2.945   1.903   4.518
 2369SOL    HW2 8007   3.064   1.927   4.410
 2370SOL     OW 8008   5.946   2.655   1.522
 2370SOL    HW1 8009   5.848   2.652   1.504
 2370SOL    HW2 8010   5.964   2.715   1.600
 2371SOL     OW 8011   0.037   6.103   2.727
 2371SOL    HW1 8012   0.036   6.138   2.821
 2371SOL    HW2 8013   6.993   6.029   2.719
 2372SOL     OW 8014   5.773   6.778   6.459
 2372SOL    HW1 8015   5.781   6.679   6.472
 2372SOL    HW2 8016   5.833   6.806   6.383
 2373SOL     OW 8017   6.479   5.527   6.144
 2373SOL    HW1 8018   6.510   5.552   6.235
 2373SOL    HW2 8019   6.386   5.561   6.129
 2374SOL     OW 8020   6.282   6.202   2.654
 2374SOL    HW1 8021   6.218   6.154   2.594
 2374SOL    HW2 8022   6.373   6.162   2.645
 2375SOL     OW 8023   1.444   0.160   4.200
 2375SOL    HW1 8024   1.393   0.075   4.186
 2375SOL    HW2 8025   1.523   0.162   4.140
 2376SOL     OW 8026   5.266   1.939   3.573
 2376SOL    HW1 8027   5.269   1.873   3.498
 2376SOL    HW2 8028   5.173   1.945   3.609
 2377SOL     OW 8029   4.625   4.567   5.853
 2377SOL    HW1 8030   4.620   4.563   5.753
 2377SOL    HW2 8031   4.566   4.497   5.893
 2378SOL     OW 8032   6.969   1.235   0.603
 2378SOL    HW1 8033   0.033   1.193   0.630
 2378SOL    HW2 8034   6.988   1.314   0.544
 2379SOL     OW 8035   6.584   5.358   2.012
 2379SOL    HW1 8036   6.513   5.413   1.967
 2379SOL    HW2 8037   6.607   5.280   1.954
 2380SOL     OW 8038   4.909   5.604   5.623
 2380SOL    HW1 8039   4.927   5.507   5.640
 2380SOL    HW2 8040   4.930   5.626   5.528
 2381SOL     OW 8041   2.205   4.925   4.371
 2381SOL    HW1 8042   2.165   4.833   4.376
 2381SOL    HW2 8043   2.302   4.917   4.348
 2382SOL     OW 8044   6.852   5.916   2.651
 2382SOL    HW1 8045   6.836   5.906   2.749
 2382SOL    HW2 8046   6.778   5.969   2.610
 2383SOL     OW 8047   5.645   5.294   5.974
 2383SOL    HW1 8048   5.567   5.355   5.992
 2383SOL    HW2 8049   5.622   5.202   6.004
 2384SOL     OW 8050   0.577   1.946   2.619
 2384SOL    HW1 8051   0.569   2.045   2.631
 2384SOL    HW2 8052   0.511   1.900   2.678
 2385SOL     OW 8053   0.421   1.567   0.654
 2385SOL    HW1 8054   0.337   1.537   0.700
 2385SOL    HW2 8055   0.399   1.598   0.562
 2386SOL     OW 8056   6.021   5.852   3.863
 2386SOL    HW1 8057   5.997   5.888   3.953
 2386SOL    HW2 8058   6.099   5.789   3.872
 2387SOL     OW 8059   1.611   1.143   3.838
 2387SOL    HW1 8060   1.542   1.102   3.778
 2387SOL    HW2 8061   1.675   1.197   3.784
 2388SOL     OW 8062   6.587   2.164   5.233
 2388SOL    HW1 8063   6.686   2.148   5.237
 2388SOL    HW2 8064   6.541   2.078   5.214
 2389SOL     OW 8065   4.648   4.607   3.927
 2389SOL    HW1 8066   4.680   4.686   3.980
 2389SOL    HW2 8067   4.677   4.617   3.832
 2390SOL     OW 8068   4.855   3.404   5.702
 2390SOL    HW1 8069   4.788   3.329   5.705
 2390SOL    HW2 8070   4.828   3.475   5.767
 2391SOL     OW 8071   3.119   4.238   5.946
 2391SOL    HW1 8072   3.056   4.188   5.886
 2391SOL    HW2 8073   3.090   4.334   5.952
 2392SOL     OW 8074   4.569   4.532   5.581
 2392SOL    HW1 8075   4.500   4.543   5.510
 2392SOL    HW2 8076   4.566   4.439   5.617
 2393SOL     OW 8077   4.120   4.258   1.042
 2393SOL    HW1 8078   4.027   4.228   1.023
 2393SOL    HW2 8079   4.156   4.308   0.963
 2394SOL     OW 8080   0.418   2.970   3.510
 2394SOL    HW1 8081   0.434   3.005   3.418
 2394SOL    HW2 8082   0.496   2.996   3.568
 2395SOL     OW 8083   0.681   2.684   4.704
 2395SOL    HW1 8084   0.710   2.595   4.670
 2395SOL    HW2 8085   0.757   2.749   4.696
 2396SOL     OW 8086   0.612   0.648   5.383
 2396SOL    HW1 8087   0.535   0.612   5.434
 2396SOL    HW2 8088   0.674   0.574   5.357
 2397SOL     OW 8089   0.299   4.007   5.064
 2397SOL    HW1 8090   0.234   3.997   4.988
 2397SOL    HW2 8091   0.270   4.083   5.122
 2398SOL     OW 8092   3.758   6.419   4.181
 2398SOL    HW1 8093   3.797   6.404   4.090
 2398SOL    HW2 8094   3.814   6.484   4.231
 2399SOL     OW 8095   3.185   2.115   3.762
 2399SOL    HW1 8096   3.223   2.135   3.852
 2399SOL    HW2 8097   3.088   2.137   3.761
 2400SOL     OW 8098   1.415   3.617   0.898
 2400SOL    HW1 8099   1.505   3.613   0.855
 2400SOL    HW2 8100   1.401   3.708   0.938
 2401SOL     OW 8101   2.686   0.302   5.817
 2401SOL    HW1 8102   2.656   0.397   5.821
 2401SOL    HW2 8103   2.767   0.290   5.874
 2402SOL     OW 8104   1.486   4.371   1.888
 2402SOL    HW1 8105   1.408   4.325   1.931
 2402SOL    HW2 8106   1.464   4.389   1.792
 2403SOL     OW 8107   4.081   3.231   3.122
 2403SOL    HW1 8108   4.166   3.177   3.116
 2403SOL    HW2 8109   4.016   3.182   3.180
 2404SOL     OW 8110   5.871   0.789   0.928
 2404SOL    HW1 8111   5.838   0.803   1.021
 2404SOL    HW2 8112   5.962   0.829   0.918
 2405SOL     OW 8113   2.709   3.427   0.840
 2405SOL    HW1 8114   2.657   3.477   0.771
 2405SOL    HW2 8115   2.724   3.486   0.920
 2406SOL     OW 8116   3.345   6.297   4.728
 2406SOL    HW1 8117   3.349   6.233   4.804
 2406SOL    HW2 8118   3.350   6.247   4.641
 2407SOL     OW 8119   2.445   0.830   3.517
 2407SOL    HW1 8120   2.513   0.824   3.444
 2407SOL    HW2 8121   2.405   0.922   3.517
 2408SOL     OW 8122   3.802   6.118   5.013
 2408SOL    HW1 8123   3.893   6.130   4.972
 2408SOL    HW2 8124   3.796   6.027   5.054
 2409SOL     OW 8125   1.436   3.310   0.755
 2409SOL    HW1 8126   1.376   3.378   0.797
 2409SOL    HW2 8127   1.433   3.225   0.809
 2410SOL     OW 8128   0.879   2.858   4.646
 2410SOL    HW1 8129   0.922   2.867   4.736
 2410SOL    HW2 8130   0.949   2.866   4.575
 2411SOL     OW 8131   2.888   2.979   0.041
 2411SOL    HW1 8132   2.934   3.068   0.037
 2411SOL    HW2 8133   2.923   2.921   6.991
 2412SOL     OW 8134   4.014   1.907   6.523
 2412SOL    HW1 8135   4.052   1.866   6.606
 2412SOL    HW2 8136   3.993   2.003   6.541
 2413SOL     OW 8137   0.397   3.291   7.005
 2413SOL    HW1 8138   0.480   3.324   0.026
 2413SOL    HW2 8139   0.418   3.265   6.910
 2414SOL     OW 8140   5.958   2.137   5.017
 2414SOL    HW1 8141   5.935   2.192   5.097
 2414SOL    HW2 8142   6.030   2.183   4.964
 2415SOL     OW 8143   2.763   5.673   0.384
 2415SOL    HW1 8144   2.828   5.656   0.310
 2415SOL    HW2 8145   2.811   5.698   0.467
 2416SOL     OW 8146   0.315   3.433   2.347
 2416SOL    HW1 8147   0.395   3.472   2.394
 2416SOL    HW2 8148   0.343   3.402   2.256
 2417SOL     OW 8149   3.105   2.523   1.730
 2417SOL    HW1 8150   3.080   2.501   1.636
 2417SOL    HW2 8151   3.030   2.497   1.791
 2418SOL     OW 8152   4.724   4.161   6.830
 2418SOL    HW1 8153   4.627   4.147   6.810
 2418SOL    HW2 8154   4.775   4.078   6.808
 2419SOL     OW 8155   2.554   6.684   3.444
 2419SOL    HW1 8156   2.576   6.610   3.509
 2419SOL    HW2 8157   2.629   6.751   3.444
 2420SOL     OW 8158   1.198   3.999   2.898
 2420SOL    HW1 8159   1.253   3.963   2.974
 2420SOL    HW2 8160   1.176   4.095   2.915
 2421SOL     OW 8161   2.930   6.456   4.599
 2421SOL    HW1 8162   2.942   6.367   4.642
 2421SOL    HW2 8163   2.952   6.529   4.664
 2422SOL     OW 8164   4.721   5.783   1.345
 2422SOL    HW1 8165   4.629   5.769   1.382
 2422SOL    HW2 8166   4.718   5.854   1.275
 2423SOL     OW 8167   2.563   5.646   2.799
 2423SOL    HW1 8168   2.649   5.639   2.749
 2423SOL    HW2 8169   2.519   5.556   2.802
 2424SOL     OW 8170   5.744   0.234   6.182
 2424SOL    HW1 8171   5.790   0.279   6.105
 2424SOL    HW2 8172   5.656   0.278   6.198
 2425SOL     OW 8173   5.251   5.652   4.752
 2425SOL    HW1 8174   5.199   5.737   4.740
 2425SOL    HW2 8175   5.302   5.657   4.838
 2426SOL     OW 8176   2.086   3.461   5.527
 2426SOL    HW1 8177   2.168   3.434   5.578
 2426SOL    HW2 8178   2.094   3.556   5.498
 2427SOL     OW 8179   5.195   0.778   6.789
 2427SOL    HW1 8180   5.242   0.690   6.791
 2427SOL    HW2 8181   5.263   0.852   6.794
 2428SOL     OW 8182   1.336   0.895   2.873
 2428SOL    HW1 8183   1.339   0.960   2.949
 2428SOL    HW2 8184   1.293   0.939   2.794
 2429SOL     OW 8185   5.646   5.279   1.655
 2429SOL    HW1 8186   5.733   5.328   1.649
 2429SOL    HW2 8187   5.626   5.234   1.568
 2430SOL     OW 8188   5.767   1.170   6.551
 2430SOL    HW1 8189   5.726   1.252   6.592
 2430SOL    HW2 8190   5.807   1.113   6.624
 2431SOL     OW 8191   0.381   3.007   1.599
 2431SOL    HW1 8192   0.434   2.998   1.684
 2431SOL    HW2 8193   0.334   2.921   1.580
 2432SOL     OW 8194   2.821   5.443   2.196
 2432SOL    HW1 8195   2.865   5.379   2.134
 2432SOL    HW2 8196   2.890   5.500   2.240
 2433SOL     OW 8197   6.327   3.875   5.800
 2433SOL    HW1 8198   6.325   3.864   5.701
 2433SOL    HW2 8199   6.380   3.958   5.823
 2434SOL     OW 8200   4.695   0.593   2.836
 2434SOL    HW1 8201   4.778   0.618   2.887
 2434SOL    HW2 8202   4.663   0.673   2.784
 2435SOL     OW 8203   6.447   6.766   6.617
 2435SOL    HW1 8204   6.453   6.724   6.527
 2435SOL    HW2 8205   6.357   6.808   6.628
 2436SOL     OW 8206   2.028   2.351   1.876
 2436SOL    HW1 8207   1.945   2.402   1.897
 2436SOL    HW2 8208   2.006   2.272   1.819
 2437SOL     OW 8209   0.045   4.515   2.698
 2437SOL    HW1 8210   0.142   4.540   2.692
 2437SOL    HW2 8211   0.018   4.512   2.794
 2438SOL     OW 8212   3.105   1.140   4.724
 2438SOL    HW1 8213   3.201   1.169   4.727
 2438SOL    HW2 8214   3.080   1.116   4.630
 2439SOL     OW 8215   1.527   6.796   1.510
 2439SOL    HW1 8216   1.427   6.792   1.511
 2439SOL    HW2 8217   1.561   6.780   1.603
 2440SOL     OW 8218   5.450   1.181   5.273
 2440SOL    HW1 8219   5.452   1.088   5.310
 2440SOL    HW2 8220   5.517   1.189   5.200
 2441SOL     OW 8221   6.850   0.146   0.265
 2441SOL    HW1 8222   6.802   0.062   0.292
 2441SOL    HW2 8223   6.885   0.136   0.172
 2442SOL     OW 8224   4.933   3.363   1.775
 2442SOL    HW1 8225   4.871   3.321   1.708
 2442SOL    HW2 8226   4.906   3.336   1.867
 2443SOL     OW 8227   0.843   2.716   1.627
 2443SOL    HW1 8228   0.867   2.782   1.698
 2443SOL    HW2 8229   0.826   2.764   1.541
 2444SOL     OW 8230   4.024   5.536   2.059
 2444SOL    HW1 8231   3.931   5.546   2.025
 2444SOL    HW2 8232   4.087   5.524   1.982
 2445SOL     OW 8233   0.205   2.479   1.111
 2445SOL    HW1 8234   0.166   2.523   1.031
 2445SOL    HW2 8235   0.143   2.407   1.143
 2446SOL     OW 8236   1.507   4.854   1.157
 2446SOL    HW1 8237   1.580   4.815   1.101
 2446SOL    HW2 8238   1.548   4.906   1.232
 2447SOL     OW 8239   2.695   6.719   7.007
 2447SOL    HW1 8240   2.639   6.697   6.927
 2447SOL    HW2 8241   2.676   6.654   0.057
 2448SOL     OW 8242   6.492   1.535   4.284
 2448SOL    HW1 8243   6.583   1.539   4.326
 2448SOL    HW2 8244   6.497   1.569   4.190
 2449SOL     OW 8245   1.525   3.938   1.675
 2449SOL    HW1 8246   1.604   3.980   1.722
 2449SOL    HW2 8247   1.444   3.948   1.732
 2450SOL     OW 8248   1.446   6.808   5.899
 2450SOL    HW1 8249   1.440   6.710   5.883
 2450SOL    HW2 8250   1.357   6.850   5.883
 2451SOL     OW 8251   0.905   0.064   4.503
 2451SOL    HW1 8252   0.952   0.049   4.590
 2451SOL    HW2 8253   0.896   7.000   4.455
 2452SOL     OW 8254   2.335   1.761   3.839
 2452SOL    HW1 8255   2.344   1.817   3.756
 2452SOL    HW2 8256   2.320   1.820   3.918
 2453SOL     OW 8257   0.920   1.176   6.523
 2453SOL    HW1 8258   0.956   1.088   6.555
 2453SOL    HW2 8259   0.986   1.248   6.541
 2454SOL     OW 8260   3.291   5.884   1.274
 2454SOL    HW1 8261   3.336   5.862   1.361
 2454SOL    HW2 8262   3.204   5.929   1.292
 2455SOL     OW 8263   3.822   3.112   0.510
 2455SOL    HW1 8264   3.811   3.063   0.597
 2455SOL    HW2 8265   3.827   3.211   0.528
 2456SOL     OW 8266   1.023   4.395   6.263
 2456SOL    HW1 8267   1.015   4.313   6.205
 2456SOL    HW2 8268   0.974   4.471   6.220
 2457SOL     OW 8269   4.597   2.246   4.925
 2457SOL    HW1 8270   4.503   2.268   4.898
 2457SOL    HW2 8271   4.612   2.272   5.020
 2458SOL     OW 8272   1.180   0.734   1.832
 2458SOL    HW1 8273   1.199   0.642   1.865
 2458SOL    HW2 8274   1.221   0.801   1.895
 2459SOL     OW 8275   2.544   6.737   0.938
 2459SOL    HW1 8276   2.550   6.826   0.983
 2459SOL    HW2 8277   2.534   6.750   0.839
 2460SOL     OW 8278   1.499   0.905   4.983
 2460SOL    HW1 8279   1.413   0.946   4.951
 2460SOL    HW2 8280   1.540   0.965   5.052
 2461SOL     OW 8281   4.308   0.989   3.527
 2461SOL    HW1 8282   4.239   1.006   3.597
 2461SOL    HW2 8283   4.337   1.077   3.488
 2462SOL     OW 8284   0.271   3.773   0.953
 2462SOL    HW1 8285   0.286   3.868   0.926
 2462SOL    HW2 8286   0.188   3.766   1.008
 2463SOL     OW 8287   6.721   1.048   6.683
 2463SOL    HW1 8288   6.795   0.995   6.642
 2463SOL    HW2 8289   6.637   0.994   6.682
 2464SOL     OW 8290   0.567   2.490   3.153
 2464SOL    HW1 8291   0.591   2.555   3.225
 2464SOL    HW2 8292   0.524   2.409   3.193
 2465SOL     OW 8293   0.561   5.271   5.600
 2465SOL    HW1 8294   0.568   5.370   5.610
 2465SOL    HW2 8295   0.563   5.247   5.503
 2466SOL     OW 8296   0.968   2.514   1.903
 2466SOL    HW1 8297   0.869   2.511   1.914
 2466SOL    HW2 8298   1.011   2.514   1.993
 2467SOL     OW 8299   5.796   2.186   5.325
 2467SOL    HW1 8300   5.835   2.099   5.294
 2467SOL    HW2 8301   5.720   2.211   5.265
 2468SOL     OW 8302   3.202   6.913   5.545
 2468SOL    HW1 8303   3.282   6.905   5.486
 2468SOL    HW2 8304   3.203   6.839   5.612
 2469SOL     OW 8305   3.506   2.490   5.803
 2469SOL    HW1 8306   3.483   2.587   5.790
 2469SOL    HW2 8307   3.447   2.434   5.745
 2470SOL     OW 8308   2.901   4.868   6.104
 2470SOL    HW1 8309   2.803   4.883   6.099
 2470SOL    HW2 8310   2.921   4.802   6.176
 2471SOL     OW 8311   3.790   5.665   1.914
 2471SOL    HW1 8312   3.775   5.625   1.823
 2471SOL    HW2 8313   3.866   5.730   1.910
 2472SOL     OW 8314   4.690   1.917   4.494
 2472SOL    HW1 8315   4.709   1.867   4.578
 2472SOL    HW2 8316   4.771   1.914   4.434
 2473SOL     OW 8317   0.545   4.390   5.238
 2473SOL    HW1 8318   0.614   4.450   5.197
 2473SOL    HW2 8319   0.582   4.349   5.321
 2474SOL     OW 8320   1.591   5.542   1.545
 2474SOL    HW1 8321   1.491   5.537   1.555
 2474SOL    HW2 8322   1.630   5.585   1.627
 2475SOL     OW 8323   5.045   0.516   0.831
 2475SOL    HW1 8324   5.089   0.489   0.746
 2475SOL    HW2 8325   4.979   0.589   0.812
 2476SOL     OW 8326   5.689   0.610   6.821
 2476SOL    HW1 8327   5.659   0.610   6.917
 2476SOL    HW2 8328   5.630   0.549   6.768
 2477SOL     OW 8329   3.584   0.035   3.279
 2477SOL    HW1 8330   3.508   0.027   3.215
 2477SOL    HW2 8331   3.555   0.087   3.359
 2478SOL     OW 8332   4.426   0.773   3.388
 2478SOL    HW1 8333   4.380   0.848   3.435
 2478SOL    HW2 8334   4.498   0.736   3.446
 2479SOL     OW 8335   0.395   3.879   0.396
 2479SOL    HW1 8336   0.412   3.805   0.461
 2479SOL    HW2 8337   0.325   3.851   0.331
 2480SOL     OW 8338   3.458   2.766   1.477
 2480SOL    HW1 8339   3.556   2.748   1.480
 2480SOL    HW2 8340   3.409   2.703   1.537
 2481SOL     OW 8341   3.222   0.251   1.074
 2481SOL    HW1 8342   3.232   0.339   1.027
 2481SOL    HW2 8343   3.136   0.251   1.125
 2482SOL     OW 8344   5.332   3.373   0.109
 2482SOL    HW1 8345   5.403   3.378   0.179
 2482SOL    HW2 8346   5.373   3.381   0.018
 2483SOL     OW 8347   0.644   1.906   1.025
 2483SOL    HW1 8348   0.729   1.924   0.977
 2483SOL    HW2 8349   0.578   1.979   1.005
 2484SOL     OW 8350   5.380   1.303   1.544
 2484SOL    HW1 8351   5.342   1.389   1.576
 2484SOL    HW2 8352   5.428   1.317   1.457
 2485SOL     OW 8353   5.334   2.729   6.346
 2485SOL    HW1 8354   5.287   2.790   6.410
 2485SOL    HW2 8355   5.426   2.711   6.379
 2486SOL     OW 8356   0.760   4.023   5.222
 2486SOL    HW1 8357   0.670   3.981   5.224
 2486SOL    HW2 8358   0.830   3.953   5.212
 2487SOL     OW 8359   4.522   6.010   0.396
 2487SOL    HW1 8360   4.453   6.080   0.378
 2487SOL    HW2 8361   4.483   5.939   0.455
 2488SOL     OW 8362   6.750   3.981   1.587
 2488SOL    HW1 8363   6.819   3.931   1.640
 2488SOL    HW2 8364   6.744   4.075   1.619
 2489SOL     OW 8365   0.832   6.051   4.326
 2489SOL    HW1 8366   0.739   6.088   4.317
 2489SOL    HW2 8367   0.859   6.009   4.239
 2490SOL     OW 8368   3.294   5.999   1.893
 2490SOL    HW1 8369   3.267   6.081   1.842
 2490SOL    HW2 8370   3.213   5.954   1.930
 2491SOL     OW 8371   4.204   4.569   1.626
 2491SOL    HW1 8372   4.290   4.536   1.666
 2491SOL    HW2 8373   4.142   4.491   1.613
 2492SOL     OW 8374   6.228   4.036   1.094
 2492SOL    HW1 8375   6.229   4.026   1.194
 2492SOL    HW2 8376   6.314   4.001   1.056
 2493SOL     OW 8377   6.867   6.396   1.583
 2493SOL    HW1 8378   6.929   6.450   1.641
 2493SOL    HW2 8379   6.819   6.456   1.519
 2494SOL     OW 8380   5.936   2.875   1.686
 2494SOL    HW1 8381   5.883   2.914   1.761
 2494SOL    HW2 8382   5.980   2.949   1.634
 2495SOL     OW 8383   6.617   5.104   3.675
 2495SOL    HW1 8384   6.574   5.127   3.762
 2495SOL    HW2 8385   6.695   5.164   3.659
 2496SOL     OW 8386   6.628   5.016   6.416
 2496SOL    HW1 8387   6.703   5.065   6.459
 2496SOL    HW2 8388   6.618   4.926   6.458
 2497SOL     OW 8389   0.099   6.844   2.122
 2497SOL    HW1 8390   0.122   6.833   2.025
 2497SOL    HW2 8391   0.162   6.910   2.163
 2498SOL     OW 8392   2.233   2.674   5.773
 2498SOL    HW1 8393   2.323   2.716   5.763
 2498SOL    HW2 8394   2.163   2.745   5.770
 2499SOL     OW 8395   6.510   3.562   1.176
 2499SOL    HW1 8396   6.420   3.535   1.210
 2499SOL    HW2 8397   6.525   3.659   1.193
 2500SOL     OW 8398   2.953   4.030   6.738
 2500SOL    HW1 8399   2.927   4.062   6.829
 2500SOL    HW2 8400   2.969   4.108   6.678
 2501SOL     OW 8401   6.020   5.312   0.347
 2501SOL    HW1 8402   6.118   5.295   0.334
 2501SOL    HW2 8403   6.007   5.387   0.411
 2502SOL     OW 8404   3.109   5.716   4.121
 2502SOL    HW1 8405   3.111   5.762   4.032
 2502SOL    HW2 8406   3.144   5.623   4.111
 2503SOL     OW 8407   2.783   0.047   5.112
 2503SOL    HW1 8408   2.803   6.978   5.081
 2503SOL    HW2 8409   2.862   0.085   5.159
 2504SOL     OW 8410   2.976   5.585   2.345
 2504SOL    HW1 8411   3.052   5.644   2.318
 2504SOL    HW2 8412   2.986   5.559   2.441
 2505SOL     OW 8413   6.566   6.218   2.665
 2505SOL    HW1 8414   6.626   6.204   2.744
 2505SOL    HW2 8415   6.559   6.132   2.614
 2506SOL     OW 8416   5.790   4.902   5.613
 2506SOL    HW1 8417   5.848   4.963   5.558
 2506SOL    HW2 8418   5.847   4.849   5.676
 2507SOL     OW 8419   0.074   3.212   0.569
 2507SOL    HW1 8420   0.002   3.208   0.638
 2507SOL    HW2 8421   0.033   3.202   0.478
 2508SOL     OW 8422   3.658   1.589   4.509
 2508SOL    HW1 8423   3.647   1.518   4.578
 2508SOL    HW2 8424   3.687   1.547   4.423
 2509SOL     OW 8425   6.854   3.432   6.195
 2509SOL    HW1 8426   6.806   3.418   6.109
 2509SOL    HW2 8427   6.798   3.489   6.256
 2510SOL     OW 8428   3.184   4.109   1.868
 2510SOL    HW1 8429   3.257   4.092   1.801
 2510SOL    HW2 8430   3.217   4.086   1.959
 2511SOL     OW 8431   2.673   0.736   4.860
 2511SOL    HW1 8432   2.713   0.764   4.772
 2511SOL    HW2 8433   2.746   0.724   4.927
 2512SOL     OW 8434   3.708   4.951   5.051
 2512SOL    HW1 8435   3.758   5.035   5.031
 2512SOL    HW2 8436   3.635   4.939   4.984
 2513SOL     OW 8437   2.183   6.372   6.045
 2513SOL    HW1 8438   2.263   6.333   6.090
 2513SOL    HW2 8439   2.101   6.351   6.098
 2514SOL     OW 8440   1.014   2.906   3.317
 2514SOL    HW1 8441   1.024   2.890   3.416
 2514SOL    HW2 8442   0.989   2.820   3.272
 2515SOL     OW 8443   2.024   1.106   1.161
 2515SOL    HW1 8444   2.010   1.154   1.247
 2515SOL    HW2 8445   2.083   1.027   1.176
 2516SOL     OW 8446   5.693   1.704   3.081
 2516SOL    HW1 8447   5.662   1.789   3.123
 2516SOL    HW2 8448   5.758   1.724   3.008
 2517SOL     OW 8449   1.050   0.788   4.701
 2517SOL    HW1 8450   0.975   0.851   4.721
 2517SOL    HW2 8451   1.041   0.755   4.607
 2518SOL     OW 8452   2.634   4.910   1.143
 2518SOL    HW1 8453   2.687   4.826   1.132
 2518SOL    HW2 8454   2.544   4.888   1.179
 2519SOL     OW 8455   2.368   1.355   1.244
 2519SOL    HW1 8456   2.310   1.277   1.269
 2519SOL    HW2 8457   2.348   1.431   1.306
 2520SOL     OW 8458   3.223   2.474   1.108
 2520SOL    HW1 8459   3.240   2.460   1.011
 2520SOL    HW2 8460   3.271   2.556   1.139
 2521SOL     OW 8461   4.096   1.631   5.289
 2521SOL    HW1 8462   4.071   1.728   5.292
 2521SOL    HW2 8463   4.182   1.620   5.238
 2522SOL     OW 8464   0.860   1.472   5.686
 2522SOL    HW1 8465   0.902   1.405   5.748
 2522SOL    HW2 8466   0.761   1.458   5.686
 2523SOL     OW 8467   1.735   4.535   0.159
 2523SOL    HW1 8468   1.674   4.467   0.118
 2523SOL    HW2 8469   1.830   4.510   0.140
 2524SOL     OW 8470   1.615   6.645   4.506
 2524SOL    HW1 8471   1.700   6.641   4.453
 2524SOL    HW2 8472   1.632   6.687   4.595
 2525SOL     OW 8473   0.854   2.559   4.306
 2525SOL    HW1 8474   0.888   2.466   4.289
 2525SOL    HW2 8475   0.895   2.594   4.390
 2526SOL     OW 8476   1.194   5.359   6.707
 2526SOL    HW1 8477   1.151   5.419   6.774
 2526SOL    HW2 8478   1.278   5.401   6.673
 2527SOL     OW 8479   5.141   5.593   6.004
 2527SOL    HW1 8480   5.072   5.622   6.070
 2527SOL    HW2 8481   5.200   5.524   6.046
 2528SOL     OW 8482   5.212   5.183   5.811
 2528SOL    HW1 8483   5.187   5.249   5.741
 2528SOL    HW2 8484   5.232   5.230   5.897
 2529SOL     OW 8485   0.534   6.934   5.981
 2529SOL    HW1 8486   0.519   6.946   5.883
 2529SOL    HW2 8487   0.507   6.841   6.008
 2530SOL     OW 8488   2.827   5.473   5.393
 2530SOL    HW1 8489   2.923   5.446   5.399
 2530SOL    HW2 8490   2.770   5.404   5.439
 2531SOL     OW 8491   6.433   5.337   5.563
 2531SOL    HW1 8492   6.532   5.342   5.578
 2531SOL    HW2 8493   6.408   5.394   5.485
 2532SOL     OW 8494   0.969   6.245   0.948
 2532SOL    HW1 8495   0.944   6.163   1.000
 2532SOL    HW2 8496   1.064   6.269   0.966
 2533SOL     OW 8497   5.374   0.780   3.325
 2533SOL    HW1 8498   5.350   0.722   3.247
 2533SOL    HW2 8499   5.325   0.750   3.406
 2534SOL     OW 8500   4.549   1.769   1.854
 2534SOL    HW1 8501   4.524   1.737   1.945
 2534SOL    HW2 8502   4.489   1.845   1.828
 2535SOL     OW 8503   3.344   2.760   6.382
 2535SOL    HW1 8504   3.380   2.831   6.442
 2535SOL    HW2 8505   3.418   2.725   6.325
 2536SOL     OW 8506   1.829   0.328   6.685
 2536SOL    HW1 8507   1.825   0.355   6.589
 2536SOL    HW2 8508   1.774   0.245   6.698
 2537SOL     OW 8509   4.107   0.856   0.093
 2537SOL    HW1 8510   4.029   0.862   0.156
 2537SOL    HW2 8511   4.173   0.927   0.115
 2538SOL     OW 8512   0.099   3.563   3.729
 2538SOL    HW1 8513   0.114   3.661   3.741
 2538SOL    HW2 8514   0.103   3.540   3.631
 2539SOL     OW 8515   5.943   1.093   4.070
 2539SOL    HW1 8516   5.919   0.996   4.075
 2539SOL    HW2 8517   6.029   1.109   4.119
 2540SOL     OW 8518   3.680   1.729   3.040
 2540SOL    HW1 8519   3.779   1.720   3.049
 2540SOL    HW2 8520   3.636   1.685   3.119
 2541SOL     OW 8521   3.066   0.296   5.039
 2541SOL    HW1 8522   3.151   0.336   5.072
 2541SOL    HW2 8523   3.038   0.223   5.101
 2542SOL     OW 8524   1.721   4.216   6.577
 2542SOL    HW1 8525   1.660   4.206   6.655
 2542SOL    HW2 8526   1.677   4.272   6.506
 2543SOL     OW 8527   0.946   2.327   4.293
 2543SOL    HW1 8528   1.021   2.318   4.358
 2543SOL    HW2 8529   0.893   2.242   4.291
 2544SOL     OW 8530   1.160   5.063   0.767
 2544SOL    HW1 8531   1.173   5.084   0.670
 2544SOL    HW2 8532   1.176   4.966   0.783
 2545SOL     OW 8533   1.515   6.780   2.735
 2545SOL    HW1 8534   1.521   6.684   2.709
 2545SOL    HW2 8535   1.582   6.799   2.807
 2546SOL     OW 8536   5.866   1.128   0.548
 2546SOL    HW1 8537   5.908   1.205   0.500
 2546SOL    HW2 8538   5.780   1.157   0.589
 2547SOL     OW 8539   0.007   3.611   5.823
 2547SOL    HW1 8540   0.074   3.565   5.882
 2547SOL    HW2 8541   0.035   3.601   5.728
 2548SOL     OW 8542   1.066   6.183   4.393
 2548SOL    HW1 8543   0.989   6.126   4.363
 2548SOL    HW2 8544   1.093   6.243   4.318
 2549SOL     OW 8545   0.435   0.173   1.639
 2549SOL    HW1 8546   0.449   0.270   1.659
 2549SOL    HW2 8547   0.432   0.160   1.539
 2550SOL     OW 8548   5.674   6.472   0.606
 2550SOL    HW1 8549   5.660   6.393   0.547
 2550SOL    HW2 8550   5.719   6.545   0.553
 2551SOL     OW 8551   2.223   4.244   6.632
 2551SOL    HW1 8552   2.297   4.226   6.568
 2551SOL    HW2 8553   2.237   4.333   6.675
 2552SOL     OW 8554   3.027   5.017   3.867
 2552SOL    HW1 8555   2.960   4.952   3.832
 2552SOL    HW2 8556   3.110   4.968   3.894
 2553SOL     OW 8557   4.002   3.823   6.229
 2553SOL    HW1 8558   4.070   3.888   6.194
 2553SOL    HW2 8559   4.007   3.738   6.176
 2554SOL     OW 8560   1.558   1.660   0.932
 2554SOL    HW1 8561   1.498   1.732   0.967
 2554SOL    HW2 8562   1.581   1.680   0.837
 2555SOL     OW 8563   5.131   3.029   4.955
 2555SOL    HW1 8564   5.215   2.989   4.918
 2555SOL    HW2 8565   5.151   3.075   5.042
 2556SOL     OW 8566   3.989   6.066   0.723
 2556SOL    HW1 8567   3.920   6.109   0.664
 2556SOL    HW2 8568   3.943   6.008   0.790
 2557SOL     OW 8569   1.681   3.927   6.712
 2557SOL    HW1 8570   1.753   3.896   6.774
 2557SOL    HW2 8571   1.671   4.026   6.719
 2558SOL     OW 8572   5.163   1.366   5.919
 2558SOL    HW1 8573   5.189   1.455   5.958
 2558SOL    HW2 8574   5.219   1.294   5.961
 2559SOL     OW 8575   0.418   4.725   5.962
 2559SOL    HW1 8576   0.410   4.793   6.035
 2559SOL    HW2 8577   0.362   4.753   5.884
 2560SOL     OW 8578   5.778   2.219   5.959
 2560SOL    HW1 8579   5.708   2.279   5.998
 2560SOL    HW2 8580   5.820   2.165   6.032
 2561SOL     OW 8581   3.292   5.191   4.797
 2561SOL    HW1 8582   3.279   5.265   4.731
 2561SOL    HW2 8583   3.383   5.198   4.838
 2562SOL     OW 8584   2.175   3.962   0.440
 2562SOL    HW1 8585   2.083   3.940   0.407
 2562SOL    HW2 8586   2.229   4.001   0.366
 2563SOL     OW 8587   2.877   0.860   0.156
 2563SOL    HW1 8588   2.883   0.959   0.169
 2563SOL    HW2 8589   2.834   0.840   0.067
 2564SOL     OW 8590   2.256   5.279   0.838
 2564SOL    HW1 8591   2.186   5.235   0.783
 2564SOL    HW2 8592   2.312   5.339   0.780
 2565SOL     OW 8593   1.262   0.925   1.152
 2565SOL    HW1 8594   1.334   0.870   1.109
 2565SOL    HW2 8595   1.260   1.015   1.109
 2566SOL     OW 8596   2.358   6.603   0.133
 2566SOL    HW1 8597   2.323   6.637   0.046
 2566SOL    HW2 8598   2.292   6.539   0.173
 2567SOL     OW 8599   1.924   0.052   0.474
 2567SOL    HW1 8600   1.949   0.040   0.570
 2567SOL    HW2 8601   1.922   6.985   0.429
 2568SOL     OW 8602   4.387   1.879   7.009
 2568SOL    HW1 8603   4.366   1.931   6.926
 2568SOL    HW2 8604   4.302   1.842   0.023
 2569SOL     OW 8605   3.749   0.544   3.847
 2569SOL    HW1 8606   3.735   0.445   3.844
 2569SOL    HW2 8607   3.768   0.572   3.941
 2570SOL     OW 8608   5.679   1.432   5.461
 2570SOL    HW1 8609   5.669   1.465   5.367
 2570SOL    HW2 8610   5.677   1.332   5.461
 2571SOL     OW 8611   1.265   4.901   3.791
 2571SOL    HW1 8612   1.280   4.931   3.696
 2571SOL    HW2 8613   1.196   4.828   3.792
 2572SOL     OW 8614   2.933   5.072   2.750
 2572SOL    HW1 8615   2.952   5.152   2.806
 2572SOL    HW2 8616   2.858   5.091   2.687
 2573SOL     OW 8617   0.043   1.151   1.449
 2573SOL    HW1 8618   0.131   1.129   1.406
 2573SOL    HW2 8619   0.050   1.135   1.548
 2574SOL     OW 8620   6.107   3.517   0.704
 2574SOL    HW1 8621   6.150   3.428   0.716
 2574SOL    HW2 8622   6.041   3.533   0.777
 2575SOL     OW 8623   6.590   5.881   6.979
 2575SOL    HW1 8624   6.569   5.975   6.954
 2575SOL    HW2 8625   6.611   5.876   0.053
 2576SOL     OW 8626   4.844   6.180   3.722
 2576SOL    HW1 8627   4.790   6.101   3.695
 2576SOL    HW2 8628   4.867   6.173   3.819
 2577SOL     OW 8629   2.916   4.736   2.417
 2577SOL    HW1 8630   2.937   4.725   2.320
 2577SOL    HW2 8631   2.979   4.803   2.457
 2578SOL     OW 8632   3.737   1.412   4.336
 2578SOL    HW1 8633   3.701   1.324   4.368
 2578SOL    HW2 8634   3.834   1.402   4.315
 2579SOL     OW 8635   0.744   7.004   3.735
 2579SOL    HW1 8636   0.672   7.008   3.803
 2579SOL    HW2 8637   0.730   6.925   3.675
 2580SOL     OW 8638   2.829   3.515   0.430
 2580SOL    HW1 8639   2.824   3.415   0.436
 2580SOL    HW2 8640   2.765   3.548   0.361
 2581SOL     OW 8641   2.986   6.969   5.814
 2581SOL    HW1 8642   2.904   0.002   5.801
 2581SOL    HW2 8643   2.968   6.900   5.884
 2582SOL     OW 8644   6.723   3.588   1.504
 2582SOL    HW1 8645   6.623   3.581   1.493
 2582SOL    HW2 8646   6.762   3.496   1.505
 2583SOL     OW 8647   6.044   6.571   0.730
 2583SOL    HW1 8648   6.127   6.535   0.772
 2583SOL    HW2 8649   5.964   6.532   0.776
 2584SOL     OW 8650   4.591   5.030   5.691
 2584SOL    HW1 8651   4.541   5.040   5.777
 2584SOL    HW2 8652   4.613   4.934   5.676
 2585SOL     OW 8653   3.306   5.480   6.617
 2585SOL    HW1 8654   3.282   5.538   6.539
 2585SOL    HW2 8655   3.371   5.528   6.675
 2586SOL     OW 8656   1.953   0.414   5.241
 2586SOL    HW1 8657   1.913   0.474   5.310
 2586SOL    HW2 8658   1.881   0.367   5.191
 2587SOL     OW 8659   0.268   1.670   2.794
 2587SOL    HW1 8660   0.170   1.652   2.796
 2587SOL    HW2 8661   0.287   1.744   2.729
 2588SOL     OW 8662   4.119   1.918   5.006
 2588SOL    HW1 8663   4.076   2.001   4.972
 2588SOL    HW2 8664   4.087   1.840   4.951
 2589SOL     OW 8665   1.273   6.330   6.938
 2589SOL    HW1 8666   1.371   6.328   6.961
 2589SOL    HW2 8667   1.234   6.239   6.953
 2590SOL     OW 8668   2.640   4.835   7.014
 2590SOL    HW1 8669   2.554   4.788   0.012
 2590SOL    HW2 8670   2.701   4.773   6.965
 2591SOL     OW 8671   6.324   5.728   4.153
 2591SOL    HW1 8672   6.365   5.641   4.180
 2591SOL    HW2 8673   6.342   5.796   4.224
 2592SOL     OW 8674   2.726   4.605   6.465
 2592SOL    HW1 8675   2.635   4.641   6.443
 2592SOL    HW2 8676   2.794   4.650   6.408
 2593SOL     OW 8677   2.727   5.330   0.379
 2593SOL    HW1 8678   2.813   5.307   0.425
 2593SOL    HW2 8679   2.683   5.406   0.426
 2594SOL     OW 8680   1.529   4.644   4.523
 2594SOL    HW1 8681   1.459   4.582   4.489
 2594SOL    HW2 8682   1.618   4.616   4.486
 2595SOL     OW 8683   1.895   0.745   4.185
 2595SOL    HW1 8684   1.883   0.840   4.214
 2595SOL    HW2 8685   1.888   0.739   4.085
 2596SOL     OW 8686   1.308   2.234   0.580
 2596SOL    HW1 8687   1.335   2.324   0.547
 2596SOL    HW2 8688   1.256   2.244   0.665
 2597SOL     OW 8689   0.620   6.290   6.406
 2597SOL    HW1 8690   0.625   6.213   6.470
 2597SOL    HW2 8691   0.582   6.258   6.318
 2598SOL     OW 8692   5.289   2.345   1.967
 2598SOL    HW1 8693   5.364   2.279   1.961
 2598SOL    HW2 8694   5.231   2.324   2.046
 2599SOL     OW 8695   3.073   6.953   2.495
 2599SOL    HW1 8696   3.014   6.880   2.529
 2599SOL    HW2 8697   3.018   0.011   2.479
 2600SOL     OW 8698   6.481   4.481   4.424
 2600SOL    HW1 8699   6.385   4.454   4.424
 2600SOL    HW2 8700   6.536   4.408   4.465
 2601SOL     OW 8701   1.318   1.923   2.690
 2601SOL    HW1 8702   1.387   1.851   2.683
 2601SOL    HW2 8703   1.325   1.967   2.779
 2602SOL     OW 8704   1.765   5.033   4.063
 2602SOL    HW1 8705   1.799   5.039   3.970
 2602SOL    HW2 8706   1.824   5.087   4.124
 2603SOL     OW 8707   2.999   0.960   2.800
 2603SOL    HW1 8708   2.921   0.943   2.740
 2603SOL    HW2 8709   3.033   1.053   2.785
 2604SOL     OW 8710   5.920   2.022   2.668
 2604SOL    HW1 8711   5.843   2.085   2.661
 2604SOL    HW2 8712   6.002   2.072   2.693
 2605SOL     OW 8713   1.301   3.609   1.710
 2605SOL    HW1 8714   1.355   3.665   1.773
 2605SOL    HW2 8715   1.254   3.669   1.644
 2606SOL     OW 8716   4.223   4.098   0.737
 2606SOL    HW1 8717   4.187   4.192   0.733
 2606SOL    HW2 8718   4.147   4.034   0.740
 2607SOL     OW 8719   2.425   1.949   0.749
 2607SOL    HW1 8720   2.361   1.875   0.765
 2607SOL    HW2 8721   2.375   2.035   0.738
 2608SOL     OW 8722   3.175   5.676   6.464
 2608SOL    HW1 8723   3.104   5.631   6.410
 2608SOL    HW2 8724   3.141   5.695   6.556
 2609SOL     OW 8725   0.541   6.793   1.177
 2609SOL    HW1 8726   0.565   6.850   1.098
 2609SOL    HW2 8727   0.590   6.826   1.258
 2610SOL     OW 8728   1.352   4.899   4.322
 2610SOL    HW1 8729   1.401   4.872   4.240
 2610SOL    HW2 8730   1.417   4.915   4.396
 2611SOL     OW 8731   5.315   6.489   6.717
 2611SOL    HW1 8732   5.345   6.540   6.637
 2611SOL    HW2 8733   5.229   6.442   6.697
 2612SOL     OW 8734   5.790   0.471   5.294
 2612SOL    HW1 8735   5.837   0.531   5.358
 2612SOL    HW2 8736   5.712   0.428   5.340
 2613SOL     OW 8737   0.536   5.949   6.870
 2613SOL    HW1 8738   0.465   6.004   6.826
 2613SOL    HW2 8739   0.579   5.890   6.802
 2614SOL     OW 8740   6.654   0.974   6.217
 2614SOL    HW1 8741   6.742   1.022   6.223
 2614SOL    HW2 8742   6.580   1.040   6.230
 2615SOL     OW 8743   1.140   2.982   0.465
 2615SOL    HW1 8744   1.115   2.968   0.369
 2615SOL    HW2 8745   1.098   3.067   0.498
 2616SOL     OW 8746   1.838   0.057   5.812
 2616SOL    HW1 8747   1.760   0.002   5.785
 2616SOL    HW2 8748   1.869   0.112   5.734
 2617SOL     OW 8749   5.343   0.038   0.906
 2617SOL    HW1 8750   5.249   0.006   0.911
 2617SOL    HW2 8751   5.383   0.039   0.998
 2618SOL     OW 8752   1.983   6.376   6.259
 2618SOL    HW1 8753   2.080   6.361   6.278
 2618SOL    HW2 8754   1.939   6.417   6.339
 2619SOL     OW 8755   5.039   1.360   2.260
 2619SOL    HW1 8756   4.985   1.436   2.225
 2619SOL    HW2 8757   5.061   1.298   2.185
 2620SOL     OW 8758   6.978   6.728   1.505
 2620SOL    HW1 8759   0.047   6.756   1.479
 2620SOL    HW2 8760   6.949   6.652   1.448
 2621SOL     OW 8761   1.534   5.904   2.885
 2621SOL    HW1 8762   1.475   5.933   2.960
 2621SOL    HW2 8763   1.549   5.805   2.891
 2622SOL     OW 8764   3.550   3.572   6.092
 2622SOL    HW1 8765   3.464   3.522   6.074
 2622SOL    HW2 8766   3.552   3.602   6.187
 2623SOL     OW 8767   1.104   6.544   4.000
 2623SOL    HW1 8768   1.149   6.567   3.913
 2623SOL    HW2 8769   1.165   6.488   4.055
 2624SOL     OW 8770   0.290   2.754   4.188
 2624SOL    HW1 8771   0.333   2.807   4.115
 2624SOL    HW2 8772   0.317   2.792   4.277
 2625SOL     OW 8773   1.895   5.357   5.014
 2625SOL    HW1 8774   1.875   5.311   4.928
 2625SOL    HW2 8775   1.979   5.410   5.005
 2626SOL     OW 8776   6.990   5.115   6.227
 2626SOL    HW1 8777   7.003   5.154   6.318
 2626SOL    HW2 8778   6.911   5.159   6.183
 2627SOL     OW 8779   1.758   6.851   5.557
 2627SOL    HW1 8780   1.663   6.882   5.551
 2627SOL    HW2 8781   1.815   6.904   5.494
 2628SOL     OW 8782   1.732   4.271   1.997
 2628SOL    HW1 8783   1.708   4.241   2.089
 2628SOL    HW2 8784   1.653   4.314   1.954
 2629SOL     OW 8785   3.113   3.986   3.613
 2629SOL    HW1 8786   3.160   3.928   3.548
 2629SOL    HW2 8787   3.178   4.048   3.656
 2630SOL     OW 8788   4.163   0.480   4.195
 2630SOL    HW1 8789   4.064   0.471   4.207
 2630SOL    HW2 8790   4.207   0.482   4.285
 2631SOL     OW 8791   5.837   1.006   0.279
 2631SOL    HW1 8792   5.866   0.948   0.355
 2631SOL    HW2 8793   5.756   1.058   0.306
 2632SOL     OW 8794   5.678   4.795   2.137
 2632SOL    HW1 8795   5.728   4.754   2.213
 2632SOL    HW2 8796   5.628   4.875   2.169
 2633SOL     OW 8797   0.334   3.043   6.153
 2633SOL    HW1 8798   0.430   3.068   6.164
 2633SOL    HW2 8799   0.292   3.033   6.243
 2634SOL     OW 8800   6.341   0.333   5.630
 2634SOL    HW1 8801   6.242   0.332   5.614
 2634SOL    HW2 8802   6.389   0.339   5.542
 2635SOL     OW 8803   5.746   5.207   3.984
 2635SOL    HW1 8804   5.832   5.256   4.000
 2635SOL    HW2 8805   5.674   5.273   3.963
 2636SOL     OW 8806   4.599   6.991   5.827
 2636SOL    HW1 8807   4.644   6.994   5.916
 2636SOL    HW2 8808   4.650   0.024   5.762
 2637SOL     OW 8809   1.719   1.616   3.209
 2637SOL    HW1 8810   1.757   1.698   3.251
 2637SOL    HW2 8811   1.671   1.640   3.125
 2638SOL     OW 8812   1.513   6.334   4.432
 2638SOL    HW1 8813   1.513   6.411   4.496
 2638SOL    HW2 8814   1.475   6.363   4.344
 2639SOL     OW 8815   4.161   4.729   5.205
 2639SOL    HW1 8816   4.100   4.743   5.127
 2639SOL    HW2 8817   4.113   4.677   5.276
 2640SOL     OW 8818   1.562   6.221   4.774
 2640SOL    HW1 8819   1.491   6.287   4.747
 2640SOL    HW2 8820   1.573   6.153   4.702
 2641SOL     OW 8821   5.490   2.762   6.600
 2641SOL    HW1 8822   5.562   2.728   6.540
 2641SOL    HW2 8823   5.457   2.850   6.567
 2642SOL     OW 8824   6.958   1.707   3.720
 2642SOL    HW1 8825   6.946   1.702   3.819
 2642SOL    HW2 8826   6.901   1.780   3.682
 2643SOL     OW 8827   1.631   4.546   3.711
 2643SOL    HW1 8828   1.727   4.564   3.688
 2643SOL    HW2 8829   1.603   4.604   3.787
 2644SOL     OW 8830   5.362   4.919   4.465
 2644SOL    HW1 8831   5.436   4.875   4.515
 2644SOL    HW2 8832   5.295   4.850   4.437
 2645SOL     OW 8833   5.164   5.381   3.226
 2645SOL    HW1 8834   5.163   5.356   3.323
 2645SOL    HW2 8835   5.181   5.479   3.217
 2646SOL     OW 8836   0.305   3.147   5.897
 2646SOL    HW1 8837   0.335   3.096   5.978
 2646SOL    HW2 8838   0.368   3.222   5.880
 2647SOL     OW 8839   5.153   0.702   1.658
 2647SOL    HW1 8840   5.179   0.794   1.688
 2647SOL    HW2 8841   5.079   0.708   1.591
 2648SOL     OW 8842   0.967   6.863   6.105
 2648SOL    HW1 8843   0.956   6.922   6.026
 2648SOL    HW2 8844   0.880   6.850   6.151
 2649SOL     OW 8845   4.881   2.913   1.494
 2649SOL    HW1 8846   4.979   2.904   1.513
 2649SOL    HW2 8847   4.849   2.832   1.445
 2650SOL     OW 8848   3.492   6.672   4.486
 2650SOL    HW1 8849   3.464   6.767   4.470
 2650SOL    HW2 8850   3.419   6.624   4.533
 2651SOL     OW 8851   3.793   2.108   4.971
 2651SOL    HW1 8852   3.781   2.096   4.873
 2651SOL    HW2 8853   3.875   2.162   4.989
 2652SOL     OW 8854   5.420   5.014   5.874
 2652SOL    HW1 8855   5.465   5.003   5.785
 2652SOL    HW2 8856   5.335   5.064   5.862
 2653SOL     OW 8857   2.956   5.956   0.457
 2653SOL    HW1 8858   3.024   6.029   0.454
 2653SOL    HW2 8859   2.904   5.954   0.372
 2654SOL     OW 8860   6.155   0.516   0.872
 2654SOL    HW1 8861   6.125   0.428   0.908
 2654SOL    HW2 8862   6.130   0.588   0.936
 2655SOL     OW 8863   4.459   5.918   2.590
 2655SOL    HW1 8864   4.443   5.986   2.661
 2655SOL    HW2 8865   4.522   5.955   2.522
 2656SOL     OW 8866   3.696   6.002   3.395
 2656SOL    HW1 8867   3.660   5.991   3.302
 2656SOL    HW2 8868   3.784   6.051   3.391
 2657SOL     OW 8869   1.349   3.621   0.006
 2657SOL    HW1 8870   1.351   3.643   6.931
 2657SOL    HW2 8871   1.399   3.536   0.022
 2658SOL     OW 8872   4.280   5.400   6.691
 2658SOL    HW1 8873   4.343   5.471   6.660
 2658SOL    HW2 8874   4.300   5.314   6.646
 2659SOL     OW 8875   6.924   1.938   4.555
 2659SOL    HW1 8876   6.876   2.021   4.581
 2659SOL    HW2 8877   6.941   1.883   4.637
 2660SOL     OW 8878   1.105   1.571   2.166
 2660SOL    HW1 8879   1.122   1.628   2.246
 2660SOL    HW2 8880   1.154   1.485   2.175
 2661SOL     OW 8881   1.818   1.071   0.515
 2661SOL    HW1 8882   1.900   1.022   0.487
 2661SOL    HW2 8883   1.789   1.038   0.605
 2662SOL     OW 8884   2.929   0.910   2.165
 2662SOL    HW1 8885   2.907   0.828   2.111
 2662SOL    HW2 8886   3.028   0.912   2.183
 2663SOL     OW 8887   4.589   6.681   0.496
 2663SOL    HW1 8888   4.634   6.733   0.423
 2663SOL    HW2 8889   4.578   6.586   0.467
 2664SOL     OW 8890   4.439   3.317   5.898
 2664SOL    HW1 8891   4.503   3.264   5.841
 2664SOL    HW2 8892   4.375   3.255   5.942
 2665SOL     OW 8893   2.169   3.615   4.471
 2665SOL    HW1 8894   2.247   3.567   4.510
 2665SOL    HW2 8895   2.092   3.551   4.463
 2666SOL     OW 8896   1.975   3.791   1.987
 2666SOL    HW1 8897   2.037   3.755   2.056
 2666SOL    HW2 8898   2.013   3.775   1.896
 2667SOL     OW 8899   6.316   3.542   4.875
 2667SOL    HW1 8900   6.243   3.519   4.939
 2667SOL    HW2 8901   6.347   3.458   4.829
 2668SOL     OW 8902   6.570   1.214   4.210
 2668SOL    HW1 8903   6.481   1.171   4.200
 2668SOL    HW2 8904   6.572   1.299   4.158
 2669SOL     OW 8905   2.317   0.716   0.508
 2669SOL    HW1 8906   2.308   0.802   0.558
 2669SOL    HW2 8907   2.396   0.720   0.447
 2670SOL     OW 8908   0.275   6.967   6.677
 2670SOL    HW1 8909   0.280   6.875   6.718
 2670SOL    HW2 8910   0.208   6.966   6.602
 2671SOL     OW 8911   4.335   4.762   6.584
 2671SOL    HW1 8912   4.357   4.689   6.519
 2671SOL    HW2 8913   4.393   4.753   6.665
 2672SOL     OW 8914   3.572   0.961   1.768
 2672SOL    HW1 8915   3.664   0.962   1.806
 2672SOL    HW2 8916   3.505   0.970   1.842
 2673SOL     OW 8917   4.299   0.704   2.925
 2673SOL    HW1 8918   4.230   0.745   2.865
 2673SOL    HW2 8919   4.315   0.609   2.898
 2674SOL     OW 8920   0.281   4.951   2.140
 2674SOL    HW1 8921   0.251   4.870   2.190
 2674SOL    HW2 8922   0.379   4.943   2.119
 2675SOL     OW 8923   5.727   0.122   4.243
 2675SOL    HW1 8924   5.790   0.099   4.317
 2675SOL    HW2 8925   5.720   0.222   4.236
 2676SOL     OW 8926   3.936   3.921   2.732
 2676SOL    HW1 8927   3.974   3.932   2.640
 2676SOL    HW2 8928   3.972   3.837   2.773
 2677SOL     OW 8929   2.358   4.831   1.172
 2677SOL    HW1 8930   2.276   4.812   1.227
 2677SOL    HW2 8931   2.333   4.890   1.095
 2678SOL     OW 8932   5.306   2.418   2.723
 2678SOL    HW1 8933   5.361   2.368   2.656
 2678SOL    HW2 8934   5.330   2.515   2.721
 2679SOL     OW 8935   2.189   4.689   3.424
 2679SOL    HW1 8936   2.274   4.642   3.450
 2679SOL    HW2 8937   2.194   4.785   3.450
 2680SOL     OW 8938   6.555   1.339   0.118
 2680SOL    HW1 8939   6.559   1.406   0.192
 2680SOL    HW2 8940   6.491   1.266   0.143
 2681SOL     OW 8941   1.781   2.134   5.424
 2681SOL    HW1 8942   1.734   2.062   5.373
 2681SOL    HW2 8943   1.829   2.093   5.502
 2682SOL     OW 8944   3.729   3.934   1.681
 2682SOL    HW1 8945   3.688   3.941   1.772
 2682SOL    HW2 8946   3.709   4.017   1.629
 2683SOL     OW 8947   2.436   4.512   2.319
 2683SOL    HW1 8948   2.521   4.561   2.302
 2683SOL    HW2 8949   2.380   4.513   2.236
 2684SOL     OW 8950   6.108   0.024   3.208
 2684SOL    HW1 8951   6.106   0.000   3.306
 2684SOL    HW2 8952   6.103   6.963   3.154
 2685SOL     OW 8953   1.850   5.817   5.637
 2685SOL    HW1 8954   1.751   5.805   5.636
 2685SOL    HW2 8955   1.872   5.901   5.687
 2686SOL     OW 8956   1.075   1.514   4.787
 2686SOL    HW1 8957   1.084   1.610   4.812
 2686SOL    HW2 8958   0.988   1.499   4.741
 2687SOL     OW 8959   3.692   1.446   1.619
 2687SOL    HW1 8960   3.777   1.487   1.585
 2687SOL    HW2 8961   3.714   1.382   1.694
 2688SOL     OW 8962   3.390   3.187   6.221
 2688SOL    HW1 8963   3.482   3.170   6.259
 2688SOL    HW2 8964   3.347   3.100   6.198
 2689SOL     OW 8965   1.476   3.489   2.601
 2689SOL    HW1 8966   1.512   3.507   2.509
 2689SOL    HW2 8967   1.467   3.574   2.651
 2690SOL     OW 8968   4.007   1.654   5.558
 2690SOL    HW1 8969   3.909   1.635   5.560
 2690SOL    HW2 8970   4.045   1.622   5.471
 2691SOL     OW 8971   6.743   4.214   4.032
 2691SOL    HW1 8972   6.799   4.282   4.079
 2691SOL    HW2 8973   6.651   4.214   4.071
 2692SOL     OW 8974   2.781   5.561   2.683
 2692SOL    HW1 8975   2.738   5.503   2.615
 2692SOL    HW2 8976   2.881   5.552   2.676
 2693SOL     OW 8977   2.132   5.765   3.053
 2693SOL    HW1 8978   2.187   5.724   3.125
 2693SOL    HW2 8979   2.192   5.814   2.989
 2694SOL     OW 8980   3.112   6.889   3.944
 2694SOL    HW1 8981   3.153   6.857   3.859
 2694SOL    HW2 8982   3.078   6.811   3.996
 2695SOL     OW 8983   0.105   5.637   3.547
 2695SOL    HW1 8984   0.109   5.710   3.479
 2695SOL    HW2 8985   0.019   5.586   3.537
 2696SOL     OW 8986   5.214   4.325   6.598
 2696SOL    HW1 8987   5.293   4.383   6.576
 2696SOL    HW2 8988   5.139   4.347   6.536
 2697SOL     OW 8989   3.782   2.183   6.821
 2697SOL    HW1 8990   3.718   2.252   6.786
 2697SOL    HW2 8991   3.781   2.185   6.921
 2698SOL     OW 8992   1.744   4.461   6.104
 2698SOL    HW1 8993   1.808   4.387   6.080
 2698SOL    HW2 8994   1.671   4.465   6.036
 2699SOL     OW 8995   3.263   6.412   2.218
 2699SOL    HW1 8996   3.350   6.369   2.196
 2699SOL    HW2 8997   3.247   6.489   2.157
 2700SOL     OW 8998   3.924   1.913   1.767
 2700SOL    HW1 8999   3.974   1.854   1.704
 2700SOL    HW2 9000   3.874   1.858   1.833
 2701SOL     OW 9001   5.271   2.864   5.195
 2701SOL    HW1 9002   5.207   2.826   5.262
 2701SOL    HW2 9003   5.282   2.800   5.119
 2702SOL     OW 9004   2.554   1.422   4.986
 2702SOL    HW1 9005   2.574   1.361   5.062
 2702SOL    HW2 9006   2.548   1.370   4.901
 2703SOL     OW 9007   1.601   6.874   2.138
 2703SOL    HW1 9008   1.501   6.872   2.141
 2703SOL    HW2 9009   1.631   6.941   2.069
 2704SOL     OW 9010   4.961   0.059   4.309
 2704SOL    HW1 9011   5.001   0.019   4.226
 2704SOL    HW2 9012   4.939   0.155   4.291
 2705SOL     OW 9013   6.907   0.107   5.361
 2705SOL    HW1 9014   6.947   0.077   5.275
 2705SOL    HW2 9015   6.974   0.162   5.412
 2706SOL     OW 9016   6.943   3.738   3.258
 2706SOL    HW1 9017   6.901   3.794   3.329
 2706SOL    HW2 9018   0.001   3.783   3.223
 2707SOL     OW 9019   3.349   0.389   3.320
 2707SOL    HW1 9020   3.351   0.487   3.299
 2707SOL    HW2 9021   3.283   0.343   3.260
 2708SOL     OW 9022   6.122   3.269   6.897
 2708SOL    HW1 9023   6.159   3.320   6.819
 2708SOL    HW2 9024   6.096   3.333   6.969
 2709SOL     OW 9025   4.391   1.222   4.396
 2709SOL    HW1 9026   4.452   1.190   4.324
 2709SOL    HW2 9027   4.348   1.308   4.368
 2710SOL     OW 9028   1.167   3.017   3.822
 2710SOL    HW1 9029   1.247   2.958   3.828
 2710SOL    HW2 9030   1.097   2.986   3.887
 2711SOL     OW 9031   3.400   1.851   2.036
 2711SOL    HW1 9032   3.396   1.930   2.097
 2711SOL    HW2 9033   3.443   1.878   1.950
 2712SOL     OW 9034   3.988   5.847   1.928
 2712SOL    HW1 9035   4.017   5.820   2.019
 2712SOL    HW2 9036   4.065   5.888   1.879
 2713SOL     OW 9037   3.440   4.720   6.493
 2713SOL    HW1 9038   3.352   4.709   6.541
 2713SOL    HW2 9039   3.501   4.646   6.520
 2714SOL     OW 9040   2.532   4.789   6.680
 2714SOL    HW1 9041   2.497   4.766   6.590
 2714SOL    HW2 9042   2.613   4.848   6.670
 2715SOL     OW 9043   4.359   0.840   0.762
 2715SOL    HW1 9044   4.340   0.938   0.754
 2715SOL    HW2 9045   4.273   0.788   0.755
 2716SOL     OW 9046   3.983   1.809   3.084
 2716SOL    HW1 9047   4.014   1.799   2.989
 2716SOL    HW2 9048   3.962   1.719   3.121
 2717SOL     OW 9049   1.068   0.822   3.044
 2717SOL    HW1 9050   1.119   0.889   3.098
 2717SOL    HW2 9051   1.083   0.838   2.947
 2718SOL     OW 9052   0.414   0.709   6.102
 2718SOL    HW1 9053   0.393   0.794   6.055
 2718SOL    HW2 9054   0.364   0.633   6.060
 2719SOL     OW 9055   2.072   3.692   2.432
 2719SOL    HW1 9056   2.020   3.607   2.443
 2719SOL    HW2 9057   2.117   3.692   2.342
 2720SOL     OW 9058   2.309   6.618   5.994
 2720SOL    HW1 9059   2.395   6.610   5.944
 2720SOL    HW2 9060   2.265   6.528   6.000
 2721SOL     OW 9061   3.478   6.251   1.848
 2721SOL    HW1 9062   3.448   6.249   1.753
 2721SOL    HW2 9063   3.456   6.164   1.892
 2722SOL     OW 9064   4.598   6.257   0.133
 2722SOL    HW1 9065   4.667   6.222   0.196
 2722SOL    HW2 9066   4.620   6.228   0.040
 2723SOL     OW 9067   3.294   6.692   0.212
 2723SOL    HW1 9068   3.291   6.756   0.135
 2723SOL    HW2 9069   3.322   6.602   0.180
 2724SOL     OW 9070   0.880   6.155   0.665
 2724SOL    HW1 9071   0.925   6.200   0.742
 2724SOL    HW2 9072   0.783   6.180   0.664
 2725SOL     OW 9073   5.641   4.272   5.159
 2725SOL    HW1 9074   5.739   4.259   5.144
 2725SOL    HW2 9075   5.594   4.184   5.151
 2726SOL     OW 9076   6.543   1.545   1.810
 2726SOL    HW1 9077   6.574   1.632   1.771
 2726SOL    HW2 9078   6.488   1.563   1.891
 2727SOL     OW 9079   1.799   4.566   4.359
 2727SOL    HW1 9080   1.806   4.662   4.331
 2727SOL    HW2 9081   1.862   4.548   4.434
 2728SOL     OW 9082   5.216   6.087   5.867
 2728SOL    HW1 9083   5.273   6.168   5.884
 2728SOL    HW2 9084   5.153   6.074   5.944
 2729SOL     OW 9085   5.299   6.115   6.465
 2729SOL    HW1 9086   5.347   6.045   6.517
 2729SOL    HW2 9087   5.350   6.136   6.382
 2730SOL     OW 9088   0.799   5.933   2.244
 2730SOL    HW1 9089   0.776   6.031   2.247
 2730SOL    HW2 9090   0.776   5.896   2.154
 2731SOL     OW 9091   3.501   3.577   4.471
 2731SOL    HW1 9092   3.519   3.573   4.570
 2731SOL    HW2 9093   3.575   3.532   4.422
 2732SOL     OW 9094   5.497   1.233   1.859
 2732SOL    HW1 9095   5.480   1.175   1.779
 2732SOL    HW2 9096   5.449   1.197   1.938
 2733SOL     OW 9097   1.070   6.973   6.709
 2733SOL    HW1 9098   1.123   6.975   6.624
 2733SOL    HW2 9099   1.104   6.899   6.767
 2734SOL     OW 9100   3.388   6.464   1.343
 2734SOL    HW1 9101   3.403   6.365   1.344
 2734SOL    HW2 9102   3.397   6.500   1.436
 2735SOL     OW 9103   0.714   1.260   1.952
 2735SOL    HW1 9104   0.793   1.319   1.973
 2735SOL    HW2 9105   0.706   1.250   1.852
 2736SOL     OW 9106   5.490   4.682   2.912
 2736SOL    HW1 9107   5.390   4.679   2.922
 2736SOL    HW2 9108   5.526   4.758   2.967
 2737SOL     OW 9109   2.462   1.889   6.231
 2737SOL    HW1 9110   2.503   1.916   6.144
 2737SOL    HW2 9111   2.530   1.892   6.303
 2738SOL     OW 9112   5.828   6.576   1.704
 2738SOL    HW1 9113   5.868   6.667   1.705
 2738SOL    HW2 9114   5.900   6.507   1.708
 2739SOL     OW 9115   0.591   5.708   1.430
 2739SOL    HW1 9116   0.614   5.631   1.371
 2739SOL    HW2 9117   0.659   5.714   1.504
 2740SOL     OW 9118   6.688   5.553   3.365
 2740SOL    HW1 9119   6.672   5.651   3.349
 2740SOL    HW2 9120   6.702   5.507   3.278
 2741SOL     OW 9121   1.100   1.331   5.039
 2741SOL    HW1 9122   1.042   1.400   5.083
 2741SOL    HW2 9123   1.135   1.366   4.952
 2742SOL     OW 9124   3.128   5.413   1.755
 2742SOL    HW1 9125   3.146   5.440   1.661
 2742SOL    HW2 9126   3.029   5.410   1.771
 2743SOL     OW 9127   5.171   3.900   2.909
 2743SOL    HW1 9128   5.222   3.817   2.890
 2743SOL    HW2 9129   5.216   3.951   2.983
 2744SOL     OW 9130   3.233   3.846   3.412
 2744SOL    HW1 9131   3.315   3.902   3.401
 2744SOL    HW2 9132   3.175   3.856   3.331
 2745SOL     OW 9133   0.558   0.144   6.473
 2745SOL    HW1 9134   0.458   0.136   6.479
 2745SOL    HW2 9135   0.596   0.061   6.434
 2746SOL     OW 9136   2.126   0.900   3.657
 2746SOL    HW1 9137   2.064   0.834   3.700
 2746SOL    HW2 9138   2.132   0.881   3.559
 2747SOL     OW 9139   3.859   5.874   0.883
 2747SOL    HW1 9140   3.871   5.777   0.859
 2747SOL    HW2 9141   3.776   5.884   0.938
 2748SOL     OW 9142   4.508   6.726   2.070
 2748SOL    HW1 9143   4.508   6.725   1.970
 2748SOL    HW2 9144   4.461   6.645   2.104
 2749SOL     OW 9145   2.469   3.323   0.038
 2749SOL    HW1 9146   2.402   3.279   0.098
 2749SOL    HW2 9147   2.472   3.274   6.974
 2750SOL     OW 9148   2.030   5.809   1.971
 2750SOL    HW1 9149   2.012   5.714   1.995
 2750SOL    HW2 9150   1.947   5.863   1.983
 2751SOL     OW 9151   6.329   3.303   0.727
 2751SOL    HW1 9152   6.366   3.308   0.820
 2751SOL    HW2 9153   6.402   3.274   0.664
 2752SOL     OW 9154   3.697   4.746   6.822
 2752SOL    HW1 9155   3.788   4.713   6.798
 2752SOL    HW2 9156   3.628   4.688   6.779
 2753SOL     OW 9157   6.334   5.994   5.473
 2753SOL    HW1 9158   6.281   5.928   5.525
 2753SOL    HW2 9159   6.305   5.992   5.377
 2754SOL     OW 9160   1.254   6.890   6.476
 2754SOL    HW1 9161   1.312   6.971   6.462
 2754SOL    HW2 9162   1.296   6.811   6.432
 2755SOL     OW 9163   2.453   0.166   2.123
 2755SOL    HW1 9164   2.429   0.181   2.027
 2755SOL    HW2 9165   2.552   0.155   2.131
 2756SOL     OW 9166   4.978   6.592   0.493
 2756SOL    HW1 9167   4.927   6.617   0.575
 2756SOL    HW2 9168   4.925   6.525   0.440
 2757SOL     OW 9169   0.624   5.080   1.460
 2757SOL    HW1 9170   0.642   5.165   1.410
 2757SOL    HW2 9171   0.599   5.008   1.396
 2758SOL     OW 9172   5.347   0.547   5.243
 2758SOL    HW1 9173   5.298   0.623   5.200
 2758SOL    HW2 9174   5.445   0.562   5.236
 2759SOL     OW 9175   5.881   5.950   4.923
 2759SOL    HW1 9176   5.823   5.997   4.856
 2759SOL    HW2 9177   5.940   6.017   4.969
 2760SOL     OW 9178   2.708   5.179   2.598
 2760SOL    HW1 9179   2.700   5.098   2.542
 2760SOL    HW2 9180   2.669   5.258   2.550
 2761SOL     OW 9181   2.530   6.240   2.978
 2761SOL    HW1 9182   2.522   6.337   2.953
 2761SOL    HW2 9183   2.510   6.229   3.075
 2762SOL     OW 9184   0.759   6.856   5.171
 2762SOL    HW1 9185   0.729   6.904   5.088
 2762SOL    HW2 9186   0.689   6.791   5.199
 2763SOL     OW 9187   5.452   1.675   2.963
 2763SOL    HW1 9188   5.544   1.679   3.002
 2763SOL    HW2 9189   5.448   1.602   2.894
 2764SOL     OW 9190   6.186   1.018   2.091
 2764SOL    HW1 9191   6.164   1.039   1.996
 2764SOL    HW2 9192   6.110   0.969   2.133
 2765SOL     OW 9193   6.123   1.085   1.840
 2765SOL    HW1 9194   6.114   1.185   1.845
 2765SOL    HW2 9195   6.186   1.061   1.766
 2766SOL     OW 9196   5.970   0.882   2.214
 2766SOL    HW1 9197   5.885   0.933   2.202
 2766SOL    HW2 9198   5.988   0.871   2.312
 2767SOL     OW 9199   5.563   4.245   6.542
 2767SOL    HW1 9200   5.584   4.273   6.448
 2767SOL    HW2 9201   5.531   4.324   6.594
 2768SOL     OW 9202   5.423   1.375   0.020
 2768SOL    HW1 9203   5.399   1.466   0.053
 2768SOL    HW2 9204   5.357   1.347   6.974
 2769SOL     OW 9205   0.120   4.097   1.923
 2769SOL    HW1 9206   0.037   4.137   1.961
 2769SOL    HW2 9207   0.152   4.152   1.846
 2770SOL     OW 9208   0.653   5.502   1.766
 2770SOL    HW1 9209   0.678   5.416   1.809
 2770SOL    HW2 9210   0.611   5.563   1.834
 2771SOL     OW 9211   4.865   1.302   1.369
 2771SOL    HW1 9212   4.825   1.212   1.387
 2771SOL    HW2 9213   4.887   1.346   1.456
 2772SOL     OW 9214   2.989   2.840   6.832
 2772SOL    HW1 9215   2.993   2.803   6.740
 2772SOL    HW2 9216   3.078   2.828   6.877
 2773SOL     OW 9217   3.534   3.646   6.348
 2773SOL    HW1 9218   3.449   3.619   6.393
 2773SOL    HW2 9219   3.612   3.606   6.396
 2774SOL     OW 9220   5.973   3.423   1.724
 2774SOL    HW1 9221   5.922   3.504   1.752
 2774SOL    HW2 9222   5.979   3.359   1.801
 2775SOL     OW 9223   0.173   5.983   1.562
 2775SOL    HW1 9224   0.268   5.954   1.571
 2775SOL    HW2 9225   0.128   5.930   1.490
 2776SOL     OW 9226   3.066   6.065   6.497
 2776SOL    HW1 9227   3.025   6.155   6.491
 2776SOL    HW2 9228   3.124   6.059   6.579
 2777SOL     OW 9229   3.292   1.385   2.381
 2777SOL    HW1 9230   3.265   1.430   2.466
 2777SOL    HW2 9231   3.363   1.318   2.400
 2778SOL     OW 9232   2.349   2.465   5.917
 2778SOL    HW1 9233   2.351   2.493   6.013
 2778SOL    HW2 9234   2.295   2.531   5.865
 2779SOL     OW 9235   5.397   0.324   6.967
 2779SOL    HW1 9236   5.479   0.349   7.018
 2779SOL    HW2 9237   5.419   0.251   6.903
 2780SOL     OW 9238   5.054   5.452   6.621
 2780SOL    HW1 9239   4.971   5.397   6.629
 2780SOL    HW2 9240   5.134   5.395   6.643
 2781SOL     OW 9241   5.691   4.499   1.098
 2781SOL    HW1 9242   5.614   4.538   1.048
 2781SOL    HW2 9243   5.722   4.416   1.051
 2782SOL     OW 9244   2.835   2.849   6.425
 2782SOL    HW1 9245   2.801   2.940   6.448
 2782SOL    HW2 9246   2.774   2.807   6.358
 2783SOL     OW 9247   6.807   5.042   5.482
 2783SOL    HW1 9248   6.709   5.035   5.501
 2783SOL    HW2 9249   6.858   5.044   5.568
 2784SOL     OW 9250   2.635   2.006   1.447
 2784SOL    HW1 9251   2.556   2.067   1.439
 2784SOL    HW2 9252   2.719   2.060   1.437
 2785SOL     OW 9253   6.498   0.236   0.552
 2785SOL    HW1 9254   6.511   0.169   0.480
 2785SOL    HW2 9255   6.455   0.318   0.514
 2786SOL     OW 9256   4.073   6.682   1.342
 2786SOL    HW1 9257   4.018   6.698   1.260
 2786SOL    HW2 9258   4.087   6.769   1.391
 2787SOL     OW 9259   2.463   2.815   5.715
 2787SOL    HW1 9260   2.421   2.875   5.647
 2787SOL    HW2 9261   2.560   2.835   5.722
 2788SOL     OW 9262   1.680   4.020   0.782
 2788SOL    HW1 9263   1.756   4.080   0.807
 2788SOL    HW2 9264   1.596   4.051   0.826
 2789SOL     OW 9265   0.479   2.214   4.337
 2789SOL    HW1 9266   0.405   2.155   4.367
 2789SOL    HW2 9267   0.564   2.162   4.334
 2790SOL     OW 9268   3.952   5.518   2.774
 2790SOL    HW1 9269   4.001   5.605   2.769
 2790SOL    HW2 9270   3.971   5.475   2.863
 2791SOL     OW 9271   1.941   3.212   5.003
 2791SOL    HW1 9272   1.950   3.172   4.912
 2791SOL    HW2 9273   2.032   3.228   5.041
 2792SOL     OW 9274   0.497   2.063   5.084
 2792SOL    HW1 9275   0.578   2.085   5.138
 2792SOL    HW2 9276   0.459   1.976   5.115
 2793SOL     OW 9277   4.292   1.491   3.021
 2793SOL    HW1 9278   4.293   1.542   3.107
 2793SOL    HW2 9279   4.386   1.479   2.988
 2794SOL     OW 9280   0.886   0.408   0.815
 2794SOL    HW1 9281   0.818   0.479   0.796
 2794SOL    HW2 9282   0.862   0.362   0.901
 2795SOL     OW 9283   2.804   3.873   1.330
 2795SOL    HW1 9284   2.718   3.833   1.297
 2795SOL    HW2 9285   2.828   3.952   1.274
 2796SOL     OW 9286   5.436   3.801   2.552
 2796SOL    HW1 9287   5.476   3.855   2.479
 2796SOL    HW2 9288   5.340   3.783   2.532
 2797SOL     OW 9289   5.141   4.912   4.948
 2797SOL    HW1 9290   5.041   4.907   4.946
 2797SOL    HW2 9291   5.179   4.874   4.864
 2798SOL     OW 9292   0.853   3.198   3.602
 2798SOL    HW1 9293   0.780   3.188   3.670
 2798SOL    HW2 9294   0.922   3.262   3.636
 2799SOL     OW 9295   6.255   4.901   5.932
 2799SOL    HW1 9296   6.234   4.819   5.985
 2799SOL    HW2 9297   6.296   4.875   5.845
 2800SOL     OW 9298   2.760   4.953   6.689
 2800SOL    HW1 9299   2.833   4.946   6.758
 2800SOL    HW2 9300   2.773   5.035   6.634
 2801SOL     OW 9301   5.699   5.686   1.799
 2801SOL    HW1 9302   5.735   5.662   1.709
 2801SOL    HW2 9303   5.601   5.665   1.801
 2802SOL     OW 9304   4.132   1.518   5.804
 2802SOL    HW1 9305   4.223   1.533   5.766
 2802SOL    HW2 9306   4.074   1.473   5.736
 2803SOL     OW 9307   2.869   0.166   6.670
 2803SOL    HW1 9308   2.853   0.184   6.767
 2803SOL    HW2 9309   2.848   0.071   6.649
 2804SOL     OW 9310   6.762   4.034   3.817
 2804SOL    HW1 9311   6.750   4.098   3.893
 2804SOL    HW2 9312   6.828   4.071   3.752
 2805SOL     OW 9313   4.937   3.210   0.835
 2805SOL    HW1 9314   4.952   3.298   0.789
 2805SOL    HW2 9315   4.856   3.166   0.796
 2806SOL     OW 9316   6.454   5.438   3.067
 2806SOL    HW1 9317   6.539   5.388   3.052
 2806SOL    HW2 9318   6.377   5.373   3.067
 2807SOL     OW 9319   4.558   4.757   3.357
 2807SOL    HW1 9320   4.530   4.832   3.417
 2807SOL    HW2 9321   4.478   4.705   3.329
 2808SOL     OW 9322   5.648   1.471   3.771
 2808SOL    HW1 9323   5.587   1.550   3.774
 2808SOL    HW2 9324   5.644   1.429   3.681
 2809SOL     OW 9325   4.872   2.346   0.596
 2809SOL    HW1 9326   4.856   2.443   0.578
 2809SOL    HW2 9327   4.968   2.333   0.621
 2810SOL     OW 9328   2.819   6.838   5.338
 2810SOL    HW1 9329   2.876   6.908   5.381
 2810SOL    HW2 9330   2.724   6.868   5.338
 2811SOL     OW 9331   0.327   1.754   3.418
 2811SOL    HW1 9332   0.316   1.738   3.320
 2811SOL    HW2 9333   0.253   1.707   3.468
 2812SOL     OW 9334   4.938   3.891   1.959
 2812SOL    HW1 9335   4.850   3.932   1.938
 2812SOL    HW2 9336   4.936   3.794   1.935
 2813SOL     OW 9337   6.070   0.705   6.402
 2813SOL    HW1 9338   5.980   0.673   6.369
 2813SOL    HW2 9339   6.107   0.639   6.467
 2814SOL     OW 9340   4.593   3.934   5.658
 2814SOL    HW1 9341   4.643   3.851   5.632
 2814SOL    HW2 9342   4.608   4.005   5.589
 2815SOL     OW 9343   0.629   1.000   4.644
 2815SOL    HW1 9344   0.564   1.047   4.704
 2815SOL    HW2 9345   0.581   0.932   4.589
 2816SOL     OW 9346   5.571   6.936   4.175
 2816SOL    HW1 9347   5.576   6.886   4.261
 2816SOL    HW2 9348   5.623   7.021   4.183
 2817SOL     OW 9349   1.425   1.372   1.638
 2817SOL    HW1 9350   1.404   1.454   1.585
 2817SOL    HW2 9351   1.427   1.394   1.736
 2818SOL     OW 9352   6.817   4.641   5.787
 2818SOL    HW1 9353   6.882   4.569   5.814
 2818SOL    HW2 9354   6.841   4.675   5.696
 2819SOL     OW 9355   0.215   2.799   0.777
 2819SOL    HW1 9356   0.245   2.891   0.752
 2819SOL    HW2 9357   0.248   2.733   0.710
 2820SOL     OW 9358   6.924   3.242   3.215
 2820SOL    HW1 9359   6.878   3.235   3.303
 2820SOL    HW2 9360   7.019   3.270   3.229
 2821SOL     OW 9361   1.179   4.435   5.162
 2821SOL    HW1 9362   1.234   4.351   5.165
 2821SOL    HW2 9363   1.194   4.482   5.076
 2822SOL     OW 9364   4.786   2.225   6.924
 2822SOL    HW1 9365   4.756   2.147   6.869
 2822SOL    HW2 9366   4.798   2.197   7.019
 2823SOL     OW 9367   1.925   6.696   2.533
 2823SOL    HW1 9368   1.986   6.775   2.532
 2823SOL    HW2 9369   1.958   6.627   2.468
 2824SOL     OW 9370   3.012   1.182   5.499
 2824SOL    HW1 9371   2.941   1.141   5.442
 2824SOL    HW2 9372   3.032   1.274   5.468
 2825SOL     OW 9373   6.474   6.232   1.079
 2825SOL    HW1 9374   6.457   6.134   1.075
 2825SOL    HW2 9375   6.547   6.256   1.015
 2826SOL     OW 9376   4.899   1.429   4.908
 2826SOL    HW1 9377   4.868   1.447   4.815
 2826SOL    HW2 9378   4.866   1.339   4.937
 2827SOL     OW 9379   6.052   1.358   5.366
 2827SOL    HW1 9380   6.013   1.287   5.307
 2827SOL    HW2 9381   6.056   1.323   5.460
 2828SOL     OW 9382   4.087   1.029   5.752
 2828SOL    HW1 9383   4.023   0.952   5.752
 2828SOL    HW2 9384   4.071   1.085   5.670
 2829SOL     OW 9385   3.446   6.646   5.746
 2829SOL    HW1 9386   3.348   6.661   5.759
 2829SOL    HW2 9387   3.485   6.611   5.832
 2830SOL     OW 9388   4.132   3.452   0.101
 2830SOL    HW1 9389   4.193   3.531   0.112
 2830SOL    HW2 9390   4.063   3.473   0.032
 2831SOL     OW 9391   5.582   6.023   4.233
 2831SOL    HW1 9392   5.600   6.073   4.148
 2831SOL    HW2 9393   5.568   5.926   4.213
 2832SOL     OW 9394   0.514   0.902   2.226
 2832SOL    HW1 9395   0.502   0.857   2.314
 2832SOL    HW2 9396   0.426   0.902   2.177
 2833SOL     OW 9397   5.786   2.862   2.105
 2833SOL    HW1 9398   5.776   2.846   2.007
 2833SOL    HW2 9399   5.701   2.839   2.152
 2834SOL     OW 9400   3.490   1.636   4.921
 2834SOL    HW1 9401   3.403   1.615   4.964
 2834SOL    HW2 9402   3.557   1.566   4.945
 2835SOL     OW 9403   0.567   6.945   2.479
 2835SOL    HW1 9404   0.647   6.939   2.539
 2835SOL    HW2 9405   0.505   7.015   2.514
 2836SOL     OW 9406   6.799   0.206   1.619
 2836SOL    HW1 9407   6.850   0.125   1.647
 2836SOL    HW2 9408   6.721   0.179   1.563
 2837SOL     OW 9409   5.609   4.057   3.853
 2837SOL    HW1 9410   5.610   4.148   3.811
 2837SOL    HW2 9411   5.517   4.019   3.846
 2838SOL     OW 9412   2.647   4.966   2.454
 2838SOL    HW1 9413   2.570   4.925   2.404
 2838SOL    HW2 9414   2.681   4.901   2.521
 2839SOL     OW 9415   5.132   1.769   1.484
 2839SOL    HW1 9416   5.213   1.752   1.428
 2839SOL    HW2 9417   5.085   1.850   1.449
 2840SOL     OW 9418   6.428   1.234   5.569
 2840SOL    HW1 9419   6.455   1.271   5.481
 2840SOL    HW2 9420   6.479   1.149   5.586
 2841SOL     OW 9421   0.761   5.746   0.863
 2841SOL    HW1 9422   0.744   5.768   0.767
 2841SOL    HW2 9423   0.850   5.782   0.891
 2842SOL     OW 9424   6.555   3.192   3.302
 2842SOL    HW1 9425   6.644   3.192   3.349
 2842SOL    HW2 9426   6.484   3.224   3.365
 2843SOL     OW 9427   3.739   0.772   4.448
 2843SOL    HW1 9428   3.724   0.802   4.542
 2843SOL    HW2 9429   3.722   0.847   4.385
 2844SOL     OW 9430   0.387   3.944   6.658
 2844SOL    HW1 9431   0.332   3.919   6.737
 2844SOL    HW2 9432   0.372   4.041   6.636
 2845SOL     OW 9433   0.116   4.404   6.343
 2845SOL    HW1 9434   0.079   4.463   6.272
 2845SOL    HW2 9435   0.207   4.372   6.315
 2846SOL     OW 9436   4.785   1.881   6.238
 2846SOL    HW1 9437   4.815   1.960   6.184
 2846SOL    HW2 9438   4.696   1.850   6.205
 2847SOL     OW 9439   6.238   4.335   4.406
 2847SOL    HW1 9440   6.298   4.258   4.386
 2847SOL    HW2 9441   6.167   4.307   4.470
 2848SOL     OW 9442   0.602   4.787   4.620
 2848SOL    HW1 9443   0.656   4.863   4.656
 2848SOL    HW2 9444   0.532   4.762   4.687
 2849SOL     OW 9445   2.760   1.972   1.133
 2849SOL    HW1 9446   2.772   1.936   1.041
 2849SOL    HW2 9447   2.748   2.071   1.129
 2850SOL     OW 9448   3.951   0.053   0.478
 2850SOL    HW1 9449   3.945   0.130   0.415
 2850SOL    HW2 9450   4.025   0.069   0.544
 2851SOL     OW 9451   1.271   4.601   5.621
 2851SOL    HW1 9452   1.207   4.631   5.691
 2851SOL    HW2 9453   1.331   4.530   5.660
 2852SOL     OW 9454   6.796   3.280   6.613
 2852SOL    HW1 9455   6.789   3.187   6.578
 2852SOL    HW2 9456   6.863   3.284   6.687
 2853SOL     OW 9457   3.417   3.339   1.066
 2853SOL    HW1 9458   3.491   3.315   1.003
 2853SOL    HW2 9459   3.406   3.265   1.133
 2854SOL     OW 9460   2.840   0.732   3.759
 2854SOL    HW1 9461   2.798   0.647   3.793
 2854SOL    HW2 9462   2.844   0.729   3.659
 2855SOL     OW 9463   2.024   0.909   5.162
 2855SOL    HW1 9464   1.964   0.989   5.162
 2855SOL    HW2 9465   2.100   0.925   5.098
 2856SOL     OW 9466   2.444   2.819   5.349
 2856SOL    HW1 9467   2.397   2.851   5.431
 2856SOL    HW2 9468   2.453   2.894   5.284
 2857SOL     OW 9469   3.004   2.408   1.487
 2857SOL    HW1 9470   3.011   2.504   1.461
 2857SOL    HW2 9471   3.074   2.354   1.440
 2858SOL     OW 9472   6.302   3.146   2.884
 2858SOL    HW1 9473   6.384   3.193   2.917
 2858SOL    HW2 9474   6.309   3.133   2.785
 2859SOL     OW 9475   5.365   0.669   0.738
 2859SOL    HW1 9476   5.295   0.740   0.740
 2859SOL    HW2 9477   5.435   0.688   0.807
 2860SOL     OW 9478   3.817   1.708   1.922
 2860SOL    HW1 9479   3.829   1.613   1.892
 2860SOL    HW2 9480   3.832   1.715   2.020
 2861SOL     OW 9481   3.570   5.762   5.428
 2861SOL    HW1 9482   3.548   5.780   5.524
 2861SOL    HW2 9483   3.640   5.691   5.423
 2862SOL     OW 9484   5.464   1.004   3.857
 2862SOL    HW1 9485   5.522   1.075   3.896
 2862SOL    HW2 9486   5.451   1.020   3.759
 2863SOL     OW 9487   6.497   1.838   7.004
 2863SOL    HW1 9488   6.488   1.781   6.923
 2863SOL    HW2 9489   6.496   1.935   6.978
 2864SOL     OW 9490   4.107   1.023   0.830
 2864SOL    HW1 9491   4.105   1.045   0.733
 2864SOL    HW2 9492   4.130   1.106   0.882
 2865SOL     OW 9493   4.696   4.715   5.317
 2865SOL    HW1 9494   4.698   4.760   5.406
 2865SOL    HW2 9495   4.767   4.755   5.258
 2866SOL     OW 9496   0.069   6.181   6.666
 2866SOL    HW1 9497   0.033   6.266   6.629
 2866SOL    HW2 9498   0.103   6.124   6.591
 2867SOL     OW 9499   6.038   4.715   3.343
 2867SOL    HW1 9500   6.044   4.635   3.403
 2867SOL    HW2 9501   6.098   4.702   3.264
 2868SOL     OW 9502   1.278   3.937   5.118
 2868SOL    HW1 9503   1.256   3.881   5.197
 2868SOL    HW2 9504   1.201   3.936   5.054
 2869SOL     OW 9505   5.685   0.588   2.238
 2869SOL    HW1 9506   5.751   0.517   2.263
 2869SOL    HW2 9507   5.613   0.547   2.181
 2870SOL     OW 9508   6.150   2.227   2.969
 2870SOL    HW1 9509   6.180   2.152   3.029
 2870SOL    HW2 9510   6.142   2.193   2.875
 2871SOL     OW 9511   1.785   2.126   6.088
 2871SOL    HW1 9512   1.859   2.194   6.086
 2871SOL    HW2 9513   1.698   2.172   6.103
 2872SOL     OW 9514   2.571   0.527   3.381
 2872SOL    HW1 9515   2.481   0.501   3.348
 2872SOL    HW2 9516   2.584   0.625   3.370
 2873SOL     OW 9517   0.635   5.366   2.268
 2873SOL    HW1 9518   0.540   5.343   2.249
 2873SOL    HW2 9519   0.695   5.295   2.230
 2874SOL     OW 9520   5.786   3.431   1.971
 2874SOL    HW1 9521   5.688   3.426   1.988
 2874SOL    HW2 9522   5.813   3.527   1.955
 2875SOL     OW 9523   3.851   6.095   6.176
 2875SOL    HW1 9524   3.872   6.128   6.268
 2875SOL    HW2 9525   3.879   6.000   6.168
 2876SOL     OW 9526   0.210   0.888   1.602
 2876SOL    HW1 9527   0.193   0.931   1.691
 2876SOL    HW2 9528   0.285   0.823   1.612
 2877SOL     OW 9529   2.916   2.802   5.367
 2877SOL    HW1 9530   2.841   2.740   5.348
 2877SOL    HW2 9531   2.997   2.772   5.317
 2878SOL     OW 9532   2.485   4.758   5.262
 2878SOL    HW1 9533   2.578   4.727   5.246
 2878SOL    HW2 9534   2.434   4.688   5.312
 2879SOL     OW 9535   5.437   4.873   0.613
 2879SOL    HW1 9536   5.446   4.938   0.689
 2879SOL    HW2 9537   5.356   4.895   0.559
 2880SOL     OW 9538   0.909   6.271   1.807
 2880SOL    HW1 9539   0.984   6.332   1.832
 2880SOL    HW2 9540   0.921   6.241   1.712
 2881SOL     OW 9541   6.849   6.115   0.584
 2881SOL    HW1 9542   6.918   6.116   0.512
 2881SOL    HW2 9543   6.785   6.191   0.571
 2882SOL     OW 9544   0.268   3.037   2.496
 2882SOL    HW1 9545   0.241   2.941   2.507
 2882SOL    HW2 9546   0.198   3.086   2.443
 2883SOL     OW 9547   3.866   6.979   2.513
 2883SOL    HW1 9548   3.921   7.008   2.591
 2883SOL    HW2 9549   3.874   0.023   2.439
 2884SOL     OW 9550   0.865   5.960   3.226
 2884SOL    HW1 9551   0.917   6.040   3.257
 2884SOL    HW2 9552   0.837   5.905   3.305
 2885SOL     OW 9553   0.982   2.194   2.694
 2885SOL    HW1 9554   0.908   2.194   2.626
 2885SOL    HW2 9555   0.964   2.124   2.763
 2886SOL     OW 9556   2.205   1.859   6.571
 2886SOL    HW1 9557   2.263   1.930   6.609
 2886SOL    HW2 9558   2.241   1.769   6.597
 2887SOL     OW 9559   1.091   0.084   5.020
 2887SOL    HW1 9560   1.137   0.128   5.097
 2887SOL    HW2 9561   1.139   7.022   4.996
 2888SOL     OW 9562   5.949   5.070   0.148
 2888SOL    HW1 9563   5.963   5.157   0.195
 2888SOL    HW2 9564   6.004   5.069   0.064
 2889SOL     OW 9565   0.365   0.291   1.276
 2889SOL    HW1 9566   0.413   0.229   1.213
 2889SOL    HW2 9567   0.266   0.277   1.267
 2890SOL     OW 9568   4.602   0.555   1.785
 2890SOL    HW1 9569   4.693   0.594   1.772
 2890SOL    HW2 9570   4.549   0.567   1.700
 2891SOL     OW 9571   2.609   4.581   4.033
 2891SOL    HW1 9572   2.593   4.522   4.111
 2891SOL    HW2 9573   2.683   4.644   4.054
 2892SOL     OW 9574   4.410   3.823   6.851
 2892SOL    HW1 9575   4.389   3.764   6.930
 2892SOL    HW2 9576   4.373   3.781   6.768
 2893SOL     OW 9577   2.369   0.094   5.150
 2893SOL    HW1 9578   2.329   0.011   5.113
 2893SOL    HW2 9579   2.298   0.163   5.163
 2894SOL     OW 9580   3.282   3.056   0.227
 2894SOL    HW1 9581   3.284   3.071   0.326
 2894SOL    HW2 9582   3.339   3.125   0.182
 2895SOL     OW 9583   3.855   3.113   6.519
 2895SOL    HW1 9584   3.932   3.110   6.456
 2895SOL    HW2 9585   3.887   3.146   6.608
 2896SOL     OW 9586   2.077   5.291   7.020
 2896SOL    HW1 9587   2.129   5.209   0.020
 2896SOL    HW2 9588   2.140   5.369   7.014
 2897SOL     OW 9589   2.632   5.981   3.591
 2897SOL    HW1 9590   2.621   5.931   3.677
 2897SOL    HW2 9591   2.577   6.064   3.593
 2898SOL     OW 9592   3.981   5.346   1.729
 2898SOL    HW1 9593   3.933   5.325   1.644
 2898SOL    HW2 9594   3.959   5.275   1.797
 2899SOL     OW 9595   6.996   6.970   6.766
 2899SOL    HW1 9596   6.948   6.887   6.793
 2899SOL    HW2 9597   0.010   7.015   6.848
 2900SOL     OW 9598   1.498   5.266   5.582
 2900SOL    HW1 9599   1.474   5.186   5.636
 2900SOL    HW2 9600   1.504   5.346   5.641
 2901SOL     OW 9601   2.970   0.447   2.172
 2901SOL    HW1 9602   3.045   0.474   2.112
 2901SOL    HW2 9603   2.885   0.442   2.119
 2902SOL     OW 9604   5.490   6.182   1.042
 2902SOL    HW1 9605   5.432   6.258   1.013
 2902SOL    HW2 9606   5.577   6.218   1.076
 2903SOL     OW 9607   2.489   1.363   1.992
 2903SOL    HW1 9608   2.501   1.365   1.893
 2903SOL    HW2 9609   2.393   1.378   2.015
 2904SOL     OW 9610   1.941   2.990   5.257
 2904SOL    HW1 9611   1.936   3.090   5.262
 2904SOL    HW2 9612   2.036   2.961   5.246
 2905SOL     OW 9613   1.581   2.278   1.942
 2905SOL    HW1 9614   1.575   2.246   2.036
 2905SOL    HW2 9615   1.595   2.200   1.881
 2906SOL     OW 9616   5.464   5.691   2.239
 2906SOL    HW1 9617   5.437   5.676   2.334
 2906SOL    HW2 9618   5.419   5.624   2.181
 2907SOL     OW 9619   0.115   1.346   4.675
 2907SOL    HW1 9620   0.164   1.310   4.597
 2907SOL    HW2 9621   0.178   1.397   4.733
 2908SOL     OW 9622   3.486   6.060   4.050
 2908SOL    HW1 9623   3.573   6.064   4.099
 2908SOL    HW2 9624   3.411   6.076   4.114
 2909SOL     OW 9625   1.556   5.397   4.597
 2909SOL    HW1 9626   1.620   5.469   4.622
 2909SOL    HW2 9627   1.586   5.353   4.512
 2910SOL     OW 9628   4.088   6.388   5.791
 2910SOL    HW1 9629   4.085   6.354   5.697
 2910SOL    HW2 9630   3.996   6.415   5.820
 2911SOL     OW 9631   2.022   4.597   3.247
 2911SOL    HW1 9632   1.936   4.628   3.289
 2911SOL    HW2 9633   2.099   4.625   3.305
 2912SOL     OW 9634   2.812   6.052   0.214
 2912SOL    HW1 9635   2.805   5.995   0.132
 2912SOL    HW2 9636   2.832   6.146   0.188
 2913SOL     OW 9637   1.869   3.590   2.669
 2913SOL    HW1 9638   1.796   3.657   2.651
 2913SOL    HW2 9639   1.886   3.536   2.587
 2914SOL     OW 9640   5.851   5.333   6.168
 2914SOL    HW1 9641   5.800   5.309   6.085
 2914SOL    HW2 9642   5.794   5.390   6.227
 2915SOL     OW 9643   4.447   1.684   4.072
 2915SOL    HW1 9644   4.455   1.700   4.170
 2915SOL    HW2 9645   4.513   1.614   4.044
 2916SOL     OW 9646   6.257   5.302   5.309
 2916SOL    HW1 9647   6.190   5.317   5.382
 2916SOL    HW2 9648   6.300   5.213   5.321
 2917SOL     OW 9649   4.873   0.644   1.752
 2917SOL    HW1 9650   4.849   0.714   1.819
 2917SOL    HW2 9651   4.973   0.643   1.739
 2918SOL     OW 9652   0.392   4.125   3.880
 2918SOL    HW1 9653   0.473   4.069   3.868
 2918SOL    HW2 9654   0.393   4.167   3.971
 2919SOL     OW 9655   5.956   6.219   0.481
 2919SOL    HW1 9656   5.964   6.207   0.382
 2919SOL    HW2 9657   5.860   6.218   0.507
 2920SOL     OW 9658   3.971   1.885   2.555
 2920SOL    HW1 9659   4.047   1.864   2.493
 2920SOL    HW2 9660   3.891   1.831   2.528
 2921SOL     OW 9661   0.528   1.088   2.745
 2921SOL    HW1 9662   0.479   1.118   2.663
 2921SOL    HW2 9663   0.474   1.111   2.826
 2922SOL     OW 9664   4.968   0.104   5.525
 2922SOL    HW1 9665   5.011   0.076   5.439
 2922SOL    HW2 9666   5.037   0.102   5.598
 2923SOL     OW 9667   6.477   5.039   2.464
 2923SOL    HW1 9668   6.550   5.104   2.485
 2923SOL    HW2 9669   6.404   5.048   2.532
 2924SOL     OW 9670   0.210   1.142   5.187
 2924SOL    HW1 9671   0.289   1.197   5.212
 2924SOL    HW2 9672   0.127   1.181   5.227
 2925SOL     OW 9673   5.786   3.120   1.552
 2925SOL    HW1 9674   5.845   3.165   1.485
 2925SOL    HW2 9675   5.691   3.129   1.524
 2926SOL     OW 9676   7.012   2.326   4.566
 2926SOL    HW1 9677   0.069   2.323   4.626
 2926SOL    HW2 9678   0.018   2.319   4.471
 2927SOL     OW 9679   1.452   2.758   2.162
 2927SOL    HW1 9680   1.437   2.700   2.082
 2927SOL    HW2 9681   1.364   2.792   2.195
 2928SOL     OW 9682   6.230   0.232   0.420
 2928SOL    HW1 9683   6.155   0.295   0.444
 2928SOL    HW2 9684   6.297   0.279   0.363
 2929SOL     OW 9685   0.344   0.047   6.159
 2929SOL    HW1 9686   0.421   0.034   6.096
 2929SOL    HW2 9687   0.333   0.145   6.179
 2930SOL     OW 9688   5.001   0.386   4.805
 2930SOL    HW1 9689   4.947   0.448   4.862
 2930SOL    HW2 9690   5.088   0.367   4.851
 2931SOL     OW 9691   4.795   6.666   6.845
 2931SOL    HW1 9692   4.769   6.682   6.940
 2931SOL    HW2 9693   4.712   6.669   6.788
 2932SOL     OW 9694   1.049   3.525   1.389
 2932SOL    HW1 9695   1.050   3.435   1.433
 2932SOL    HW2 9696   0.964   3.573   1.411
 2933SOL     OW 9697   5.369   2.457   3.966
 2933SOL    HW1 9698   5.392   2.363   3.990
 2933SOL    HW2 9699   5.303   2.492   4.033
 2934SOL     OW 9700   2.796   0.758   0.398
 2934SOL    HW1 9701   2.838   0.804   0.319
 2934SOL    HW2 9702   2.700   0.739   0.379
 2935SOL     OW 9703   5.878   2.609   0.722
 2935SOL    HW1 9704   5.863   2.663   0.805
 2935SOL    HW2 9705   5.791   2.591   0.677
 2936SOL     OW 9706   4.752   5.780   6.901
 2936SOL    HW1 9707   4.832   5.753   6.848
 2936SOL    HW2 9708   4.684   5.820   6.839
 2937SOL     OW 9709   3.591   5.785   0.350
 2937SOL    HW1 9710   3.688   5.788   0.328
 2937SOL    HW2 9711   3.540   5.838   0.283
 2938SOL     OW 9712   5.066   5.789   5.335
 2938SOL    HW1 9713   5.018   5.704   5.316
 2938SOL    HW2 9714   5.119   5.781   5.419
 2939SOL     OW 9715   6.763   6.204   5.422
 2939SOL    HW1 9716   6.800   6.135   5.483
 2939SOL    HW2 9717   6.727   6.281   5.476
 2940SOL     OW 9718   5.591   0.283   5.368
 2940SOL    HW1 9719   5.601   0.188   5.340
 2940SOL    HW2 9720   5.494   0.307   5.371
 2941SOL     OW 9721   0.740   2.108   5.513
 2941SOL    HW1 9722   0.752   2.178   5.442
 2941SOL    HW2 9723   0.726   2.153   5.602
 2942SOL     OW 9724   3.545   0.111   2.491
 2942SOL    HW1 9725   3.456   0.070   2.512
 2942SOL    HW2 9726   3.563   0.104   2.392
 2943SOL     OW 9727   6.121   3.503   3.454
 2943SOL    HW1 9728   6.118   3.556   3.370
 2943SOL    HW2 9729   6.214   3.467   3.467
 2944SOL     OW 9730   3.993   5.359   5.370
 2944SOL    HW1 9731   3.977   5.426   5.442
 2944SOL    HW2 9732   3.930   5.283   5.380
 2945SOL     OW 9733   3.057   3.294   3.546
 2945SOL    HW1 9734   2.968   3.335   3.526
 2945SOL    HW2 9735   3.130   3.361   3.531
 2946SOL     OW 9736   6.746   5.892   6.016
 2946SOL    HW1 9737   6.827   5.932   6.059
 2946SOL    HW2 9738   6.751   5.792   6.020
 2947SOL     OW 9739   6.523   4.247   0.300
 2947SOL    HW1 9740   6.556   4.172   0.243
 2947SOL    HW2 9741   6.437   4.282   0.262
 2948SOL     OW 9742   6.176   4.111   4.654
 2948SOL    HW1 9743   6.133   4.180   4.712
 2948SOL    HW2 9744   6.117   4.093   4.575
 2949SOL     OW 9745   1.329   6.616   0.426
 2949SOL    HW1 9746   1.310   6.701   0.377
 2949SOL    HW2 9747   1.427   6.594   0.417
 2950SOL     OW 9748   5.558   3.283   4.364
 2950SOL    HW1 9749   5.556   3.314   4.459
 2950SOL    HW2 9750   5.651   3.288   4.329
 2951SOL     OW 9751   0.513   1.421   1.006
 2951SOL    HW1 9752   0.456   1.494   1.045
 2951SOL    HW2 9753   0.584   1.461   0.948
 2952SOL     OW 9754   1.540   4.008   2.681
 2952SOL    HW1 9755   1.463   4.061   2.646
 2952SOL    HW2 9756   1.542   4.014   2.781
 2953SOL     OW 9757   4.579   2.807   1.442
 2953SOL    HW1 9758   4.590   2.832   1.538
 2953SOL    HW2 9759   4.546   2.886   1.391
 2954SOL     OW 9760   6.697   6.723   2.779
 2954SOL    HW1 9761   6.711   6.811   2.824
 2954SOL    HW2 9762   6.604   6.690   2.799
 2955SOL     OW 9763   1.215   2.951   0.881
 2955SOL    HW1 9764   1.133   3.008   0.887
 2955SOL    HW2 9765   1.211   2.896   0.798
 2956SOL     OW 9766   0.198   4.865   3.250
 2956SOL    HW1 9767   0.141   4.785   3.269
 2956SOL    HW2 9768   0.170   4.906   3.163
 2957SOL     OW 9769   0.726   3.598   1.691
 2957SOL    HW1 9770   0.804   3.578   1.750
 2957SOL    HW2 9771   0.641   3.573   1.738
 2958SOL     OW 9772   1.744   4.656   5.455
 2958SOL    HW1 9773   1.763   4.703   5.541
 2958SOL    HW2 9774   1.692   4.717   5.394
 2959SOL     OW 9775   4.499   5.999   6.456
 2959SOL    HW1 9776   4.464   6.005   6.363
 2959SOL    HW2 9777   4.431   5.955   6.514
 2960SOL     OW 9778   2.170   1.880   6.855
 2960SOL    HW1 9779   2.122   1.883   6.767
 2960SOL    HW2 9780   2.268   1.870   6.839
 2961SOL     OW 9781   5.576   3.584   4.118
 2961SOL    HW1 9782   5.617   3.502   4.079
 2961SOL    HW2 9783   5.477   3.582   4.104
 2962SOL     OW 9784   4.458   0.859   3.139
 2962SOL    HW1 9785   4.435   0.836   3.234
 2962SOL    HW2 9786   4.395   0.812   3.077
 2963SOL     OW 9787   2.108   1.609   5.254
 2963SOL    HW1 9788   2.099   1.553   5.172
 2963SOL    HW2 9789   2.189   1.580   5.306
 2964SOL     OW 9790   2.432   6.363   1.388
 2964SOL    HW1 9791   2.508   6.420   1.357
 2964SOL    HW2 9792   2.351   6.383   1.334
 2965SOL     OW 9793   0.291   1.385   5.771
 2965SOL    HW1 9794   0.290   1.462   5.836
 2965SOL    HW2 9795   0.261   1.417   5.681
 2966SOL     OW 9796   4.951   4.945   4.286
 2966SOL    HW1 9797   4.862   4.904   4.309
 2966SOL    HW2 9798   4.946   5.044   4.299
 2967SOL     OW 9799   5.737   2.919   3.090
 2967SOL    HW1 9800   5.735   2.842   3.026
 2967SOL    HW2 9801   5.644   2.946   3.112
 2968SOL     OW 9802   0.513   4.034   4.314
 2968SOL    HW1 9803   0.513   3.941   4.349
 2968SOL    HW2 9804   0.605   4.058   4.283
 2969SOL     OW 9805   5.279   2.108   4.542
 2969SOL    HW1 9806   5.250   2.202   4.524
 2969SOL    HW2 9807   5.208   2.062   4.596
 2970SOL     OW 9808   0.783   4.368   6.080
 2970SOL    HW1 9809   0.781   4.301   6.006
 2970SOL    HW2 9810   0.721   4.338   6.153
 2971SOL     OW 9811   5.929   2.535   2.917
 2971SOL    HW1 9812   5.992   2.552   2.841
 2971SOL    HW2 9813   5.892   2.443   2.908
 2972SOL     OW 9814   6.564   3.385   5.800
 2972SOL    HW1 9815   6.485   3.326   5.813
 2972SOL    HW2 9816   6.547   3.447   5.723
 2973SOL     OW 9817   4.723   6.649   4.065
 2973SOL    HW1 9818   4.707   6.650   4.164
 2973SOL    HW2 9819   4.787   6.722   4.042
 2974SOL     OW 9820   6.833   4.508   3.104
 2974SOL    HW1 9821   6.735   4.525   3.107
 2974SOL    HW2 9822   6.851   4.411   3.124
 2975SOL     OW 9823   0.566   0.912   5.356
 2975SOL    HW1 9824   0.640   0.968   5.320
 2975SOL    HW2 9825   0.597   0.818   5.367
 2976SOL     OW 9826   4.237   1.355   2.672
 2976SOL    HW1 9827   4.231   1.309   2.584
 2976SOL    HW2 9828   4.260   1.288   2.743
 2977SOL     OW 9829   3.058   6.835   4.420
 2977SOL    HW1 9830   3.122   6.827   4.343
 2977SOL    HW2 9831   3.077   6.919   4.471
 2978SOL     OW 9832   5.165   5.109   0.156
 2978SOL    HW1 9833   5.263   5.117   0.170
 2978SOL    HW2 9834   5.144   5.117   0.058
 2979SOL     OW 9835   3.447   0.523   2.958
 2979SOL    HW1 9836   3.428   0.468   2.877
 2979SOL    HW2 9837   3.494   0.466   3.026
 2980SOL     OW 9838   0.862   5.878   4.108
 2980SOL    HW1 9839   0.767   5.855   4.123
 2980SOL    HW2 9840   0.916   5.854   4.189
 2981SOL     OW 9841   1.954   0.837   5.520
 2981SOL    HW1 9842   2.034   0.794   5.561
 2981SOL    HW2 9843   1.957   0.936   5.535
 2982SOL     OW 9844   4.505   5.767   2.168
 2982SOL    HW1 9845   4.568   5.717   2.109
 2982SOL    HW2 9846   4.434   5.705   2.202
 2983SOL     OW 9847   0.023   1.046   4.355
 2983SOL    HW1 9848   0.040   0.951   4.327
 2983SOL    HW2 9849   6.998   1.094   4.282
 2984SOL     OW 9850   5.938   5.353   1.803
 2984SOL    HW1 9851   5.936   5.388   1.709
 2984SOL    HW2 9852   5.937   5.430   1.867
 2985SOL     OW 9853   0.132   2.417   3.429
 2985SOL    HW1 9854   0.120   2.369   3.342
 2985SOL    HW2 9855   0.228   2.442   3.441
 2986SOL     OW 9856   1.678   3.929   5.248
 2986SOL    HW1 9857   1.759   3.870   5.254
 2986SOL    HW2 9858   1.668   3.962   5.154
 2987SOL     OW 9859   4.133   1.969   4.506
 2987SOL    HW1 9860   4.213   1.997   4.560
 2987SOL    HW2 9861   4.087   2.050   4.470
 2988SOL     OW 9862   0.956   0.345   1.683
 2988SOL    HW1 9863   0.942   0.416   1.614
 2988SOL    HW2 9864   1.051   0.347   1.714
 2989SOL     OW 9865   0.069   5.059   1.078
 2989SOL    HW1 9866   0.164   5.073   1.050
 2989SOL    HW2 9867   0.067   5.005   1.162
 2990SOL     OW 9868   3.767   1.750   1.546
 2990SOL    HW1 9869   3.693   1.721   1.607
 2990SOL    HW2 9870   3.852   1.702   1.571
 2991SOL     OW 9871   0.199   3.572   0.313
 2991SOL    HW1 9872   0.190   3.555   0.411
 2991SOL    HW2 9873   0.163   3.662   0.291
 2992SOL     OW 9874   3.530   5.150   6.285
 2992SOL    HW1 9875   3.433   5.150   6.311
 2992SOL    HW2 9876   3.568   5.058   6.297
 2993SOL     OW 9877   1.165   5.558   1.308
 2993SOL    HW1 9878   1.192   5.481   1.251
 2993SOL    HW2 9879   1.213   5.554   1.395
 2994SOL     OW 9880   5.042   0.357   0.329
 2994SOL    HW1 9881   5.089   0.391   0.247
 2994SOL    HW2 9882   4.966   0.418   0.351
 2995SOL     OW 9883   1.544   1.776   6.609
 2995SOL    HW1 9884   1.638   1.765   6.642
 2995SOL    HW2 9885   1.497   1.845   6.664
 2996SOL     OW 9886   4.029   5.145   5.854
 2996SOL    HW1 9887   4.108   5.169   5.910
 2996SOL    HW2 9888   3.945   5.172   5.902
 2997SOL     OW 9889   5.501   6.617   1.006
 2997SOL    HW1 9890   5.600   6.605   1.020
 2997SOL    HW2 9891   5.459   6.649   1.091
 2998SOL     OW 9892   6.152   5.417   3.751
 2998SOL    HW1 9893   6.203   5.479   3.811
 2998SOL    HW2 9894   6.168   5.444   3.656
 2999SOL     OW 9895   3.322   7.015   2.563
 2999SOL    HW1 9896   3.304   0.036   2.651
 2999SOL    HW2 9897   3.241   6.963   2.534
 3000SOL     OW 9898   1.338   3.378   5.884
 3000SOL    HW1 9899   1.298   3.305   5.939
 3000SOL    HW2 9900   1.437   3.381   5.900
 3001SOL     OW 9901   4.830   0.928   5.808
 3001SOL    HW1 9902   4.841   0.872   5.726
 3001SOL    HW2 9903   4.856   1.022   5.787
 3002SOL     OW 9904   4.280   0.112   5.253
 3002SOL    HW1 9905   4.209   0.046   5.230
 3002SOL    HW2 9906   4.251   0.204   5.225
 3003SOL     OW 9907   3.040   6.555   5.963
 3003SOL    HW1 9908   3.089   6.468   5.973
 3003SOL    HW2 9909   2.954   6.551   6.013
 3004SOL     OW 9910   6.123   3.131   4.112
 3004SOL    HW1 9911   6.060   3.101   4.184
 3004SOL    HW2 9912   6.139   3.057   4.048
 3005SOL     OW 9913   3.593   3.018   1.020
 3005SOL    HW1 9914   3.546   3.025   1.109
 3005SOL    HW2 9915   3.531   2.977   0.953
 3006SOL     OW 9916   5.123   0.861   1.052
 3006SOL    HW1 9917   5.149   0.957   1.040
 3006SOL    HW2 9918   5.061   0.852   1.130
 3007SOL     OW 9919   6.156   4.732   3.079
 3007SOL    HW1 9920   6.082   4.750   3.013
 3007SOL    HW2 9921   6.209   4.816   3.093
 3008SOL     OW 9922   3.482   6.913   5.422
 3008SOL    HW1 9923   3.496   6.936   5.519
 3008SOL    HW2 9924   3.551   6.846   5.394
 3009SOL     OW 9925   1.325   7.011   3.134
 3009SOL    HW1 9926   1.315   6.918   3.098
 3009SOL    HW2 9927   1.380   7.009   3.217
 3010SOL     OW 9928   3.514   5.968   2.579
 3010SOL    HW1 9929   3.430   5.989   2.629
 3010SOL    HW2 9930   3.593   5.998   2.632
 3011SOL     OW 9931   5.970   6.942   0.017
 3011SOL    HW1 9932   5.880   6.920   0.055
 3011SOL    HW2 9933   6.030   6.976   0.090
 3012SOL     OW 9934   0.301   3.855   3.894
 3012SOL    HW1 9935   0.246   3.828   3.815
 3012SOL    HW2 9936   0.315   3.954   3.891
 3013SOL     OW 9937   5.736   5.733   2.173
 3013SOL    HW1 9938   5.756   5.650   2.121
 3013SOL    HW2 9939   5.645   5.726   2.213
 3014SOL     OW 9940   4.839   1.278   3.941
 3014SOL    HW1 9941   4.899   1.265   3.861
 3014SOL    HW2 9942   4.744   1.268   3.913
 3015SOL     OW 9943   2.736   2.373   0.348
 3015SOL    HW1 9944   2.785   2.449   0.304
 3015SOL    HW2 9945   2.667   2.338   0.285
 3016SOL     OW 9946   3.689   6.462   3.549
 3016SOL    HW1 9947   3.634   6.395   3.499
 3016SOL    HW2 9948   3.631   6.538   3.577
 3017SOL     OW 9949   0.892   6.246   1.291
 3017SOL    HW1 9950   0.844   6.328   1.259
 3017SOL    HW2 9951   0.898   6.180   1.216
 3018SOL     OW 9952   4.342   6.847   6.815
 3018SOL    HW1 9953   4.299   6.924   6.768
 3018SOL    HW2 9954   4.327   6.856   6.914
 3019SOL     OW 9955   3.642   0.008   0.981
 3019SOL    HW1 9956   3.692   6.996   1.060
 3019SOL    HW2 9957   3.607   6.955   0.927
 3020SOL     OW 9958   2.763   3.290   1.539
 3020SOL    HW1 9959   2.769   3.191   1.543
 3020SOL    HW2 9960   2.722   3.318   1.453
 3021SOL     OW 9961   1.793   2.244   6.743
 3021SOL    HW1 9962   1.746   2.317   6.693
 3021SOL    HW2 9963   1.807   2.272   6.837
 3022SOL     OW 9964   5.299   6.687   2.842
 3022SOL    HW1 9965   5.325   6.613   2.904
 3022SOL    HW2 9966   5.322   6.775   2.882
 3023SOL     OW 9967   4.427   5.938   3.298
 3023SOL    HW1 9968   4.504   5.880   3.272
 3023SOL    HW2 9969   4.342   5.900   3.262
 3024SOL     OW 9970   2.891   1.109   0.251
 3024SOL    HW1 9971   2.976   1.150   0.284
 3024SOL    HW2 9972   2.818   1.127   0.317
 3025SOL     OW 9973   2.326   2.972   1.216
 3025SOL    HW1 9974   2.328   2.899   1.147
 3025SOL    HW2 9975   2.277   3.051   1.179
 3026SOL     OW 9976   1.825   2.853   0.871
 3026SOL    HW1 9977   1.798   2.768   0.916
 3026SOL    HW2 9978   1.828   2.927   0.937
 3027SOL     OW 9979   2.081   1.709   3.508
 3027SOL    HW1 9980   2.042   1.618   3.501
 3027SOL    HW2 9981   2.025   1.774   3.456
 3028SOL     OW 9982   1.797   5.732   5.935
 3028SOL    HW1 9983   1.748   5.720   5.849
 3028SOL    HW2 9984   1.744   5.691   6.010
 3029SOL     OW 9985   6.286   5.787   5.011
 3029SOL    HW1 9986   6.299   5.693   4.981
 3029SOL    HW2 9987   6.189   5.804   5.028
 3030SOL     OW 9988   1.514   1.343   5.431
 3030SOL    HW1 9989   1.566   1.315   5.351
 3030SOL    HW2 9990   1.530   1.278   5.506
 3031SOL     OW 9991   0.155   3.763   6.294
 3031SOL    HW1 9992   0.098   3.725   6.221
 3031SOL    HW2 9993   0.133   3.717   6.380
 3032SOL     OW 9994   5.028   0.949   6.003
 3032SOL    HW1 9995   5.072   0.866   6.037
 3032SOL    HW2 9996   4.963   0.925   5.931
 3033SOL     OW 9997   0.233   3.900   6.890
 3033SOL    HW1 9998   0.133   3.907   6.884
 3033SOL    HW2 9999   0.259   3.805   6.904
 3034SOL     OW10000   2.915   6.398   4.194
 3034SOL    HW110001   2.891   6.481   4.144
 3034SOL    HW210002   2.913   6.320   4.132
 3035SOL     OW10003   5.610   1.628   0.307
 3035SOL    HW110004   5.681   1.590   0.367
 3035SOL    HW210005   5.622   1.592   0.214
 3036SOL     OW10006   0.982   4.326   6.858
 3036SOL    HW110007   1.069   4.319   6.907
 3036SOL    HW210008   0.999   4.352   6.763
 3037SOL     OW10009   6.909   6.450   4.997
 3037SOL    HW110010   6.836   6.515   5.015
 3037SOL    HW210011   6.889   6.363   5.044
 3038SOL     OW10012   5.549   6.848   6.007
 3038SOL    HW110013   5.512   6.755   6.016
 3038SOL    HW210014   5.475   6.914   6.019
 3039SOL     OW10015   0.656   4.048   2.000
 3039SOL    HW110016   0.686   4.012   1.911
 3039SOL    HW210017   0.581   4.113   1.986
 3040SOL     OW10018   2.808   3.852   6.590
 3040SOL    HW110019   2.872   3.919   6.626
 3040SOL    HW210020   2.809   3.770   6.648
 3041SOL     OW10021   1.748   2.370   5.826
 3041SOL    HW110022   1.659   2.328   5.845
 3041SOL    HW210023   1.819   2.300   5.827
 3042SOL     OW10024   4.670   0.037   2.207
 3042SOL    HW110025   4.720   0.123   2.204
 3042SOL    HW210026   4.726   6.987   2.169
 3043SOL     OW10027   1.265   5.624   0.281
 3043SOL    HW110028   1.334   5.596   0.214
 3043SOL    HW210029   1.223   5.710   0.251
 3044SOL     OW10030   3.370   4.237   6.077
 3044SOL    HW110031   3.363   4.316   6.138
 3044SOL    HW210032   3.286   4.228   6.025
 3045SOL     OW10033   5.425   2.000   2.397
 3045SOL    HW110034   5.365   2.011   2.318
 3045SOL    HW210035   5.401   1.915   2.445
 3046SOL     OW10036   1.621   2.760   5.458
 3046SOL    HW110037   1.699   2.784   5.516
 3046SOL    HW210038   1.536   2.786   5.503
 3047SOL     OW10039   5.982   5.555   2.268
 3047SOL    HW110040   6.049   5.556   2.194
 3047SOL    HW210041   6.007   5.624   2.336
 3048SOL     OW10042   3.429   3.122   1.272
 3048SOL    HW110043   3.450   3.086   1.363
 3048SOL    HW210044   3.331   3.117   1.256
 3049SOL     OW10045   0.748   0.660   1.911
 3049SOL    HW110046   0.821   0.715   1.871
 3049SOL    HW210047   0.768   0.563   1.901
 3050SOL     OW10048   4.239   5.773   3.943
 3050SOL    HW110049   4.298   5.840   3.989
 3050SOL    HW210050   4.197   5.817   3.863
 3051SOL     OW10051   3.015   5.436   6.745
 3051SOL    HW110052   3.021   5.359   6.809
 3051SOL    HW210053   3.091   5.499   6.761
 3052SOL     OW10054   3.684   0.121   2.746
 3052SOL    HW110055   3.761   0.184   2.742
 3052SOL    HW210056   3.638   0.119   2.657
 3053SOL     OW10057   5.838   6.439   0.278
 3053SOL    HW110058   5.756   6.391   0.309
 3053SOL    HW210059   5.856   6.517   0.339
 3054SOL     OW10060   0.478   3.534   0.273
 3054SOL    HW110061   0.380   3.544   0.292
 3054SOL    HW210062   0.512   3.615   0.225
 3055SOL     OW10063   5.884   6.362   3.668
 3055SOL    HW110064   5.828   6.361   3.585
 3055SOL    HW210065   5.927   6.273   3.680
 3056SOL     OW10066   6.548   0.539   0.412
 3056SOL    HW110067   6.560   0.638   0.401
 3056SOL    HW210068   6.591   0.491   0.336
 3057SOL     OW10069   5.960   4.781   2.899
 3057SOL    HW110070   5.918   4.860   2.944
 3057SOL    HW210071   5.891   4.711   2.884
 3058SOL     OW10072   6.395   5.793   0.855
 3058SOL    HW110073   6.309   5.813   0.807
 3058SOL    HW210074   6.414   5.695   0.849
 3059SOL     OW10075   0.733   3.167   5.018
 3059SOL    HW110076   0.772   3.152   4.928
 3059SOL    HW210077   0.800   3.143   5.088
 3060SOL     OW10078   0.123   6.139   1.822
 3060SOL    HW110079   0.047   6.083   1.857
 3060SOL    HW210080   0.152   6.103   1.733
 3061SOL     OW10081   0.173   0.714   5.218
 3061SOL    HW110082   0.186   0.636   5.280
 3061SOL    HW210083   0.222   0.793   5.254
 3062SOL     OW10084   2.665   6.350   0.851
 3062SOL    HW110085   2.617   6.430   0.815
 3062SOL    HW210086   2.763   6.360   0.833
 3063SOL     OW10087   1.386   4.967   1.559
 3063SOL    HW110088   1.375   5.066   1.549
 3063SOL    HW210089   1.472   4.938   1.517
 3064SOL     OW10090   6.510   3.885   3.162
 3064SOL    HW110091   6.574   3.930   3.100
 3064SOL    HW210092   6.435   3.844   3.110
 3065SOL     OW10093   1.864   0.373   0.081
 3065SOL    HW110094   1.862   0.355   0.179
 3065SOL    HW210095   1.779   0.418   0.054
 3066SOL     OW10096   5.980   4.561   1.160
 3066SOL    HW110097   6.018   4.521   1.076
 3066SOL    HW210098   5.886   4.591   1.142
 3067SOL     OW10099   4.714   6.981   4.388
 3067SOL    HW110100   4.636   6.964   4.328
 3067SOL    HW210101   4.782   0.013   4.340
 3068SOL     OW10102   5.680   5.193   1.130
 3068SOL    HW110103   5.761   5.138   1.112
 3068SOL    HW210104   5.698   5.288   1.103
 3069SOL     OW10105   0.527   5.638   1.957
 3069SOL    HW110106   0.454   5.702   1.932
 3069SOL    HW210107   0.550   5.650   2.054
 3070SOL     OW10108   2.777   1.386   3.636
 3070SOL    HW110109   2.803   1.300   3.592
 3070SOL    HW210110   2.682   1.407   3.614
 3071SOL     OW10111   5.905   0.425   3.831
 3071SOL    HW110112   5.817   0.431   3.878
 3071SOL    HW210113   5.914   0.334   3.789
 3072SOL     OW10114   0.384   6.732   2.448
 3072SOL    HW110115   0.449   6.807   2.439
 3072SOL    HW210116   0.434   6.648   2.470
 3073SOL     OW10117   1.218   3.781   5.340
 3073SOL    HW110118   1.253   3.689   5.324
 3073SOL    HW210119   1.120   3.776   5.360
 3074SOL     OW10120   4.164   2.823   6.601
 3074SOL    HW110121   4.213   2.904   6.571
 3074SOL    HW210122   4.147   2.763   6.523
 3075SOL     OW10123   1.932   6.142   1.143
 3075SOL    HW110124   2.011   6.115   1.087
 3075SOL    HW210125   1.867   6.192   1.086
 3076SOL     OW10126   6.454   0.398   5.021
 3076SOL    HW110127   6.453   0.496   5.045
 3076SOL    HW210128   6.464   0.344   5.105
 3077SOL     OW10129   5.746   4.327   4.873
 3077SOL    HW110130   5.706   4.337   4.782
 3077SOL    HW210131   5.679   4.357   4.941
 3078SOL     OW10132   1.713   3.808   2.082
 3078SOL    HW110133   1.804   3.788   2.046
 3078SOL    HW210134   1.644   3.766   2.024
 3079SOL     OW10135   0.105   2.126   5.131
 3079SOL    HW110136   0.169   2.177   5.074
 3079SOL    HW210137   0.078   2.181   5.210
 3080SOL     OW10138   6.396   4.921   1.090
 3080SOL    HW110139   6.407   4.874   1.002
 3080SOL    HW210140   6.485   4.954   1.122
 3081SOL     OW10141   0.492   4.375   5.752
 3081SOL    HW110142   0.566   4.315   5.782
 3081SOL    HW210143   0.529   4.457   5.709
 3082SOL     OW10144   3.444   0.484   2.592
 3082SOL    HW110145   3.486   0.394   2.603
 3082SOL    HW210146   3.365   0.476   2.531
 3083SOL     OW10147   3.434   0.544   1.897
 3083SOL    HW110148   3.445   0.502   1.806
 3083SOL    HW210149   3.498   0.500   1.961
 3084SOL     OW10150   5.565   5.260   4.674
 3084SOL    HW110151   5.491   5.271   4.608
 3084SOL    HW210152   5.650   5.239   4.626
 3085SOL     OW10153   6.592   5.724   2.430
 3085SOL    HW110154   6.601   5.636   2.382
 3085SOL    HW210155   6.668   5.784   2.404
 3086SOL     OW10156   5.045   1.727   2.953
 3086SOL    HW110157   5.128   1.743   2.899
 3086SOL    HW210158   4.968   1.775   2.911
 3087SOL     OW10159   6.202   4.013   3.036
 3087SOL    HW110160   6.210   4.017   3.136
 3087SOL    HW210161   6.107   4.031   3.010
 3088SOL     OW10162   2.475   4.389   5.228
 3088SOL    HW110163   2.420   4.307   5.239
 3088SOL    HW210164   2.448   4.437   5.145
 3089SOL     OW10165   1.432   2.555   0.047
 3089SOL    HW110166   1.498   2.496   7.023
 3089SOL    HW210167   1.339   2.526   0.024
 3090SOL     OW10168   1.474   1.580   1.333
 3090SOL    HW110169   1.409   1.578   1.409
 3090SOL    HW210170   1.564   1.606   1.367
 3091SOL     OW10171   2.127   6.626   0.876
 3091SOL    HW110172   2.213   6.599   0.918
 3091SOL    HW210173   2.141   6.640   0.778
 3092SOL     OW10174   6.169   0.097   0.901
 3092SOL    HW110175   6.215   0.158   0.836
 3092SOL    HW210176   6.171   0.004   0.867
 3093SOL     OW10177   6.236   5.621   5.388
 3093SOL    HW110178   6.262   5.528   5.362
 3093SOL    HW210179   6.183   5.663   5.315
 3094SOL     OW10180   3.316   5.755   5.287
 3094SOL    HW110181   3.311   5.655   5.283
 3094SOL    HW210182   3.398   5.782   5.336
 3095SOL     OW10183   2.799   4.775   4.377
 3095SOL    HW110184   2.806   4.866   4.336
 3095SOL    HW210185   2.844   4.775   4.466
 3096SOL     OW10186   0.257   6.939   5.255
 3096SOL    HW110187   0.329   6.874   5.231
 3096SOL    HW210188   0.298   0.003   5.279
 3097SOL     OW10189   0.872   2.784   0.516
 3097SOL    HW110190   0.903   2.722   0.587
 3097SOL    HW210191   0.874   2.878   0.551
 3098SOL     OW10192   2.509   3.659   0.662
 3098SOL    HW110193   2.473   3.684   0.572
 3098SOL    HW210194   2.608   3.674   0.664
 3099SOL     OW10195   0.931   5.839   5.902
 3099SOL    HW110196   0.858   5.795   5.849
 3099SOL    HW210197   0.928   5.807   5.996
 3100SOL     OW10198   6.796   6.722   6.489
 3100SOL    HW110199   6.735   6.671   6.550
 3100SOL    HW210200   6.756   6.812   6.470
 3101SOL     OW10201   5.157   6.713   6.579
 3101SOL    HW110202   5.237   6.772   6.592
 3101SOL    HW210203   5.168   6.660   6.495
 3102SOL     OW10204   1.470   4.110   0.987
 3102SOL    HW110205   1.520   4.196   1.002
 3102SOL    HW210206   1.376   4.132   0.958
 3103SOL     OW10207   4.097   2.605   1.463
 3103SOL    HW110208   4.191   2.615   1.495
 3103SOL    HW210209   4.096   2.600   1.363
 3104SOL     OW10210   5.703   5.576   4.192
 3104SOL    HW110211   5.702   5.662   4.243
 3104SOL    HW210212   5.613   5.561   4.150
 3105SOL     OW10213   5.900   6.661   4.230
 3105SOL    HW110214   5.970   6.719   4.188
 3105SOL    HW210215   5.834   6.633   4.160
 3106SOL     OW10216   6.521   2.845   2.792
 3106SOL    HW110217   6.575   2.889   2.721
 3106SOL    HW210218   6.532   2.896   2.878
 3107SOL     OW10219   2.991   0.303   3.862
 3107SOL    HW110220   3.004   0.399   3.836
 3107SOL    HW210221   2.970   0.249   3.781
 3108SOL     OW10222   2.565   0.668   4.122
 3108SOL    HW110223   2.641   0.684   4.184
 3108SOL    HW210224   2.568   0.735   4.047
 3109SOL     OW10225   5.117   6.181   3.244
 3109SOL    HW110226   5.073   6.225   3.322
 3109SOL    HW210227   5.128   6.084   3.262
 3110SOL     OW10228   0.746   3.045   2.456
 3110SOL    HW110229   0.649   3.069   2.446
 3110SOL    HW210230   0.797   3.125   2.489
 3111SOL     OW10231   6.901   5.100   3.177
 3111SOL    HW110232   6.949   5.188   3.174
 3111SOL    HW210233   6.912   5.059   3.267
 3112SOL     OW10234   4.655   3.810   6.482
 3112SOL    HW110235   4.726   3.819   6.412
 3112SOL    HW210236   4.579   3.872   6.462
 3113SOL     OW10237   2.185   6.882   3.313
 3113SOL    HW110238   2.282   6.877   3.289
 3113SOL    HW210239   2.174   6.864   3.411
 3114SOL     OW10240   6.017   4.556   0.870
 3114SOL    HW110241   5.933   4.573   0.819
 3114SOL    HW210242   6.087   4.623   0.843
 3115SOL     OW10243   3.484   4.062   0.255
 3115SOL    HW110244   3.533   4.084   0.339
 3115SOL    HW210245   3.387   4.085   0.267
 3116SOL     OW10246   6.447   2.332   6.728
 3116SOL    HW110247   6.495   2.418   6.745
 3116SOL    HW210248   6.470   2.265   6.799
 3117SOL     OW10249   4.065   3.183   5.132
 3117SOL    HW110250   4.067   3.188   5.032
 3117SOL    HW210251   4.158   3.188   5.167
 3118SOL     OW10252   6.349   4.166   0.770
 3118SOL    HW110253   6.434   4.197   0.727
 3118SOL    HW210254   6.294   4.245   0.795
 3119SOL     OW10255   1.587   4.791   4.884
 3119SOL    HW110256   1.559   4.883   4.854
 3119SOL    HW210257   1.581   4.785   4.983
 3120SOL     OW10258   3.224   5.378   4.606
 3120SOL    HW110259   3.240   5.351   4.511
 3120SOL    HW210260   3.134   5.422   4.613
 3121SOL     OW10261   6.777   0.891   2.376
 3121SOL    HW110262   6.769   0.929   2.468
 3121SOL    HW210263   6.765   0.964   2.308
 3122SOL     OW10264   2.786   5.664   6.742
 3122SOL    HW110265   2.716   5.616   6.689
 3122SOL    HW210266   2.873   5.616   6.732
 3123SOL     OW10267   3.840   6.432   3.885
 3123SOL    HW110268   3.746   6.439   3.851
 3123SOL    HW210269   3.902   6.480   3.823
 3124SOL     OW10270   4.422   1.435   5.415
 3124SOL    HW110271   4.384   1.445   5.507
 3124SOL    HW210272   4.514   1.395   5.421
 3125SOL     OW10273   6.299   1.753   6.240
 3125SOL    HW110274   6.378   1.802   6.204
 3125SOL    HW210275   6.327   1.661   6.268
 3126SOL     OW10276   4.440   5.867   6.966
 3126SOL    HW110277   4.492   5.809   0.005
 3126SOL    HW210278   4.344   5.842   6.970
 3127SOL     OW10279   0.997   1.849   4.017
 3127SOL    HW110280   1.003   1.888   3.924
 3127SOL    HW210281   1.078   1.875   4.069
 3128SOL     OW10282   2.135   1.237   0.796
 3128SOL    HW110283   2.178   1.296   0.865
 3128SOL    HW210284   2.040   1.221   0.820
 3129SOL     OW10285   6.639   3.795   5.418
 3129SOL    HW110286   6.735   3.802   5.446
 3129SOL    HW210287   6.634   3.783   5.319
 3130SOL     OW10288   1.829   4.663   2.031
 3130SOL    HW110289   1.898   4.712   1.978
 3130SOL    HW210290   1.753   4.638   1.971
 3131SOL     OW10291   7.002   3.359   2.615
 3131SOL    HW110292   6.972   3.448   2.650
 3131SOL    HW210293   6.924   3.297   2.612
 3132SOL     OW10294   5.938   6.175   5.559
 3132SOL    HW110295   5.994   6.222   5.627
 3132SOL    HW210296   5.856   6.138   5.603
 3133SOL     OW10297   3.091   2.174   3.017
 3133SOL    HW110298   3.166   2.167   2.951
 3133SOL    HW210299   3.011   2.128   2.980
 3134SOL     OW10300   4.749   3.680   1.508
 3134SOL    HW110301   4.770   3.773   1.478
 3134SOL    HW210302   4.721   3.625   1.429
 3135SOL     OW10303   3.510   2.087   3.691
 3135SOL    HW110304   3.410   2.093   3.692
 3135SOL    HW210305   3.545   2.115   3.780
 3136SOL     OW10306   6.473   6.162   5.645
 3136SOL    HW110307   6.516   6.098   5.708
 3136SOL    HW210308   6.432   6.113   5.569
 3137SOL     OW10309   5.458   1.711   4.120
 3137SOL    HW110310   5.515   1.751   4.049
 3137SOL    HW210311   5.508   1.710   4.207
 3138SOL     OW10312   6.226   1.463   4.593
 3138SOL    HW110313   6.230   1.521   4.512
 3138SOL    HW210314   6.311   1.410   4.600
 3139SOL     OW10315   5.080   6.389   5.248
 3139SOL    HW110316   5.011   6.453   5.280
 3139SOL    HW210317   5.161   6.396   5.306
 3140SOL     OW10318   6.662   6.332   6.736
 3140SOL    HW110319   6.624   6.296   6.651
 3140SOL    HW210320   6.648   6.265   6.809
 3141SOL     OW10321   1.435   5.563   0.652
 3141SOL    HW110322   1.459   5.642   0.597
 3141SOL    HW210323   1.409   5.487   0.592
 3142SOL     OW10324   4.655   6.430   6.408
 3142SOL    HW110325   4.559   6.408   6.430
 3142SOL    HW210326   4.657   6.509   6.347
 3143SOL     OW10327   6.854   1.584   0.345
 3143SOL    HW110328   6.777   1.527   0.376
 3143SOL    HW210329   6.829   1.629   0.260
 3144SOL     OW10330   2.242   3.746   6.694
 3144SOL    HW110331   2.213   3.832   6.737
 3144SOL    HW210332   2.163   3.687   6.681
 3145SOL     OW10333   3.033   5.594   2.924
 3145SOL    HW110334   3.066   5.686   2.944
 3145SOL    HW210335   2.957   5.572   2.986
 3146SOL     OW10336   1.418   0.351   3.376
 3146SOL    HW110337   1.398   0.372   3.472
 3146SOL    HW210338   1.334   0.327   3.329
 3147SOL     OW10339   5.118   3.530   0.380
 3147SOL    HW110340   5.189   3.600   0.377
 3147SOL    HW210341   5.043   3.554   0.318
 3148SOL     OW10342   3.871   5.480   4.787
 3148SOL    HW110343   3.785   5.473   4.837
 3148SOL    HW210344   3.853   5.515   4.695
 3149SOL     OW10345   3.429   0.357   5.625
 3149SOL    HW110346   3.444   0.398   5.716
 3149SOL    HW210347   3.418   0.430   5.557
 3150SOL     OW10348   5.922   6.284   4.473
 3150SOL    HW110349   5.887   6.194   4.445
 3150SOL    HW210350   5.986   6.317   4.404
 3151SOL     OW10351   4.115   1.719   6.177
 3151SOL    HW110352   4.166   1.792   6.222
 3151SOL    HW210353   4.178   1.661   6.126
 3152SOL     OW10354   0.778   5.832   1.212
 3152SOL    HW110355   0.702   5.833   1.276
 3152SOL    HW210356   0.765   5.903   1.143
 3153SOL     OW10357   6.289   3.966   2.464
 3153SOL    HW110358   6.285   4.064   2.449
 3153SOL    HW210359   6.205   3.923   2.428
 3154SOL     OW10360   5.688   2.645   6.133
 3154SOL    HW110361   5.591   2.635   6.107
 3154SOL    HW210362   5.740   2.678   6.054
 3155SOL     OW10363   5.616   5.468   0.975
 3155SOL    HW110364   5.634   5.567   0.974
 3155SOL    HW210365   5.540   5.447   0.913
 3156SOL     OW10366   3.754   3.987   3.713
 3156SOL    HW110367   3.768   4.049   3.636
 3156SOL    HW210368   3.829   3.921   3.716
 3157SOL     OW10369   2.244   4.071   3.924
 3157SOL    HW110370   2.218   3.987   3.972
 3157SOL    HW210371   2.184   4.085   3.846
 3158SOL     OW10372   4.857   7.005   1.186
 3158SOL    HW110373   4.918   0.049   1.228
 3158SOL    HW210374   4.874   6.915   1.226
 3159SOL     OW10375   5.190   5.609   6.886
 3159SOL    HW110376   5.250   5.608   6.966
 3159SOL    HW210377   5.132   5.690   6.889
 3160SOL     OW10378   4.819   4.255   0.044
 3160SOL    HW110379   4.797   4.209   6.981
 3160SOL    HW210380   4.757   4.332   0.058
 3161SOL     OW10381   1.057   1.397   3.073
 3161SOL    HW110382   1.088   1.473   3.015
 3161SOL    HW210383   1.044   1.316   3.017
 3162SOL     OW10384   0.530   5.068   6.353
 3162SOL    HW110385   0.550   5.164   6.368
 3162SOL    HW210386   0.606   5.026   6.302
 3163SOL     OW10387   3.149   4.140   6.288
 3163SOL    HW110388   3.187   4.202   6.356
 3163SOL    HW210389   3.223   4.098   6.236
 3164SOL     OW10390   5.187   4.477   0.068
 3164SOL    HW110391   5.284   4.452   0.063
 3164SOL    HW210392   5.144   4.464   7.002
 3165SOL     OW10393   0.065   1.130   1.743
 3165SOL    HW110394   0.157   1.120   1.782
 3165SOL    HW210395   0.011   1.193   1.800
 3166SOL     OW10396   5.328   3.428   6.672
 3166SOL    HW110397   5.393   3.394   6.740
 3166SOL    HW210398   5.239   3.385   6.685
 3167SOL     OW10399   0.346   5.357   1.805
 3167SOL    HW110400   0.311   5.270   1.769
 3167SOL    HW210401   0.446   5.352   1.815
 3168SOL     OW10402   5.346   3.384   1.168
 3168SOL    HW110403   5.397   3.454   1.118
 3168SOL    HW210404   5.341   3.301   1.112
 3169SOL     OW10405   0.835   2.871   5.096
 3169SOL    HW110406   0.787   2.785   5.074
 3169SOL    HW210407   0.881   2.905   5.014
 3170SOL     OW10408   4.383   0.446   0.071
 3170SOL    HW110409   4.329   0.529   0.062
 3170SOL    HW210410   4.335   0.380   0.129
 3171SOL     OW10411   5.530   6.688   3.142
 3171SOL    HW110412   5.531   6.778   3.099
 3171SOL    HW210413   5.471   6.626   3.090
 3172SOL     OW10414   6.592   0.246   4.842
 3172SOL    HW110415   6.688   0.248   4.868
 3172SOL    HW210416   6.540   0.310   4.898
 3173SOL     OW10417   2.698   0.254   1.312
 3173SOL    HW110418   2.732   0.328   1.255
 3173SOL    HW210419   2.603   0.233   1.287
 3174SOL     OW10420   2.301   2.799   6.356
 3174SOL    HW110421   2.267   2.762   6.442
 3174SOL    HW210422   2.224   2.813   6.293
 3175SOL     OW10423   0.800   6.419   0.842
 3175SOL    HW110424   0.859   6.374   0.909
 3175SOL    HW210425   0.819   6.385   0.751
 3176SOL     OW10426   0.591   4.415   6.600
 3176SOL    HW110427   0.633   4.365   6.524
 3176SOL    HW210428   0.658   4.475   6.642
 3177SOL     OW10429   6.057   6.100   6.202
 3177SOL    HW110430   6.147   6.072   6.170
 3177SOL    HW210431   5.987   6.060   6.143
 3178SOL     OW10432   0.489   3.484   1.171
 3178SOL    HW110433   0.496   3.488   1.072
 3178SOL    HW210434   0.394   3.497   1.199
 3179SOL     OW10435   1.912   1.753   2.650
 3179SOL    HW110436   1.863   1.666   2.656
 3179SOL    HW210437   2.006   1.741   2.682
 3180SOL     OW10438   5.616   0.794   5.873
 3180SOL    HW110439   5.605   0.754   5.964
 3180SOL    HW210440   5.635   0.891   5.881
 3181SOL     OW10441   0.888   0.846   3.267
 3181SOL    HW110442   0.920   0.827   3.174
 3181SOL    HW210443   0.840   0.934   3.268
 3182SOL     OW10444   2.154   5.591   5.374
 3182SOL    HW110445   2.083   5.588   5.304
 3182SOL    HW210446   2.232   5.644   5.341
 3183SOL     OW10447   3.836   3.173   1.479
 3183SOL    HW110448   3.934   3.155   1.468
 3183SOL    HW210449   3.825   3.249   1.544
 3184SOL     OW10450   2.548   2.037   2.043
 3184SOL    HW110451   2.497   2.087   1.973
 3184SOL    HW210452   2.644   2.066   2.042
 3185SOL     OW10453   6.742   7.016   5.770
 3185SOL    HW110454   6.654   0.040   5.759
 3185SOL    HW210455   6.742   6.966   5.857
 3186SOL     OW10456   2.970   1.185   2.420
 3186SOL    HW110457   2.889   1.128   2.403
 3186SOL    HW210458   3.012   1.211   2.333
 3187SOL     OW10459   3.483   4.339   0.149
 3187SOL    HW110460   3.545   4.277   0.196
 3187SOL    HW210461   3.488   4.430   0.191
 3188SOL     OW10462   4.232   6.194   3.401
 3188SOL    HW110463   4.329   6.185   3.424
 3188SOL    HW210464   4.187   6.247   3.473
 3189SOL     OW10465   0.803   6.192   2.703
 3189SOL    HW110466   0.853   6.263   2.654
 3189SOL    HW210467   0.800   6.109   2.648
 3190SOL     OW10468   1.028   5.893   2.428
 3190SOL    HW110469   1.096   5.964   2.444
 3190SOL    HW210470   0.972   5.917   2.349
 3191SOL     OW10471   4.077   0.651   1.104
 3191SOL    HW110472   4.078   0.584   1.178
 3191SOL    HW210473   4.169   0.685   1.088
 3192SOL     OW10474   0.493   3.166   2.442
 3192SOL    HW110475   0.414   3.115   2.476
 3192SOL    HW210476   0.462   3.237   2.379
 3193SOL     OW10477   4.331   3.016   6.271
 3193SOL    HW110478   4.335   3.002   6.370
 3193SOL    HW210479   4.295   2.933   6.228
 3194SOL     OW10480   0.224   3.507   6.048
 3194SOL    HW110481   0.305   3.465   6.089
 3194SOL    HW210482   0.162   3.537   6.121
 3195SOL     OW10483   1.105   3.177   3.350
 3195SOL    HW110484   1.147   3.135   3.269
 3195SOL    HW210485   1.014   3.138   3.364
 3196SOL     OW10486   6.812   6.926   5.521
 3196SOL    HW110487   6.857   7.005   5.480
 3196SOL    HW210488   6.777   6.951   5.612
 3197SOL     OW10489   0.938   4.290   3.623
 3197SOL    HW110490   0.897   4.225   3.688
 3197SOL    HW210491   0.983   4.364   3.673
 3198SOL     OW10492   6.592   1.438   6.885
 3198SOL    HW110493   6.667   1.381   6.853
 3198SOL    HW210494   6.573   1.418   6.981
 3199SOL     OW10495   4.701   2.061   2.043
 3199SOL    HW110496   4.673   2.086   1.950
 3199SOL    HW210497   4.766   1.985   2.037
 3200SOL     OW10498   6.952   1.643   1.377
 3200SOL    HW110499   6.981   1.676   1.467
 3200SOL    HW210500   6.882   1.573   1.388
 3201SOL     OW10501   4.599   4.431   2.816
 3201SOL    HW110502   4.608   4.530   2.817
 3201SOL    HW210503   4.604   4.398   2.722
 3202SOL     OW10504   2.051   5.877   1.722
 3202SOL    HW110505   2.029   5.875   1.819
 3202SOL    HW210506   2.151   5.874   1.710
 3203SOL     OW10507   6.539   6.882   1.823
 3203SOL    HW110508   6.605   6.833   1.767
 3203SOL    HW210509   6.488   6.817   1.880
 3204SOL     OW10510   6.301   5.411   1.914
 3204SOL    HW110511   6.285   5.445   1.821
 3204SOL    HW210512   6.253   5.325   1.927
 3205SOL     OW10513   0.611   3.960   3.797
 3205SOL    HW110514   0.706   3.989   3.805
 3205SOL    HW210515   0.605   3.861   3.810
 3206SOL     OW10516   1.297   0.241   6.591
 3206SOL    HW110517   1.255   0.319   6.545
 3206SOL    HW210518   1.347   0.185   6.524
 3207SOL     OW10519   0.188   1.498   4.112
 3207SOL    HW110520   0.246   1.487   4.031
 3207SOL    HW210521   0.194   1.417   4.169
 3208SOL     OW10522   5.236   6.700   5.293
 3208SOL    HW110523   5.250   6.612   5.338
 3208SOL    HW210524   5.138   6.719   5.286
 3209SOL     OW10525   2.469   0.664   3.761
 3209SOL    HW110526   2.562   0.628   3.763
 3209SOL    HW210527   2.470   0.757   3.725
 3210SOL     OW10528   0.028   4.602   2.958
 3210SOL    HW110529   6.976   4.566   3.014
 3210SOL    HW210530   0.114   4.590   3.007
 3211SOL     OW10531   1.642   4.257   2.274
 3211SOL    HW110532   1.576   4.330   2.257
 3211SOL    HW210533   1.658   4.249   2.373
 3212SOL     OW10534   4.582   2.049   5.924
 3212SOL    HW110535   4.677   2.020   5.926
 3212SOL    HW210536   4.535   2.006   5.847
 3213SOL     OW10537   6.447   6.122   1.773
 3213SOL    HW110538   6.543   6.141   1.794
 3213SOL    HW210539   6.390   6.195   1.810
 3214SOL     OW10540   4.673   6.080   6.197
 3214SOL    HW110541   4.595   6.052   6.142
 3214SOL    HW210542   4.642   6.114   6.286
 3215SOL     OW10543   5.722   1.472   6.904
 3215SOL    HW110544   5.716   1.542   6.975
 3215SOL    HW210545   5.765   1.390   6.943
 3216SOL     OW10546   5.724   6.590   4.023
 3216SOL    HW110547   5.722   6.652   3.944
 3216SOL    HW210548   5.631   6.576   4.057
 3217SOL     OW10549   6.663   3.900   2.127
 3217SOL    HW110550   6.760   3.877   2.120
 3217SOL    HW210551   6.648   3.954   2.210
 3218SOL     OW10552   2.707   0.418   3.048
 3218SOL    HW110553   2.756   0.395   3.132
 3218SOL    HW210554   2.756   0.380   2.970
 3219SOL     OW10555   6.447   0.736   3.738
 3219SOL    HW110556   6.401   0.650   3.715
 3219SOL    HW210557   6.383   0.812   3.726
 3220SOL     OW10558   6.191   3.465   5.750
 3220SOL    HW110559   6.109   3.471   5.694
 3220SOL    HW210560   6.258   3.406   5.704
 3221SOL     OW10561   2.833   6.828   3.406
 3221SOL    HW110562   2.854   6.743   3.359
 3221SOL    HW210563   2.825   6.902   3.338
 3222SOL     OW10564   5.729   2.722   2.694
 3222SOL    HW110565   5.797   2.651   2.678
 3222SOL    HW210566   5.707   2.768   2.608
 3223SOL     OW10567   2.453   5.092   4.819
 3223SOL    HW110568   2.386   5.020   4.800
 3223SOL    HW210569   2.478   5.089   4.916
 3224SOL     OW10570   4.014   5.191   0.190
 3224SOL    HW110571   4.018   5.278   0.142
 3224SOL    HW210572   3.950   5.197   0.266
 3225SOL     OW10573   2.370   3.527   6.879
 3225SOL    HW110574   2.415   3.554   6.794
 3225SOL    HW210575   2.409   3.441   6.911
 3226SOL     OW10576   1.286   0.528   3.987
 3226SOL    HW110577   1.222   0.512   3.911
 3226SOL    HW210578   1.237   0.569   4.064
 3227SOL     OW10579   2.397   1.316   6.375
 3227SOL    HW110580   2.476   1.273   6.331
 3227SOL    HW210581   2.330   1.246   6.399
 3228SOL     OW10582   5.319   3.830   5.255
 3228SOL    HW110583   5.349   3.749   5.304
 3228SOL    HW210584   5.296   3.805   5.161
 3229SOL     OW10585   3.897   2.595   5.376
 3229SOL    HW110586   3.964   2.625   5.308
 3229SOL    HW210587   3.825   2.542   5.330
 3230SOL     OW10588   1.140   0.633   3.611
 3230SOL    HW110589   1.120   0.614   3.514
 3230SOL    HW210590   1.202   0.711   3.617
 3231SOL     OW10591   5.860   5.479   1.081
 3231SOL    HW110592   5.936   5.460   1.019
 3231SOL    HW210593   5.774   5.476   1.029
 3232SOL     OW10594   2.046   4.555   3.868
 3232SOL    HW110595   2.033   4.464   3.907
 3232SOL    HW210596   2.106   4.609   3.927
 3233SOL     OW10597   0.679   4.063   1.355
 3233SOL    HW110598   0.651   4.032   1.264
 3233SOL    HW210599   0.602   4.108   1.400
 3234SOL     OW10600   0.089   1.823   5.517
 3234SOL    HW110601   0.051   1.744   5.470
 3234SOL    HW210602   0.167   1.858   5.466
 3235SOL     OW10603   5.223   7.007   2.264
 3235SOL    HW110604   5.269   6.919   2.275
 3235SOL    HW210605   5.156   7.002   2.190
 3236SOL     OW10606   0.768   2.861   1.871
 3236SOL    HW110607   0.787   2.935   1.806
 3236SOL    HW210608   0.853   2.831   1.913
 3237SOL     OW10609   3.406   0.258   4.417
 3237SOL    HW110610   3.481   0.192   4.416
 3237SOL    HW210611   3.441   0.349   4.395
 3238SOL     OW10612   0.398   6.555   0.026
 3238SOL    HW110613   0.470   6.624   0.037
 3238SOL    HW210614   0.311   6.592   0.057
 3239SOL     OW10615   6.744   6.430   5.580
 3239SOL    HW110616   6.814   6.429   5.509
 3239SOL    HW210617   6.698   6.519   5.580
 3240SOL     OW10618   1.221   1.572   4.360
 3240SOL    HW110619   1.318   1.595   4.367
 3240SOL    HW210620   1.177   1.631   4.293
 3241SOL     OW10621   5.810   1.003   4.371
 3241SOL    HW110622   5.850   0.925   4.324
 3241SOL    HW210623   5.883   1.058   4.412
 3242SOL     OW10624   3.734   6.449   0.214
 3242SOL    HW110625   3.719   6.411   0.122
 3242SOL    HW210626   3.688   6.537   0.222
 3243SOL     OW10627   3.287   5.245   0.475
 3243SOL    HW110628   3.213   5.300   0.515
 3243SOL    HW210629   3.252   5.153   0.454
 3244SOL     OW10630   2.895   6.273   6.399
 3244SOL    HW110631   2.874   6.368   6.424
 3244SOL    HW210632   2.896   6.264   6.300
 3245SOL     OW10633   3.880   2.521   6.219
 3245SOL    HW110634   3.829   2.437   6.200
 3245SOL    HW210635   3.976   2.499   6.234
 3246SOL     OW10636   5.085   6.446   3.650
 3246SOL    HW110637   5.032   6.384   3.592
 3246SOL    HW210638   5.170   6.401   3.679
 3247SOL     OW10639   0.422   2.644   4.589
 3247SOL    HW110640   0.518   2.656   4.615
 3247SOL    HW210641   0.417   2.624   4.492
 3248SOL     OW10642   5.742   3.833   2.372
 3248SOL    HW110643   5.742   3.932   2.389
 3248SOL    HW210644   5.704   3.814   2.282
 3249SOL     OW10645   2.373   4.506   4.998
 3249SOL    HW110646   2.461   4.533   4.958
 3249SOL    HW210647   2.338   4.426   4.949
 3250SOL     OW10648   4.197   6.764   1.770
 3250SOL    HW110649   4.292   6.764   1.799
 3250SOL    HW210650   4.138   6.744   1.848
 3251SOL     OW10651   2.822   0.403   3.296
 3251SOL    HW110652   2.905   0.437   3.340
 3251SOL    HW210653   2.742   0.427   3.351
 3252SOL     OW10654   3.264   2.126   3.260
 3252SOL    HW110655   3.224   2.179   3.185
 3252SOL    HW210656   3.198   2.120   3.335
 3253SOL     OW10657   4.813   3.389   1.032
 3253SOL    HW110658   4.791   3.425   0.941
 3253SOL    HW210659   4.856   3.300   1.023
 3254SOL     OW10660   6.034   5.295   2.746
 3254SOL    HW110661   6.014   5.197   2.759
 3254SOL    HW210662   5.965   5.349   2.794
 3255SOL     OW10663   3.771   4.326   0.384
 3255SOL    HW110664   3.762   4.245   0.326
 3255SOL    HW210665   3.690   4.384   0.375
 3256SOL     OW10666   6.778   6.252   5.143
 3256SOL    HW110667   6.772   6.235   5.241
 3256SOL    HW210668   6.689   6.281   5.109
 3257SOL     OW10669   2.160   2.127   0.231
 3257SOL    HW110670   2.067   2.123   0.267
 3257SOL    HW210671   2.224   2.099   0.302
 3258SOL     OW10672   5.973   6.834   1.738
 3258SOL    HW110673   6.064   6.794   1.729
 3258SOL    HW210674   5.973   6.900   1.814
 3259SOL     OW10675   5.695   6.132   3.497
 3259SOL    HW110676   5.683   6.231   3.499
 3259SOL    HW210677   5.760   6.105   3.568
 3260SOL     OW10678   1.286   2.597   6.731
 3260SOL    HW110679   1.235   2.524   6.776
 3260SOL    HW210680   1.382   2.571   6.722
 3261SOL     OW10681   4.060   0.932   2.949
 3261SOL    HW110682   4.024   0.865   3.013
 3261SOL    HW210683   3.997   0.941   2.872
 3262SOL     OW10684   3.645   1.514   3.244
 3262SOL    HW110685   3.666   1.509   3.342
 3262SOL    HW210686   3.584   1.439   3.220
 3263SOL     OW10687   3.563   5.660   2.039
 3263SOL    HW110688   3.662   5.655   2.025
 3263SOL    HW210689   3.543   5.733   2.104
 3264SOL     OW10690   5.126   5.180   6.419
 3264SOL    HW110691   5.068   5.261   6.408
 3264SOL    HW210692   5.152   5.145   6.329
 3265SOL     OW10693   4.369   0.649   6.810
 3265SOL    HW110694   4.295   0.638   6.877
 3265SOL    HW210695   4.383   0.746   6.791
 3266SOL     OW10696   0.471   1.550   5.921
 3266SOL    HW110697   0.437   1.619   5.985
 3266SOL    HW210698   0.516   1.477   5.971
 3267SOL     OW10699   3.509   2.439   1.266
 3267SOL    HW110700   3.583   2.433   1.333
 3267SOL    HW210701   3.477   2.534   1.260
 3268SOL     OW10702   0.427   4.571   6.424
 3268SOL    HW110703   0.480   4.502   6.472
 3268SOL    HW210704   0.340   4.531   6.393
 3269SOL     OW10705   4.520   3.330   0.692
 3269SOL    HW110706   4.460   3.406   0.718
 3269SOL    HW210707   4.586   3.363   0.624
 3270SOL     OW10708   1.342   6.067   4.918
 3270SOL    HW110709   1.408   6.080   4.844
 3270SOL    HW210710   1.376   6.110   5.002
 3271SOL     OW10711   5.528   1.820   0.763
 3271SOL    HW110712   5.458   1.776   0.707
 3271SOL    HW210713   5.500   1.820   0.859
 3272SOL     OW10714   6.068   6.966   0.298
 3272SOL    HW110715   6.020   6.918   0.372
 3272SOL    HW210716   6.030   0.034   0.287
 3273SOL     OW10717   6.510   0.023   2.304
 3273SOL    HW110718   6.561   6.969   2.266
 3273SOL    HW210719   6.483   0.002   2.398
 3274SOL     OW10720   3.691   1.656   6.215
 3274SOL    HW110721   3.611   1.709   6.244
 3274SOL    HW210722   3.766   1.671   6.279
 3275SOL     OW10723   3.032   1.082   0.027
 3275SOL    HW110724   2.955   1.119   0.079
 3275SOL    HW210725   3.010   1.083   6.953
 3276SOL     OW10726   3.175   6.383   0.226
 3276SOL    HW110727   3.120   6.350   0.303
 3276SOL    HW210728   3.118   6.387   0.144
 3277SOL     OW10729   0.042   6.593   5.337
 3277SOL    HW110730   0.053   6.647   5.253
 3277SOL    HW210731   0.004   6.503   5.314
 3278SOL     OW10732   1.195   0.828   0.027
 3278SOL    HW110733   1.239   0.911   0.061
 3278SOL    HW210734   1.174   0.839   6.953
 3279SOL     OW10735   2.019   0.033   0.767
 3279SOL    HW110736   1.959   6.990   0.812
 3279SOL    HW210737   2.111   0.025   0.805
 3280SOL     OW10738   1.601   5.148   6.131
 3280SOL    HW110739   1.687   5.172   6.088
 3280SOL    HW210740   1.619   5.114   6.223
 3281SOL     OW10741   3.151   5.983   0.011
 3281SOL    HW110742   3.215   6.026   0.075
 3281SOL    HW210743   3.062   6.028   0.018
 3282SOL     OW10744   1.832   5.494   2.735
 3282SOL    HW110745   1.773   5.563   2.694
 3282SOL    HW210746   1.927   5.512   2.711
 3283SOL     OW10747   2.146   0.339   3.724
 3283SOL    HW110748   2.079   0.387   3.668
 3283SOL    HW210749   2.149   0.242   3.697
 3284SOL     OW10750   0.295   3.616   6.905
 3284SOL    HW110751   0.226   3.572   6.962
 3284SOL    HW210752   0.359   3.547   6.871
 3285SOL     OW10753   6.817   2.335   3.985
 3285SOL    HW110754   6.719   2.323   3.999
 3285SOL    HW210755   6.867   2.282   4.054
 3286SOL     OW10756   3.760   4.566   5.378
 3286SOL    HW110757   3.747   4.529   5.470
 3286SOL    HW210758   3.706   4.511   5.313
 3287SOL     OW10759   1.190   5.350   1.100
 3287SOL    HW110760   1.134   5.268   1.092
 3287SOL    HW210761   1.242   5.363   1.015
 3288SOL     OW10762   0.949   6.408   0.183
 3288SOL    HW110763   0.855   6.393   0.152
 3288SOL    HW210764   1.005   6.438   0.106
 3289SOL     OW10765   1.489   5.521   4.129
 3289SOL    HW110766   1.454   5.498   4.219
 3289SOL    HW210767   1.420   5.574   4.079
 3290SOL     OW10768   6.768   5.161   1.684
 3290SOL    HW110769   6.814   5.250   1.680
 3290SOL    HW210770   6.707   5.159   1.763
 3291SOL     OW10771   2.225   6.949   1.043
 3291SOL    HW110772   2.255   6.865   1.088
 3291SOL    HW210773   2.304   6.996   1.004
 3292SOL     OW10774   0.774   6.074   6.005
 3292SOL    HW110775   0.850   6.050   5.944
 3292SOL    HW210776   0.712   6.137   5.959
 3293SOL     OW10777   6.922   0.751   2.968
 3293SOL    HW110778   6.990   0.684   2.998
 3293SOL    HW210779   6.863   0.709   2.899
 3294SOL     OW10780   0.232   6.959   0.144
 3294SOL    HW110781   0.195   6.891   0.081
 3294SOL    HW210782   0.202   0.027   0.116
 3295SOL     OW10783   1.183   2.737   6.493
 3295SOL    HW110784   1.150   2.674   6.422
 3295SOL    HW210785   1.232   2.685   6.563
 3296SOL     OW10786   0.573   6.538   2.513
 3296SOL    HW110787   0.580   6.473   2.437
 3296SOL    HW210788   0.655   6.595   2.516
 3297SOL     OW10789   3.072   2.479   5.942
 3297SOL    HW110790   3.161   2.504   5.981
 3297SOL    HW210791   3.073   2.493   5.843
 3298SOL     OW10792   6.021   3.116   3.416
 3298SOL    HW110793   6.079   3.113   3.334
 3298SOL    HW210794   5.961   3.036   3.417
 3299SOL     OW10795   1.814   0.022   4.928
 3299SOL    HW110796   1.752   0.065   4.863
 3299SOL    HW210797   1.875   6.983   4.880
 3300SOL     OW10798   6.357   6.979   4.572
 3300SOL    HW110799   6.429   6.936   4.519
 3300SOL    HW210800   6.318   6.912   4.636
 3301SOL     OW10801   0.528   3.750   2.885
 3301SOL    HW110802   0.471   3.673   2.856
 3301SOL    HW210803   0.606   3.759   2.823
 3302SOL     OW10804   0.814   4.806   3.905
 3302SOL    HW110805   0.785   4.712   3.891
 3302SOL    HW210806   0.824   4.851   3.816
 3303SOL     OW10807   3.478   3.684   3.084
 3303SOL    HW110808   3.512   3.771   3.121
 3303SOL    HW210809   3.529   3.661   3.001
 3304SOL     OW10810   0.980   6.626   4.623
 3304SOL    HW110811   0.941   6.547   4.576
 3304SOL    HW210812   0.972   6.613   4.722
 3305SOL     OW10813   1.516   1.028   1.964
 3305SOL    HW110814   1.510   1.069   1.873
 3305SOL    HW210815   1.609   1.042   2.000
 3306SOL     OW10816   1.131   3.633   2.655
 3306SOL    HW110817   1.119   3.613   2.557
 3306SOL    HW210818   1.178   3.720   2.666
 3307SOL     OW10819   0.417   5.808   0.485
 3307SOL    HW110820   0.480   5.792   0.408
 3307SOL    HW210821   0.366   5.723   0.503
 3308SOL     OW10822   4.404   5.867   0.572
 3308SOL    HW110823   4.314   5.908   0.584
 3308SOL    HW210824   4.453   5.867   0.659
 3309SOL     OW10825   0.591   5.327   2.960
 3309SOL    HW110826   0.623   5.289   2.873
 3309SOL    HW210827   0.586   5.427   2.953
 3310SOL     OW10828   1.595   6.412   1.487
 3310SOL    HW110829   1.645   6.429   1.572
 3310SOL    HW210830   1.650   6.444   1.410
 3311SOL     OW10831   3.786   6.355   0.616
 3311SOL    HW110832   3.802   6.348   0.714
 3311SOL    HW210833   3.764   6.264   0.579
 3312SOL     OW10834   2.393   4.000   0.037
 3312SOL    HW110835   2.339   3.917   0.023
 3312SOL    HW210836   2.377   4.034   0.130
 3313SOL     OW10837   6.826   5.224   4.065
 3313SOL    HW110838   6.925   5.218   4.080
 3313SOL    HW210839   6.798   5.153   4.000
 3314SOL     OW10840   0.820   3.121   5.994
 3314SOL    HW110841   0.739   3.063   6.002
 3314SOL    HW210842   0.792   3.214   5.970
 3315SOL     OW10843   0.261   2.586   2.508
 3315SOL    HW110844   0.171   2.552   2.480
 3315SOL    HW210845   0.266   2.588   2.608
 3316SOL     OW10846   4.550   0.619   0.746
 3316SOL    HW110847   4.484   0.544   0.732
 3316SOL    HW210848   4.501   0.700   0.778
 3317SOL     OW10849   4.341   2.564   1.544
 3317SOL    HW110850   4.410   2.583   1.474
 3317SOL    HW210851   4.361   2.476   1.586
 3318SOL     OW10852   2.727   5.444   4.828
 3318SOL    HW110853   2.709   5.451   4.730
 3318SOL    HW210854   2.780   5.523   4.857
 3319SOL     OW10855   0.603   5.233   5.315
 3319SOL    HW110856   0.589   5.288   5.233
 3319SOL    HW210857   0.698   5.242   5.346
 3320SOL     OW10858   6.991   1.018   6.292
 3320SOL    HW110859   6.940   1.003   6.378
 3320SOL    HW210860   0.028   0.940   6.276
 3321SOL     OW10861   3.294   4.096   3.801
 3321SOL    HW110862   3.235   4.058   3.872
 3321SOL    HW210863   3.377   4.133   3.843
 3322SOL     OW10864   4.390   2.059   1.374
 3322SOL    HW110865   4.427   2.151   1.362
 3322SOL    HW210866   4.310   2.047   1.315
 3323SOL     OW10867   2.300   5.341   0.169
 3323SOL    HW110868   2.374   5.275   0.186
 3323SOL    HW210869   2.270   5.379   0.257
 3324SOL     OW10870   0.867   2.384   0.457
 3324SOL    HW110871   0.815   2.423   0.381
 3324SOL    HW210872   0.876   2.452   0.530
 3325SOL     OW10873   2.169   3.296   0.528
 3325SOL    HW110874   2.114   3.379   0.519
 3325SOL    HW210875   2.113   3.223   0.567
 3326SOL     OW10876   6.442   0.797   1.775
 3326SOL    HW110877   6.388   0.714   1.764
 3326SOL    HW210878   6.502   0.788   1.854
 3327SOL     OW10879   3.244   6.773   1.770
 3327SOL    HW110880   3.207   6.719   1.846
 3327SOL    HW210881   3.330   6.815   1.797
 3328SOL     OW10882   4.348   0.946   2.676
 3328SOL    HW110883   4.362   0.856   2.717
 3328SOL    HW210884   4.432   1.000   2.684
 3329SOL     OW10885   4.994   0.678   5.031
 3329SOL    HW110886   4.907   0.630   5.042
 3329SOL    HW210887   5.005   0.745   5.105
 3330SOL     OW10888   6.869   5.635   2.534
 3330SOL    HW110889   6.942   5.591   2.482
 3330SOL    HW210890   6.900   5.724   2.567
 3331SOL     OW10891   2.124   3.351   2.631
 3331SOL    HW110892   2.055   3.407   2.585
 3331SOL    HW210893   2.152   3.277   2.571
 3332SOL     OW10894   3.440   4.985   1.276
 3332SOL    HW110895   3.400   4.975   1.184
 3332SOL    HW210896   3.367   4.997   1.343
 3333SOL     OW10897   2.464   3.066   1.620
 3333SOL    HW110898   2.519   3.007   1.562
 3333SOL    HW210899   2.524   3.132   1.666
 3334SOL     OW10900   2.151   2.278   2.141
 3334SOL    HW110901   2.146   2.181   2.166
 3334SOL    HW210902   2.099   2.294   2.058
 3335SOL     OW10903   3.734   4.408   5.615
 3335SOL    HW110904   3.675   4.442   5.688
 3335SOL    HW210905   3.812   4.360   5.655
 3336SOL     OW10906   5.008   5.374   4.439
 3336SOL    HW110907   5.026   5.429   4.521
 3336SOL    HW210908   5.093   5.331   4.408
 3337SOL     OW10909   3.223   3.289   3.190
 3337SOL    HW110910   3.171   3.373   3.209
 3337SOL    HW210911   3.308   3.290   3.243
 3338SOL     OW10912   2.722   2.699   1.715
 3338SOL    HW110913   2.626   2.714   1.694
 3338SOL    HW210914   2.750   2.608   1.683
 3339SOL     OW10915   1.975   0.099   6.049
 3339SOL    HW110916   1.927   0.164   6.107
 3339SOL    HW210917   1.928   0.092   5.961
 3340SOL     OW10918   3.938   0.777   3.806
 3340SOL    HW110919   3.916   0.680   3.803
 3340SOL    HW210920   3.924   0.812   3.899
 3341SOL     OW10921   1.425   3.662   3.013
 3341SOL    HW110922   1.382   3.740   3.059
 3341SOL    HW210923   1.456   3.596   3.081
 3342SOL     OW10924   0.196   0.872   2.454
 3342SOL    HW110925   0.182   0.773   2.442
 3342SOL    HW210926   0.140   0.904   2.531
 3343SOL     OW10927   4.613   5.139   6.743
 3343SOL    HW110928   4.554   5.096   6.675
 3343SOL    HW210929   4.581   5.114   6.835
 3344SOL     OW10930   0.667   3.338   2.052
 3344SOL    HW110931   0.736   3.290   1.998
 3344SOL    HW210932   0.707   3.371   2.137
 3345SOL     OW10933   6.372   5.426   6.797
 3345SOL    HW110934   6.451   5.453   6.741
 3345SOL    HW210935   6.316   5.361   6.746
 3346SOL     OW10936   1.581   0.822   0.261
 3346SOL    HW110937   1.525   0.816   0.344
 3346SOL    HW210938   1.612   0.916   0.248
 3347SOL     OW10939   0.405   3.981   5.821
 3347SOL    HW110940   0.318   4.002   5.778
 3347SOL    HW210941   0.429   3.885   5.803
 3348SOL     OW10942   3.149   3.821   6.246
 3348SOL    HW110943   3.064   3.845   6.198
 3348SOL    HW210944   3.223   3.880   6.214
 3349SOL     OW10945   1.858   5.007   3.632
 3349SOL    HW110946   1.771   5.019   3.680
 3349SOL    HW210947   1.841   5.000   3.534
 3350SOL     OW10948   1.757   4.252   4.518
 3350SOL    HW110949   1.718   4.272   4.429
 3350SOL    HW210950   1.785   4.337   4.563
 3351SOL     OW10951   5.209   0.956   1.739
 3351SOL    HW110952   5.252   0.915   1.820
 3351SOL    HW210953   5.189   1.052   1.757
 3352SOL     OW10954   6.217   0.979   6.946
 3352SOL    HW110955   6.200   0.901   6.885
 3352SOL    HW210956   6.207   0.949   0.018
 3353SOL     OW10957   3.652   0.285   1.260
 3353SOL    HW110958   3.567   0.257   1.306
 3353SOL    HW210959   3.641   0.377   1.223
 3354SOL     OW10960   3.061   4.418   6.169
 3354SOL    HW110961   2.968   4.390   6.191
 3354SOL    HW210962   3.122   4.338   6.176
 3355SOL     OW10963   1.633   0.606   4.914
 3355SOL    HW110964   1.626   0.706   4.918
 3355SOL    HW210965   1.556   0.565   4.963
 3356SOL     OW10966   1.556   0.868   6.326
 3356SOL    HW110967   1.541   0.811   6.406
 3356SOL    HW210968   1.653   0.895   6.321
 3357SOL     OW10969   3.099   3.098   1.819
 3357SOL    HW110970   3.182   3.140   1.857
 3357SOL    HW210971   3.112   3.000   1.811
 3358SOL     OW10972   6.795   0.636   1.583
 3358SOL    HW110973   6.806   0.732   1.556
 3358SOL    HW210974   6.871   0.609   1.642
 3359SOL     OW10975   0.389   6.710   4.692
 3359SOL    HW110976   0.325   6.636   4.669
 3359SOL    HW210977   0.471   6.672   4.734
 3360SOL     OW10978   1.301   3.658   4.548
 3360SOL    HW110979   1.382   3.599   4.558
 3360SOL    HW210980   1.234   3.614   4.489
 3361SOL     OW10981   6.322   6.779   4.782
 3361SOL    HW110982   6.401   6.720   4.767
 3361SOL    HW210983   6.251   6.729   4.832
 3362SOL     OW10984   3.869   0.214   3.759
 3362SOL    HW110985   3.771   0.233   3.755
 3362SOL    HW210986   3.891   0.141   3.694
 3363SOL     OW10987   5.803   3.994   0.024
 3363SOL    HW110988   5.860   3.989   6.965
 3363SOL    HW210989   5.708   3.976   0.000
 3364SOL     OW10990   1.800   3.363   3.467
 3364SOL    HW110991   1.774   3.302   3.392
 3364SOL    HW210992   1.897   3.385   3.460
 3365SOL     OW10993   1.921   4.163   3.366
 3365SOL    HW110994   1.862   4.221   3.422
 3365SOL    HW210995   1.962   4.217   3.293
 3366SOL     OW10996   6.094   3.819   4.485
 3366SOL    HW110997   6.090   3.814   4.585
 3366SOL    HW210998   6.035   3.893   4.453
 3367SOL     OW10999   3.994   3.827   3.685
 3367SOL    HW111000   4.024   3.755   3.622
 3367SOL    HW211001   4.051   3.908   3.674
 3368SOL     OW11002   1.847   0.687   1.770
 3368SOL    HW111003   1.900   0.605   1.745
 3368SOL    HW211004   1.908   0.766   1.774
 3369SOL     OW11005   4.802   1.923   1.195
 3369SOL    HW111006   4.734   1.996   1.192
 3369SOL    HW211007   4.812   1.884   1.103
 3370SOL     OW11008   0.516   5.566   2.586
 3370SOL    HW111009   0.613   5.545   2.576
 3370SOL    HW211010   0.474   5.503   2.651
 3371SOL     OW11011   2.247   2.980   2.279
 3371SOL    HW111012   2.256   2.890   2.322
 3371SOL    HW211013   2.247   2.969   2.180
 3372SOL     OW11014   6.308   3.683   2.585
 3372SOL    HW111015   6.380   3.752   2.587
 3372SOL    HW211016   6.268   3.673   2.676
 3373SOL     OW11017   6.609   3.040   1.637
 3373SOL    HW111018   6.521   2.999   1.659
 3373SOL    HW211019   6.644   3.088   1.717
 3374SOL     OW11020   0.868   6.372   4.532
 3374SOL    HW111021   0.908   6.287   4.500
 3374SOL    HW211022   0.796   6.351   4.599
 3375SOL     OW11023   0.127   5.646   5.909
 3375SOL    HW111024   0.206   5.606   5.955
 3375SOL    HW211025   0.115   5.601   5.820
 3376SOL     OW11026   3.263   3.414   4.255
 3376SOL    HW111027   3.284   3.320   4.284
 3376SOL    HW211028   3.326   3.478   4.299
 3377SOL     OW11029   6.648   4.836   3.721
 3377SOL    HW111030   6.562   4.797   3.686
 3377SOL    HW211031   6.651   4.933   3.700
 3378SOL     OW11032   1.050   6.194   0.278
 3378SOL    HW111033   0.995   6.271   0.248
 3378SOL    HW211034   1.000   6.141   0.347
 3379SOL     OW11035   6.618   3.720   3.366
 3379SOL    HW111036   6.568   3.764   3.440
 3379SOL    HW211037   6.597   3.766   3.279
 3380SOL     OW11038   2.541   4.812   0.521
 3380SOL    HW111039   2.446   4.844   0.522
 3380SOL    HW211040   2.603   4.890   0.517
 3381SOL     OW11041   1.712   3.576   6.219
 3381SOL    HW111042   1.635   3.594   6.280
 3381SOL    HW211043   1.740   3.480   6.227
 3382SOL     OW11044   6.646   3.606   0.905
 3382SOL    HW111045   6.612   3.576   0.994
 3382SOL    HW211046   6.740   3.640   0.916
 3383SOL     OW11047   4.356   5.248   0.220
 3383SOL    HW111048   4.409   5.326   0.186
 3383SOL    HW211049   4.262   5.255   0.186
 3384SOL     OW11050   3.391   4.459   6.251
 3384SOL    HW111051   3.383   4.414   6.339
 3384SOL    HW211052   3.349   4.550   6.256
 3385SOL     OW11053   0.147   2.159   4.110
 3385SOL    HW111054   0.176   2.220   4.037
 3385SOL    HW211055   0.125   2.212   4.192
 3386SOL     OW11056   0.538   4.696   5.139
 3386SOL    HW111057   0.637   4.707   5.140
 3386SOL    HW211058   0.503   4.696   5.233
 3387SOL     OW11059   6.509   1.364   2.992
 3387SOL    HW111060   6.589   1.314   3.026
 3387SOL    HW211061   6.464   1.311   2.921
 3388SOL     OW11062   6.509   3.848   1.199
 3388SOL    HW111063   6.509   3.897   1.111
 3388SOL    HW211064   6.426   3.871   1.250
 3389SOL     OW11065   5.524   6.101   0.166
 3389SOL    HW111066   5.622   6.082   0.168
 3389SOL    HW211067   5.508   6.198   0.181
 3390SOL     OW11068   3.070   5.970   6.239
 3390SOL    HW111069   3.075   5.982   6.338
 3390SOL    HW211070   3.028   6.051   6.198
 3391SOL     OW11071   5.690   3.719   3.891
 3391SOL    HW111072   5.654   3.721   3.984
 3391SOL    HW211073   5.738   3.805   3.871
 3392SOL     OW11074   5.136   0.412   5.983
 3392SOL    HW111075   5.039   0.426   5.962
 3392SOL    HW211076   5.185   0.387   5.899
 3393SOL     OW11077   4.612   6.209   0.565
 3393SOL    HW111078   4.711   6.221   0.551
 3393SOL    HW211079   4.597   6.136   0.631
 3394SOL     OW11080   2.403   5.413   1.045
 3394SOL    HW111081   2.365   5.431   1.136
 3394SOL    HW211082   2.329   5.393   0.981
 3395SOL     OW11083   2.158   0.097   3.604
 3395SOL    HW111084   2.110   0.124   3.520
 3395SOL    HW211085   2.168   7.021   3.605
 3396SOL     OW11086   4.621   1.008   4.398
 3396SOL    HW111087   4.540   0.965   4.358
 3396SOL    HW211088   4.701   0.949   4.385
 3397SOL     OW11089   2.412   5.843   6.827
 3397SOL    HW111090   2.424   5.903   6.747
 3397SOL    HW211091   2.369   5.758   6.798
 3398SOL     OW11092   6.452   2.556   4.879
 3398SOL    HW111093   6.445   2.484   4.947
 3398SOL    HW211094   6.532   2.540   4.821
 3399SOL     OW11095   6.669   5.864   1.681
 3399SOL    HW111096   6.603   5.923   1.633
 3399SOL    HW211097   6.761   5.900   1.669
 3400SOL     OW11098   4.612   3.084   5.969
 3400SOL    HW111099   4.600   3.113   6.064
 3400SOL    HW211100   4.646   2.990   5.967
 3401SOL     OW11101   5.836   4.021   5.987
 3401SOL    HW111102   5.935   4.016   5.979
 3401SOL    HW211103   5.796   3.931   5.971
 3402SOL     OW11104   6.464   3.156   0.930
 3402SOL    HW111105   6.474   3.059   0.908
 3402SOL    HW211106   6.396   3.168   1.002
 3403SOL     OW11107   5.650   6.819   6.705
 3403SOL    HW111108   5.555   6.845   6.690
 3403SOL    HW211109   5.687   6.778   6.621
 3404SOL     OW11110   5.024   4.362   4.797
 3404SOL    HW111111   5.024   4.361   4.697
 3404SOL    HW211112   4.990   4.451   4.829
 3405SOL     OW11113   4.923   6.477   0.162
 3405SOL    HW111114   5.015   6.469   0.124
 3405SOL    HW211115   4.919   6.428   0.249
 3406SOL     OW11116   2.739   5.587   1.924
 3406SOL    HW111117   2.728   5.518   1.996
 3406SOL    HW211118   2.679   5.665   1.943
 3407SOL     OW11119   0.786   4.145   6.809
 3407SOL    HW111120   0.813   4.093   6.727
 3407SOL    HW211121   0.860   4.208   6.834
 3408SOL     OW11122   4.909   0.590   3.644
 3408SOL    HW111123   5.005   0.562   3.651
 3408SOL    HW211124   4.873   0.609   3.735
 3409SOL     OW11125   4.329   0.776   1.078
 3409SOL    HW111126   4.300   0.862   1.120
 3409SOL    HW211127   4.369   0.794   0.988
 3410SOL     OW11128   6.238   0.444   3.213
 3410SOL    HW111129   6.233   0.544   3.205
 3410SOL    HW211130   6.308   0.420   3.281
 3411SOL     OW11131   6.042   3.138   6.273
 3411SOL    HW111132   5.973   3.112   6.341
 3411SOL    HW211133   6.058   3.237   6.277
 3412SOL     OW11134   5.357   3.180   1.906
 3412SOL    HW111135   5.304   3.116   1.851
 3412SOL    HW211136   5.362   3.146   2.001
 3413SOL     OW11137   0.030   1.239   0.181
 3413SOL    HW111138   6.976   1.185   0.215
 3413SOL    HW211139   0.096   1.253   0.254
 3414SOL     OW11140   2.960   4.235   1.028
 3414SOL    HW111141   2.892   4.216   0.957
 3414SOL    HW211142   3.047   4.195   1.002
 3415SOL     OW11143   1.854   1.144   6.112
 3415SOL    HW111144   1.928   1.209   6.123
 3415SOL    HW211145   1.877   1.078   6.041
 3416SOL     OW11146   6.236   6.881   6.716
 3416SOL    HW111147   6.274   6.857   6.806
 3416SOL    HW211148   6.233   6.981   6.708
 3417SOL     OW11149   5.498   6.333   3.305
 3417SOL    HW111150   5.559   6.378   3.370
 3417SOL    HW211151   5.407   6.374   3.312
 3418SOL     OW11152   4.034   5.640   0.876
 3418SOL    HW111153   4.081   5.705   0.935
 3418SOL    HW211154   4.082   5.634   0.788
 3419SOL     OW11155   2.778   5.210   5.467
 3419SOL    HW111156   2.711   5.145   5.504
 3419SOL    HW211157   2.862   5.161   5.445
 3420SOL     OW11158   4.595   1.792   2.512
 3420SOL    HW111159   4.640   1.877   2.488
 3420SOL    HW211160   4.661   1.730   2.556
 3421SOL     OW11161   0.563   2.382   4.815
 3421SOL    HW111162   0.562   2.282   4.811
 3421SOL    HW211163   0.581   2.419   4.724
 3422SOL     OW11164   2.358   6.253   1.021
 3422SOL    HW111165   2.377   6.351   1.011
 3422SOL    HW211166   2.443   6.204   1.040
 3423SOL     OW11167   1.500   4.715   5.353
 3423SOL    HW111168   1.494   4.784   5.424
 3423SOL    HW211169   1.409   4.679   5.332
 3424SOL     OW11170   4.664   1.342   2.087
 3424SOL    HW111171   4.632   1.413   2.023
 3424SOL    HW211172   4.654   1.375   2.181
 3425SOL     OW11173   6.017   3.416   6.321
 3425SOL    HW111174   5.918   3.424   6.313
 3425SOL    HW211175   6.054   3.502   6.358
 3426SOL     OW11176   6.137   3.054   6.044
 3426SOL    HW111177   6.089   3.088   6.125
 3426SOL    HW211178   6.199   3.124   6.010
 3427SOL     OW11179   0.859   2.139   0.547
 3427SOL    HW111180   0.773   2.107   0.586
 3427SOL    HW211181   0.852   2.237   0.527
 3428SOL     OW11182   4.563   6.228   4.982
 3428SOL    HW111183   4.641   6.236   5.045
 3428SOL    HW211184   4.544   6.317   4.941
 3429SOL     OW11185   5.433   6.976   1.175
 3429SOL    HW111186   5.344   6.940   1.147
 3429SOL    HW211187   5.498   6.901   1.182
 3430SOL     OW11188   2.280   4.598   5.382
 3430SOL    HW111189   2.298   4.501   5.366
 3430SOL    HW211190   2.223   4.609   5.463
 3431SOL     OW11191   0.839   4.824   2.744
 3431SOL    HW111192   0.924   4.785   2.710
 3431SOL    HW211193   0.771   4.826   2.671
 3432SOL     OW11194   0.807   4.444   0.031
 3432SOL    HW111195   0.746   4.482   6.985
 3432SOL    HW211196   0.854   4.364   7.016
 3433SOL     OW11197   2.767   1.361   6.768
 3433SOL    HW111198   2.691   1.310   6.728
 3433SOL    HW211199   2.827   1.393   6.695
 3434SOL     OW11200   3.614   2.645   1.795
 3434SOL    HW111201   3.534   2.627   1.739
 3434SOL    HW211202   3.641   2.561   1.842
 3435SOL     OW11203   1.954   1.398   1.137
 3435SOL    HW111204   1.939   1.457   1.058
 3435SOL    HW211205   1.993   1.311   1.106
 3436SOL     OW11206   3.520   6.752   6.169
 3436SOL    HW111207   3.503   6.681   6.101
 3436SOL    HW211208   3.591   6.814   6.136
 3437SOL     OW11209   1.415   0.112   6.387
 3437SOL    HW111210   1.420   0.046   6.311
 3437SOL    HW211211   1.438   0.203   6.353
 3438SOL     OW11212   1.712   3.660   1.026
 3438SOL    HW111213   1.745   3.668   0.932
 3438SOL    HW211214   1.776   3.604   1.079
 3439SOL     OW11215   2.467   5.431   1.443
 3439SOL    HW111216   2.381   5.422   1.492
 3439SOL    HW211217   2.457   5.499   1.370
 3440SOL     OW11218   3.845   4.115   5.061
 3440SOL    HW111219   3.804   4.077   5.144
 3440SOL    HW211220   3.855   4.214   5.070
 3441SOL     OW11221   5.860   4.906   6.070
 3441SOL    HW111222   5.772   4.949   6.054
 3441SOL    HW211223   5.874   4.831   6.005
 3442SOL     OW11224   2.745   3.576   1.307
 3442SOL    HW111225   2.687   3.497   1.288
 3442SOL    HW211226   2.705   3.630   1.381
 3443SOL     OW11227   0.394   5.971   2.231
 3443SOL    HW111228   0.433   5.957   2.322
 3443SOL    HW211229   0.460   6.018   2.173
 3444SOL     OW11230   6.043   4.099   6.285
 3444SOL    HW111231   5.948   4.108   6.315
 3444SOL    HW211232   6.067   4.179   6.230
 3445SOL     OW11233   6.256   4.577   3.791
 3445SOL    HW111234   6.158   4.585   3.812
 3445SOL    HW211235   6.282   4.648   3.726
 3446SOL     OW11236   4.509   0.924   1.630
 3446SOL    HW111237   4.428   0.871   1.654
 3446SOL    HW211238   4.492   0.976   1.546
 3447SOL     OW11239   4.942   1.083   6.208
 3447SOL    HW111240   5.005   1.157   6.232
 3447SOL    HW211241   4.972   1.041   6.122
 3448SOL     OW11242   1.873   4.845   5.030
 3448SOL    HW111243   1.925   4.807   5.107
 3448SOL    HW211244   1.776   4.827   5.043
 3449SOL     OW11245   6.911   4.734   5.548
 3449SOL    HW111246   6.860   4.747   5.463
 3449SOL    HW211247   7.008   4.751   5.531
 3450SOL     OW11248   2.344   6.020   1.926
 3450SOL    HW111249   2.318   5.975   2.012
 3450SOL    HW211250   2.337   5.954   1.851
 3451SOL     OW11251   2.287   1.535   1.475
 3451SOL    HW111252   2.236   1.621   1.473
 3451SOL    HW211253   2.268   1.488   1.561
 3452SOL     OW11254   4.448   1.169   4.657
 3452SOL    HW111255   4.544   1.194   4.673
 3452SOL    HW211256   4.431   1.166   4.559
 3453SOL     OW11257   4.080   6.620   6.495
 3453SOL    HW111258   4.110   6.714   6.510
 3453SOL    HW211259   4.081   6.600   6.397
 3454SOL     OW11260   6.890   2.673   1.176
 3454SOL    HW111261   6.904   2.589   1.228
 3454SOL    HW211262   6.955   2.677   1.101
 3455SOL     OW11263   0.490   3.107   5.633
 3455SOL    HW111264   0.496   3.017   5.590
 3455SOL    HW211265   0.445   3.171   5.570
 3456SOL     OW11266   5.257   5.428   3.572
 3456SOL    HW111267   5.268   5.527   3.572
 3456SOL    HW211268   5.345   5.385   3.551
 3457SOL     OW11269   2.940   4.658   6.303
 3457SOL    HW111270   2.936   4.593   6.226
 3457SOL    HW211271   2.984   4.614   6.381
 3458SOL     OW11272   4.443   1.149   2.165
 3458SOL    HW111273   4.460   1.052   2.146
 3458SOL    HW211274   4.526   1.190   2.203
 3459SOL     OW11275   5.007   6.357   2.556
 3459SOL    HW111276   4.941   6.427   2.529
 3459SOL    HW211277   5.070   6.395   2.624
 3460SOL     OW11278   3.757   1.845   5.082
 3460SOL    HW111279   3.799   1.909   5.017
 3460SOL    HW211280   3.659   1.861   5.086
 3461SOL     OW11281   5.904   4.851   4.734
 3461SOL    HW111282   5.934   4.907   4.812
 3461SOL    HW211283   5.827   4.794   4.762
 3462SOL     OW11284   1.111   3.475   6.237
 3462SOL    HW111285   1.208   3.473   6.212
 3462SOL    HW211286   1.072   3.564   6.211
 3463SOL     OW11287   5.218   3.959   0.326
 3463SOL    HW111288   5.219   4.034   0.260
 3463SOL    HW211289   5.221   3.996   0.419
 3464SOL     OW11290   0.469   4.658   4.872
 3464SOL    HW111291   0.452   4.559   4.866
 3464SOL    HW211292   0.509   4.680   4.961
 3465SOL     OW11293   0.929   1.453   2.385
 3465SOL    HW111294   0.955   1.368   2.340
 3465SOL    HW211295   0.997   1.476   2.455
 3466SOL     OW11296   6.375   3.737   5.549
 3466SOL    HW111297   6.421   3.761   5.463
 3466SOL    HW211298   6.408   3.648   5.581
 3467SOL     OW11299   2.102   2.992   6.587
 3467SOL    HW111300   2.021   2.949   6.626
 3467SOL    HW211301   2.087   3.009   6.490
 3468SOL     OW11302   4.202   6.963   2.986
 3468SOL    HW111303   4.240   6.888   2.932
 3468SOL    HW211304   4.257   0.023   2.972
 3469SOL     OW11305   4.882   3.639   2.460
 3469SOL    HW111306   4.906   3.557   2.512
 3469SOL    HW211307   4.894   3.622   2.363
 3470SOL     OW11308   6.926   5.554   1.123
 3470SOL    HW111309   7.009   5.518   1.167
 3470SOL    HW211310   6.857   5.571   1.193
 3471SOL     OW11311   4.261   0.407   4.446
 3471SOL    HW111312   4.212   0.347   4.509
 3471SOL    HW211313   4.333   0.355   4.400
 3472SOL     OW11314   3.847   1.184   5.024
 3472SOL    HW111315   3.846   1.136   5.112
 3472SOL    HW211316   3.924   1.153   4.969
 3473SOL     OW11317   4.869   0.385   4.563
 3473SOL    HW111318   4.949   0.359   4.618
 3473SOL    HW211319   4.807   0.307   4.557
 3474SOL     OW11320   5.286   4.093   0.569
 3474SOL    HW111321   5.376   4.101   0.611
 3474SOL    HW211322   5.267   4.174   0.514
 3475SOL     OW11323   1.937   6.302   4.797
 3475SOL    HW111324   1.921   6.327   4.701
 3475SOL    HW211325   1.879   6.358   4.857
 3476SOL     OW11326   4.694   1.646   4.321
 3476SOL    HW111327   4.685   1.637   4.420
 3476SOL    HW211328   4.627   1.713   4.287
 3477SOL     OW11329   4.349   5.109   2.127
 3477SOL    HW111330   4.343   5.203   2.094
 3477SOL    HW211331   4.317   5.104   2.221
 3478SOL     OW11332   4.175   4.735   6.862
 3478SOL    HW111333   4.272   4.761   6.865
 3478SOL    HW211334   4.141   4.725   6.955
 3479SOL     OW11335   0.886   0.091   1.727
 3479SOL    HW111336   0.913   0.187   1.727
 3479SOL    HW211337   0.965   0.034   1.707
 3480SOL     OW11338   1.577   0.862   4.250
 3480SOL    HW111339   1.614   0.935   4.308
 3480SOL    HW211340   1.601   0.773   4.288
 3481SOL     OW11341   2.515   0.040   6.451
 3481SOL    HW111342   2.443   0.064   6.386
 3481SOL    HW211343   2.594   0.003   6.402
 3482SOL     OW11344   1.102   1.594   1.390
 3482SOL    HW111345   1.040   1.575   1.313
 3482SOL    HW211346   1.109   1.514   1.448
 3483SOL     OW11347   3.780   1.503   0.584
 3483SOL    HW111348   3.811   1.516   0.489
 3483SOL    HW211349   3.718   1.576   0.609
 3484SOL     OW11350   3.013   3.640   3.810
 3484SOL    HW111351   3.000   3.546   3.779
 3484SOL    HW211352   3.103   3.673   3.781
 3485SOL     OW11353   6.747   1.539   4.749
 3485SOL    HW111354   6.716   1.584   4.665
 3485SOL    HW211355   6.673   1.541   4.816
 3486SOL     OW11356   4.861   1.602   2.549
 3486SOL    HW111357   4.936   1.666   2.532
 3486SOL    HW211358   4.857   1.580   2.647
 3487SOL     OW11359   0.420   0.316   6.900
 3487SOL    HW111360   0.430   0.254   6.978
 3487SOL    HW211361   0.463   0.404   6.922
 3488SOL     OW11362   6.169   3.044   3.634
 3488SOL    HW111363   6.108   3.082   3.564
 3488SOL    HW211364   6.259   3.087   3.627
 3489SOL     OW11365   2.210   6.668   0.571
 3489SOL    HW111366   2.227   6.734   0.498
 3489SOL    HW211367   2.178   6.582   0.532
 3490SOL     OW11368   3.858   2.970   1.029
 3490SOL    HW111369   3.870   2.935   1.121
 3490SOL    HW211370   3.762   2.994   1.014
 3491SOL     OW11371   6.715   2.877   4.967
 3491SOL    HW111372   6.756   2.819   5.037
 3491SOL    HW211373   6.771   2.873   4.884
 3492SOL     OW11374   6.060   5.160   6.211
 3492SOL    HW111375   5.968   5.196   6.225
 3492SOL    HW211376   6.084   5.165   6.114
 3493SOL     OW11377   0.106   4.624   0.832
 3493SOL    HW111378   0.016   4.604   0.869
 3493SOL    HW211379   0.173   4.562   0.872
 3494SOL     OW11380   2.693   6.522   1.071
 3494SOL    HW111381   2.722   6.582   0.996
 3494SOL    HW211382   2.680   6.429   1.037
 3495SOL     OW11383   5.223   4.648   0.781
 3495SOL    HW111384   5.169   4.591   0.720
 3495SOL    HW211385   5.163   4.712   0.830
 3496SOL     OW11386   1.648   4.562   0.413
 3496SOL    HW111387   1.698   4.565   0.326
 3496SOL    HW211388   1.678   4.483   0.466
 3497SOL     OW11389   4.288   6.449   3.771
 3497SOL    HW111390   4.344   6.508   3.830
 3497SOL    HW211391   4.270   6.497   3.685
 3498SOL     OW11392   1.956   1.773   1.678
 3498SOL    HW111393   1.876   1.831   1.689
 3498SOL    HW211394   1.998   1.756   1.767
 3499SOL     OW11395   6.226   3.576   3.916
 3499SOL    HW111396   6.160   3.548   3.986
 3499SOL    HW211397   6.186   3.648   3.860
 3500SOL     OW11398   6.532   2.597   1.027
 3500SOL    HW111399   6.567   2.638   1.111
 3500SOL    HW211400   6.435   2.620   1.018
 3501SOL     OW11401   0.489   4.498   4.185
 3501SOL    HW111402   0.537   4.583   4.160
 3501SOL    HW211403   0.551   4.438   4.235
 3502SOL     OW11404   1.265   3.906   1.776
 3502SOL    HW111405   1.213   3.894   1.692
 3502SOL    HW211406   1.204   3.940   1.848
 3503SOL     OW11407   4.550   6.037   3.731
 3503SOL    HW111408   4.497   5.962   3.692
 3503SOL    HW211409   4.545   6.033   3.831
 3504SOL     OW11410   2.158   3.172   2.451
 3504SOL    HW111411   2.212   3.123   2.383
 3504SOL    HW211412   2.062   3.142   2.444
 3505SOL     OW11413   4.525   5.699   5.099
 3505SOL    HW111414   4.585   5.630   5.140
 3505SOL    HW211415   4.558   5.721   5.007
 3506SOL     OW11416   5.776   5.122   2.356
 3506SOL    HW111417   5.726   5.037   2.369
 3506SOL    HW211418   5.715   5.191   2.316
 3507SOL     OW11419   0.378   0.723   6.359
 3507SOL    HW111420   0.407   0.720   6.263
 3507SOL    HW211421   0.443   0.673   6.416
 3508SOL     OW11422   6.821   3.296   0.604
 3508SOL    HW111423   6.800   3.215   0.549
 3508SOL    HW211424   6.739   3.325   0.654
 3509SOL     OW11425   6.881   0.070   0.938
 3509SOL    HW111426   6.878   0.105   1.032
 3509SOL    HW211427   6.789   0.052   0.906
 3510SOL     OW11428   1.363   2.593   1.573
 3510SOL    HW111429   1.353   2.560   1.480
 3510SOL    HW211430   1.338   2.520   1.637
 3511SOL     OW11431   0.903   0.803   5.523
 3511SOL    HW111432   0.841   0.880   5.531
 3511SOL    HW211433   0.860   0.721   5.560
 3512SOL     OW11434   2.982   3.244   1.133
 3512SOL    HW111435   2.919   3.168   1.120
 3512SOL    HW211436   2.932   3.324   1.165
 3513SOL     OW11437   5.940   4.216   1.687
 3513SOL    HW111438   5.946   4.202   1.785
 3513SOL    HW211439   5.855   4.176   1.652
 3514SOL     OW11440   1.754   6.534   1.673
 3514SOL    HW111441   1.765   6.479   1.756
 3514SOL    HW211442   1.794   6.625   1.688
 3515SOL     OW11443   3.324   5.924   3.092
 3515SOL    HW111444   3.240   5.947   3.042
 3515SOL    HW211445   3.310   5.839   3.143
 3516SOL     OW11446   3.427   1.193   0.459
 3516SOL    HW111447   3.497   1.201   0.389
 3516SOL    HW211448   3.337   1.207   0.419
 3517SOL     OW11449   1.221   0.634   6.803
 3517SOL    HW111450   1.190   0.599   6.892
 3517SOL    HW211451   1.212   0.734   6.802
 3518SOL     OW11452   4.370   3.575   5.751
 3518SOL    HW111453   4.391   3.485   5.787
 3518SOL    HW211454   4.431   3.643   5.792
 3519SOL     OW11455   2.848   6.715   0.825
 3519SOL    HW111456   2.771   6.778   0.828
 3519SOL    HW211457   2.934   6.766   0.822
 3520SOL     OW11458   3.720   5.562   1.663
 3520SOL    HW111459   3.746   5.465   1.658
 3520SOL    HW211460   3.644   5.579   1.601
 3521SOL     OW11461   5.420   2.392   6.711
 3521SOL    HW111462   5.516   2.367   6.710
 3521SOL    HW211463   5.370   2.333   6.774
 3522SOL     OW11464   3.170   5.572   1.528
 3522SOL    HW111465   3.250   5.623   1.497
 3522SOL    HW211466   3.116   5.629   1.590
 3523SOL     OW11467   2.223   5.166   5.586
 3523SOL    HW111468   2.164   5.246   5.599
 3523SOL    HW211469   2.282   5.179   5.507
 3524SOL     OW11470   2.725   6.760   1.488
 3524SOL    HW111471   2.811   6.723   1.525
 3524SOL    HW211472   2.736   6.858   1.470
 3525SOL     OW11473   1.811   3.222   2.496
 3525SOL    HW111474   1.802   3.146   2.431
 3525SOL    HW211475   1.722   3.244   2.535
 3526SOL     OW11476   2.744   6.978   3.120
 3526SOL    HW111477   2.826   6.964   3.065
 3526SOL    HW211478   2.668   7.004   3.060
 3527SOL     OW11479   5.101   3.308   5.612
 3527SOL    HW111480   5.158   3.294   5.693
 3527SOL    HW211481   5.017   3.357   5.638
 3528SOL     OW11482   1.111   6.828   4.477
 3528SOL    HW111483   1.186   6.779   4.432
 3528SOL    HW211484   1.048   6.762   4.518
 3529SOL     OW11485   3.647   5.923   7.012
 3529SOL    HW111486   3.703   5.996   6.974
 3529SOL    HW211487   3.676   5.835   6.973
 3530SOL     OW11488   1.545   5.617   2.894
 3530SOL    HW111489   1.514   5.590   2.803
 3530SOL    HW211490   1.473   5.596   2.961
 3531SOL     OW11491   4.673   3.812   6.768
 3531SOL    HW111492   4.674   3.793   6.670
 3531SOL    HW211493   4.589   3.861   6.792
 3532SOL     OW11494   1.837   6.448   0.648
 3532SOL    HW111495   1.887   6.441   0.734
 3532SOL    HW211496   1.755   6.504   0.661
 3533SOL     OW11497   1.150   1.031   4.150
 3533SOL    HW111498   1.214   0.954   4.153
 3533SOL    HW211499   1.129   1.054   4.055
 3534SOL     OW11500   5.213   0.507   4.666
 3534SOL    HW111501   5.150   0.431   4.654
 3534SOL    HW211502   5.276   0.512   4.589
 3535SOL     OW11503   4.014   6.341   6.934
 3535SOL    HW111504   4.038   6.417   6.874
 3535SOL    HW211505   4.036   6.365   0.005
 3536SOL     OW11506   1.299   3.888   3.124
 3536SOL    HW111507   1.204   3.907   3.145
 3536SOL    HW211508   1.354   3.895   3.207
 3537SOL     OW11509   2.548   5.267   0.675
 3537SOL    HW111510   2.623   5.318   0.718
 3537SOL    HW211511   2.555   5.171   0.701
 3538SOL     OW11512   2.849   0.861   3.501
 3538SOL    HW111513   2.921   0.862   3.432
 3538SOL    HW211514   2.815   0.954   3.515
 3539SOL     OW11515   5.171   6.245   6.846
 3539SOL    HW111516   5.267   6.266   6.827
 3539SOL    HW211517   5.149   6.154   6.811
 3540SOL     OW11518   2.685   4.386   5.826
 3540SOL    HW111519   2.719   4.369   5.733
 3540SOL    HW211520   2.642   4.476   5.830
 3541SOL     OW11521   1.992   2.969   1.311
 3541SOL    HW111522   2.037   2.884   1.281
 3541SOL    HW211523   2.051   3.017   1.376
 3542SOL     OW11524   5.384   1.510   6.686
 3542SOL    HW111525   5.375   1.580   6.758
 3542SOL    HW211526   5.341   1.425   6.717
 3543SOL     OW11527   0.602   2.170   3.929
 3543SOL    HW111528   0.687   2.216   3.954
 3543SOL    HW211529   0.525   2.217   3.972
 3544SOL     OW11530   3.132   3.807   6.848
 3544SOL    HW111531   3.141   3.897   6.889
 3544SOL    HW211532   3.068   3.811   6.771
 3545SOL     OW11533   3.736   0.021   1.227
 3545SOL    HW111534   3.768   7.022   1.319
 3545SOL    HW211535   3.689   0.110   1.229
 3546SOL     OW11536   6.463   4.192   2.636
 3546SOL    HW111537   6.499   4.283   2.619
 3546SOL    HW211538   6.524   4.144   2.700
 3547SOL     OW11539   1.104   3.755   4.724
 3547SOL    HW111540   1.077   3.851   4.723
 3547SOL    HW211541   1.199   3.746   4.695
 3548SOL     OW11542   6.213   0.447   5.334
 3548SOL    HW111543   6.176   0.454   5.427
 3548SOL    HW211544   6.201   0.353   5.302
 3549SOL     OW11545   2.920   6.919   0.019
 3549SOL    HW111546   2.835   6.934   6.992
 3549SOL    HW211547   2.925   6.823   0.048
 3550SOL     OW11548   5.445   0.995   5.013
 3550SOL    HW111549   5.480   1.087   5.027
 3550SOL    HW211550   5.476   0.960   4.925
 3551SOL     OW11551   4.653   2.182   4.379
 3551SOL    HW111552   4.676   2.097   4.426
 3551SOL    HW211553   4.571   2.169   4.323
 3552SOL     OW11554   6.630   0.114   3.372
 3552SOL    HW111555   6.541   0.073   3.391
 3552SOL    HW211556   6.632   0.208   3.406
 3553SOL     OW11557   5.927   5.704   6.910
 3553SOL    HW111558   5.850   5.645   6.885
 3553SOL    HW211559   5.959   5.753   6.829
 3554SOL     OW11560   5.904   4.352   0.234
 3554SOL    HW111561   5.862   4.278   0.287
 3554SOL    HW211562   5.986   4.318   0.189
 3555SOL     OW11563   3.126   1.766   4.843
 3555SOL    HW111564   3.028   1.772   4.826
 3555SOL    HW211565   3.171   1.848   4.807
 3556SOL     OW11566   5.417   1.085   6.578
 3556SOL    HW111567   5.347   1.017   6.557
 3556SOL    HW211568   5.444   1.132   6.494
 3557SOL     OW11569   5.882   0.455   1.192
 3557SOL    HW111570   5.906   0.518   1.266
 3557SOL    HW211571   5.962   0.443   1.133
 3558SOL     OW11572   3.601   5.411   2.379
 3558SOL    HW111573   3.531   5.393   2.309
 3558SOL    HW211574   3.577   5.494   2.428
 3559SOL     OW11575   4.821   6.972   6.331
 3559SOL    HW111576   4.906   6.986   6.382
 3559SOL    HW211577   4.753   0.015   6.362
 3560SOL     OW11578   1.935   5.326   3.646
 3560SOL    HW111579   1.874   5.307   3.569
 3560SOL    HW211580   1.977   5.416   3.634
 3561SOL     OW11581   4.505   3.744   5.387
 3561SOL    HW111582   4.567   3.691   5.445
 3561SOL    HW211583   4.519   3.719   5.291
 3562SOL     OW11584   2.255   1.728   6.210
 3562SOL    HW111585   2.341   1.779   6.212
 3562SOL    HW211586   2.227   1.707   6.304
 3563SOL     OW11587   6.179   2.683   5.702
 3563SOL    HW111588   6.193   2.709   5.606
 3563SOL    HW211589   6.153   2.764   5.755
 3564SOL     OW11590   5.891   3.667   1.913
 3564SOL    HW111591   5.881   3.740   1.980
 3564SOL    HW211592   5.852   3.696   1.826
 3565SOL     OW11593   3.857   6.032   4.389
 3565SOL    HW111594   3.840   6.107   4.453
 3565SOL    HW211595   3.946   5.991   4.408
 3566SOL     OW11596   0.974   6.535   5.189
 3566SOL    HW111597   1.052   6.481   5.221
 3566SOL    HW211598   0.974   6.624   5.235
 3567SOL     OW11599   7.017   2.914   6.317
 3567SOL    HW111600   0.026   2.858   6.393
 3567SOL    HW211601   6.955   2.860   6.260
 3568SOL     OW11602   5.337   4.304   6.123
 3568SOL    HW111603   5.365   4.325   6.029
 3568SOL    HW211604   5.385   4.222   6.154
 3569SOL     OW11605   1.514   0.514   4.687
 3569SOL    HW111606   1.431   0.561   4.717
 3569SOL    HW211607   1.563   0.478   4.767
 3570SOL     OW11608   5.232   1.738   3.393
 3570SOL    HW111609   5.305   1.697   3.448
 3570SOL    HW211610   5.161   1.670   3.375
 3571SOL     OW11611   6.492   6.294   5.367
 3571SOL    HW111612   6.568   6.231   5.382
 3571SOL    HW211613   6.406   6.247   5.387
 3572SOL     OW11614   6.784   6.076   4.506
 3572SOL    HW111615   6.820   6.168   4.489
 3572SOL    HW211616   6.823   6.040   4.591
 3573SOL     OW11617   1.531   1.883   2.016
 3573SOL    HW111618   1.445   1.895   1.968
 3573SOL    HW211619   1.543   1.957   2.082
 3574SOL     OW11620   6.758   3.527   0.432
 3574SOL    HW111621   6.664   3.497   0.442
 3574SOL    HW211622   6.820   3.450   0.447
 3575SOL     OW11623   6.341   5.846   1.621
 3575SOL    HW111624   6.362   5.921   1.559
 3575SOL    HW211625   6.389   5.859   1.707
 3576SOL     OW11626   0.657   2.043   6.193
 3576SOL    HW111627   0.589   1.971   6.210
 3576SOL    HW211628   0.612   2.132   6.199
 3577SOL     OW11629   1.722   2.916   0.011
 3577SOL    HW111630   1.657   2.906   6.959
 3577SOL    HW211631   1.776   2.832   0.020
 3578SOL     OW11632   3.809   5.491   0.985
 3578SOL    HW111633   3.817   5.492   1.085
 3578SOL    HW211634   3.892   5.528   0.944
 3579SOL     OW11635   0.487   4.205   5.001
 3579SOL    HW111636   0.538   4.224   5.085
 3579SOL    HW211637   0.394   4.178   5.025
 3580SOL     OW11638   6.876   1.861   1.873
 3580SOL    HW111639   6.940   1.938   1.880
 3580SOL    HW211640   6.790   1.886   1.917
 3581SOL     OW11641   6.580   0.473   2.848
 3581SOL    HW111642   6.517   0.407   2.809
 3581SOL    HW211643   6.551   0.566   2.824
 3582SOL     OW11644   0.578   0.480   6.126
 3582SOL    HW111645   0.556   0.576   6.115
 3582SOL    HW211646   0.602   0.461   6.222
 3583SOL     OW11647   2.386   5.799   0.115
 3583SOL    HW111648   2.449   5.877   0.118
 3583SOL    HW211649   2.403   5.745   0.033
 3584SOL     OW11650   5.032   6.836   5.983
 3584SOL    HW111651   5.015   6.767   5.913
 3584SOL    HW211652   4.984   6.811   6.067
 3585SOL     OW11653   2.821   4.817   3.819
 3585SOL    HW111654   2.738   4.871   3.803
 3585SOL    HW211655   2.815   4.773   3.908
 3586SOL     OW11656   6.747   2.124   6.700
 3586SOL    HW111657   6.792   2.201   6.744
 3586SOL    HW211658   6.778   2.117   6.605
 3587SOL     OW11659   4.046   0.157   6.270
 3587SOL    HW111660   4.144   0.161   6.291
 3587SOL    HW211661   4.033   0.136   6.173
 3588SOL     OW11662   2.251   1.648   5.688
 3588SOL    HW111663   2.216   1.680   5.775
 3588SOL    HW211664   2.351   1.651   5.688
 3589SOL     OW11665   2.855   0.759   5.448
 3589SOL    HW111666   2.768   0.806   5.467
 3589SOL    HW211667   2.880   0.703   5.527
 3590SOL     OW11668   1.786   5.077   6.328
 3590SOL    HW111669   1.845   5.105   6.405
 3590SOL    HW211670   1.823   4.994   6.286
 3591SOL     OW11671   5.036   2.396   5.923
 3591SOL    HW111672   5.128   2.398   5.883
 3591SOL    HW211673   4.973   2.448   5.866
 3592SOL     OW11674   4.878   2.897   1.811
 3592SOL    HW111675   4.818   2.820   1.792
 3592SOL    HW211676   4.828   2.968   1.861
 3593SOL     OW11677   1.611   5.115   2.931
 3593SOL    HW111678   1.685   5.057   2.897
 3593SOL    HW211679   1.523   5.078   2.902
 3594SOL     OW11680   3.271   0.998   4.053
 3594SOL    HW111681   3.271   0.919   3.991
 3594SOL    HW211682   3.178   1.013   4.087
 3595SOL     OW11683   2.975   5.978   5.267
 3595SOL    HW111684   3.007   5.918   5.193
 3595SOL    HW211685   2.926   6.055   5.227
 3596SOL     OW11686   6.484   2.917   3.052
 3596SOL    HW111687   6.513   2.916   3.148
 3596SOL    HW211688   6.392   2.878   3.045
 3597SOL     OW11689   4.096   5.886   3.739
 3597SOL    HW111690   4.111   5.843   3.650
 3597SOL    HW211691   4.005   5.928   3.740
 3598SOL     OW11692   0.923   0.133   0.011
 3598SOL    HW111693   0.892   0.126   0.106
 3598SOL    HW211694   1.021   0.154   0.010
 3599SOL     OW11695   7.015   1.869   4.317
 3599SOL    HW111696   0.056   1.799   4.348
 3599SOL    HW211697   6.952   1.891   4.391
 3600SOL     OW11698   6.125   0.477   0.501
 3600SOL    HW111699   6.204   0.489   0.561
 3600SOL    HW211700   6.042   0.505   0.548
 3601SOL     OW11701   6.332   3.637   5.903
 3601SOL    HW111702   6.277   3.582   5.840
 3601SOL    HW211703   6.338   3.731   5.869
 3602SOL     OW11704   1.798   1.826   0.316
 3602SOL    HW111705   1.714   1.782   0.285
 3602SOL    HW211706   1.876   1.767   0.296
 3603SOL     OW11707   4.048   4.841   5.001
 3603SOL    HW111708   4.052   4.939   5.018
 3603SOL    HW211709   4.022   4.824   4.906
 3604SOL     OW11710   0.341   3.256   2.959
 3604SOL    HW111711   0.266   3.224   2.901
 3604SOL    HW211712   0.418   3.191   2.952
 3605SOL     OW11713   6.047   3.702   6.464
 3605SOL    HW111714   6.141   3.710   6.430
 3605SOL    HW211715   6.017   3.791   6.499
 3606SOL     OW11716   0.785   4.603   4.991
 3606SOL    HW111717   0.739   4.568   4.909
 3606SOL    HW211718   0.833   4.688   4.970
 3607SOL     OW11719   4.968   0.119   0.163
 3607SOL    HW111720   4.948   0.192   0.228
 3607SOL    HW211721   4.933   0.146   0.073
 3608SOL     OW11722   1.167   2.361   2.780
 3608SOL    HW111723   1.111   2.294   2.732
 3608SOL    HW211724   1.255   2.371   2.734
 3609SOL     OW11725   6.694   0.462   4.609
 3609SOL    HW111726   6.672   0.372   4.648
 3609SOL    HW211727   6.659   0.468   4.516
 3610SOL     OW11728   1.181   6.368   5.297
 3610SOL    HW111729   1.248   6.331   5.361
 3610SOL    HW211730   1.211   6.352   5.203
 3611SOL     OW11731   3.577   5.389   5.334
 3611SOL    HW111732   3.545   5.299   5.363
 3611SOL    HW211733   3.625   5.381   5.247
 3612SOL     OW11734   1.214   0.305   1.243
 3612SOL    HW111735   1.285   0.246   1.205
 3612SOL    HW211736   1.214   0.393   1.196
 3613SOL     OW11737   5.039   6.017   6.781
 3613SOL    HW111738   5.005   6.051   6.869
 3613SOL    HW211739   4.967   6.023   6.713
 3614SOL     OW11740   3.408   2.957   3.425
 3614SOL    HW111741   3.324   2.995   3.465
 3614SOL    HW211742   3.389   2.920   3.334
 3615SOL     OW11743   6.858   6.552   6.278
 3615SOL    HW111744   6.862   6.619   6.352
 3615SOL    HW211745   6.891   6.594   6.194
 3616SOL     OW11746   6.845   1.047   5.074
 3616SOL    HW111747   6.928   1.037   5.020
 3616SOL    HW211748   6.790   1.123   5.038
 3617SOL     OW11749   6.898   0.909   6.513
 3617SOL    HW111750   6.978   0.865   6.555
 3617SOL    HW211751   6.830   0.839   6.493
 3618SOL     OW11752   2.525   1.583   5.994
 3618SOL    HW111753   2.486   1.660   5.943
 3618SOL    HW211754   2.596   1.617   6.056
 3619SOL     OW11755   5.884   2.482   3.988
 3619SOL    HW111756   5.961   2.539   3.958
 3619SOL    HW211757   5.810   2.542   4.019
 3620SOL     OW11758   6.225   0.452   4.466
 3620SOL    HW111759   6.234   0.373   4.525
 3620SOL    HW211760   6.129   0.481   4.463
 3621SOL     OW11761   1.937   3.971   5.860
 3621SOL    HW111762   1.938   4.047   5.795
 3621SOL    HW211763   1.922   3.885   5.811
 3622SOL     OW11764   0.738   2.702   1.148
 3622SOL    HW111765   0.728   2.760   1.067
 3622SOL    HW211766   0.744   2.759   1.230
 3623SOL     OW11767   6.607   4.477   4.181
 3623SOL    HW111768   6.559   4.414   4.120
 3623SOL    HW211769   6.551   4.494   4.262
 3624SOL     OW11770   2.946   0.198   2.285
 3624SOL    HW111771   2.946   0.296   2.262
 3624SOL    HW211772   3.012   0.151   2.227
 3625SOL     OW11773   0.170   3.132   4.786
 3625SOL    HW111774   0.079   3.153   4.752
 3625SOL    HW211775   0.167   3.048   4.840
 3626SOL     OW11776   2.572   3.884   5.324
 3626SOL    HW111777   2.518   3.922   5.250
 3626SOL    HW211778   2.537   3.794   5.349
 3627SOL     OW11779   2.996   3.819   4.107
 3627SOL    HW111780   2.965   3.726   4.128
 3627SOL    HW211781   2.984   3.837   4.010
 3628SOL     OW11782   3.092   4.909   2.538
 3628SOL    HW111783   3.104   4.959   2.452
 3628SOL    HW211784   3.038   4.964   2.601
 3629SOL     OW11785   6.447   2.395   5.094
 3629SOL    HW111786   6.384   2.406   5.171
 3629SOL    HW211787   6.512   2.321   5.115
 3630SOL     OW11788   6.004   2.037   4.543
 3630SOL    HW111789   6.074   1.983   4.496
 3630SOL    HW211790   6.043   2.125   4.572
 3631SOL     OW11791   2.285   0.893   4.643
 3631SOL    HW111792   2.205   0.837   4.665
 3631SOL    HW211793   2.302   0.888   4.545
 3632SOL     OW11794   4.625   0.552   6.814
 3632SOL    HW111795   4.650   0.529   6.720
 3632SOL    HW211796   4.527   0.574   6.818
 3633SOL     OW11797   1.939   3.225   5.866
 3633SOL    HW111798   1.860   3.165   5.879
 3633SOL    HW211799   1.933   3.271   5.778
 3634SOL     OW11800   2.018   5.865   5.308
 3634SOL    HW111801   1.941   5.801   5.299
 3634SOL    HW211802   2.102   5.813   5.320
 3635SOL     OW11803   2.720   1.401   5.503
 3635SOL    HW111804   2.678   1.410   5.413
 3635SOL    HW211805   2.659   1.349   5.564
 3636SOL     OW11806   1.026   5.463   6.276
 3636SOL    HW111807   1.006   5.441   6.372
 3636SOL    HW211808   1.125   5.473   6.264
 3637SOL     OW11809   5.589   1.500   1.911
 3637SOL    HW111810   5.503   1.530   1.952
 3637SOL    HW211811   5.574   1.417   1.857
 3638SOL     OW11812   0.182   4.746   4.218
 3638SOL    HW111813   0.189   4.705   4.309
 3638SOL    HW211814   0.197   4.675   4.149
 3639SOL     OW11815   1.849   4.785   0.146
 3639SOL    HW111816   1.798   4.709   0.105
 3639SOL    HW211817   1.890   4.840   0.073
 3640SOL     OW11818   3.594   5.883   1.004
 3640SOL    HW111819   3.557   5.791   1.015
 3640SOL    HW211820   3.530   5.939   0.951
 3641SOL     OW11821   2.184   0.941   4.949
 3641SOL    HW111822   2.155   0.882   4.874
 3641SOL    HW211823   2.280   0.922   4.972
 3642SOL     OW11824   5.432   0.047   4.664
 3642SOL    HW111825   5.350   0.088   4.624
 3642SOL    HW211826   5.455   6.986   4.615
 3643SOL     OW11827   2.886   4.852   4.626
 3643SOL    HW111828   2.955   4.826   4.692
 3643SOL    HW211829   2.927   4.911   4.556
 3644SOL     OW11830   6.955   0.692   0.720
 3644SOL    HW111831   6.942   0.599   0.753
 3644SOL    HW211832   6.883   0.751   0.757
 3645SOL     OW11833   3.640   0.605   3.438
 3645SOL    HW111834   3.658   0.694   3.395
 3645SOL    HW211835   3.594   0.620   3.526
 3646SOL     OW11836   0.158   4.828   5.449
 3646SOL    HW111837   0.134   4.916   5.408
 3646SOL    HW211838   0.159   4.758   5.379
 3647SOL     OW11839   2.273   3.060   0.953
 3647SOL    HW111840   2.253   3.156   0.934
 3647SOL    HW211841   2.372   3.049   0.966
 3648SOL     OW11842   2.946   6.463   2.258
 3648SOL    HW111843   2.867   6.524   2.268
 3648SOL    HW211844   2.933   6.382   2.315
 3649SOL     OW11845   3.698   3.677   1.014
 3649SOL    HW111846   3.610   3.724   1.019
 3649SOL    HW211847   3.701   3.605   1.083
 3650SOL     OW11848   0.411   6.598   1.394
 3650SOL    HW111849   0.485   6.619   1.330
 3650SOL    HW211850   0.449   6.550   1.474
 3651SOL     OW11851   1.861   5.939   2.596
 3651SOL    HW111852   1.928   6.005   2.564
 3651SOL    HW211853   1.833   5.962   2.690
 3652SOL     OW11854   4.423   5.556   3.280
 3652SOL    HW111855   4.345   5.569   3.342
 3652SOL    HW211856   4.422   5.628   3.210
 3653SOL     OW11857   0.136   1.684   3.191
 3653SOL    HW111858   0.120   1.769   3.141
 3653SOL    HW211859   0.124   1.606   3.129
 3654SOL     OW11860   1.419   6.409   1.282
 3654SOL    HW111861   1.403   6.504   1.253
 3654SOL    HW211862   1.476   6.408   1.364
 3655SOL     OW11863   1.896   0.448   4.870
 3655SOL    HW111864   1.822   0.515   4.877
 3655SOL    HW211865   1.881   0.374   4.935
 3656SOL     OW11866   1.878   3.010   1.631
 3656SOL    HW111867   1.878   2.913   1.656
 3656SOL    HW211868   1.972   3.039   1.611
 3657SOL     OW11869   3.779   5.479   1.257
 3657SOL    HW111870   3.855   5.419   1.284
 3657SOL    HW211871   3.796   5.572   1.289
 3658SOL     OW11872   1.645   6.135   5.979
 3658SOL    HW111873   1.653   6.204   6.050
 3658SOL    HW211874   1.626   6.046   6.020
 3659SOL     OW11875   2.705   4.101   0.211
 3659SOL    HW111876   2.747   4.180   0.165
 3659SOL    HW211877   2.717   4.020   0.155
 3660SOL     OW11878   4.640   6.143   1.720
 3660SOL    HW111879   4.571   6.212   1.698
 3660SOL    HW211880   4.727   6.170   1.679
 3661SOL     OW11881   4.830   0.867   0.345
 3661SOL    HW111882   4.770   0.811   0.403
 3661SOL    HW211883   4.868   0.811   0.272
 3662SOL     OW11884   3.365   7.001   5.175
 3662SOL    HW111885   3.396   6.970   5.264
 3662SOL    HW211886   3.359   6.924   5.112
 3663SOL     OW11887   0.982   2.768   7.010
 3663SOL    HW111888   0.986   2.718   0.073
 3663SOL    HW211889   0.905   2.735   6.955
 3664SOL     OW11890   4.818   1.201   0.791
 3664SOL    HW111891   4.855   1.229   0.880
 3664SOL    HW211892   4.774   1.112   0.800
 3665SOL     OW11893   0.759   0.312   5.451
 3665SOL    HW111894   0.679   0.305   5.511
 3665SOL    HW211895   0.827   0.245   5.479
 3666SOL     OW11896   1.534   4.360   3.940
 3666SOL    HW111897   1.620   4.326   3.901
 3666SOL    HW211898   1.464   4.290   3.930
 3667SOL     OW11899   6.230   1.345   6.340
 3667SOL    HW111900   6.231   1.335   6.241
 3667SOL    HW211901   6.271   1.265   6.383
 3668SOL     OW11902   1.163   6.107   2.460
 3668SOL    HW111903   1.230   6.117   2.533
 3668SOL    HW211904   1.175   6.182   2.394
 3669SOL     OW11905   6.767   2.652   3.258
 3669SOL    HW111906   6.747   2.748   3.238
 3669SOL    HW211907   6.682   2.600   3.258
 3670SOL     OW11908   2.179   5.946   5.903
 3670SOL    HW111909   2.132   6.025   5.865
 3670SOL    HW211910   2.133   5.917   5.988
 3671SOL     OW11911   1.048   0.329   2.955
 3671SOL    HW111912   1.135   0.346   2.910
 3671SOL    HW211913   1.045   0.234   2.988
 3672SOL     OW11914   6.557   0.800   0.358
 3672SOL    HW111915   6.474   0.812   0.304
 3672SOL    HW211916   6.588   0.888   0.392
 3673SOL     OW11917   5.080   0.552   6.595
 3673SOL    HW111918   5.080   0.466   6.645
 3673SOL    HW211919   5.008   0.550   6.525
 3674SOL     OW11920   1.263   6.406   0.594
 3674SOL    HW111921   1.275   6.498   0.558
 3674SOL    HW211922   1.223   6.411   0.685
 3675SOL     OW11923   2.157   2.253   5.396
 3675SOL    HW111924   2.151   2.333   5.455
 3675SOL    HW211925   2.086   2.257   5.326
 3676SOL     OW11926   2.996   5.604   3.528
 3676SOL    HW111927   2.964   5.512   3.504
 3676SOL    HW211928   2.998   5.660   3.446
 3677SOL     OW11929   6.558   6.851   4.451
 3677SOL    HW111930   6.644   6.873   4.497
 3677SOL    HW211931   6.577   6.816   4.359
 3678SOL     OW11932   1.291   1.286   3.642
 3678SOL    HW111933   1.264   1.377   3.610
 3678SOL    HW211934   1.299   1.286   3.741
 3679SOL     OW11935   0.762   0.813   2.129
 3679SOL    HW111936   0.671   0.826   2.169
 3679SOL    HW211937   0.755   0.750   2.051
 3680SOL     OW11938   6.852   2.949   4.556
 3680SOL    HW111939   6.775   2.980   4.501
 3680SOL    HW211940   6.926   2.920   4.495
 3681SOL     OW11941   0.084   6.668   5.771
 3681SOL    HW111942   0.125   6.758   5.786
 3681SOL    HW211943   0.025   6.672   5.690
 3682SOL     OW11944   6.581   1.890   6.726
 3682SOL    HW111945   6.646   1.965   6.712
 3682SOL    HW211946   6.629   1.803   6.721
 3683SOL     OW11947   5.611   6.702   4.347
 3683SOL    HW111948   5.558   6.657   4.276
 3683SOL    HW211949   5.707   6.680   4.336
 3684SOL     OW11950   1.530   3.266   1.376
 3684SOL    HW111951   1.469   3.300   1.447
 3684SOL    HW211952   1.521   3.323   1.294
 3685SOL     OW11953   6.359   6.511   6.797
 3685SOL    HW111954   6.384   6.607   6.806
 3685SOL    HW211955   6.365   6.466   6.886
 3686SOL     OW11956   6.136   4.432   1.877
 3686SOL    HW111957   6.218   4.462   1.828
 3686SOL    HW211958   6.158   4.351   1.931
 3687SOL     OW11959   3.913   0.900   0.288
 3687SOL    HW111960   3.827   0.850   0.273
 3687SOL    HW211961   3.892   0.996   0.310
 3688SOL     OW11962   1.246   3.330   0.326
 3688SOL    HW111963   1.211   3.281   0.406
 3688SOL    HW211964   1.173   3.341   0.259
 3689SOL     OW11965   1.908   0.426   4.222
 3689SOL    HW111966   1.887   0.378   4.137
 3689SOL    HW211967   1.885   0.523   4.212
 3690SOL     OW11968   5.964   6.871   5.799
 3690SOL    HW111969   5.962   6.853   5.897
 3690SOL    HW211970   6.036   6.938   5.779
 3691SOL     OW11971   2.789   3.352   6.836
 3691SOL    HW111972   2.689   3.361   6.841
 3691SOL    HW211973   2.812   3.269   6.786
 3692SOL     OW11974   1.649   6.852   5.241
 3692SOL    HW111975   1.670   6.950   5.238
 3692SOL    HW211976   1.734   6.800   5.243
 3693SOL     OW11977   2.859   2.321   3.086
 3693SOL    HW111978   2.840   2.323   3.184
 3693SOL    HW211979   2.947   2.277   3.069
 3694SOL     OW11980   2.000   6.259   3.332
 3694SOL    HW111981   1.962   6.167   3.337
 3694SOL    HW211982   2.098   6.254   3.317
 3695SOL     OW11983   1.810   1.817   2.120
 3695SOL    HW111984   1.718   1.779   2.110
 3695SOL    HW211985   1.851   1.783   2.204
 3696SOL     OW11986   4.450   0.124   6.096
 3696SOL    HW111987   4.531   0.087   6.051
 3696SOL    HW211988   4.453   0.224   6.094
 3697SOL     OW11989   6.426   0.114   4.237
 3697SOL    HW111990   6.514   0.148   4.268
 3697SOL    HW211991   6.366   0.190   4.215
 3698SOL     OW11992   2.986   0.649   6.171
 3698SOL    HW111993   3.012   0.650   6.267
 3698SOL    HW211994   3.043   0.714   6.120
 3699SOL     OW11995   0.152   3.872   3.143
 3699SOL    HW111996   0.145   3.965   3.180
 3699SOL    HW211997   0.227   3.824   3.187
 3700SOL     OW11998   0.189   0.066   4.095
 3700SOL    HW111999   0.132   0.016   4.029
 3700SOL    HW212000   0.229   0.001   4.159
 3701SOL     OW12001   6.444   1.357   4.524
 3701SOL    HW112002   6.535   1.316   4.532
 3701SOL    HW212003   6.427   1.383   4.429
 3702SOL     OW12004   3.564   1.210   0.236
 3702SOL    HW112005   3.652   1.203   0.189
 3702SOL    HW212006   3.506   1.276   0.187
 3703SOL     OW12007   3.952   4.626   6.766
 3703SOL    HW112008   3.967   4.530   6.787
 3703SOL    HW212009   4.038   4.676   6.777
 3704SOL     OW12010   2.304   0.147   2.730
 3704SOL    HW112011   2.235   0.183   2.668
 3704SOL    HW212012   2.385   0.120   2.678
 3705SOL     OW12013   4.818   0.766   3.874
 3705SOL    HW112014   4.888   0.833   3.847
 3705SOL    HW212015   4.772   0.798   3.957
 3706SOL     OW12016   1.952   2.596   3.785
 3706SOL    HW112017   2.019   2.523   3.781
 3706SOL    HW212018   1.885   2.584   3.711
 3707SOL     OW12019   4.755   2.526   5.227
 3707SOL    HW112020   4.666   2.551   5.190
 3707SOL    HW212021   4.778   2.588   5.303
 3708SOL     OW12022   5.865   0.804   6.716
 3708SOL    HW112023   5.832   0.831   6.625
 3708SOL    HW212024   5.803   0.736   6.755
 3709SOL     OW12025   3.608   0.397   6.301
 3709SOL    HW112026   3.649   0.477   6.345
 3709SOL    HW212027   3.526   0.425   6.251
 3710SOL     OW12028   6.751   4.453   0.687
 3710SOL    HW112029   6.741   4.552   0.700
 3710SOL    HW212030   6.835   4.422   0.731
 3711SOL     OW12031   6.658   5.465   2.597
 3711SOL    HW112032   6.576   5.511   2.564
 3711SOL    HW212033   6.738   5.521   2.579
 3712SOL     OW12034   1.321   6.818   0.243
 3712SOL    HW112035   1.375   6.895   0.276
 3712SOL    HW212036   1.254   6.850   0.176
 3713SOL     OW12037   3.801   5.795   5.646
 3713SOL    HW112038   3.727   5.861   5.633
 3713SOL    HW212039   3.798   5.727   5.573
 3714SOL     OW12040   4.216   0.241   4.684
 3714SOL    HW112041   4.136   0.231   4.743
 3714SOL    HW212042   4.299   0.226   4.737
 3715SOL     OW12043   5.680   4.715   4.827
 3715SOL    HW112044   5.590   4.758   4.817
 3715SOL    HW212045   5.669   4.622   4.861
 3716SOL     OW12046   0.025   0.246   4.264
 3716SOL    HW112047   6.972   0.185   4.289
 3716SOL    HW212048   0.080   0.202   4.192
 3717SOL     OW12049   6.242   6.457   0.908
 3717SOL    HW112050   6.308   6.509   0.963
 3717SOL    HW212051   6.260   6.360   0.918
 3718SOL     OW12052   1.426   5.806   0.430
 3718SOL    HW112053   1.520   5.778   0.412
 3718SOL    HW212054   1.364   5.733   0.400
 3719SOL     OW12055   4.072   4.747   5.809
 3719SOL    HW112056   4.031   4.828   5.851
 3719SOL    HW212057   4.033   4.733   5.718
 3720SOL     OW12058   5.576   1.585   5.803
 3720SOL    HW112059   5.522   1.579   5.719
 3720SOL    HW212060   5.669   1.615   5.781
 3721SOL     OW12061   5.428   4.549   0.405
 3721SOL    HW112062   5.495   4.621   0.425
 3721SOL    HW212063   5.340   4.591   0.384
 3722SOL     OW12064   6.169   6.038   2.471
 3722SOL    HW112065   6.196   6.026   2.375
 3722SOL    HW212066   6.115   5.959   2.499
 3723SOL     OW12067   5.148   0.589   1.086
 3723SOL    HW112068   5.194   0.531   1.018
 3723SOL    HW212069   5.151   0.684   1.056
 3724SOL     OW12070   1.404   5.497   6.584
 3724SOL    HW112071   1.435   5.442   6.507
 3724SOL    HW212072   1.483   5.524   6.640
 3725SOL     OW12073   6.809   6.038   6.602
 3725SOL    HW112074   6.851   6.113   6.550
 3725SOL    HW212075   6.712   6.058   6.617
 3726SOL     OW12076   5.400   3.902   1.343
 3726SOL    HW112077   5.446   3.853   1.269
 3726SOL    HW212078   5.317   3.854   1.369
 3727SOL     OW12079   2.209   3.210   5.050
 3727SOL    HW112080   2.274   3.134   5.055
 3727SOL    HW212081   2.255   3.294   5.078
 3728SOL     OW12082   1.555   3.382   6.636
 3728SOL    HW112083   1.479   3.343   6.688
 3728SOL    HW212084   1.616   3.432   6.697
 3729SOL     OW12085   0.829   1.844   3.737
 3729SOL    HW112086   0.740   1.838   3.783
 3729SOL    HW212087   0.830   1.923   3.677
 3730SOL     OW12088   3.683   0.818   0.176
 3730SOL    HW112089   3.588   0.849   0.174
 3730SOL    HW212090   3.722   0.823   0.084
 3731SOL     OW12091   4.557   0.074   0.166
 3731SOL    HW112092   4.636   0.106   0.219
 3731SOL    HW212093   4.528   7.008   0.200
 3732SOL     OW12094   2.221   3.778   5.235
 3732SOL    HW112095   2.309   3.826   5.237
 3732SOL    HW212096   2.151   3.839   5.197
 3733SOL     OW12097   2.966   4.092   1.686
 3733SOL    HW112098   2.928   4.184   1.676
 3733SOL    HW212099   3.029   4.090   1.764
 3734SOL     OW12100   5.009   1.025   2.644
 3734SOL    HW112101   4.966   1.044   2.556
 3734SOL    HW212102   5.039   1.110   2.686
 3735SOL     OW12103   2.996   2.132   2.261
 3735SOL    HW112104   2.942   2.121   2.344
 3735SOL    HW212105   2.962   2.211   2.209
 3736SOL     OW12106   6.092   2.015   0.729
 3736SOL    HW112107   6.180   2.032   0.774
 3736SOL    HW212108   6.020   2.016   0.798
 3737SOL     OW12109   4.862   0.021   3.578
 3737SOL    HW112110   4.915   6.970   3.618
 3737SOL    HW212111   4.782   7.005   3.530
 3738SOL     OW12112   6.789   6.765   3.612
 3738SOL    HW112113   6.877   6.783   3.569
 3738SOL    HW212114   6.786   6.670   3.644
 3739SOL     OW12115   0.425   4.247   2.672
 3739SOL    HW112116   0.444   4.164   2.620
 3739SOL    HW212117   0.473   4.244   2.759
 3740SOL     OW12118   5.608   1.179   0.087
 3740SOL    HW112119   5.560   1.253   0.040
 3740SOL    HW212120   5.551   1.096   0.085
 3741SOL     OW12121   3.838   2.372   7.023
 3741SOL    HW112122   3.931   2.385   0.032
 3741SOL    HW212123   3.804   2.283   0.031
 3742SOL     OW12124   3.489   3.055   5.550
 3742SOL    HW112125   3.578   3.075   5.511
 3742SOL    HW212126   3.490   3.074   5.648
 3743SOL     OW12127   6.998   4.881   6.725
 3743SOL    HW112128   0.068   4.857   6.701
 3743SOL    HW212129   6.938   4.802   6.713
 3744SOL     OW12130   0.502   5.598   3.836
 3744SOL    HW112131   0.548   5.526   3.785
 3744SOL    HW212132   0.404   5.597   3.815
 3745SOL     OW12133   3.969   5.829   2.834
 3745SOL    HW112134   3.932   5.807   2.924
 3745SOL    HW212135   4.059   5.873   2.845
 3746SOL     OW12136   4.132   1.594   1.851
 3746SOL    HW112137   4.158   1.679   1.897
 3746SOL    HW212138   4.071   1.541   1.910
 3747SOL     OW12139   3.399   0.837   0.084
 3747SOL    HW112140   3.333   0.894   0.133
 3747SOL    HW212141   3.376   0.741   0.099
 3748SOL     OW12142   5.797   0.901   2.874
 3748SOL    HW112143   5.795   0.998   2.850
 3748SOL    HW212144   5.705   0.871   2.899
 3749SOL     OW12145   1.218   7.008   5.344
 3749SOL    HW112146   1.302   6.974   5.385
 3749SOL    HW212147   1.234   0.074   5.302
 3750SOL     OW12148   0.193   4.045   0.492
 3750SOL    HW112149   0.258   3.995   0.436
 3750SOL    HW212150   0.143   4.110   0.435
 3751SOL     OW12151   0.562   4.308   3.155
 3751SOL    HW112152   0.477   4.282   3.201
 3751SOL    HW212153   0.598   4.392   3.196
 3752SOL     OW12154   6.369   0.985   6.113
 3752SOL    HW112155   6.301   1.041   6.064
 3752SOL    HW212156   6.454   0.983   6.060
 3753SOL     OW12157   0.116   0.286   4.553
 3753SOL    HW112158   0.071   0.350   4.616
 3753SOL    HW212159   0.082   0.302   4.460
 3754SOL     OW12160   2.064   1.750   0.913
 3754SOL    HW112161   2.054   1.796   1.001
 3754SOL    HW212162   1.992   1.681   0.903
 3755SOL     OW12163   2.907   5.062   3.521
 3755SOL    HW112164   2.884   4.983   3.577
 3755SOL    HW212165   2.990   5.043   3.469
 3756SOL     OW12166   2.472   6.320   0.185
 3756SOL    HW112167   2.379   6.339   0.154
 3756SOL    HW212168   2.476   6.229   0.225
 3757SOL     OW12169   6.452   4.845   1.581
 3757SOL    HW112170   6.518   4.919   1.570
 3757SOL    HW212171   6.361   4.884   1.594
 3758SOL     OW12172   1.831   6.842   3.805
 3758SOL    HW112173   1.792   6.854   3.896
 3758SOL    HW212174   1.828   6.929   3.756
 3759SOL     OW12175   4.841   0.821   4.343
 3759SOL    HW112176   4.818   0.762   4.420
 3759SOL    HW212177   4.938   0.844   4.348
 3760SOL     OW12178   0.549   1.049   3.344
 3760SOL    HW112179   0.595   1.087   3.263
 3760SOL    HW212180   0.573   0.953   3.354
 3761SOL     OW12181   5.461   1.075   3.588
 3761SOL    HW112182   5.505   0.993   3.549
 3761SOL    HW212183   5.514   1.156   3.563
 3762SOL     OW12184   0.517   2.735   2.338
 3762SOL    HW112185   0.512   2.815   2.278
 3762SOL    HW212186   0.430   2.723   2.386
 3763SOL     OW12187   0.681   4.474   0.785
 3763SOL    HW112188   0.720   4.412   0.853
 3763SOL    HW212189   0.686   4.432   0.694
 3764SOL     OW12190   2.276   0.429   2.903
 3764SOL    HW112191   2.224   0.383   2.832
 3764SOL    HW212192   2.213   0.476   2.965
 3765SOL     OW12193   5.740   2.612   1.920
 3765SOL    HW112194   5.645   2.588   1.900
 3765SOL    HW212195   5.774   2.555   1.995
 3766SOL     OW12196   1.025   3.455   3.369
 3766SOL    HW112197   1.096   3.484   3.434
 3766SOL    HW212198   1.044   3.361   3.340
 3767SOL     OW12199   1.414   5.200   5.923
 3767SOL    HW112200   1.463   5.188   6.010
 3767SOL    HW212201   1.322   5.236   5.941
 3768SOL     OW12202   0.805   6.965   4.082
 3768SOL    HW112203   0.894   6.921   4.086
 3768SOL    HW212204   0.816   0.041   4.090
 3769SOL     OW12205   5.420   5.027   4.767
 3769SOL    HW112206   5.336   5.038   4.714
 3769SOL    HW212207   5.494   5.077   4.722
 3770SOL     OW12208   1.886   1.128   0.884
 3770SOL    HW112209   1.922   1.095   0.971
 3770SOL    HW212210   1.837   1.054   0.838
 3771SOL     OW12211   6.539   5.158   0.065
 3771SOL    HW112212   6.514   5.234   0.125
 3771SOL    HW212213   6.566   5.194   6.999
 3772SOL     OW12214   1.669   6.008   0.636
 3772SOL    HW112215   1.611   6.080   0.674
 3772SOL    HW212216   1.627   5.919   0.653
 3773SOL     OW12217   5.189   4.517   6.245
 3773SOL    HW112218   5.218   4.424   6.221
 3773SOL    HW212219   5.264   4.581   6.228
 3774SOL     OW12220   6.614   5.043   1.510
 3774SOL    HW112221   6.688   5.087   1.561
 3774SOL    HW212222   6.580   5.106   1.440
 3775SOL     OW12223   4.158   4.753   4.323
 3775SOL    HW112224   4.177   4.739   4.226
 3775SOL    HW212225   4.076   4.809   4.334
 3776SOL     OW12226   3.424   2.889   6.072
 3776SOL    HW112227   3.519   2.884   6.104
 3776SOL    HW212228   3.423   2.904   5.973
 3777SOL     OW12229   2.981   6.098   4.156
 3777SOL    HW112230   2.988   6.018   4.217
 3777SOL    HW212231   2.886   6.128   4.152
 3778SOL     OW12232   3.296   5.320   5.997
 3778SOL    HW112233   3.267   5.357   6.085
 3778SOL    HW212234   3.228   5.255   5.964
 3779SOL     OW12235   6.791   4.695   6.641
 3779SOL    HW112236   6.719   4.741   6.588
 3779SOL    HW212237   6.749   4.629   6.703
 3780SOL     OW12238   5.649   4.207   1.728
 3780SOL    HW112239   5.598   4.166   1.653
 3780SOL    HW212240   5.668   4.303   1.708
 3781SOL     OW12241   3.010   5.889   4.999
 3781SOL    HW112242   3.109   5.885   4.985
 3781SOL    HW212243   2.963   5.891   4.911
 3782SOL     OW12244   5.248   6.241   1.668
 3782SOL    HW112245   5.282   6.183   1.742
 3782SOL    HW212246   5.245   6.336   1.700
 3783SOL     OW12247   5.096   5.067   4.625
 3783SOL    HW112248   5.118   5.155   4.668
 3783SOL    HW212249   5.007   5.036   4.658
 3784SOL     OW12250   6.306   1.986   4.163
 3784SOL    HW112251   6.319   2.072   4.213
 3784SOL    HW212252   6.363   1.915   4.205
 3785SOL     OW12253   1.845   3.506   4.084
 3785SOL    HW112254   1.873   3.581   4.144
 3785SOL    HW212255   1.745   3.501   4.081
 3786SOL     OW12256   2.430   2.696   4.362
 3786SOL    HW112257   2.450   2.704   4.460
 3786SOL    HW212258   2.355   2.758   4.338
 3787SOL     OW12259   4.106   0.276   3.164
 3787SOL    HW112260   4.056   0.199   3.124
 3787SOL    HW212261   4.048   0.323   3.231
 3788SOL     OW12262   6.545   3.458   5.151
 3788SOL    HW112263   6.581   3.550   5.138
 3788SOL    HW212264   6.527   3.416   5.062
 3789SOL     OW12265   1.470   2.783   2.676
 3789SOL    HW112266   1.457   2.757   2.772
 3789SOL    HW212267   1.538   2.857   2.671
 3790SOL     OW12268   0.673   6.794   1.702
 3790SOL    HW112269   0.640   6.730   1.772
 3790SOL    HW212270   0.664   6.888   1.735
 3791SOL     OW12271   4.958   1.164   5.752
 3791SOL    HW112272   4.997   1.209   5.671
 3791SOL    HW212273   5.012   1.189   5.833
 3792SOL     OW12274   7.007   0.665   4.048
 3792SOL    HW112275   6.921   0.635   4.008
 3792SOL    HW212276   0.060   0.615   4.006
 3793SOL     OW12277   4.708   5.462   0.616
 3793SOL    HW112278   4.725   5.398   0.691
 3793SOL    HW212279   4.617   5.445   0.578
 3794SOL     OW12280   0.860   4.009   6.600
 3794SOL    HW112281   0.924   4.054   6.538
 3794SOL    HW212282   0.790   3.961   6.547
 3795SOL     OW12283   1.756   6.254   1.769
 3795SOL    HW112284   1.845   6.216   1.742
 3795SOL    HW212285   1.692   6.180   1.787
 3796SOL     OW12286   4.522   1.522   6.706
 3796SOL    HW112287   4.483   1.545   6.796
 3796SOL    HW212288   4.464   1.562   6.635
 3797SOL     OW12289   1.197   4.421   2.706
 3797SOL    HW112290   1.158   4.383   2.621
 3797SOL    HW212291   1.171   4.362   2.783
 3798SOL     OW12292   1.777   6.371   3.217
 3798SOL    HW112293   1.715   6.405   3.288
 3798SOL    HW212294   1.869   6.365   3.254
 3799SOL     OW12295   0.117   1.396   3.118
 3799SOL    HW112296   0.058   1.368   3.042
 3799SOL    HW212297   0.201   1.438   3.081
 3800SOL     OW12298   5.681   2.318   2.423
 3800SOL    HW112299   5.775   2.351   2.436
 3800SOL    HW212300   5.654   2.330   2.328
 3801SOL     OW12301   5.751   1.213   1.974
 3801SOL    HW112302   5.774   1.285   2.040
 3801SOL    HW212303   5.673   1.242   1.919
 3802SOL     OW12304   6.164   2.217   2.065
 3802SOL    HW112305   6.189   2.193   1.972
 3802SOL    HW212306   6.245   2.216   2.124
 3803SOL     OW12307   3.194   3.547   4.013
 3803SOL    HW112308   3.203   3.530   4.111
 3803SOL    HW212309   3.103   3.584   3.993
 3804SOL     OW12310   3.658   5.949   3.118
 3804SOL    HW112311   3.565   5.925   3.089
 3804SOL    HW212312   3.697   6.014   3.053
 3805SOL     OW12313   2.673   2.807   0.037
 3805SOL    HW112314   2.627   2.785   0.122
 3805SOL    HW212315   2.728   2.890   0.049
 3806SOL     OW12316   3.793   4.284   1.661
 3806SOL    HW112317   3.727   4.339   1.610
 3806SOL    HW212318   3.751   4.253   1.746
 3807SOL     OW12319   1.987   4.102   4.513
 3807SOL    HW112320   1.921   4.176   4.522
 3807SOL    HW212321   2.042   4.096   4.597
 3808SOL     OW12322   3.580   6.691   6.591
 3808SOL    HW112323   3.638   6.711   6.512
 3808SOL    HW212324   3.619   6.732   6.673
 3809SOL     OW12325   5.123   2.278   1.384
 3809SOL    HW112326   5.184   2.331   1.444
 3809SOL    HW212327   5.173   2.248   1.303
 3810SOL     OW12328   5.778   1.963   1.783
 3810SOL    HW112329   5.790   2.033   1.853
 3810SOL    HW212330   5.867   1.940   1.743
 3811SOL     OW12331   0.312   5.257   5.298
 3811SOL    HW112332   0.323   5.355   5.315
 3811SOL    HW212333   0.396   5.209   5.325
 3812SOL     OW12334   4.741   6.624   1.195
 3812SOL    HW112335   4.815   6.565   1.226
 3812SOL    HW212336   4.710   6.594   1.105
 3813SOL     OW12337   6.156   4.161   0.543
 3813SOL    HW112338   6.184   4.227   0.474
 3813SOL    HW212339   6.230   4.150   0.610
 3814SOL     OW12340   6.861   0.167   4.867
 3814SOL    HW112341   6.896   0.097   4.805
 3814SOL    HW212342   6.929   0.239   4.878
 3815SOL     OW12343   6.426   3.685   6.163
 3815SOL    HW112344   6.386   3.751   6.226
 3815SOL    HW212345   6.378   3.689   6.075
 3816SOL     OW12346   0.523   5.437   6.597
 3816SOL    HW112347   0.466   5.495   6.657
 3816SOL    HW212348   0.550   5.354   6.647
 3817SOL     OW12349   5.093   4.092   1.867
 3817SOL    HW112350   5.063   4.013   1.920
 3817SOL    HW212351   5.013   4.146   1.840
 3818SOL     OW12352   6.145   0.388   2.760
 3818SOL    HW112353   6.081   0.311   2.763
 3818SOL    HW212354   6.237   0.356   2.784
 3819SOL     OW12355   6.806   3.936   4.183
 3819SOL    HW112356   6.756   3.995   4.119
 3819SOL    HW212357   6.806   3.978   4.273
 3820SOL     OW12358   4.731   0.164   4.620
 3820SOL    HW112359   4.762   0.147   4.714
 3820SOL    HW212360   4.721   0.077   4.572
 3821SOL     OW12361   1.416   0.287   0.449
 3821SOL    HW112362   1.360   0.366   0.423
 3821SOL    HW212363   1.460   0.249   0.368
 3822SOL     OW12364   4.661   1.159   1.644
 3822SOL    HW112365   4.719   1.091   1.600
 3822SOL    HW212366   4.577   1.115   1.677
 3823SOL     OW12367   4.713   5.851   6.456
 3823SOL    HW112368   4.687   5.755   6.470
 3823SOL    HW212369   4.631   5.908   6.456
 3824SOL     OW12370   2.098   3.213   0.083
 3824SOL    HW112371   2.013   3.165   0.104
 3824SOL    HW212372   2.117   3.206   7.009
 3825SOL     OW12373   1.398   4.109   5.603
 3825SOL    HW112374   1.440   4.044   5.539
 3825SOL    HW212375   1.462   4.130   5.676
 3826SOL     OW12376   6.111   4.036   3.289
 3826SOL    HW112377   6.046   4.112   3.284
 3826SOL    HW212378   6.114   4.001   3.382
 3827SOL     OW12379   1.246   0.971   2.020
 3827SOL    HW112380   1.340   1.005   2.006
 3827SOL    HW212381   1.182   1.048   2.013
 3828SOL     OW12382   4.086   3.509   4.051
 3828SOL    HW112383   4.140   3.529   4.133
 3828SOL    HW212384   4.060   3.594   4.006
 3829SOL     OW12385   0.752   3.572   2.597
 3829SOL    HW112386   0.705   3.497   2.644
 3829SOL    HW212387   0.759   3.651   2.657
 3830SOL     OW12388   6.781   1.353   4.427
 3830SOL    HW112389   6.835   1.306   4.498
 3830SOL    HW212390   6.725   1.287   4.378
 3831SOL     OW12391   4.320   1.967   3.407
 3831SOL    HW112392   4.354   1.879   3.441
 3831SOL    HW212393   4.253   1.951   3.334
 3832SOL     OW12394   6.550   1.159   3.349
 3832SOL    HW112395   6.467   1.191   3.304
 3832SOL    HW212396   6.543   1.061   3.369
 3833SOL     OW12397   0.427   1.750   5.554
 3833SOL    HW112398   0.430   1.830   5.493
 3833SOL    HW212399   0.486   1.678   5.517
 3834SOL     OW12400   4.708   3.960   0.187
 3834SOL    HW112401   4.779   4.022   0.153
 3834SOL    HW212402   4.660   4.002   0.263
 3835SOL     OW12403   4.244   5.427   4.666
 3835SOL    HW112404   4.196   5.507   4.628
 3835SOL    HW212405   4.180   5.350   4.672
 3836SOL     OW12406   0.415   5.836   5.280
 3836SOL    HW112407   0.394   5.796   5.191
 3836SOL    HW212408   0.476   5.914   5.268
 3837SOL     OW12409   4.523   4.911   5.124
 3837SOL    HW112410   4.552   4.913   5.029
 3837SOL    HW212411   4.549   4.997   5.169
 3838SOL     OW12412   1.297   1.314   3.914
 3838SOL    HW112413   1.275   1.408   3.942
 3838SOL    HW212414   1.339   1.266   3.991
 3839SOL     OW12415   3.649   0.836   3.227
 3839SOL    HW112416   3.595   0.804   3.150
 3839SOL    HW212417   3.738   0.868   3.194
 3840SOL     OW12418   2.532   0.689   0.343
 3840SOL    HW112419   2.554   0.593   0.361
 3840SOL    HW212420   2.521   0.702   0.244
 3841SOL     OW12421   6.675   4.168   3.523
 3841SOL    HW112422   6.703   4.174   3.618
 3841SOL    HW212423   6.666   4.260   3.485
 3842SOL     OW12424   2.187   2.880   5.213
 3842SOL    HW112425   2.221   2.791   5.242
 3842SOL    HW212426   2.252   2.922   5.150
 3843SOL     OW12427   5.293   2.432   0.235
 3843SOL    HW112428   5.359   2.430   0.160
 3843SOL    HW212429   5.210   2.478   0.205
 3844SOL     OW12430   1.336   6.030   0.563
 3844SOL    HW112431   1.354   6.101   0.495
 3844SOL    HW212432   1.369   5.942   0.529
 3845SOL     OW12433   2.058   5.837   0.750
 3845SOL    HW112434   2.044   5.744   0.717
 3845SOL    HW212435   2.064   5.900   0.672
 3846SOL     OW12436   0.874   2.629   3.385
 3846SOL    HW112437   0.905   2.640   3.290
 3846SOL    HW212438   0.953   2.620   3.445
 3847SOL     OW12439   6.495   1.202   5.971
 3847SOL    HW112440   6.451   1.121   5.931
 3847SOL    HW212441   6.594   1.194   5.964
 3848SOL     OW12442   5.206   3.727   2.231
 3848SOL    HW112443   5.118   3.699   2.194
 3848SOL    HW212444   5.200   3.819   2.268
 3849SOL     OW12445   6.828   5.772   6.642
 3849SOL    HW112446   6.819   5.865   6.607
 3849SOL    HW212447   6.739   5.739   6.673
 3850SOL     OW12448   2.656   2.628   1.148
 3850SOL    HW112449   2.749   2.607   1.118
 3850SOL    HW212450   2.658   2.702   1.215
 3851SOL     OW12451   0.356   5.766   2.690
 3851SOL    HW112452   0.426   5.712   2.644
 3851SOL    HW212453   0.279   5.781   2.629
 3852SOL     OW12454   3.544   6.274   5.581
 3852SOL    HW112455   3.475   6.271   5.653
 3852SOL    HW212456   3.635   6.267   5.622
 3853SOL     OW12457   2.615   0.874   3.962
 3853SOL    HW112458   2.662   0.893   4.048
 3853SOL    HW212459   2.665   0.916   3.887
 3854SOL     OW12460   1.772   2.731   2.660
 3854SOL    HW112461   1.732   2.812   2.618
 3854SOL    HW212462   1.863   2.753   2.695
 3855SOL     OW12463   4.223   6.829   0.685
 3855SOL    HW112464   4.185   6.920   0.701
 3855SOL    HW212465   4.152   6.760   0.701
 3856SOL     OW12466   0.465   1.780   6.524
 3856SOL    HW112467   0.400   1.704   6.522
 3856SOL    HW212468   0.465   1.826   6.435
 3857SOL     OW12469   2.168   1.243   5.457
 3857SOL    HW112470   2.230   1.282   5.389
 3857SOL    HW212471   2.187   1.282   5.546
 3858SOL     OW12472   4.057   1.079   4.861
 3858SOL    HW112473   4.143   1.130   4.856
 3858SOL    HW212474   4.064   0.997   4.805
 3859SOL     OW12475   5.545   0.462   1.503
 3859SOL    HW112476   5.574   0.367   1.514
 3859SOL    HW212477   5.618   0.523   1.535
 3860SOL     OW12478   1.268   0.282   4.373
 3860SOL    HW112479   1.322   0.247   4.297
 3860SOL    HW212480   1.287   0.227   4.455
 3861SOL     OW12481   4.478   5.669   1.542
 3861SOL    HW112482   4.508   5.581   1.578
 3861SOL    HW212483   4.520   5.743   1.595
 3862SOL     OW12484   0.935   6.434   3.708
 3862SOL    HW112485   0.881   6.515   3.731
 3862SOL    HW212486   0.873   6.358   3.686
 3863SOL     OW12487   4.724   0.640   1.132
 3863SOL    HW112488   4.739   0.588   1.216
 3863SOL    HW212489   4.725   0.577   1.054
 3864SOL     OW12490   2.735   0.316   4.461
 3864SOL    HW112491   2.804   0.333   4.391
 3864SOL    HW212492   2.648   0.357   4.433
 3865SOL     OW12493   3.973   0.503   7.005
 3865SOL    HW112494   3.937   0.465   0.067
 3865SOL    HW212495   3.909   0.571   6.970
 3866SOL     OW12496   2.263   2.732   6.816
 3866SOL    HW112497   2.350   2.781   6.811
 3866SOL    HW212498   2.279   2.639   6.849
 3867SOL     OW12499   0.646   4.211   2.879
 3867SOL    HW112500   0.640   4.234   2.976
 3867SOL    HW212501   0.700   4.128   2.868
 3868SOL     OW12502   3.548   0.855   6.636
 3868SOL    HW112503   3.516   0.892   6.724
 3868SOL    HW212504   3.482   0.788   6.602
 3869SOL     OW12505   6.266   3.119   3.259
 3869SOL    HW112506   6.355   3.075   3.246
 3869SOL    HW212507   6.202   3.087   3.189
 3870SOL     OW12508   6.397   0.536   3.453
 3870SOL    HW112509   6.365   0.518   3.546
 3870SOL    HW212510   6.402   0.635   3.439
 3871SOL     OW12511   3.095   5.804   3.854
 3871SOL    HW112512   3.071   5.901   3.856
 3871SOL    HW212513   3.100   5.772   3.760
 3872SOL     OW12514   3.548   3.259   4.583
 3872SOL    HW112515   3.599   3.266   4.496
 3872SOL    HW212516   3.551   3.347   4.630
 3873SOL     OW12517   4.487   2.062   0.529
 3873SOL    HW112518   4.497   2.121   0.609
 3873SOL    HW212519   4.430   2.108   0.461
 3874SOL     OW12520   3.963   0.057   1.061
 3874SOL    HW112521   3.914   0.087   0.980
 3874SOL    HW212522   3.897   0.036   1.134
 3875SOL     OW12523   1.409   1.884   5.253
 3875SOL    HW112524   1.347   1.851   5.324
 3875SOL    HW212525   1.420   1.814   5.182
 3876SOL     OW12526   4.274   6.513   1.273
 3876SOL    HW112527   4.187   6.560   1.285
 3876SOL    HW212528   4.330   6.562   1.206
 3877SOL     OW12529   6.974   2.188   0.427
 3877SOL    HW112530   6.911   2.230   0.362
 3877SOL    HW212531   6.941   2.201   0.520
 3878SOL     OW12532   4.511   0.112   3.821
 3878SOL    HW112533   4.445   0.038   3.810
 3878SOL    HW212534   4.475   0.178   3.887
 3879SOL     OW12535   4.808   5.014   0.012
 3879SOL    HW112536   4.731   4.953   0.032
 3879SOL    HW212537   4.886   4.959   7.005
 3880SOL     OW12538   5.349   4.132   4.447
 3880SOL    HW112539   5.267   4.080   4.423
 3880SOL    HW212540   5.412   4.072   4.497
 3881SOL     OW12541   1.112   4.317   0.407
 3881SOL    HW112542   1.130   4.236   0.464
 3881SOL    HW212543   1.196   4.370   0.398
 3882SOL     OW12544   1.162   1.598   0.441
 3882SOL    HW112545   1.207   1.643   0.518
 3882SOL    HW212546   1.063   1.613   0.447
 3883SOL     OW12547   4.509   6.823   3.318
 3883SOL    HW112548   4.560   6.865   3.393
 3883SOL    HW212549   4.486   6.729   3.342
 3884SOL     OW12550   0.893   5.997   3.595
 3884SOL    HW112551   0.849   5.926   3.540
 3884SOL    HW212552   0.885   5.975   3.692
 3885SOL     OW12553   5.786   0.056   3.276
 3885SOL    HW112554   5.859   0.103   3.226
 3885SOL    HW212555   5.797   0.070   3.374
 3886SOL     OW12556   4.447   6.785   5.427
 3886SOL    HW112557   4.539   6.779   5.466
 3886SOL    HW212558   4.380   6.771   5.499
 3887SOL     OW12559   0.629   6.248   1.160
 3887SOL    HW112560   0.646   6.335   1.205
 3887SOL    HW212561   0.575   6.189   1.220
 3888SOL     OW12562   6.124   6.081   4.423
 3888SOL    HW112563   6.208   6.129   4.400
 3888SOL    HW212564   6.128   5.987   4.390
 3889SOL     OW12565   6.238   3.036   7.005
 3889SOL    HW112566   6.207   3.122   6.963
 3889SOL    HW212567   6.265   3.054   0.077
 3890SOL     OW12568   5.796   4.009   4.254
 3890SOL    HW112569   5.747   4.095   4.261
 3890SOL    HW212570   5.736   3.933   4.279
 3891SOL     OW12571   5.405   4.663   3.903
 3891SOL    HW112572   5.353   4.600   3.845
 3891SOL    HW212573   5.361   4.669   3.993
 3892SOL     OW12574   0.095   2.196   0.992
 3892SOL    HW112575   0.089   2.223   0.896
 3892SOL    HW212576   0.137   2.105   0.998
 3893SOL     OW12577   4.363   3.266   1.462
 3893SOL    HW112578   4.457   3.292   1.441
 3893SOL    HW212579   4.357   3.234   1.556
 3894SOL     OW12580   5.096   0.296   6.698
 3894SOL    HW112581   5.091   0.329   6.792
 3894SOL    HW212582   5.179   0.242   6.686
 3895SOL     OW12583   1.496   6.859   5.504
 3895SOL    HW112584   1.534   6.866   5.412
 3895SOL    HW212585   1.437   6.779   5.510
 3896SOL     OW12586   0.694   1.055   6.912
 3896SOL    HW112587   0.781   1.100   6.892
 3896SOL    HW212588   0.646   1.105   6.983
 3897SOL     OW12589   4.450   5.900   1.871
 3897SOL    HW112590   4.483   5.975   1.928
 3897SOL    HW212591   4.510   5.890   1.791
 3898SOL     OW12592   3.920   2.489   6.537
 3898SOL    HW112593   3.992   2.524   6.477
 3898SOL    HW212594   3.831   2.519   6.502
 3899SOL     OW12595   4.679   0.368   5.974
 3899SOL    HW112596   4.643   0.317   5.896
 3899SOL    HW212597   4.759   0.419   5.945
 3900SOL     OW12598   5.354   3.450   3.801
 3900SOL    HW112599   5.323   3.496   3.717
 3900SOL    HW212600   5.443   3.407   3.785
 3901SOL     OW12601   3.206   0.472   6.320
 3901SOL    HW112602   3.171   0.558   6.359
 3901SOL    HW212603   3.221   0.406   6.394
 3902SOL     OW12604   5.879   3.356   2.273
 3902SOL    HW112605   5.908   3.358   2.177
 3902SOL    HW212606   5.786   3.318   2.279
 3903SOL     OW12607   3.956   6.446   0.374
 3903SOL    HW112608   3.889   6.441   0.300
 3903SOL    HW212609   3.925   6.390   0.451
 3904SOL     OW12610   0.821   0.732   6.597
 3904SOL    HW112611   0.786   0.757   6.687
 3904SOL    HW212612   0.908   0.684   6.607
 3905SOL     OW12613   6.972   6.416   6.616
 3905SOL    HW112614   6.894   6.458   6.662
 3905SOL    HW212615   6.997   6.469   6.535
 3906SOL     OW12616   5.692   6.315   5.876
 3906SOL    HW112617   5.755   6.278   5.944
 3906SOL    HW212618   5.723   6.405   5.847
 3907SOL     OW12619   5.940   1.858   3.345
 3907SOL    HW112620   5.990   1.899   3.421
 3907SOL    HW212621   5.929   1.760   3.361
 3908SOL     OW12622   0.943   2.463   6.659
 3908SOL    HW112623   0.977   2.557   6.648
 3908SOL    HW212624   0.851   2.467   6.699
 3909SOL     OW12625   4.969   5.532   4.687
 3909SOL    HW112626   4.947   5.619   4.642
 3909SOL    HW212627   5.040   5.548   4.756
 3910SOL     OW12628   3.386   3.911   2.528
 3910SOL    HW112629   3.389   3.999   2.480
 3910SOL    HW212630   3.393   3.837   2.461
 3911SOL     OW12631   5.953   1.788   4.612
 3911SOL    HW112632   5.973   1.883   4.587
 3911SOL    HW212633   5.922   1.737   4.532
 3912SOL     OW12634   5.559   2.132   5.149
 3912SOL    HW112635   5.542   2.224   5.113
 3912SOL    HW212636   5.585   2.071   5.074
 3913SOL     OW12637   1.493   0.334   6.275
 3913SOL    HW112638   1.569   0.394   6.298
 3913SOL    HW212639   1.406   0.381   6.292
 3914SOL     OW12640   3.159   0.060   0.040
 3914SOL    HW112641   3.088   7.013   0.033
 3914SOL    HW212642   3.213   0.045   0.123
 3915SOL     OW12643   5.289   5.489   1.088
 3915SOL    HW112644   5.325   5.404   1.126
 3915SOL    HW212645   5.189   5.481   1.080
 3916SOL     OW12646   0.764   6.958   2.653
 3916SOL    HW112647   0.690   6.933   2.716
 3916SOL    HW212648   0.846   6.980   2.706
 3917SOL     OW12649   1.173   6.938   0.040
 3917SOL    HW112650   1.082   6.900   0.052
 3917SOL    HW212651   1.216   6.896   6.983
 3918SOL     OW12652   5.210   4.736   1.454
 3918SOL    HW112653   5.205   4.819   1.399
 3918SOL    HW212654   5.117   4.703   1.473
 3919SOL     OW12655   4.110   0.302   0.822
 3919SOL    HW112656   4.037   0.311   0.754
 3919SOL    HW212657   4.070   0.277   0.910
 3920SOL     OW12658   2.389   3.754   0.432
 3920SOL    HW112659   2.414   3.722   0.340
 3920SOL    HW212660   2.291   3.769   0.437
 3921SOL     OW12661   0.473   3.934   1.634
 3921SOL    HW112662   0.416   3.935   1.717
 3921SOL    HW212663   0.483   4.027   1.600
 3922SOL     OW12664   6.937   3.870   2.118
 3922SOL    HW112665   6.957   3.773   2.100
 3922SOL    HW212666   6.998   3.904   2.189
 3923SOL     OW12667   0.796   0.832   0.453
 3923SOL    HW112668   0.846   0.893   0.392
 3923SOL    HW212669   0.855   0.756   0.479
 3924SOL     OW12670   6.015   4.491   4.309
 3924SOL    HW112671   6.037   4.584   4.338
 3924SOL    HW212672   6.095   4.432   4.320
 3925SOL     OW12673   1.177   4.622   1.538
 3925SOL    HW112674   1.211   4.663   1.623
 3925SOL    HW212675   1.220   4.667   1.460
 3926SOL     OW12676   4.352   4.867   2.703
 3926SOL    HW112677   4.407   4.880   2.786
 3926SOL    HW212678   4.271   4.813   2.725
 3927SOL     OW12679   6.537   3.066   5.950
 3927SOL    HW112680   6.630   3.097   5.970
 3927SOL    HW212681   6.506   3.006   6.024
 3928SOL     OW12682   4.592   6.042   6.834
 3928SOL    HW112683   4.525   5.984   6.881
 3928SOL    HW212684   4.547   6.123   6.797
 3929SOL     OW12685   0.830   0.123   4.963
 3929SOL    HW112686   0.813   0.211   4.919
 3929SOL    HW212687   0.925   0.119   4.993
 3930SOL     OW12688   2.665   2.032   4.188
 3930SOL    HW112689   2.638   1.996   4.098
 3930SOL    HW212690   2.725   1.967   4.233
 3931SOL     OW12691   0.460   1.496   1.762
 3931SOL    HW112692   0.533   1.486   1.695
 3931SOL    HW212693   0.423   1.406   1.785
 3932SOL     OW12694   0.584   3.311   4.104
 3932SOL    HW112695   0.539   3.254   4.035
 3932SOL    HW212696   0.683   3.305   4.092
 3933SOL     OW12697   2.172   0.316   6.027
 3933SOL    HW112698   2.135   0.223   6.017
 3933SOL    HW212699   2.096   0.381   6.032
 3934SOL     OW12700   6.057   0.208   5.917
 3934SOL    HW112701   6.094   0.121   5.887
 3934SOL    HW212702   6.130   0.265   5.954
 3935SOL     OW12703   3.862   0.003   0.730
 3935SOL    HW112704   3.791   6.958   0.743
 3935SOL    HW212705   3.859   0.036   0.636
 3936SOL     OW12706   6.774   5.666   4.618
 3936SOL    HW112707   6.872   5.655   4.634
 3936SOL    HW212708   6.753   5.645   4.522
 3937SOL     OW12709   0.598   2.324   2.286
 3937SOL    HW112710   0.650   2.407   2.267
 3937SOL    HW212711   0.636   2.248   2.233
 3938SOL     OW12712   0.628   1.437   3.097
 3938SOL    HW112713   0.692   1.503   3.057
 3938SOL    HW212714   0.597   1.472   3.186
 3939SOL     OW12715   2.598   2.026   2.545
 3939SOL    HW112716   2.687   2.019   2.500
 3939SOL    HW212717   2.611   2.051   2.641
 3940SOL     OW12718   4.106   3.219   1.695
 3940SOL    HW112719   4.090   3.310   1.659
 3940SOL    HW212720   4.120   3.224   1.794
 3941SOL     OW12721   4.728   5.187   5.968
 3941SOL    HW112722   4.731   5.287   5.963
 3941SOL    HW212723   4.804   5.148   5.917
 3942SOL     OW12724   6.838   6.276   7.003
 3942SOL    HW112725   6.890   6.191   6.996
 3942SOL    HW212726   6.745   6.256   0.011
 3943SOL     OW12727   0.675   3.111   4.314
 3943SOL    HW112728   0.600   3.167   4.350
 3943SOL    HW212729   0.684   3.127   4.216
 3944SOL     OW12730   4.745   2.693   4.870
 3944SOL    HW112731   4.664   2.645   4.838
 3944SOL    HW212732   4.822   2.629   4.876
 3945SOL     OW12733   0.142   1.782   0.607
 3945SOL    HW112734   0.217   1.751   0.548
 3945SOL    HW212735   0.056   1.774   0.558
 3946SOL     OW12736   5.188   4.097   3.815
 3946SOL    HW112737   5.137   4.075   3.898
 3946SOL    HW212738   5.124   4.113   3.740
 3947SOL     OW12739   4.540   6.417   0.381
 3947SOL    HW112740   4.548   6.340   0.445
 3947SOL    HW212741   4.568   6.388   0.290
 3948SOL     OW12742   6.733   4.239   1.674
 3948SOL    HW112743   6.771   4.327   1.706
 3948SOL    HW212744   6.633   4.242   1.680
 3949SOL     OW12745   5.314   5.672   3.169
 3949SOL    HW112746   5.372   5.733   3.115
 3949SOL    HW212747   5.218   5.693   3.151
 3950SOL     OW12748   1.474   5.354   1.177
 3950SOL    HW112749   1.437   5.299   1.102
 3950SOL    HW212750   1.459   5.451   1.158
 3951SOL     OW12751   4.980   0.698   1.473
 3951SOL    HW112752   4.927   0.778   1.503
 3951SOL    HW212753   4.918   0.620   1.463
 3952SOL     OW12754   0.206   1.898   1.002
 3952SOL    HW112755   0.260   1.857   0.928
 3952SOL    HW212756   0.123   1.844   1.017
 3953SOL     OW12757   4.062   3.483   1.635
 3953SOL    HW112758   4.026   3.544   1.706
 3953SOL    HW212759   4.016   3.502   1.549
 3954SOL     OW12760   4.381   5.807   5.810
 3954SOL    HW112761   4.465   5.840   5.767
 3954SOL    HW212762   4.392   5.710   5.834
 3955SOL     OW12763   3.118   1.609   5.645
 3955SOL    HW112764   3.023   1.614   5.613
 3955SOL    HW212765   3.151   1.515   5.637
 3956SOL     OW12766   1.475   1.037   2.305
 3956SOL    HW112767   1.459   0.939   2.318
 3956SOL    HW212768   1.510   1.053   2.213
 3957SOL     OW12769   4.128   6.949   4.333
 3957SOL    HW112770   4.159   6.919   4.423
 3957SOL    HW212771   4.201   7.000   4.288
 3958SOL     OW12772   6.323   2.227   3.753
 3958SOL    HW112773   6.330   2.147   3.814
 3958SOL    HW212774   6.229   2.237   3.722
 3959SOL     OW12775   5.193   4.994   0.546
 3959SOL    HW112776   5.142   5.040   0.473
 3959SOL    HW212777   5.200   5.055   0.625
 3960SOL     OW12778   5.667   1.511   5.204
 3960SOL    HW112779   5.759   1.497   5.168
 3960SOL    HW212780   5.641   1.607   5.193
 3961SOL     OW12781   5.203   0.688   3.496
 3961SOL    HW112782   5.105   0.668   3.504
 3961SOL    HW212783   5.248   0.662   3.581
 3962SOL     OW12784   1.093   4.973   5.850
 3962SOL    HW112785   1.051   5.049   5.901
 3962SOL    HW212786   1.054   4.887   5.882
 3963SOL     OW12787   4.871   6.263   2.016
 3963SOL    HW112788   4.824   6.184   2.054
 3963SOL    HW212789   4.821   6.346   2.041
 3964SOL     OW12790   4.762   4.126   3.423
 3964SOL    HW112791   4.666   4.131   3.449
 3964SOL    HW212792   4.773   4.062   3.347
 3965SOL     OW12793   4.955   3.244   4.205
 3965SOL    HW112794   5.029   3.285   4.152
 3965SOL    HW212795   4.923   3.161   4.158
 3966SOL     OW12796   3.845   5.737   6.915
 3966SOL    HW112797   3.822   5.661   6.976
 3966SOL    HW212798   3.839   5.707   6.820
 3967SOL     OW12799   2.286   4.381   1.541
 3967SOL    HW112800   2.363   4.390   1.604
 3967SOL    HW212801   2.314   4.325   1.462
 3968SOL     OW12802   4.807   0.680   0.812
 3968SOL    HW112803   4.785   0.777   0.824
 3968SOL    HW212804   4.724   0.629   0.789
 3969SOL     OW12805   1.350   5.310   1.746
 3969SOL    HW112806   1.389   5.288   1.657
 3969SOL    HW212807   1.252   5.290   1.746
 3970SOL     OW12808   5.249   5.971   2.515
 3970SOL    HW112809   5.220   6.049   2.460
 3970SOL    HW212810   5.183   5.897   2.506
 3971SOL     OW12811   2.753   5.792   4.322
 3971SOL    HW112812   2.694   5.789   4.241
 3971SOL    HW212813   2.842   5.754   4.299
 3972SOL     OW12814   1.076   3.902   6.922
 3972SOL    HW112815   1.037   3.833   6.983
 3972SOL    HW212816   1.094   3.860   6.833
 3973SOL     OW12817   1.184   5.470   0.803
 3973SOL    HW112818   1.252   5.470   0.730
 3973SOL    HW212819   1.100   5.425   0.770
 3974SOL     OW12820   2.028   0.752   6.089
 3974SOL    HW112821   1.971   0.685   6.041
 3974SOL    HW212822   2.028   0.732   6.187
 3975SOL     OW12823   5.085   2.016   6.207
 3975SOL    HW112824   5.037   1.989   6.291
 3975SOL    HW212825   5.180   1.986   6.213
 3976SOL     OW12826   1.850   6.311   2.468
 3976SOL    HW112827   1.871   6.387   2.406
 3976SOL    HW212828   1.935   6.268   2.498
 3977SOL     OW12829   1.286   3.602   6.455
 3977SOL    HW112830   1.240   3.683   6.420
 3977SOL    HW212831   1.218   3.532   6.477
 3978SOL     OW12832   6.582   4.968   3.263
 3978SOL    HW112833   6.611   4.933   3.174
 3978SOL    HW212834   6.644   4.934   3.334
 3979SOL     OW12835   3.531   1.009   6.206
 3979SOL    HW112836   3.472   1.089   6.215
 3979SOL    HW212837   3.591   1.002   6.285
 3980SOL     OW12838   6.063   6.682   6.624
 3980SOL    HW112839   6.108   6.763   6.662
 3980SOL    HW212840   6.016   6.633   6.697
 3981SOL     OW12841   4.710   5.918   1.096
 3981SOL    HW112842   4.740   5.872   1.013
 3981SOL    HW212843   4.698   6.016   1.078
 3982SOL     OW12844   2.410   6.949   2.323
 3982SOL    HW112845   2.506   6.924   2.315
 3982SOL    HW212846   2.395   0.014   2.279
 3983SOL     OW12847   4.899   5.080   3.834
 3983SOL    HW112848   4.968   5.103   3.764
 3983SOL    HW212849   4.810   5.113   3.804
 3984SOL     OW12850   6.210   1.459   2.691
 3984SOL    HW112851   6.164   1.543   2.720
 3984SOL    HW212852   6.167   1.380   2.736
 3985SOL     OW12853   3.701   5.353   6.531
 3985SOL    HW112854   3.607   5.321   6.544
 3985SOL    HW212855   3.762   5.304   6.593
 3986SOL     OW12856   4.766   1.626   3.272
 3986SOL    HW112857   4.741   1.707   3.218
 3986SOL    HW212858   4.726   1.545   3.230
 3987SOL     OW12859   3.419   4.970   4.505
 3987SOL    HW112860   3.328   4.957   4.544
 3987SOL    HW212861   3.429   4.914   4.422
 3988SOL     OW12862   3.799   5.531   0.069
 3988SOL    HW112863   3.893   5.500   0.075
 3988SOL    HW212864   3.746   5.493   0.144
 3989SOL     OW12865   6.424   2.264   0.260
 3989SOL    HW112866   6.403   2.167   0.252
 3989SOL    HW212867   6.500   2.287   0.199
 3990SOL     OW12868   5.109   2.227   1.740
 3990SOL    HW112869   5.088   2.198   1.647
 3990SOL    HW212870   5.142   2.321   1.739
 3991SOL     OW12871   0.495   1.190   2.276
 3991SOL    HW112872   0.541   1.102   2.273
 3991SOL    HW212873   0.499   1.234   2.186
 3992SOL     OW12874   3.136   2.169   0.666
 3992SOL    HW112875   3.188   2.125   0.593
 3992SOL    HW212876   3.051   2.119   0.681
 3993SOL     OW12877   1.227   3.183   1.878
 3993SOL    HW112878   1.172   3.136   1.946
 3993SOL    HW212879   1.255   3.272   1.913
 3994SOL     OW12880   2.706   0.159   4.872
 3994SOL    HW112881   2.647   0.239   4.882
 3994SOL    HW212882   2.727   0.123   4.963
 3995SOL     OW12883   1.749   3.323   5.280
 3995SOL    HW112884   1.745   3.405   5.338
 3995SOL    HW212885   1.670   3.265   5.299
 3996SOL     OW12886   0.282   6.843   5.510
 3996SOL    HW112887   0.264   6.886   5.421
 3996SOL    HW212888   0.260   6.746   5.505
 3997SOL     OW12889   5.589   1.266   5.000
 3997SOL    HW112890   5.568   1.320   4.919
 3997SOL    HW212891   5.657   1.313   5.055
 3998SOL     OW12892   3.570   1.527   4.131
 3998SOL    HW112893   3.496   1.594   4.140
 3998SOL    HW212894   3.598   1.497   4.223
 3999SOL     OW12895   6.248   2.547   4.288
 3999SOL    HW112896   6.329   2.559   4.229
 3999SOL    HW212897   6.212   2.637   4.313
 4000SOL     OW12898   3.206   6.742   4.202
 4000SOL    HW112899   3.204   6.658   4.256
 4000SOL    HW212900   3.233   6.720   4.108
 4001SOL     OW12901   2.077   1.794   4.127
 4001SOL    HW112902   2.036   1.864   4.069
 4001SOL    HW212903   2.072   1.705   4.081
 4002SOL     OW12904   2.448   3.563   1.592
 4002SOL    HW112905   2.438   3.483   1.532
 4002SOL    HW212906   2.414   3.540   1.683
 4003SOL     OW12907   3.499   6.969   4.787
 4003SOL    HW112908   3.429   6.927   4.729
 4003SOL    HW212909   3.586   6.971   4.737
 4004SOL     OW12910   0.107   2.542   4.974
 4004SOL    HW112911   0.188   2.590   4.939
 4004SOL    HW212912   0.086   2.575   5.066
 4005SOL     OW12913   4.813   6.358   6.937
 4005SOL    HW112914   4.838   6.384   0.006
 4005SOL    HW212915   4.741   6.418   6.903
 4006SOL     OW12916   3.877   5.320   2.118
 4006SOL    HW112917   3.937   5.400   2.118
 4006SOL    HW212918   3.803   5.334   2.184
 4007SOL     OW12919   0.349   2.699   0.086
 4007SOL    HW112920   0.448   2.697   0.100
 4007SOL    HW212921   0.327   2.767   0.017
 4008SOL     OW12922   2.449   2.400   4.619
 4008SOL    HW112923   2.396   2.322   4.586
 4008SOL    HW212924   2.533   2.410   4.565
 4009SOL     OW12925   4.070   3.497   2.220
 4009SOL    HW112926   4.126   3.498   2.138
 4009SOL    HW212927   3.977   3.468   2.197
 4010SOL     OW12928   2.649   3.106   1.183
 4010SOL    HW112929   2.602   3.045   1.247
 4010SOL    HW212930   2.717   3.053   1.131
 4011SOL     OW12931   0.780   1.938   1.507
 4011SOL    HW112932   0.710   1.886   1.557
 4011SOL    HW212933   0.813   2.014   1.564
 4012SOL     OW12934   6.577   4.467   2.595
 4012SOL    HW112935   6.670   4.502   2.599
 4012SOL    HW212936   6.529   4.509   2.518
 4013SOL     OW12937   4.420   2.169   4.218
 4013SOL    HW112938   4.362   2.088   4.207
 4013SOL    HW212939   4.373   2.249   4.179
 4014SOL     OW12940   5.560   6.208   3.034
 4014SOL    HW112941   5.517   6.128   2.994
 4014SOL    HW212942   5.510   6.234   3.118
 4015SOL     OW12943   4.851   4.283   5.546
 4015SOL    HW112944   4.870   4.378   5.522
 4015SOL    HW212945   4.906   4.256   5.625
 4016SOL     OW12946   3.234   5.844   6.005
 4016SOL    HW112947   3.169   5.868   6.078
 4016SOL    HW212948   3.204   5.760   5.960
 4017SOL     OW12949   6.556   5.611   6.962
 4017SOL    HW112950   6.478   5.577   7.015
 4017SOL    HW212951   6.570   5.708   6.981
 4018SOL     OW12952   4.020   5.686   1.529
 4018SOL    HW112953   3.943   5.740   1.563
 4018SOL    HW212954   3.986   5.614   1.468
 4019SOL     OW12955   5.442   4.780   3.313
 4019SOL    HW112956   5.377   4.720   3.266
 4019SOL    HW212957   5.532   4.738   3.313
 4020SOL     OW12958   5.261   2.333   5.805
 4020SOL    HW112959   5.260   2.236   5.780
 4020SOL    HW212960   5.352   2.357   5.841
 4021SOL     OW12961   3.466   4.656   5.573
 4021SOL    HW112962   3.407   4.620   5.501
 4021SOL    HW212963   3.445   4.611   5.659
 4022SOL     OW12964   5.324   0.662   0.451
 4022SOL    HW112965   5.254   0.730   0.429
 4022SOL    HW212966   5.383   0.697   0.523
 4023SOL     OW12967   5.999   1.628   5.353
 4023SOL    HW112968   6.028   1.533   5.365
 4023SOL    HW212969   5.899   1.633   5.362
 4024SOL     OW12970   4.231   4.745   4.069
 4024SOL    HW112971   4.282   4.685   4.008
 4024SOL    HW212972   4.251   4.840   4.048
 4025SOL     OW12973   0.664   4.271   3.494
 4025SOL    HW112974   0.666   4.313   3.585
 4025SOL    HW212975   0.678   4.172   3.503
 4026SOL     OW12976   5.176   6.068   4.145
 4026SOL    HW112977   5.264   6.097   4.183
 4026SOL    HW212978   5.149   5.981   4.185
 4027SOL     OW12979   4.022   5.072   2.060
 4027SOL    HW112980   3.952   5.134   2.097
 4027SOL    HW212981   4.098   5.126   2.024
 4028SOL     OW12982   2.426   1.511   4.427
 4028SOL    HW112983   2.379   1.494   4.514
 4028SOL    HW212984   2.435   1.425   4.377
 4029SOL     OW12985   1.802   4.635   4.803
 4029SOL    HW112986   1.728   4.702   4.813
 4029SOL    HW212987   1.834   4.607   4.894
 4030SOL     OW12988   0.255   2.188   5.563
 4030SOL    HW112989   0.284   2.260   5.627
 4030SOL    HW212990   0.334   2.133   5.536
 4031SOL     OW12991   4.117   5.412   3.751
 4031SOL    HW112992   4.191   5.448   3.809
 4031SOL    HW212993   4.031   5.417   3.801
 4032SOL     OW12994   5.244   0.182   4.517
 4032SOL    HW112995   5.274   0.227   4.433
 4032SOL    HW212996   5.186   0.104   4.495
 4033SOL     OW12997   2.946   3.775   5.628
 4033SOL    HW112998   2.991   3.686   5.635
 4033SOL    HW212999   2.900   3.795   5.714
 4034SOL     OW13000   0.007   2.114   3.698
 4034SOL    HW113001   0.075   2.065   3.644
 4034SOL    HW213002   0.048   2.195   3.739
 4035SOL     OW13003   6.678   4.497   0.262
 4035SOL    HW113004   6.612   4.422   0.257
 4035SOL    HW213005   6.639   4.579   0.221
 4036SOL     OW13006   0.102   0.236   2.272
 4036SOL    HW113007   0.052   0.172   2.330
 4036SOL    HW213008   0.039   0.284   2.212
 4037SOL     OW13009   0.372   3.968   0.087
 4037SOL    HW113010   0.436   4.044   0.097
 4037SOL    HW213011   0.339   3.964   7.016
 4038SOL     OW13012   6.047   4.266   4.082
 4038SOL    HW113013   5.958   4.254   4.039
 4038SOL    HW213014   6.045   4.350   4.137
 4039SOL     OW13015   4.867   6.297   0.671
 4039SOL    HW113016   4.952   6.328   0.714
 4039SOL    HW213017   4.833   6.217   0.720
 4040SOL     OW13018   3.874   6.294   1.617
 4040SOL    HW113019   3.867   6.392   1.598
 4040SOL    HW213020   3.961   6.275   1.663
 4041SOL     OW13021   1.416   6.507   3.988
 4041SOL    HW113022   1.495   6.560   3.957
 4041SOL    HW213023   1.353   6.494   3.911
 4042SOL     OW13024   5.915   5.131   1.954
 4042SOL    HW113025   5.936   5.213   1.901
 4042SOL    HW213026   5.828   5.092   1.923
 4043SOL     OW13027   6.351   2.328   1.207
 4043SOL    HW113028   6.442   2.308   1.171
 4043SOL    HW213029   6.283   2.276   1.156
 4044SOL     OW13030   6.224   6.100   3.719
 4044SOL    HW113031   6.253   6.187   3.680
 4044SOL    HW213032   6.250   6.096   3.816
 4045SOL     OW13033   2.879   6.197   6.090
 4045SOL    HW113034   2.829   6.205   6.004
 4045SOL    HW213035   2.976   6.214   6.074
 4046SOL     OW13036   1.012   3.126   1.218
 4046SOL    HW113037   1.094   3.110   1.274
 4046SOL    HW213038   1.039   3.134   1.122
 4047SOL     OW13039   2.825   4.130   1.236
 4047SOL    HW113040   2.856   4.175   1.152
 4047SOL    HW213041   2.855   4.183   1.315
 4048SOL     OW13042   5.321   0.755   1.331
 4048SOL    HW113043   5.396   0.772   1.267
 4048SOL    HW213044   5.280   0.666   1.311
 4049SOL     OW13045   5.712   0.163   4.716
 4049SOL    HW113046   5.631   0.218   4.696
 4049SOL    HW213047   5.684   0.070   4.739
 4050SOL     OW13048   3.049   0.432   0.822
 4050SOL    HW113049   3.005   0.521   0.817
 4050SOL    HW213050   3.013   0.380   0.899
 4051SOL     OW13051   3.232   3.723   0.771
 4051SOL    HW113052   3.202   3.627   0.780
 4051SOL    HW213053   3.164   3.783   0.815
 4052SOL     OW13054   1.041   6.637   1.500
 4052SOL    HW113055   1.011   6.647   1.595
 4052SOL    HW213056   0.969   6.671   1.439
 4053SOL     OW13057   3.507   4.955   3.343
 4053SOL    HW113058   3.600   4.933   3.313
 4053SOL    HW213059   3.443   4.939   3.267
 4054SOL     OW13060   4.881   1.864   0.620
 4054SOL    HW113061   4.829   1.944   0.590
 4054SOL    HW213062   4.978   1.888   0.627
 4055SOL     OW13063   2.968   2.261   6.991
 4055SOL    HW113064   3.027   2.302   0.038
 4055SOL    HW213065   2.979   2.310   6.905
 4056SOL     OW13066   4.232   3.746   0.547
 4056SOL    HW113067   4.303   3.716   0.483
 4056SOL    HW213068   4.262   3.727   0.641
 4057SOL     OW13069   4.965   2.795   6.733
 4057SOL    HW113070   5.060   2.764   6.733
 4057SOL    HW213071   4.917   2.755   6.811
 4058SOL     OW13072   1.105   0.517   4.889
 4058SOL    HW113073   1.105   0.525   4.989
 4058SOL    HW213074   1.145   0.599   4.849
 4059SOL     OW13075   0.354   2.396   4.507
 4059SOL    HW113076   0.435   2.362   4.459
 4059SOL    HW213077   0.381   2.471   4.568
 4060SOL     OW13078   4.438   5.626   3.739
 4060SOL    HW113079   4.479   5.680   3.665
 4060SOL    HW213080   4.387   5.686   3.800
 4061SOL     OW13081   2.768   3.017   1.497
 4061SOL    HW113082   2.698   2.984   1.433
 4061SOL    HW213083   2.840   2.948   1.507
 4062SOL     OW13084   2.197   0.131   2.986
 4062SOL    HW113085   2.255   0.158   2.909
 4062SOL    HW213086   2.248   0.142   3.072
 4063SOL     OW13087   2.776   5.376   6.290
 4063SOL    HW113088   2.857   5.425   6.323
 4063SOL    HW213089   2.754   5.301   6.352
 4064SOL     OW13090   6.841   6.602   3.866
 4064SOL    HW113091   6.838   6.547   3.782
 4064SOL    HW213092   6.775   6.676   3.860
 4065SOL     OW13093   6.140   5.133   6.990
 4065SOL    HW113094   6.106   5.164   6.901
 4065SOL    HW213095   6.220   5.074   6.977
 4066SOL     OW13096   6.007   4.882   2.156
 4066SOL    HW113097   5.978   4.976   2.141
 4066SOL    HW213098   5.976   4.851   2.246
 4067SOL     OW13099   5.733   1.015   2.228
 4067SOL    HW113100   5.702   1.069   2.150
 4067SOL    HW213101   5.745   1.074   2.308
 4068SOL     OW13102   6.440   1.008   3.692
 4068SOL    HW113103   6.513   0.942   3.709
 4068SOL    HW213104   6.479   1.101   3.690
 4069SOL     OW13105   6.664   5.627   1.227
 4069SOL    HW113106   6.591   5.607   1.161
 4069SOL    HW213107   6.626   5.631   1.319
 4070SOL     OW13108   1.109   3.270   2.901
 4070SOL    HW113109   1.168   3.320   2.838
 4070SOL    HW213110   1.049   3.335   2.949
 4071SOL     OW13111   1.927   6.349   4.131
 4071SOL    HW113112   1.878   6.264   4.151
 4071SOL    HW213113   2.021   6.327   4.105
 4072SOL     OW13114   0.739   0.471   4.103
 4072SOL    HW113115   0.667   0.463   4.172
 4072SOL    HW213116   0.758   0.567   4.085
 4073SOL     OW13117   2.286   5.177   0.519
 4073SOL    HW113118   2.195   5.187   0.478
 4073SOL    HW213119   2.323   5.267   0.540
 4074SOL     OW13120   1.720   2.628   0.451
 4074SOL    HW113121   1.649   2.602   0.516
 4074SOL    HW213122   1.685   2.699   0.390
 4075SOL     OW13123   5.220   1.117   3.432
 4075SOL    HW113124   5.246   1.052   3.361
 4075SOL    HW213125   5.288   1.115   3.505
 4076SOL     OW13126   1.545   2.551   3.691
 4076SOL    HW113127   1.596   2.537   3.776
 4076SOL    HW213128   1.503   2.641   3.691
 4077SOL     OW13129   2.320   1.701   0.773
 4077SOL    HW113130   2.394   1.685   0.837
 4077SOL    HW213131   2.234   1.711   0.823
 4078SOL     OW13132   5.523   3.845   1.705
 4078SOL    HW113133   5.477   3.921   1.658
 4078SOL    HW213134   5.456   3.774   1.726
 4079SOL     OW13135   0.476   1.220   3.923
 4079SOL    HW113136   0.463   1.318   3.912
 4079SOL    HW213137   0.479   1.198   4.021
 4080SOL     OW13138   3.782   2.929   2.401
 4080SOL    HW113139   3.864   2.984   2.420
 4080SOL    HW213140   3.786   2.896   2.307
 4081SOL     OW13141   2.330   2.434   6.443
 4081SOL    HW113142   2.295   2.526   6.462
 4081SOL    HW213143   2.426   2.429   6.468
 4082SOL     OW13144   1.308   2.795   5.416
 4082SOL    HW113145   1.224   2.831   5.376
 4082SOL    HW213146   1.362   2.869   5.455
 4083SOL     OW13147   5.595   4.622   3.652
 4083SOL    HW113148   5.505   4.663   3.641
 4083SOL    HW213149   5.650   4.641   3.571
 4084SOL     OW13150   4.543   0.305   3.427
 4084SOL    HW113151   4.564   0.295   3.524
 4084SOL    HW213152   4.603   0.245   3.374
 4085SOL     OW13153   4.046   4.896   2.467
 4085SOL    HW113154   3.953   4.869   2.491
 4085SOL    HW213155   4.070   4.857   2.379
 4086SOL     OW13156   6.156   4.842   6.455
 4086SOL    HW113157   6.070   4.833   6.405
 4086SOL    HW213158   6.198   4.930   6.432
 4087SOL     OW13159   2.400   0.308   1.896
 4087SOL    HW113160   2.314   0.342   1.934
 4087SOL    HW213161   2.477   0.339   1.952
 4088SOL     OW13162   0.232   1.959   5.346
 4088SOL    HW113163   0.190   2.018   5.277
 4088SOL    HW213164   0.298   2.012   5.400
 4089SOL     OW13165   1.567   0.527   3.069
 4089SOL    HW113166   1.588   0.599   3.002
 4089SOL    HW213167   1.468   0.515   3.074
 4090SOL     OW13168   2.799   1.701   5.789
 4090SOL    HW113169   2.835   1.765   5.858
 4090SOL    HW213170   2.862   1.697   5.712
 4091SOL     OW13171   3.211   6.151   1.128
 4091SOL    HW113172   3.219   6.215   1.052
 4091SOL    HW213173   3.204   6.058   1.093
 4092SOL     OW13174   5.696   3.149   3.954
 4092SOL    HW113175   5.612   3.131   4.006
 4092SOL    HW213176   5.675   3.202   3.872
 4093SOL     OW13177   5.321   4.609   4.153
 4093SOL    HW113178   5.394   4.676   4.171
 4093SOL    HW213179   5.282   4.579   4.240
 4094SOL     OW13180   6.921   5.610   0.118
 4094SOL    HW113181   6.947   5.702   0.088
 4094SOL    HW213182   6.913   5.550   0.038
 4095SOL     OW13183   0.713   5.286   0.339
 4095SOL    HW113184   0.794   5.311   0.286
 4095SOL    HW213185   0.636   5.344   0.312
 4096SOL     OW13186   0.290   1.027   6.925
 4096SOL    HW113187   0.353   1.092   6.967
 4096SOL    HW213188   0.327   0.997   6.837
 4097SOL     OW13189   6.423   4.717   5.098
 4097SOL    HW113190   6.406   4.803   5.048
 4097SOL    HW213191   6.521   4.709   5.116
 4098SOL     OW13192   2.277   4.420   2.937
 4098SOL    HW113193   2.182   4.426   2.906
 4098SOL    HW213194   2.293   4.489   3.008
 4099SOL     OW13195   4.537   4.193   6.217
 4099SOL    HW113196   4.532   4.180   6.118
 4099SOL    HW213197   4.466   4.257   6.246
 4100SOL     OW13198   1.516   0.403   4.045
 4100SOL    HW113199   1.429   0.448   4.026
 4100SOL    HW213200   1.513   0.361   4.136
 4101SOL     OW13201   6.404   5.780   0.215
 4101SOL    HW113202   6.332   5.744   0.156
 4101SOL    HW213203   6.459   5.705   0.251
 4102SOL     OW13204   1.786   7.006   0.066
 4102SOL    HW113205   1.885   7.011   0.053
 4102SOL    HW213206   1.760   0.035   0.147
 4103SOL     OW13207   1.992   6.087   3.680
 4103SOL    HW113208   2.065   6.018   3.680
 4103SOL    HW213209   2.030   6.175   3.711
 4104SOL     OW13210   2.178   5.435   4.355
 4104SOL    HW113211   2.093   5.488   4.351
 4104SOL    HW213212   2.255   5.494   4.332
 4105SOL     OW13213   4.500   0.616   1.544
 4105SOL    HW113214   4.451   0.669   1.475
 4105SOL    HW213215   4.593   0.599   1.513
 4106SOL     OW13216   1.360   0.767   3.307
 4106SOL    HW113217   1.282   0.704   3.308
 4106SOL    HW213218   1.411   0.757   3.393
 4107SOL     OW13219   1.174   0.024   0.364
 4107SOL    HW113220   1.124   7.021   0.282
 4107SOL    HW213221   1.271   0.036   0.342
 4108SOL     OW13222   6.505   5.690   5.350
 4108SOL    HW113223   6.412   5.673   5.381
 4108SOL    HW213224   6.541   5.773   5.393
 4109SOL     OW13225   5.712   5.942   3.825
 4109SOL    HW113226   5.628   5.927   3.772
 4109SOL    HW213227   5.763   5.856   3.831
 4110SOL     OW13228   5.010   2.752   0.633
 4110SOL    HW113229   5.016   2.744   0.732
 4110SOL    HW213230   5.088   2.706   0.591
 4111SOL     OW13231   6.539   3.608   4.357
 4111SOL    HW113232   6.636   3.627   4.346
 4111SOL    HW213233   6.526   3.521   4.403
 4112SOL     OW13234   4.735   6.023   4.891
 4112SOL    HW113235   4.831   6.051   4.894
 4112SOL    HW213236   4.676   6.101   4.913
 4113SOL     OW13237   4.135   5.146   4.803
 4113SOL    HW113238   4.082   5.125   4.885
 4113SOL    HW213239   4.134   5.067   4.741
 4114SOL     OW13240   0.408   1.213   1.545
 4114SOL    HW113241   0.401   1.305   1.508
 4114SOL    HW213242   0.397   1.215   1.645
 4115SOL     OW13243   4.047   5.717   4.172
 4115SOL    HW113244   4.012   5.639   4.224
 4115SOL    HW213245   4.114   5.686   4.105
 4116SOL     OW13246   4.853   4.172   2.286
 4116SOL    HW113247   4.857   4.077   2.255
 4116SOL    HW213248   4.897   4.230   2.218
 4117SOL     OW13249   1.513   1.590   3.982
 4117SOL    HW113250   1.526   1.661   4.051
 4117SOL    HW213251   1.523   1.500   4.024
 4118SOL     OW13252   0.384   6.374   0.295
 4118SOL    HW113253   0.379   6.437   0.218
 4118SOL    HW213254   0.344   6.417   0.376
 4119SOL     OW13255   0.186   0.469   4.196
 4119SOL    HW113256   0.175   0.481   4.097
 4119SOL    HW213257   0.172   0.372   4.219
 4120SOL     OW13258   2.077   0.780   6.432
 4120SOL    HW113259   2.064   0.858   6.494
 4120SOL    HW213260   2.175   0.769   6.412
 4121SOL     OW13261   6.451   6.635   2.626
 4121SOL    HW113262   6.473   6.598   2.716
 4121SOL    HW213263   6.416   6.563   2.567
 4122SOL     OW13264   0.300   4.139   2.973
 4122SOL    HW113265   0.277   4.169   2.880
 4122SOL    HW213266   0.223   4.157   3.034
 4123SOL     OW13267   4.783   4.794   1.381
 4123SOL    HW113268   4.840   4.724   1.338
 4123SOL    HW213269   4.826   4.827   1.464
 4124SOL     OW13270   5.758   5.622   0.126
 4124SOL    HW113271   5.756   5.544   0.188
 4124SOL    HW213272   5.833   5.612   0.061
 4125SOL     OW13273   5.963   1.759   1.076
 4125SOL    HW113274   5.867   1.748   1.052
 4125SOL    HW213275   5.994   1.681   1.129
 4126SOL     OW13276   1.612   2.966   2.058
 4126SOL    HW113277   1.561   3.037   2.011
 4126SOL    HW213278   1.548   2.895   2.090
 4127SOL     OW13279   4.378   1.989   4.618
 4127SOL    HW113280   4.411   1.986   4.712
 4127SOL    HW213281   4.453   1.965   4.556
 4128SOL     OW13282   0.959   3.145   0.269
 4128SOL    HW113283   0.960   3.111   0.175
 4128SOL    HW213284   0.907   3.230   0.273
 4129SOL     OW13285   2.595   2.677   0.281
 4129SOL    HW113286   2.666   2.694   0.350
 4129SOL    HW213287   2.516   2.734   0.299
 4130SOL     OW13288   6.150   3.073   0.738
 4130SOL    HW113289   6.201   3.159   0.736
 4130SOL    HW213290   6.097   3.064   0.654
 4131SOL     OW13291   4.807   6.785   3.391
 4131SOL    HW113292   4.826   6.853   3.321
 4131SOL    HW213293   4.734   6.818   3.452
 4132SOL     OW13294   0.431   5.185   4.108
 4132SOL    HW113295   0.526   5.201   4.131
 4132SOL    HW213296   0.421   5.095   4.066
 4133SOL     OW13297   5.646   0.120   2.708
 4133SOL    HW113298   5.650   0.218   2.691
 4133SOL    HW213299   5.736   0.079   2.691
 4134SOL     OW13300   1.663   3.758   1.518
 4134SOL    HW113301   1.614   3.814   1.585
 4134SOL    HW213302   1.655   3.800   1.428
 4135SOL     OW13303   6.660   0.953   1.699
 4135SOL    HW113304   6.647   1.029   1.763
 4135SOL    HW213305   6.586   0.886   1.712
 4136SOL     OW13306   1.306   4.679   1.279
 4136SOL    HW113307   1.361   4.596   1.283
 4136SOL    HW213308   1.365   4.758   1.264
 4137SOL     OW13309   1.539   2.496   0.654
 4137SOL    HW113310   1.467   2.496   0.584
 4137SOL    HW213311   1.596   2.415   0.643
 4138SOL     OW13312   5.186   0.001   0.028
 4138SOL    HW113313   5.280   0.025   0.054
 4138SOL    HW213314   5.122   0.059   0.078
 4139SOL     OW13315   2.172   3.802   2.987
 4139SOL    HW113316   2.154   3.728   2.922
 4139SOL    HW213317   2.218   3.878   2.940
 4140SOL     OW13318   2.272   1.061   6.432
 4140SOL    HW113319   2.365   1.049   6.467
 4140SOL    HW213320   2.208   1.017   6.495
 4141SOL     OW13321   5.225   0.399   6.255
 4141SOL    HW113322   5.161   0.457   6.306
 4141SOL    HW213323   5.214   0.415   6.157
 4142SOL     OW13324   1.030   5.051   2.407
 4142SOL    HW113325   1.110   5.041   2.348
 4142SOL    HW213326   1.057   5.034   2.502
 4143SOL     OW13327   5.852   3.194   6.599
 4143SOL    HW113328   5.893   3.107   6.628
 4143SOL    HW213329   5.894   3.269   6.650
 4144SOL     OW13330   6.380   0.578   0.610
 4144SOL    HW113331   6.420   0.626   0.689
 4144SOL    HW213332   6.452   0.548   0.549
 4145SOL     OW13333   6.970   7.010   1.614
 4145SOL    HW113334   0.043   6.997   1.636
 4145SOL    HW213335   6.960   0.012   1.518
 4146SOL     OW13336   4.898   5.723   2.751
 4146SOL    HW113337   4.927   5.805   2.701
 4146SOL    HW213338   4.960   5.647   2.727
 4147SOL     OW13339   4.625   4.731   6.260
 4147SOL    HW113340   4.635   4.749   6.358
 4147SOL    HW213341   4.538   4.768   6.228
 4148SOL     OW13342   2.472   1.238   5.610
 4148SOL    HW113343   2.441   1.210   5.519
 4148SOL    HW213344   2.446   1.168   5.677
 4149SOL     OW13345   2.064   3.429   6.537
 4149SOL    HW113346   2.003   3.369   6.588
 4149SOL    HW213347   2.048   3.524   6.563
 4150SOL     OW13348   5.603   1.902   6.437
 4150SOL    HW113349   5.623   2.000   6.438
 4150SOL    HW213350   5.583   1.871   6.530
 4151SOL     OW13351   3.303   6.075   4.225
 4151SOL    HW113352   3.230   6.023   4.268
 4151SOL    HW213353   3.296   6.171   4.252
 4152SOL     OW13354   2.730   4.675   1.268
 4152SOL    HW113355   2.764   4.603   1.206
 4152SOL    HW213356   2.782   4.674   1.352
 4153SOL     OW13357   0.015   5.801   1.401
 4153SOL    HW113358   6.940   5.816   1.387
 4153SOL    HW213359   0.055   5.764   1.318
 4154SOL     OW13360   1.160   6.288   3.733
 4154SOL    HW113361   1.094   6.363   3.728
 4154SOL    HW213362   1.125   6.216   3.793
 4155SOL     OW13363   0.662   0.888   1.293
 4155SOL    HW113364   0.745   0.859   1.341
 4155SOL    HW213365   0.606   0.944   1.355
 4156SOL     OW13366   0.588   5.340   6.242
 4156SOL    HW113367   0.667   5.292   6.206
 4156SOL    HW213368   0.619   5.421   6.292
 4157SOL     OW13369   6.480   6.069   1.496
 4157SOL    HW113370   6.528   6.116   1.422
 4157SOL    HW213371   6.477   6.128   1.577
 4158SOL     OW13372   1.017   2.479   1.449
 4158SOL    HW113373   0.917   2.485   1.445
 4158SOL    HW213374   1.057   2.565   1.415
 4159SOL     OW13375   3.315   0.756   4.303
 4159SOL    HW113376   3.390   0.777   4.240
 4159SOL    HW213377   3.296   0.836   4.360
 4160SOL     OW13378   6.718   6.983   6.665
 4160SOL    HW113379   6.815   7.004   6.677
 4160SOL    HW213380   6.688   6.921   6.738
 4161SOL     OW13381   3.743   3.367   1.693
 4161SOL    HW113382   3.809   3.375   1.768
 4161SOL    HW213383   3.709   3.458   1.669
 4162SOL     OW13384   5.218   5.653   1.960
 4162SOL    HW113385   5.130   5.618   1.994
 4162SOL    HW213386   5.293   5.609   2.010
 4163SOL     OW13387   3.684   6.096   1.640
 4163SOL    HW113388   3.667   6.057   1.731
 4163SOL    HW213389   3.746   6.174   1.648
 4164SOL     OW13390   6.765   0.497   5.521
 4164SOL    HW113391   6.689   0.548   5.481
 4164SOL    HW213392   6.741   0.400   5.526
 4165SOL     OW13393   4.719   0.800   4.791
 4165SOL    HW113394   4.818   0.794   4.779
 4165SOL    HW213395   4.695   0.893   4.821
 4166SOL     OW13396   5.542   1.388   1.338
 4166SOL    HW113397   5.602   1.313   1.309
 4166SOL    HW213398   5.587   1.476   1.320
 4167SOL     OW13399   3.673   5.584   4.087
 4167SOL    HW113400   3.744   5.615   4.149
 4167SOL    HW213401   3.607   5.658   4.071
 4168SOL     OW13402   5.087   3.706   6.536
 4168SOL    HW113403   5.068   3.795   6.494
 4168SOL    HW213404   5.156   3.658   6.481
 4169SOL     OW13405   4.967   3.090   5.454
 4169SOL    HW113406   4.912   3.139   5.386
 4169SOL    HW213407   5.049   3.143   5.476
 4170SOL     OW13408   0.198   3.094   4.183
 4170SOL    HW113409   0.125   3.073   4.117
 4170SOL    HW213410   0.184   3.186   4.220
 4171SOL     OW13411   0.415   2.714   0.537
 4171SOL    HW113412   0.466   2.791   0.575
 4171SOL    HW213413   0.468   2.630   0.548
 4172SOL     OW13414   2.537   4.457   0.812
 4172SOL    HW113415   2.570   4.528   0.874
 4172SOL    HW213416   2.505   4.500   0.727
 4173SOL     OW13417   4.531   2.205   6.144
 4173SOL    HW113418   4.530   2.149   6.062
 4173SOL    HW213419   4.623   2.209   6.181
 4174SOL     OW13420   3.570   0.444   5.157
 4174SOL    HW113421   3.553   0.475   5.251
 4174SOL    HW213422   3.520   0.359   5.141
 4175SOL     OW13423   0.932   4.620   6.754
 4175SOL    HW113424   0.840   4.624   6.793
 4175SOL    HW213425   0.993   4.681   6.805
 4176SOL     OW13426   5.189   0.115   6.177
 4176SOL    HW113427   5.230   0.195   6.221
 4176SOL    HW213428   5.242   0.091   6.095
 4177SOL     OW13429   4.166   4.758   3.103
 4177SOL    HW113430   4.173   4.855   3.127
 4177SOL    HW213431   4.160   4.748   3.004
 4178SOL     OW13432   3.995   5.318   1.263
 4178SOL    HW113433   4.011   5.268   1.178
 4178SOL    HW213434   4.075   5.376   1.283
 4179SOL     OW13435   5.252   2.649   5.433
 4179SOL    HW113436   5.245   2.557   5.470
 4179SOL    HW213437   5.342   2.662   5.391
 4180SOL     OW13438   4.385   4.119   0.073
 4180SOL    HW113439   4.437   4.092   7.015
 4180SOL    HW213440   4.446   4.116   0.153
 4181SOL     OW13441   4.507   6.718   4.591
 4181SOL    HW113442   4.480   6.623   4.573
 4181SOL    HW213443   4.602   6.721   4.621
 4182SOL     OW13444   0.172   6.379   4.366
 4182SOL    HW113445   0.241   6.422   4.308
 4182SOL    HW213446   0.151   6.439   4.442
 4183SOL     OW13447   3.621   1.985   1.156
 4183SOL    HW113448   3.681   1.907   1.137
 4183SOL    HW213449   3.534   1.952   1.191
 4184SOL     OW13450   3.507   5.442   3.539
 4184SOL    HW113451   3.591   5.477   3.581
 4184SOL    HW213452   3.437   5.514   3.538
 4185SOL     OW13453   5.640   3.227   3.018
 4185SOL    HW113454   5.691   3.207   2.935
 4185SOL    HW213455   5.628   3.143   3.071
 4186SOL     OW13456   1.512   6.281   0.680
 4186SOL    HW113457   1.489   6.226   0.760
 4186SOL    HW213458   1.431   6.291   0.622
 4187SOL     OW13459   1.953   3.667   6.595
 4187SOL    HW113460   1.874   3.635   6.647
 4187SOL    HW213461   1.940   3.763   6.570
 4188SOL     OW13462   4.505   0.150   0.644
 4188SOL    HW113463   4.481   0.175   0.738
 4188SOL    HW213464   4.502   0.050   0.634
 4189SOL     OW13465   4.909   4.793   3.943
 4189SOL    HW113466   4.926   4.885   3.907
 4189SOL    HW213467   4.827   4.794   4.001
 4190SOL     OW13468   6.982   6.092   0.833
 4190SOL    HW113469   6.908   6.054   0.887
 4190SOL    HW213470   6.949   6.111   0.740
 4191SOL     OW13471   4.556   4.446   6.579
 4191SOL    HW113472   4.641   4.431   6.528
 4191SOL    HW213473   4.572   4.433   6.676
 4192SOL     OW13474   1.094   3.289   1.545
 4192SOL    HW113475   1.092   3.198   1.589
 4192SOL    HW213476   1.089   3.359   1.616
 4193SOL     OW13477   0.006   0.202   0.776
 4193SOL    HW113478   6.978   0.156   0.848
 4193SOL    HW213479   0.060   0.134   0.726
 4194SOL     OW13480   4.281   1.323   5.196
 4194SOL    HW113481   4.346   1.361   5.262
 4194SOL    HW213482   4.191   1.363   5.212
 4195SOL     OW13483   3.423   6.197   1.320
 4195SOL    HW113484   3.491   6.125   1.329
 4195SOL    HW213485   3.375   6.187   1.233
 4196SOL     OW13486   6.375   2.920   1.721
 4196SOL    HW113487   6.342   2.836   1.679
 4196SOL    HW213488   6.366   2.914   1.821
 4197SOL     OW13489   3.853   0.616   6.614
 4197SOL    HW113490   3.904   0.531   6.628
 4197SOL    HW213491   3.757   0.603   6.640
 4198SOL     OW13492   6.135   1.987   2.360
 4198SOL    HW113493   6.227   1.969   2.393
 4198SOL    HW213494   6.115   2.085   2.367
 4199SOL     OW13495   0.648   4.132   5.831
 4199SOL    HW113496   0.583   4.065   5.795
 4199SOL    HW213497   0.720   4.084   5.881
 4200SOL     OW13498   4.622   1.086   3.494
 4200SOL    HW113499   4.688   1.156   3.465
 4200SOL    HW213500   4.644   0.999   3.450
 4201SOL     OW13501   5.496   6.490   3.702
 4201SOL    HW113502   5.556   6.514   3.778
 4201SOL    HW213503   5.420   6.435   3.735
 4202SOL     OW13504   4.927   3.916   1.016
 4202SOL    HW113505   5.021   3.886   1.004
 4202SOL    HW213506   4.917   4.011   0.986
 4203SOL     OW13507   6.108   5.723   6.369
 4203SOL    HW113508   6.099   5.626   6.391
 4203SOL    HW213509   6.021   5.758   6.336
 4204SOL     OW13510   2.347   3.366   6.570
 4204SOL    HW113511   2.256   3.392   6.539
 4204SOL    HW213512   2.406   3.447   6.574
 4205SOL     OW13513   3.876   6.613   5.125
 4205SOL    HW113514   3.863   6.526   5.078
 4205SOL    HW213515   3.789   6.645   5.161
 4206SOL     OW13516   1.364   2.575   4.722
 4206SOL    HW113517   1.454   2.574   4.765
 4206SOL    HW213518   1.375   2.564   4.623
 4207SOL     OW13519   1.310   2.465   2.260
 4207SOL    HW113520   1.339   2.545   2.312
 4207SOL    HW213521   1.388   2.429   2.209
 4208SOL     OW13522   2.121   3.533   4.957
 4208SOL    HW113523   2.123   3.626   4.920
 4208SOL    HW213524   2.207   3.515   5.006
 4209SOL     OW13525   0.009   6.508   2.371
 4209SOL    HW113526   0.005   6.596   2.418
 4209SOL    HW213527   7.001   6.436   2.434
 4210SOL     OW13528   4.082   3.258   4.869
 4210SOL    HW113529   4.106   3.223   4.779
 4210SOL    HW213530   4.110   3.354   4.876
 4211SOL     OW13531   4.165   2.513   5.495
 4211SOL    HW113532   4.158   2.512   5.595
 4211SOL    HW213533   4.074   2.529   5.455
 4212SOL     OW13534   0.171   2.728   3.275
 4212SOL    HW113535   0.233   2.681   3.338
 4212SOL    HW213536   0.188   2.827   3.280
 4213SOL     OW13537   3.339   0.714   3.405
 4213SOL    HW113538   3.274   0.730   3.330
 4213SOL    HW213539   3.402   0.791   3.411
 4214SOL     OW13540   0.589   5.701   4.128
 4214SOL    HW113541   0.542   5.677   4.042
 4214SOL    HW213542   0.646   5.625   4.157
 4215SOL     OW13543   4.602   6.318   5.436
 4215SOL    HW113544   4.670   6.376   5.480
 4215SOL    HW213545   4.647   6.243   5.389
 4216SOL     OW13546   2.758   5.934   2.043
 4216SOL    HW113547   2.742   6.001   1.970
 4216SOL    HW213548   2.855   5.909   2.044
 4217SOL     OW13549   0.739   0.712   2.800
 4217SOL    HW113550   0.728   0.649   2.876
 4217SOL    HW213551   0.779   0.798   2.833
 4218SOL     OW13552   2.609   1.392   1.737
 4218SOL    HW113553   2.685   1.410   1.799
 4218SOL    HW213554   2.588   1.475   1.685
 4219SOL     OW13555   4.530   6.233   3.518
 4219SOL    HW113556   4.503   6.200   3.609
 4219SOL    HW213557   4.607   6.179   3.485
 4220SOL     OW13558   5.197   2.472   1.747
 4220SOL    HW113559   5.230   2.450   1.839
 4220SOL    HW213560   5.117   2.531   1.755
 4221SOL     OW13561   0.572   5.744   0.278
 4221SOL    HW113562   0.569   5.838   0.244
 4221SOL    HW213563   0.660   5.703   0.253
 4222SOL     OW13564   5.085   2.687   3.694
 4222SOL    HW113565   5.030   2.751   3.640
 4222SOL    HW213566   5.088   2.598   3.649
 4223SOL     OW13567   4.135   3.555   1.962
 4223SOL    HW113568   4.206   3.541   1.893
 4223SOL    HW213569   4.079   3.634   1.935
 4224SOL     OW13570   4.941   3.465   4.693
 4224SOL    HW113571   4.948   3.393   4.624
 4224SOL    HW213572   4.991   3.438   4.775
 4225SOL     OW13573   7.022   2.057   5.631
 4225SOL    HW113574   0.031   1.965   5.609
 4225SOL    HW213575   0.074   2.122   5.624
 4226SOL     OW13576   1.642   5.449   5.012
 4226SOL    HW113577   1.737   5.417   5.007
 4226SOL    HW213578   1.640   5.540   5.054
 4227SOL     OW13579   5.405   5.669   2.533
 4227SOL    HW113580   5.323   5.614   2.516
 4227SOL    HW213581   5.383   5.744   2.594
 4228SOL     OW13582   0.874   5.036   4.062
 4228SOL    HW113583   0.877   4.948   4.014
 4228SOL    HW213584   0.867   5.019   4.160
 4229SOL     OW13585   6.434   4.679   5.516
 4229SOL    HW113586   6.354   4.723   5.475
 4229SOL    HW213587   6.511   4.684   5.452
 4230SOL     OW13588   0.457   0.560   2.369
 4230SOL    HW113589   0.547   0.554   2.327
 4230SOL    HW213590   0.398   0.487   2.333
 4231SOL     OW13591   5.527   1.829   5.595
 4231SOL    HW113592   5.495   1.743   5.555
 4231SOL    HW213593   5.501   1.905   5.534
 4232SOL     OW13594   1.585   5.577   3.636
 4232SOL    HW113595   1.624   5.577   3.728
 4232SOL    HW213596   1.658   5.592   3.569
 4233SOL     OW13597   5.244   5.069   3.538
 4233SOL    HW113598   5.237   5.005   3.614
 4233SOL    HW213599   5.193   5.152   3.560
 4234SOL     OW13600   2.703   5.914   5.870
 4234SOL    HW113601   2.682   6.012   5.872
 4234SOL    HW213602   2.798   5.901   5.840
 4235SOL     OW13603   0.575   5.534   5.623
 4235SOL    HW113604   0.535   5.624   5.605
 4235SOL    HW213605   0.632   5.539   5.706
 4236SOL     OW13606   0.400   5.603   2.934
 4236SOL    HW113607   0.456   5.649   2.866
 4236SOL    HW213608   0.322   5.559   2.889
 4237SOL     OW13609   6.725   4.391   3.781
 4237SOL    HW113610   6.628   4.400   3.807
 4237SOL    HW213611   6.777   4.359   3.860
 4238SOL     OW13612   2.434   6.852   3.178
 4238SOL    HW113613   2.526   6.813   3.176
 4238SOL    HW213614   2.388   6.835   3.091
 4239SOL     OW13615   3.974   1.151   3.497
 4239SOL    HW113616   3.938   1.241   3.520
 4239SOL    HW213617   3.971   1.138   3.398
 4240SOL     OW13618   0.044   6.241   1.426
 4240SOL    HW113619   7.006   6.285   1.492
 4240SOL    HW213620   0.124   6.300   1.412
 4241SOL     OW13621   6.358   2.932   0.497
 4241SOL    HW113622   6.450   2.895   0.491
 4241SOL    HW213623   6.305   2.878   0.563
 4242SOL     OW13624   1.859   1.779   3.875
 4242SOL    HW113625   1.934   1.825   3.826
 4242SOL    HW213626   1.890   1.688   3.903
 4243SOL     OW13627   5.129   0.401   3.300
 4243SOL    HW113628   5.074   0.344   3.361
 4243SOL    HW213629   5.130   0.361   3.208
 4244SOL     OW13630   3.437   3.643   2.462
 4244SOL    HW113631   3.514   3.581   2.450
 4244SOL    HW213632   3.358   3.609   2.412
 4245SOL     OW13633   5.981   2.359   6.315
 4245SOL    HW113634   6.045   2.284   6.299
 4245SOL    HW213635   5.996   2.397   6.406
 4246SOL     OW13636   0.881   3.601   1.941
 4246SOL    HW113637   0.805   3.627   2.001
 4246SOL    HW213638   0.967   3.635   1.980
 4247SOL     OW13639   0.184   5.347   5.055
 4247SOL    HW113640   0.264   5.392   5.015
 4247SOL    HW213641   0.210   5.304   5.142
 4248SOL     OW13642   1.490   3.203   5.363
 4248SOL    HW113643   1.536   3.118   5.338
 4248SOL    HW213644   1.482   3.209   5.462
 4249SOL     OW13645   5.492   3.900   6.043
 4249SOL    HW113646   5.510   3.814   5.995
 4249SOL    HW213647   5.529   3.894   6.135
 4250SOL     OW13648   6.955   4.723   3.296
 4250SOL    HW113649   6.990   4.654   3.359
 4250SOL    HW213650   6.890   4.681   3.233
 4251SOL     OW13651   5.794   4.477   0.745
 4251SOL    HW113652   5.856   4.439   0.677
 4251SOL    HW213653   5.700   4.477   0.709
 4252SOL     OW13654   0.990   5.225   5.925
 4252SOL    HW113655   0.920   5.217   5.854
 4252SOL    HW213656   1.041   5.309   5.911
 4253SOL     OW13657   4.436   0.281   2.536
 4253SOL    HW113658   4.516   0.327   2.575
 4253SOL    HW213659   4.424   0.192   2.579
 4254SOL     OW13660   2.441   4.285   1.349
 4254SOL    HW113661   2.460   4.378   1.319
 4254SOL    HW213662   2.506   4.259   1.421
 4255SOL     OW13663   0.325   2.902   4.406
 4255SOL    HW113664   0.285   2.993   4.405
 4255SOL    HW213665   0.394   2.896   4.478
 4256SOL     OW13666   1.917   6.910   1.597
 4256SOL    HW113667   2.008   6.950   1.584
 4256SOL    HW213668   1.915   6.818   1.558
 4257SOL     OW13669   3.860   1.869   4.725
 4257SOL    HW113670   3.788   1.808   4.755
 4257SOL    HW213671   3.949   1.830   4.749
 4258SOL     OW13672   5.676   6.844   2.595
 4258SOL    HW113673   5.743   6.845   2.669
 4258SOL    HW213674   5.601   6.783   2.620
 4259SOL     OW13675   2.334   2.427   6.889
 4259SOL    HW113676   2.380   2.463   6.808
 4259SOL    HW213677   2.370   2.471   6.971
 4260SOL     OW13678   4.659   5.549   3.422
 4260SOL    HW113679   4.690   5.638   3.457
 4260SOL    HW213680   4.576   5.562   3.369
 4261SOL     OW13681   1.503   6.572   2.015
 4261SOL    HW113682   1.489   6.586   1.917
 4261SOL    HW213683   1.547   6.484   2.030
 4262SOL     OW13684   0.870   4.960   6.803
 4262SOL    HW113685   0.787   4.926   6.759
 4262SOL    HW213686   0.865   4.942   6.901
 4263SOL     OW13687   2.833   4.661   5.594
 4263SOL    HW113688   2.860   4.738   5.536
 4263SOL    HW213689   2.912   4.601   5.607
 4264SOL     OW13690   0.548   0.987   0.935
 4264SOL    HW113691   0.591   1.057   0.993
 4264SOL    HW213692   0.487   0.930   0.990
 4265SOL     OW13693   6.696   1.422   0.779
 4265SOL    HW113694   6.704   1.372   0.693
 4265SOL    HW213695   6.783   1.420   0.827
 4266SOL     OW13696   2.519   5.583   0.247
 4266SOL    HW113697   2.465   5.648   0.193
 4266SOL    HW213698   2.607   5.625   0.270
 4267SOL     OW13699   1.658   3.537   5.436
 4267SOL    HW113700   1.727   3.607   5.453
 4267SOL    HW213701   1.604   3.563   5.356
 4268SOL     OW13702   2.199   0.979   0.713
 4268SOL    HW113703   2.230   1.006   0.622
 4268SOL    HW213704   2.184   1.060   0.769
 4269SOL     OW13705   3.504   3.241   0.099
 4269SOL    HW113706   3.592   3.194   0.090
 4269SOL    HW213707   3.453   3.232   0.014
 4270SOL     OW13708   3.054   3.144   4.977
 4270SOL    HW113709   3.111   3.067   5.006
 4270SOL    HW213710   2.958   3.120   4.988
 4271SOL     OW13711   0.637   6.946   6.363
 4271SOL    HW113712   0.712   6.882   6.383
 4271SOL    HW213713   0.556   6.894   6.334
 4272SOL     OW13714   6.895   4.750   4.855
 4272SOL    HW113715   6.916   4.683   4.784
 4272SOL    HW213716   6.894   4.841   4.815
 4273SOL     OW13717   5.146   6.878   5.643
 4273SOL    HW113718   5.141   6.973   5.673
 4273SOL    HW213719   5.240   6.857   5.616
 4274SOL     OW13720   1.607   6.496   3.411
 4274SOL    HW113721   1.613   6.595   3.401
 4274SOL    HW213722   1.521   6.473   3.458
 4275SOL     OW13723   0.932   0.028   6.322
 4275SOL    HW113724   0.890   0.063   6.238
 4275SOL    HW213725   0.977   6.964   6.303
 4276SOL     OW13726   2.084   4.367   2.620
 4276SOL    HW113727   2.068   4.278   2.662
 4276SOL    HW213728   2.175   4.368   2.577
 4277SOL     OW13729   0.101   5.173   3.819
 4277SOL    HW113730   0.184   5.158   3.766
 4277SOL    HW213731   0.074   5.269   3.814
 4278SOL     OW13732   6.820   6.748   4.790
 4278SOL    HW113733   6.745   6.809   4.764
 4278SOL    HW213734   6.803   6.712   4.881
 4279SOL     OW13735   3.490   6.363   5.135
 4279SOL    HW113736   3.505   6.265   5.127
 4279SOL    HW213737   3.434   6.382   5.215
 4280SOL     OW13738   5.765   2.146   4.568
 4280SOL    HW113739   5.786   2.221   4.631
 4280SOL    HW213740   5.848   2.093   4.550
 4281SOL     OW13741   2.166   4.303   4.989
 4281SOL    HW113742   2.202   4.210   4.984
 4281SOL    HW213743   2.182   4.340   5.080
 4282SOL     OW13744   2.109   2.633   0.884
 4282SOL    HW113745   2.024   2.627   0.937
 4282SOL    HW213746   2.103   2.572   0.805
 4283SOL     OW13747   1.966   0.225   4.386
 4283SOL    HW113748   1.950   0.313   4.343
 4283SOL    HW213749   1.977   0.237   4.485
 4284SOL     OW13750   5.765   2.115   2.206
 4284SOL    HW113751   5.739   2.179   2.134
 4284SOL    HW213752   5.691   2.108   2.273
 4285SOL     OW13753   1.047   0.183   5.490
 4285SOL    HW113754   1.039   0.238   5.406
 4285SOL    HW213755   1.072   0.089   5.465
 4286SOL     OW13756   4.768   6.114   0.305
 4286SOL    HW113757   4.679   6.111   0.351
 4286SOL    HW213758   4.802   6.021   0.291
 4287SOL     OW13759   5.974   0.037   4.708
 4287SOL    HW113760   5.894   0.091   4.733
 4287SOL    HW213761   5.965   0.005   4.613
 4288SOL     OW13762   1.563   6.519   2.829
 4288SOL    HW113763   1.649   6.533   2.879
 4288SOL    HW213764   1.573   6.443   2.765
 4289SOL     OW13765   5.620   2.685   1.201
 4289SOL    HW113766   5.657   2.626   1.128
 4289SOL    HW213767   5.693   2.740   1.240
 4290SOL     OW13768   2.113   0.770   1.569
 4290SOL    HW113769   2.102   0.672   1.587
 4290SOL    HW213770   2.210   0.792   1.562
 4291SOL     OW13771   5.838   3.604   0.849
 4291SOL    HW113772   5.906   3.657   0.899
 4291SOL    HW213773   5.811   3.525   0.905
 4292SOL     OW13774   5.809   4.792   6.673
 4292SOL    HW113775   5.886   4.729   6.685
 4292SOL    HW213776   5.838   4.868   6.615
 4293SOL     OW13777   0.274   2.832   6.880
 4293SOL    HW113778   0.340   2.765   6.846
 4293SOL    HW213779   0.182   2.805   6.853
 4294SOL     OW13780   4.249   2.375   5.921
 4294SOL    HW113781   4.193   2.444   5.876
 4294SOL    HW213782   4.235   2.287   5.877
 4295SOL     OW13783   3.670   0.167   4.358
 4295SOL    HW113784   3.738   0.094   4.359
 4295SOL    HW213785   3.681   0.224   4.439
 4296SOL     OW13786   2.605   1.764   1.334
 4296SOL    HW113787   2.520   1.783   1.285
 4296SOL    HW213788   2.648   1.850   1.361
 4297SOL     OW13789   5.783   0.836   5.321
 4297SOL    HW113790   5.752   0.783   5.400
 4297SOL    HW213791   5.883   0.842   5.322
 4298SOL     OW13792   3.018   5.916   1.351
 4298SOL    HW113793   3.011   5.872   1.441
 4298SOL    HW213794   2.927   5.945   1.321
 4299SOL     OW13795   0.832   3.697   6.259
 4299SOL    HW113796   0.923   3.735   6.242
 4299SOL    HW213797   0.771   3.720   6.184
 4300SOL     OW13798   4.111   1.155   6.827
 4300SOL    HW113799   4.031   1.177   6.771
 4300SOL    HW213800   4.194   1.191   6.783
 4301SOL     OW13801   2.617   1.840   0.610
 4301SOL    HW113802   2.546   1.894   0.656
 4301SOL    HW213803   2.697   1.832   0.670
 4302SOL     OW13804   1.048   6.485   6.953
 4302SOL    HW113805   0.970   6.448   6.902
 4302SOL    HW213806   1.133   6.448   6.915
 4303SOL     OW13807   0.028   3.581   2.223
 4303SOL    HW113808   0.016   3.521   2.144
 4303SOL    HW213809   0.119   3.621   2.221
 4304SOL     OW13810   3.829   3.434   4.113
 4304SOL    HW113811   3.926   3.456   4.108
 4304SOL    HW213812   3.809   3.355   4.055
 4305SOL     OW13813   6.156   1.464   3.686
 4305SOL    HW113814   6.086   1.535   3.679
 4305SOL    HW213815   6.225   1.479   3.615
 4306SOL     OW13816   6.757   4.397   5.658
 4306SOL    HW113817   6.737   4.482   5.707
 4306SOL    HW213818   6.823   4.343   5.710
 4307SOL     OW13819   4.860   4.063   5.973
 4307SOL    HW113820   4.878   4.154   6.010
 4307SOL    HW213821   4.761   4.050   5.964
 4308SOL     OW13822   5.083   5.964   4.596
 4308SOL    HW113823   5.164   6.001   4.550
 4308SOL    HW213824   5.056   6.026   4.670
 4309SOL     OW13825   1.593   1.169   0.413
 4309SOL    HW113826   1.672   1.114   0.440
 4309SOL    HW213827   1.582   1.245   0.476
 4310SOL     OW13828   1.924   2.212   2.856
 4310SOL    HW113829   2.010   2.161   2.870
 4310SOL    HW213830   1.940   2.309   2.877
 4311SOL     OW13831   1.978   6.005   3.380
 4311SOL    HW113832   2.033   5.922   3.382
 4311SOL    HW213833   1.969   6.041   3.473
 4312SOL     OW13834   2.006   5.534   2.082
 4312SOL    HW113835   2.091   5.481   2.074
 4312SOL    HW213836   1.928   5.473   2.070
 4313SOL     OW13837   4.648   1.411   1.764
 4313SOL    HW113838   4.555   1.445   1.748
 4313SOL    HW213839   4.659   1.323   1.717
 4314SOL     OW13840   4.934   3.403   2.544
 4314SOL    HW113841   4.925   3.345   2.464
 4314SOL    HW213842   4.931   3.347   2.627
 4315SOL     OW13843   2.726   0.432   2.030
 4315SOL    HW113844   2.710   0.395   1.938
 4315SOL    HW213845   2.643   0.478   2.062
 4316SOL     OW13846   5.677   0.683   1.906
 4316SOL    HW113847   5.684   0.645   1.998
 4316SOL    HW213848   5.686   0.783   1.910
 4317SOL     OW13849   3.434   1.192   4.121
 4317SOL    HW113850   3.373   1.125   4.079
 4317SOL    HW213851   3.392   1.283   4.117
 4318SOL     OW13852   0.600   3.211   3.731
 4318SOL    HW113853   0.536   3.223   3.807
 4318SOL    HW213854   0.617   3.113   3.717
 4319SOL     OW13855   2.818   3.737   6.354
 4319SOL    HW113856   2.826   3.775   6.446
 4319SOL    HW213857   2.908   3.731   6.312
 4320SOL     OW13858   0.616   6.784   3.060
 4320SOL    HW113859   0.525   6.783   3.103
 4320SOL    HW213860   0.686   6.771   3.129
 4321SOL     OW13861   6.749   0.312   5.270
 4321SOL    HW113862   6.810   0.237   5.294
 4321SOL    HW213863   6.798   0.380   5.216
 4322SOL     OW13864   6.046   1.141   0.170
 4322SOL    HW113865   5.957   1.103   0.192
 4322SOL    HW213866   6.047   1.175   0.077
 4323SOL     OW13867   6.560   3.378   2.550
 4323SOL    HW113868   6.612   3.434   2.485
 4323SOL    HW213869   6.544   3.429   2.634
 4324SOL     OW13870   5.942   4.452   6.457
 4324SOL    HW113871   6.022   4.398   6.482
 4324SOL    HW213872   5.938   4.535   6.513
 4325SOL     OW13873   1.835   1.494   6.693
 4325SOL    HW113874   1.817   1.550   6.774
 4325SOL    HW213875   1.823   1.397   6.716
 4326SOL     OW13876   6.252   3.023   5.355
 4326SOL    HW113877   6.288   3.060   5.441
 4326SOL    HW213878   6.170   3.073   5.329
 4327SOL     OW13879   6.157   6.357   2.240
 4327SOL    HW113880   6.250   6.328   2.264
 4327SOL    HW213881   6.153   6.379   2.143
 4328SOL     OW13882   5.001   5.389   7.005
 4328SOL    HW113883   5.022   5.296   6.975
 4328SOL    HW213884   5.026   5.453   6.933
 4329SOL     OW13885   4.196   2.161   5.750
 4329SOL    HW113886   4.133   2.204   5.686
 4329SOL    HW213887   4.193   2.061   5.737
 4330SOL     OW13888   1.240   0.009   6.083
 4330SOL    HW113889   1.235   6.948   6.136
 4330SOL    HW213890   1.157   0.021   6.029
 4331SOL     OW13891   5.820   2.475   6.569
 4331SOL    HW113892   5.793   2.451   6.475
 4331SOL    HW213893   5.800   2.572   6.585
 4332SOL     OW13894   4.909   3.235   2.030
 4332SOL    HW113895   4.993   3.227   2.083
 4332SOL    HW213896   4.865   3.146   2.024
 4333SOL     OW13897   5.667   1.024   4.755
 4333SOL    HW113898   5.581   0.973   4.765
 4333SOL    HW213899   5.647   1.114   4.716
 4334SOL     OW13900   4.066   1.925   2.151
 4334SOL    HW113901   3.982   1.978   2.167
 4334SOL    HW213902   4.081   1.864   2.228
 4335SOL     OW13903   3.091   4.090   5.046
 4335SOL    HW113904   3.005   4.116   5.089
 4335SOL    HW213905   3.074   4.058   4.953
 4336SOL     OW13906   1.348   6.401   4.725
 4336SOL    HW113907   1.251   6.375   4.725
 4336SOL    HW213908   1.357   6.499   4.740
 4337SOL     OW13909   6.798   5.374   0.234
 4337SOL    HW113910   6.845   5.462   0.238
 4337SOL    HW213911   6.800   5.339   0.140
 4338SOL     OW13912   6.589   6.096   4.236
 4338SOL    HW113913   6.661   6.162   4.258
 4338SOL    HW213914   6.584   6.084   4.137
 4339SOL     OW13915   5.892   1.944   5.243
 4339SOL    HW113916   5.949   1.891   5.181
 4339SOL    HW213917   5.822   1.885   5.284
 4340SOL     OW13918   5.462   4.161   1.149
 4340SOL    HW113919   5.561   4.157   1.159
 4340SOL    HW213920   5.420   4.090   1.207
 4341SOL     OW13921   1.806   4.207   1.573
 4341SOL    HW113922   1.889   4.154   1.560
 4341SOL    HW213923   1.829   4.297   1.610
 4342SOL     OW13924   1.004   3.004   2.816
 4342SOL    HW113925   1.084   3.055   2.785
 4342SOL    HW213926   0.996   2.919   2.763
 4343SOL     OW13927   3.120   1.583   1.002
 4343SOL    HW113928   3.160   1.495   0.978
 4343SOL    HW213929   3.066   1.574   1.086
 4344SOL     OW13930   1.807   4.967   3.372
 4344SOL    HW113931   1.804   4.868   3.382
 4344SOL    HW213932   1.850   4.990   3.284
 4345SOL     OW13933   1.399   2.407   5.373
 4345SOL    HW113934   1.437   2.316   5.392
 4345SOL    HW213935   1.448   2.476   5.426
 4346SOL     OW13936   1.988   3.416   1.819
 4346SOL    HW113937   2.068   3.464   1.857
 4346SOL    HW213938   1.993   3.419   1.719
 4347SOL     OW13939   5.902   6.826   2.788
 4347SOL    HW113940   5.964   6.861   2.717
 4347SOL    HW213941   5.858   6.903   2.834
 4348SOL     OW13942   1.537   3.967   0.096
 4348SOL    HW113943   1.504   3.919   0.177
 4348SOL    HW213944   1.463   3.974   0.029
 4349SOL     OW13945   0.141   1.276   3.634
 4349SOL    HW113946   0.240   1.260   3.629
 4349SOL    HW213947   0.112   1.329   3.554
 4350SOL     OW13948   5.403   2.263   4.148
 4350SOL    HW113949   5.371   2.170   4.130
 4350SOL    HW213950   5.482   2.259   4.209
 4351SOL     OW13951   3.037   6.109   1.777
 4351SOL    HW113952   2.976   6.174   1.824
 4351SOL    HW213953   3.049   6.028   1.834
 4352SOL     OW13954   6.676   1.326   2.110
 4352SOL    HW113955   6.647   1.373   2.026
 4352SOL    HW213956   6.603   1.333   2.178
 4353SOL     OW13957   3.565   5.783   6.623
 4353SOL    HW113958   3.576   5.753   6.528
 4353SOL    HW213959   3.539   5.706   6.680
 4354SOL     OW13960   2.520   0.271   6.902
 4354SOL    HW113961   2.488   0.253   6.809
 4354SOL    HW213962   2.560   0.363   6.906
 4355SOL     OW13963   4.316   1.319   0.398
 4355SOL    HW113964   4.231   1.302   0.449
 4355SOL    HW213965   4.358   1.403   0.431
 4356SOL     OW13966   4.062   4.177   0.428
 4356SOL    HW113967   4.043   4.097   0.485
 4356SOL    HW213968   3.986   4.242   0.435
 4357SOL     OW13969   6.485   0.167   0.241
 4357SOL    HW113970   6.578   0.146   0.211
 4357SOL    HW213971   6.420   0.135   0.171
 4358SOL     OW13972   0.641   0.034   1.794
 4358SOL    HW113973   0.728   0.060   1.754
 4358SOL    HW213974   0.566   0.069   1.737
 4359SOL     OW13975   0.424   2.305   4.080
 4359SOL    HW113976   0.461   2.276   4.168
 4359SOL    HW213977   0.346   2.366   4.094
 4360SOL     OW13978   0.975   2.919   1.491
 4360SOL    HW113979   1.035   2.841   1.505
 4360SOL    HW213980   0.965   2.937   1.393
 4361SOL     OW13981   5.042   2.644   1.872
 4361SOL    HW113982   4.997   2.729   1.844
 4361SOL    HW213983   5.122   2.665   1.928
 4362SOL     OW13984   6.639   4.415   4.776
 4362SOL    HW113985   6.613   4.373   4.863
 4362SOL    HW213986   6.609   4.357   4.701
 4363SOL     OW13987   4.872   2.893   5.635
 4363SOL    HW113988   4.823   2.951   5.700
 4363SOL    HW213989   4.892   2.945   5.552
 4364SOL     OW13990   3.109   4.045   4.577
 4364SOL    HW113991   3.061   3.974   4.525
 4364SOL    HW213992   3.186   4.080   4.523
 4365SOL     OW13993   4.231   2.123   2.576
 4365SOL    HW113994   4.252   2.216   2.606
 4365SOL    HW213995   4.309   2.064   2.595
 4366SOL     OW13996   5.539   5.752   1.143
 4366SOL    HW113997   5.639   5.764   1.141
 4366SOL    HW213998   5.506   5.734   1.051
 4367SOL     OW13999   1.558   6.276   6.253
 4367SOL    HW114000   1.638   6.309   6.203
 4367SOL    HW214001   1.586   6.205   6.318
 4368SOL     OW14002   5.493   4.063   1.521
 4368SOL    HW114003   5.448   4.006   1.452
 4368SOL    HW214004   5.438   4.145   1.537
 4369SOL     OW14005   4.259   5.350   2.062
 4369SOL    HW114006   4.200   5.347   2.142
 4369SOL    HW214007   4.295   5.443   2.050
 4370SOL     OW14008   5.988   4.750   4.087
 4370SOL    HW114009   5.930   4.681   4.130
 4370SOL    HW214010   5.951   4.773   3.997
 4371SOL     OW14011   5.886   1.348   2.181
 4371SOL    HW114012   5.900   1.361   2.279
 4371SOL    HW214013   5.974   1.342   2.135
 4372SOL     OW14014   4.329   1.383   3.699
 4372SOL    HW114015   4.303   1.478   3.682
 4372SOL    HW214016   4.300   1.357   3.791
 4373SOL     OW14017   6.322   1.968   6.702
 4373SOL    HW114018   6.413   1.935   6.729
 4373SOL    HW214019   6.276   1.898   6.648
 4374SOL     OW14020   2.156   2.656   1.783
 4374SOL    HW114021   2.164   2.584   1.714
 4374SOL    HW214022   2.219   2.731   1.761
 4375SOL     OW14023   2.359   6.640   5.094
 4375SOL    HW114024   2.308   6.726   5.084
 4375SOL    HW214025   2.380   6.625   5.191
 4376SOL     OW14026   5.728   0.597   3.009
 4376SOL    HW114027   5.719   0.501   3.033
 4376SOL    HW214028   5.814   0.612   2.961
 4377SOL     OW14029   5.730   4.381   6.883
 4377SOL    HW114030   5.829   4.379   6.865
 4377SOL    HW214031   5.690   4.293   6.857
 4378SOL     OW14032   1.758   0.119   4.248
 4378SOL    HW114033   1.748   0.022   4.271
 4378SOL    HW214034   1.838   0.157   4.295
 4379SOL     OW14035   2.603   2.093   5.016
 4379SOL    HW114036   2.521   2.148   5.030
 4379SOL    HW214037   2.674   2.148   4.972
 4380SOL     OW14038   0.383   1.248   1.825
 4380SOL    HW114039   0.404   1.268   1.921
 4380SOL    HW214040   0.380   1.149   1.811
 4381SOL     OW14041   2.545   6.617   5.884
 4381SOL    HW114042   2.533   6.542   5.819
 4381SOL    HW214043   2.607   6.685   5.846
 4382SOL     OW14044   0.038   3.517   5.572
 4382SOL    HW114045   0.006   3.544   5.481
 4382SOL    HW214046   7.011   3.436   5.602
 4383SOL     OW14047   5.264   3.113   6.995
 4383SOL    HW114048   5.320   3.196   6.995
 4383SOL    HW214049   5.321   3.034   7.018
 4384SOL     OW14050   6.279   6.373   3.666
 4384SOL    HW114051   6.337   6.382   3.746
 4384SOL    HW214052   6.224   6.455   3.654
 4385SOL     OW14053   5.694   1.791   4.353
 4385SOL    HW114054   5.718   1.860   4.285
 4385SOL    HW214055   5.763   1.719   4.353
 4386SOL     OW14056   0.773   3.254   5.325
 4386SOL    HW114057   0.802   3.171   5.372
 4386SOL    HW214058   0.673   3.253   5.312
 4387SOL     OW14059   6.606   1.909   0.382
 4387SOL    HW114060   6.522   1.956   0.406
 4387SOL    HW214061   6.648   1.870   0.464
 4388SOL     OW14062   4.644   1.858   6.496
 4388SOL    HW114063   4.682   1.793   6.560
 4388SOL    HW214064   4.696   1.856   6.410
 4389SOL     OW14065   0.089   3.584   1.447
 4389SOL    HW114066   0.147   3.657   1.483
 4389SOL    HW214067   0.008   3.623   1.404
 4390SOL     OW14068   6.210   0.675   1.660
 4390SOL    HW114069   6.143   0.749   1.663
 4390SOL    HW214070   6.171   0.593   1.702
 4391SOL     OW14071   2.274   6.041   6.279
 4391SOL    HW114072   2.352   5.990   6.314
 4391SOL    HW214073   2.203   5.977   6.248
 4392SOL     OW14074   1.952   2.548   5.219
 4392SOL    HW114075   1.925   2.455   5.244
 4392SOL    HW214076   2.044   2.566   5.254
 4393SOL     OW14077   4.816   0.105   1.832
 4393SOL    HW114078   4.886   0.133   1.897
 4393SOL    HW214079   4.860   0.073   1.748
 4394SOL     OW14080   1.219   0.492   1.453
 4394SOL    HW114081   1.202   0.420   1.386
 4394SOL    HW214082   1.284   0.459   1.521
 4395SOL     OW14083   2.640   5.531   0.977
 4395SOL    HW114084   2.653   5.609   1.039
 4395SOL    HW214085   2.554   5.485   1.000
 4396SOL     OW14086   2.117   0.444   3.324
 4396SOL    HW114087   2.185   0.382   3.363
 4396SOL    HW214088   2.051   0.391   3.270
 4397SOL     OW14089   3.008   1.993   4.069
 4397SOL    HW114090   2.957   1.942   4.139
 4397SOL    HW214091   3.106   1.979   4.084
 4398SOL     OW14092   2.026   2.864   5.688
 4398SOL    HW114093   2.003   2.961   5.687
 4398SOL    HW214094   1.979   2.818   5.612
 4399SOL     OW14095   3.116   6.679   2.254
 4399SOL    HW114096   3.077   6.587   2.256
 4399SOL    HW214097   3.111   6.719   2.346
 4400SOL     OW14098   2.402   5.480   5.129
 4400SOL    HW114099   2.445   5.474   5.039
 4400SOL    HW214100   2.460   5.535   5.190
 4401SOL     OW14101   3.726   6.926   6.074
 4401SOL    HW114102   3.731   6.961   6.168
 4401SOL    HW214103   3.761   6.995   6.011
 4402SOL     OW14104   1.302   0.498   3.075
 4402SOL    HW114105   1.240   0.510   3.153
 4402SOL    HW214106   1.322   0.400   3.065
 4403SOL     OW14107   1.304   4.977   1.041
 4403SOL    HW114108   1.221   4.952   1.092
 4403SOL    HW214109   1.383   4.931   1.081
 4404SOL     OW14110   0.460   6.059   6.424
 4404SOL    HW114111   0.532   6.045   6.356
 4404SOL    HW214112   0.474   5.996   6.501
 4405SOL     OW14113   2.121   4.970   3.591
 4405SOL    HW114114   2.022   4.987   3.598
 4405SOL    HW214115   2.164   4.989   3.679
 4406SOL     OW14116   5.939   3.607   2.346
 4406SOL    HW114117   5.916   3.511   2.334
 4406SOL    HW214118   5.858   3.657   2.380
 4407SOL     OW14119   6.428   6.372   1.906
 4407SOL    HW114120   6.343   6.425   1.915
 4407SOL    HW214121   6.506   6.435   1.905
 4408SOL     OW14122   4.085   0.496   1.359
 4408SOL    HW114123   4.150   0.420   1.356
 4408SOL    HW214124   4.001   0.467   1.404
 4409SOL     OW14125   3.533   0.727   2.266
 4409SOL    HW114126   3.534   0.793   2.192
 4409SOL    HW214127   3.439   0.717   2.300
 4410SOL     OW14128   0.932   6.037   1.116
 4410SOL    HW114129   0.936   5.978   1.035
 4410SOL    HW214130   0.938   5.981   1.198
 4411SOL     OW14131   3.288   4.432   5.339
 4411SOL    HW114132   3.191   4.409   5.350
 4411SOL    HW214133   3.299   4.531   5.334
 4412SOL     OW14134   4.866   6.529   2.389
 4412SOL    HW114135   4.781   6.524   2.443
 4412SOL    HW214136   4.882   6.624   2.361
 4413SOL     OW14137   4.451   6.481   3.392
 4413SOL    HW114138   4.368   6.509   3.440
 4413SOL    HW214139   4.474   6.387   3.418
 4414SOL     OW14140   4.290   4.075   1.206
 4414SOL    HW114141   4.212   4.125   1.168
 4414SOL    HW214142   4.373   4.130   1.193
 4415SOL     OW14143   3.005   3.882   1.515
 4415SOL    HW114144   3.000   3.955   1.583
 4415SOL    HW214145   2.924   3.886   1.456
 4416SOL     OW14146   4.658   2.618   2.980
 4416SOL    HW114147   4.654   2.647   3.076
 4416SOL    HW214148   4.751   2.588   2.958
 4417SOL     OW14149   0.531   3.696   3.855
 4417SOL    HW114150   0.442   3.728   3.889
 4417SOL    HW214151   0.517   3.618   3.794
 4418SOL     OW14152   6.334   6.812   6.968
 4418SOL    HW114153   6.391   6.864   0.009
 4418SOL    HW214154   6.257   6.772   7.017
 4419SOL     OW14155   6.320   5.822   6.512
 4419SOL    HW114156   6.348   5.918   6.510
 4419SOL    HW214157   6.244   5.809   6.449
 4420SOL     OW14158   3.533   2.402   0.548
 4420SOL    HW114159   3.607   2.454   0.592
 4420SOL    HW214160   3.491   2.341   0.615
 4421SOL     OW14161   1.527   2.733   5.110
 4421SOL    HW114162   1.622   2.709   5.093
 4421SOL    HW214163   1.514   2.755   5.206
 4422SOL     OW14164   6.807   4.546   6.912
 4422SOL    HW114165   6.857   4.463   6.887
 4422SOL    HW214166   6.867   4.608   6.962
 4423SOL     OW14167   5.371   4.104   4.963
 4423SOL    HW114168   5.411   4.030   5.018
 4423SOL    HW214169   5.330   4.171   5.024
 4424SOL     OW14170   4.717   5.762   3.594
 4424SOL    HW114171   4.728   5.703   3.675
 4424SOL    HW214172   4.626   5.802   3.594
 4425SOL     OW14173   1.667   5.633   1.798
 4425SOL    HW114174   1.624   5.594   1.880
 4425SOL    HW214175   1.699   5.725   1.817
 4426SOL     OW14176   1.039   6.804   4.153
 4426SOL    HW114177   0.989   6.759   4.228
 4426SOL    HW214178   1.077   6.734   4.093
 4427SOL     OW14179   3.026   6.199   2.718
 4427SOL    HW114180   2.936   6.170   2.685
 4427SOL    HW214181   3.028   6.299   2.725
 4428SOL     OW14182   6.102   0.638   3.801
 4428SOL    HW114183   6.098   0.734   3.829
 4428SOL    HW214184   6.032   0.586   3.850
 4429SOL     OW14185   2.174   6.281   3.733
 4429SOL    HW114186   2.176   6.369   3.780
 4429SOL    HW214187   2.263   6.263   3.692
 4430SOL     OW14188   5.052   4.437   5.110
 4430SOL    HW114189   4.966   4.394   5.136
 4430SOL    HW214190   5.034   4.523   5.061
 4431SOL     OW14191   3.266   0.322   3.978
 4431SOL    HW114192   3.216   0.281   3.901
 4431SOL    HW214193   3.218   0.301   4.063
 4432SOL     OW14194   1.255   3.875   6.424
 4432SOL    HW114195   1.226   3.969   6.404
 4432SOL    HW214196   1.352   3.874   6.446
 4433SOL     OW14197   0.875   0.896   5.042
 4433SOL    HW114198   0.943   0.899   4.969
 4433SOL    HW214199   0.886   0.976   5.101
 4434SOL     OW14200   6.992   0.744   1.965
 4434SOL    HW114201   0.004   0.650   1.970
 4434SOL    HW214202   7.003   0.788   2.054
 4435SOL     OW14203   2.408   3.620   0.193
 4435SOL    HW114204   2.377   3.526   0.207
 4435SOL    HW214205   2.369   3.655   0.107
 4436SOL     OW14206   4.290   1.248   1.759
 4436SOL    HW114207   4.331   1.333   1.725
 4436SOL    HW214208   4.219   1.217   1.695
 4437SOL     OW14209   0.057   3.777   1.144
 4437SOL    HW114210   0.101   3.687   1.150
 4437SOL    HW214211   6.997   3.777   1.199
 4438SOL     OW14212   4.075   0.767   6.077
 4438SOL    HW114213   4.081   0.848   6.135
 4438SOL    HW214214   4.160   0.756   6.026
 4439SOL     OW14215   1.928   6.520   2.302
 4439SOL    HW114216   1.929   6.609   2.256
 4439SOL    HW214217   2.010   6.468   2.276
 4440SOL     OW14218   1.406   4.960   7.005
 4440SOL    HW114219   1.329   5.023   6.995
 4440SOL    HW214220   1.489   5.012   0.001
 4441SOL     OW14221   0.228   1.112   0.401
 4441SOL    HW114222   0.187   1.025   0.374
 4441SOL    HW214223   0.227   1.120   0.501
 4442SOL     OW14224   2.086   4.682   6.548
 4442SOL    HW114225   1.996   4.653   6.579
 4442SOL    HW214226   2.081   4.711   6.452
 4443SOL     OW14227   0.240   5.413   6.447
 4443SOL    HW114228   0.338   5.397   6.458
 4443SOL    HW214229   0.193   5.385   6.531
 4444SOL     OW14230   5.281   4.200   0.193
 4444SOL    HW114231   5.374   4.195   0.158
 4444SOL    HW214232   5.219   4.154   0.130
 4445SOL     OW14233   0.137   5.722   0.357
 4445SOL    HW114234   0.170   5.785   0.287
 4445SOL    HW214235   0.138   5.629   0.321
 4446SOL     OW14236   5.169   0.872   0.751
 4446SOL    HW114237   5.109   0.928   0.695
 4446SOL    HW214238   5.124   0.853   0.839
 4447SOL     OW14239   5.237   5.180   5.367
 4447SOL    HW114240   5.206   5.146   5.455
 4447SOL    HW214241   5.260   5.103   5.307
 4448SOL     OW14242   3.918   6.443   2.173
 4448SOL    HW114243   3.936   6.430   2.270
 4448SOL    HW214244   4.001   6.422   2.121
 4449SOL     OW14245   3.448   1.213   5.312
 4449SOL    HW114246   3.386   1.144   5.350
 4449SOL    HW214247   3.505   1.250   5.384
 4450SOL     OW14248   3.573   0.054   0.255
 4450SOL    HW114249   3.605   0.139   0.297
 4450SOL    HW214250   3.646   7.009   0.256
 4451SOL     OW14251   4.944   4.206   3.095
 4451SOL    HW114252   4.972   4.189   3.001
 4451SOL    HW214253   4.910   4.121   3.136
 4452SOL     OW14254   4.896   5.775   4.585
 4452SOL    HW114255   4.816   5.832   4.604
 4452SOL    HW214256   4.979   5.831   4.587
 4453SOL     OW14257   0.037   3.930   0.679
 4453SOL    HW114258   0.038   4.028   0.662
 4453SOL    HW214259   0.126   3.891   0.653
 4454SOL     OW14260   0.704   2.689   6.797
 4454SOL    HW114261   0.616   2.661   6.761
 4454SOL    HW214262   0.763   2.720   6.722
 4455SOL     OW14263   0.558   6.483   5.105
 4455SOL    HW114264   0.606   6.396   5.098
 4455SOL    HW214265   0.556   6.513   5.200
 4456SOL     OW14266   2.007   0.003   4.643
 4456SOL    HW114267   1.975   0.094   4.669
 4456SOL    HW214268   2.055   0.008   4.555
 4457SOL     OW14269   0.971   2.380   4.723
 4457SOL    HW114270   1.029   2.453   4.686
 4457SOL    HW214271   0.992   2.366   4.820
 4458SOL     OW14272   1.820   3.461   0.012
 4458SOL    HW114273   1.824   3.369   6.997
 4458SOL    HW214274   1.893   3.471   0.080
 4459SOL     OW14275   1.219   2.550   2.991
 4459SOL    HW114276   1.291   2.573   2.927
 4459SOL    HW214277   1.191   2.455   2.978
 4460SOL     OW14278   6.651   3.209   3.943
 4460SOL    HW114279   6.587   3.166   4.006
 4460SOL    HW214280   6.649   3.308   3.955
 4461SOL     OW14281   2.915   0.912   1.150
 4461SOL    HW114282   2.978   0.974   1.103
 4461SOL    HW214283   2.916   0.932   1.248
 4462SOL     OW14284   6.325   4.512   3.021
 4462SOL    HW114285   6.300   4.447   3.092
 4462SOL    HW214286   6.272   4.596   3.033
 4463SOL     OW14287   5.958   1.788   0.657
 4463SOL    HW114288   5.999   1.697   0.670
 4463SOL    HW214289   6.008   1.855   0.711
 4464SOL     OW14290   0.317   5.389   0.407
 4464SOL    HW114291   0.292   5.373   0.503
 4464SOL    HW214292   0.235   5.412   0.355
 4465SOL     OW14293   2.879   5.950   0.965
 4465SOL    HW114294   2.837   5.985   0.882
 4465SOL    HW214295   2.866   6.014   1.040
 4466SOL     OW14296   1.662   1.994   3.269
 4466SOL    HW114297   1.658   2.053   3.189
 4466SOL    HW214298   1.570   1.985   3.308
 4467SOL     OW14299   4.046   6.054   3.078
 4467SOL    HW114300   4.103   6.122   3.032
 4467SOL    HW214301   3.950   6.069   3.056
 4468SOL     OW14302   1.480   2.998   1.268
 4468SOL    HW114303   1.565   2.950   1.292
 4468SOL    HW214304   1.491   3.096   1.286
 4469SOL     OW14305   3.167   6.599   1.025
 4469SOL    HW114306   3.131   6.540   0.953
 4469SOL    HW214307   3.262   6.576   1.043
 4470SOL     OW14308   1.448   0.381   2.484
 4470SOL    HW114309   1.516   0.384   2.557
 4470SOL    HW214310   1.430   0.285   2.459
 4471SOL     OW14311   0.992   1.084   6.162
 4471SOL    HW114312   1.010   1.023   6.239
 4471SOL    HW214313   1.076   1.095   6.109
 4472SOL     OW14314   1.639   2.286   0.776
 4472SOL    HW114315   1.633   2.187   0.778
 4472SOL    HW214316   1.573   2.325   0.841
 4473SOL     OW14317   6.960   3.190   4.625
 4473SOL    HW114318   6.899   3.265   4.603
 4473SOL    HW214319   6.911   3.103   4.616
 4474SOL     OW14320   3.148   5.916   0.970
 4474SOL    HW114321   3.166   5.822   0.998
 4474SOL    HW214322   3.049   5.932   0.968
 4475SOL     OW14323   1.301   3.531   1.263
 4475SOL    HW114324   1.222   3.587   1.288
 4475SOL    HW214325   1.334   3.482   1.344
 4476SOL     OW14326   4.614   1.400   3.588
 4476SOL    HW114327   4.582   1.342   3.663
 4476SOL    HW214328   4.603   1.496   3.614
 4477SOL     OW14329   1.703   0.840   5.347
 4477SOL    HW114330   1.797   0.822   5.377
 4477SOL    HW214331   1.647   0.759   5.364
 4478SOL     OW14332   1.579   0.277   0.719
 4478SOL    HW114333   1.488   0.281   0.677
 4478SOL    HW214334   1.586   0.347   0.789
 4479SOL     OW14335   1.432   2.693   0.771
 4479SOL    HW114336   1.477   2.608   0.745
 4479SOL    HW214337   1.478   2.770   0.728
 4480SOL     OW14338   0.785   5.494   4.242
 4480SOL    HW114339   0.841   5.458   4.316
 4480SOL    HW214340   0.844   5.517   4.164
 4481SOL     OW14341   2.349   3.858   6.283
 4481SOL    HW114342   2.302   3.945   6.267
 4481SOL    HW214343   2.300   3.784   6.238
 4482SOL     OW14344   2.851   5.951   6.696
 4482SOL    HW114345   2.824   5.855   6.694
 4482SOL    HW214346   2.941   5.961   6.653
 4483SOL     OW14347   0.750   3.157   1.306
 4483SOL    HW114348   0.720   3.250   1.328
 4483SOL    HW214349   0.846   3.159   1.276
 4484SOL     OW14350   2.036   2.501   6.948
 4484SOL    HW114351   2.031   2.424   6.884
 4484SOL    HW214352   2.098   2.478   7.023
 4485SOL     OW14353   5.405   2.663   4.929
 4485SOL    HW114354   5.316   2.651   4.973
 4485SOL    HW214355   5.423   2.586   4.868
 4486SOL     OW14356   4.907   5.106   5.502
 4486SOL    HW114357   4.883   5.170   5.430
 4486SOL    HW214358   4.976   5.042   5.468
 4487SOL     OW14359   0.944   3.049   7.021
 4487SOL    HW114360   0.849   3.077   7.005
 4487SOL    HW214361   0.948   2.949   0.008
 4488SOL     OW14362   6.841   3.645   4.409
 4488SOL    HW114363   6.887   3.733   4.392
 4488SOL    HW214364   6.903   3.586   4.461
 4489SOL     OW14365   4.632   5.382   5.707
 4489SOL    HW114366   4.622   5.287   5.736
 4489SOL    HW214367   4.680   5.434   5.777
 4490SOL     OW14368   5.000   1.359   0.951
 4490SOL    HW114369   5.000   1.422   1.028
 4490SOL    HW214370   5.001   1.411   0.865
 4491SOL     OW14371   0.902   3.032   3.068
 4491SOL    HW114372   0.935   3.030   2.974
 4491SOL    HW214373   0.977   3.008   3.130
 4492SOL     OW14374   6.159   0.713   2.379
 4492SOL    HW114375   6.100   0.683   2.304
 4492SOL    HW214376   6.125   0.676   2.466
 4493SOL     OW14377   4.478   1.485   4.750
 4493SOL    HW114378   4.452   1.395   4.714
 4493SOL    HW214379   4.483   1.481   4.850
 4494SOL     OW14380   1.074   0.015   0.969
 4494SOL    HW114381   1.159   0.024   1.021
 4494SOL    HW214382   1.042   6.943   0.975
 4495SOL     OW14383   4.508   5.397   1.556
 4495SOL    HW114384   4.503   5.376   1.654
 4495SOL    HW214385   4.571   5.333   1.512
 4496SOL     OW14386   3.507   5.963   6.362
 4496SOL    HW114387   3.590   5.923   6.400
 4496SOL    HW214388   3.483   6.045   6.415
 4497SOL     OW14389   3.926   1.670   6.366
 4497SOL    HW114390   3.925   1.751   6.425
 4497SOL    HW214391   4.001   1.679   6.300
 4498SOL     OW14392   1.713   5.384   5.434
 4498SOL    HW114393   1.738   5.326   5.356
 4498SOL    HW214394   1.658   5.331   5.498
 4499SOL     OW14395   5.993   2.228   2.267
 4499SOL    HW114396   5.912   2.174   2.247
 4499SOL    HW214397   6.048   2.238   2.183
 4500SOL     OW14398   3.894   5.579   6.657
 4500SOL    HW114399   3.812   5.542   6.700
 4500SOL    HW214400   3.884   5.575   6.558
 4501SOL     OW14401   5.211   0.944   3.009
 4501SOL    HW114402   5.125   0.954   3.060
 4501SOL    HW214403   5.239   1.033   2.973
 4502SOL     OW14404   0.467   3.759   6.487
 4502SOL    HW114405   0.440   3.831   6.550
 4502SOL    HW214406   0.386   3.728   6.436
 4503SOL     OW14407   2.511   0.407   2.789
 4503SOL    HW114408   2.533   0.501   2.765
 4503SOL    HW214409   2.433   0.406   2.852
 4504SOL     OW14410   0.483   2.516   2.714
 4504SOL    HW114411   0.389   2.540   2.737
 4504SOL    HW214412   0.540   2.522   2.796
 4505SOL     OW14413   6.196   3.853   4.103
 4505SOL    HW114414   6.221   3.898   4.189
 4505SOL    HW214415   6.274   3.852   4.041
 4506SOL     OW14416   4.977   2.860   4.809
 4506SOL    HW114417   5.027   2.914   4.878
 4506SOL    HW214418   4.900   2.814   4.853
 4507SOL     OW14419   6.512   2.576   3.209
 4507SOL    HW114420   6.505   2.502   3.143
 4507SOL    HW214421   6.441   2.644   3.191
 4508SOL     OW14422   0.507   5.214   0.952
 4508SOL    HW114423   0.467   5.123   0.946
 4508SOL    HW214424   0.511   5.255   0.861
 4509SOL     OW14425   4.756   2.728   2.040
 4509SOL    HW114426   4.770   2.826   2.056
 4509SOL    HW214427   4.748   2.711   1.942
 4510SOL     OW14428   4.227   1.728   4.345
 4510SOL    HW114429   4.206   1.796   4.415
 4510SOL    HW214430   4.158   1.731   4.273
 4511SOL     OW14431   0.259   4.173   0.793
 4511SOL    HW114432   0.349   4.144   0.760
 4511SOL    HW214433   0.193   4.170   0.718
 4512SOL     OW14434   3.218   2.975   5.624
 4512SOL    HW114435   3.289   3.043   5.605
 4512SOL    HW214436   3.256   2.883   5.614
 4513SOL     OW14437   1.026   6.549   0.419
 4513SOL    HW114438   1.124   6.566   0.418
 4513SOL    HW214439   0.995   6.524   0.328
 4514SOL     OW14440   3.085   4.484   6.478
 4514SOL    HW114441   3.009   4.434   6.521
 4514SOL    HW214442   3.165   4.425   6.473
 4515SOL     OW14443   4.947   0.550   6.343
 4515SOL    HW114444   4.883   0.475   6.328
 4515SOL    HW214445   4.899   0.638   6.331
 4516SOL     OW14446   3.300   1.956   4.699
 4516SOL    HW114447   3.391   1.983   4.731
 4516SOL    HW214448   3.306   1.866   4.655
 4517SOL     OW14449   3.880   0.848   5.728
 4517SOL    HW114450   3.887   0.813   5.635
 4517SOL    HW214451   3.803   0.912   5.734
 4518SOL     OW14452   1.411   6.619   1.077
 4518SOL    HW114453   1.472   6.689   1.112
 4518SOL    HW214454   1.448   6.581   0.992
 4519SOL     OW14455   5.046   6.719   0.036
 4519SOL    HW114456   5.107   6.797   0.052
 4519SOL    HW214457   4.982   6.711   0.113
 4520SOL     OW14458   4.598   5.775   4.862
 4520SOL    HW114459   4.609   5.874   4.874
 4520SOL    HW214460   4.519   5.758   4.804
 4521SOL     OW14461   4.115   2.229   4.350
 4521SOL    HW114462   4.069   2.277   4.276
 4521SOL    HW214463   4.179   2.291   4.396
 4522SOL     OW14464   5.021   4.401   3.286
 4522SOL    HW114465   4.933   4.424   3.329
 4522SOL    HW214466   5.010   4.316   3.233
 4523SOL     OW14467   0.309   3.493   5.577
 4523SOL    HW114468   0.212   3.511   5.594
 4523SOL    HW214469   0.352   3.574   5.538
 4524SOL     OW14470   1.002   3.437   3.096
 4524SOL    HW114471   1.040   3.510   3.039
 4524SOL    HW214472   1.049   3.436   3.184
 4525SOL     OW14473   2.816   1.916   5.049
 4525SOL    HW114474   2.868   1.995   5.015
 4525SOL    HW214475   2.718   1.932   5.036
 4526SOL     OW14476   0.512   0.274   5.544
 4526SOL    HW114477   0.437   0.213   5.572
 4526SOL    HW214478   0.481   0.369   5.551
 4527SOL     OW14479   6.849   0.630   2.722
 4527SOL    HW114480   6.798   0.579   2.654
 4527SOL    HW214481   6.942   0.593   2.729
 4528SOL     OW14482   4.162   1.022   5.176
 4528SOL    HW114483   4.161   0.922   5.165
 4528SOL    HW214484   4.180   1.065   5.088
 4529SOL     OW14485   2.440   0.979   4.321
 4529SOL    HW114486   2.462   0.983   4.223
 4529SOL    HW214487   2.395   0.892   4.340
 4530SOL     OW14488   3.515   5.158   5.994
 4530SOL    HW114489   3.518   5.170   6.093
 4530SOL    HW214490   3.432   5.201   5.958
 4531SOL     OW14491   0.923   5.510   6.031
 4531SOL    HW114492   0.959   5.490   6.121
 4531SOL    HW214493   0.995   5.498   5.962
 4532SOL     OW14494   5.740   0.433   2.710
 4532SOL    HW114495   5.655   0.468   2.749
 4532SOL    HW214496   5.787   0.505   2.660
 4533SOL     OW14497   2.690   0.329   1.795
 4533SOL    HW114498   2.734   0.239   1.793
 4533SOL    HW214499   2.698   0.371   1.705
 4534SOL     OW14500   4.397   1.278   3.418
 4534SOL    HW114501   4.342   1.324   3.488
 4534SOL    HW214502   4.479   1.239   3.461
 4535SOL     OW14503   2.611   0.943   1.047
 4535SOL    HW114504   2.594   0.875   1.118
 4535SOL    HW214505   2.671   1.014   1.083
 4536SOL     OW14506   2.940   1.110   5.785
 4536SOL    HW114507   2.842   1.128   5.790
 4536SOL    HW214508   2.979   1.160   5.707
 4537SOL     OW14509   3.307   3.373   3.751
 4537SOL    HW114510   3.299   3.441   3.678
 4537SOL    HW214511   3.230   3.382   3.814
 4538SOL     OW14512   0.077   2.229   0.689
 4538SOL    HW114513   0.152   2.200   0.630
 4538SOL    HW214514   0.047   2.321   0.663
 4539SOL     OW14515   1.770   6.045   5.470
 4539SOL    HW114516   1.730   6.111   5.406
 4539SOL    HW214517   1.831   5.984   5.419
 4540SOL     OW14518   0.327   0.612   0.066
 4540SOL    HW114519   0.381   0.581   0.144
 4540SOL    HW214520   0.386   0.619   7.009
 4541SOL     OW14521   4.504   3.042   5.598
 4541SOL    HW114522   4.531   2.948   5.619
 4541SOL    HW214523   4.413   3.060   5.634
 4542SOL     OW14524   6.695   2.222   0.754
 4542SOL    HW114525   6.744   2.139   0.726
 4542SOL    HW214526   6.599   2.200   0.770
 4543SOL     OW14527   3.466   2.311   0.088
 4543SOL    HW114528   3.378   2.288   0.047
 4543SOL    HW214529   3.492   2.404   0.063
 4544SOL     OW14530   5.637   6.284   0.401
 4544SOL    HW114531   5.550   6.320   0.368
 4544SOL    HW214532   5.644   6.187   0.377
 4545SOL     OW14533   2.219   3.142   4.564
 4545SOL    HW114534   2.184   3.209   4.629
 4545SOL    HW214535   2.225   3.053   4.608
 4546SOL     OW14536   2.835   1.265   6.086
 4546SOL    HW114537   2.925   1.234   6.058
 4546SOL    HW214538   2.793   1.317   6.012
 4547SOL     OW14539   6.545   0.671   7.002
 4547SOL    HW114540   6.465   0.614   7.023
 4547SOL    HW214541   6.594   0.692   0.064
 4548SOL     OW14542   2.367   2.238   2.726
 4548SOL    HW114543   2.400   2.228   2.820
 4548SOL    HW214544   2.444   2.232   2.662
 4549SOL     OW14545   6.172   3.772   4.745
 4549SOL    HW114546   6.246   3.839   4.737
 4549SOL    HW214547   6.210   3.686   4.780
 4550SOL     OW14548   1.556   4.658   3.214
 4550SOL    HW114549   1.626   4.698   3.155
 4550SOL    HW214550   1.469   4.657   3.165
 4551SOL     OW14551   1.373   2.874   4.930
 4551SOL    HW114552   1.400   2.807   4.999
 4551SOL    HW214553   1.453   2.927   4.902
 4552SOL     OW14554   5.708   1.017   0.869
 4552SOL    HW114555   5.747   0.934   0.832
 4552SOL    HW214556   5.638   0.994   0.937
 4553SOL     OW14557   6.593   5.396   6.605
 4553SOL    HW114558   6.520   5.453   6.568
 4553SOL    HW214559   6.679   5.418   6.560
 4554SOL     OW14560   6.489   6.179   2.968
 4554SOL    HW114561   6.462   6.098   2.915
 4554SOL    HW214562   6.587   6.195   2.957
 4555SOL     OW14563   1.800   0.850   6.867
 4555SOL    HW114564   1.782   0.889   6.776
 4555SOL    HW214565   1.826   0.754   6.857
 4556SOL     OW14566   5.896   4.979   4.984
 4556SOL    HW114567   5.835   4.976   5.063
 4556SOL    HW214568   5.981   4.930   5.005
 4557SOL     OW14569   6.574   4.608   3.106
 4557SOL    HW114570   6.630   4.668   3.048
 4557SOL    HW214571   6.487   4.589   3.060
 4558SOL     OW14572   0.501   3.261   5.249
 4558SOL    HW114573   0.502   3.167   5.215
 4558SOL    HW214574   0.428   3.271   5.316
 4559SOL     OW14575   6.969   2.907   2.737
 4559SOL    HW114576   0.018   2.882   2.802
 4559SOL    HW214577   6.914   2.826   2.716
 4560SOL     OW14578   6.200   4.240   2.641
 4560SOL    HW114579   6.177   4.274   2.732
 4560SOL    HW214580   6.295   4.208   2.640
 4561SOL     OW14581   3.826   2.184   4.111
 4561SOL    HW114582   3.822   2.210   4.207
 4561SOL    HW214583   3.786   2.093   4.099
 4562SOL     OW14584   3.199   1.043   1.268
 4562SOL    HW114585   3.164   1.057   1.361
 4562SOL    HW214586   3.286   0.995   1.272
 4563SOL     OW14587   0.879   4.208   2.099
 4563SOL    HW114588   0.797   4.151   2.101
 4563SOL    HW214589   0.867   4.282   2.033
 4564SOL     OW14590   1.210   3.947   2.362
 4564SOL    HW114591   1.294   3.997   2.386
 4564SOL    HW214592   1.213   3.922   2.266
 4565SOL     OW14593   2.418   5.587   6.224
 4565SOL    HW114594   2.422   5.660   6.155
 4565SOL    HW214595   2.350   5.520   6.197
 4566SOL     OW14596   6.020   5.038   2.633
 4566SOL    HW114597   6.064   5.052   2.544
 4566SOL    HW214598   6.078   4.979   2.689
 4567SOL     OW14599   0.373   0.530   6.688
 4567SOL    HW114600   0.457   0.549   6.638
 4567SOL    HW214601   0.391   0.464   6.761
 4568SOL     OW14602   1.164   5.810   3.769
 4568SOL    HW114603   1.184   5.712   3.764
 4568SOL    HW214604   1.216   5.858   3.698
 4569SOL     OW14605   2.139   0.834   3.374
 4569SOL    HW114606   2.217   0.885   3.338
 4569SOL    HW214607   2.054   0.879   3.347
 4570SOL     OW14608   5.492   5.964   2.247
 4570SOL    HW114609   5.487   5.875   2.294
 4570SOL    HW214610   5.555   5.957   2.169
 4571SOL     OW14611   3.051   3.326   6.531
 4571SOL    HW114612   3.124   3.392   6.552
 4571SOL    HW214613   3.091   3.235   6.520
 4572SOL     OW14614   2.888   3.296   1.771
 4572SOL    HW114615   2.847   3.287   1.680
 4572SOL    HW214616   2.960   3.227   1.781
 4573SOL     OW14617   2.220   5.511   1.578
 4573SOL    HW114618   2.185   5.599   1.545
 4573SOL    HW214619   2.145   5.458   1.619
 4574SOL     OW14620   5.141   1.223   1.288
 4574SOL    HW114621   5.180   1.144   1.336
 4574SOL    HW214622   5.048   1.240   1.322
 4575SOL     OW14623   0.295   6.730   4.961
 4575SOL    HW114624   0.333   6.714   4.870
 4575SOL    HW214625   0.211   6.784   4.954
 4576SOL     OW14626   2.720   4.906   4.960
 4576SOL    HW114627   2.648   4.892   4.892
 4576SOL    HW214628   2.761   4.818   4.985
 4577SOL     OW14629   1.549   1.685   2.219
 4577SOL    HW114630   1.476   1.686   2.287
 4577SOL    HW214631   1.532   1.754   2.149
 4578SOL     OW14632   1.601   1.272   2.429
 4578SOL    HW114633   1.580   1.175   2.423
 4578SOL    HW214634   1.595   1.313   2.338
 4579SOL     OW14635   4.379   1.515   2.437
 4579SOL    HW114636   4.419   1.605   2.416
 4579SOL    HW214637   4.420   1.480   2.521
 4580SOL     OW14638   6.731   2.369   0.512
 4580SOL    HW114639   6.720   2.319   0.599
 4580SOL    HW214640   6.670   2.448   0.511
 4581SOL     OW14641   3.530   0.587   1.436
 4581SOL    HW114642   3.511   0.514   1.502
 4581SOL    HW214643   3.510   0.676   1.477
 4582SOL     OW14644   5.987   1.641   3.603
 4582SOL    HW114645   5.990   1.741   3.597
 4582SOL    HW214646   5.928   1.605   3.531
 4583SOL     OW14647   1.136   0.186   6.831
 4583SOL    HW114648   1.105   0.091   6.824
 4583SOL    HW214649   1.204   0.204   6.760
 4584SOL     OW14650   1.405   0.446   5.091
 4584SOL    HW114651   1.353   0.528   5.067
 4584SOL    HW214652   1.419   0.442   5.190
 4585SOL     OW14653   1.676   3.669   3.582
 4585SOL    HW114654   1.740   3.656   3.506
 4585SOL    HW214655   1.583   3.656   3.549
 4586SOL     OW14656   5.292   4.712   6.692
 4586SOL    HW114657   5.330   4.756   6.611
 4586SOL    HW214658   5.287   4.779   6.767
 4587SOL     OW14659   2.935   3.334   4.778
 4587SOL    HW114660   2.890   3.396   4.842
 4587SOL    HW214661   3.002   3.278   4.826
 4588SOL     OW14662   3.279   3.779   5.971
 4588SOL    HW114663   3.188   3.745   5.948
 4588SOL    HW214664   3.349   3.722   5.927
 4589SOL     OW14665   6.134   0.025   2.813
 4589SOL    HW114666   6.198   7.014   2.881
 4589SOL    HW214667   6.040   0.010   2.845
 4590SOL     OW14668   3.415   5.681   1.128
 4590SOL    HW114669   3.350   5.637   1.066
 4590SOL    HW214670   3.370   5.759   1.172
 4591SOL     OW14671   1.875   0.573   5.446
 4591SOL    HW114672   1.854   0.531   5.535
 4591SOL    HW214673   1.901   0.669   5.460
 4592SOL     OW14674   2.028   1.564   3.993
 4592SOL    HW114675   2.100   1.539   3.929
 4592SOL    HW214676   1.970   1.484   4.011
 4593SOL     OW14677   1.779   6.065   4.527
 4593SOL    HW114678   1.804   5.975   4.490
 4593SOL    HW214679   1.679   6.074   4.527
 4594SOL     OW14680   1.875   0.847   3.049
 4594SOL    HW114681   1.794   0.903   3.029
 4594SOL    HW214682   1.884   0.837   3.148
 4595SOL     OW14683   5.394   2.019   6.661
 4595SOL    HW114684   5.400   2.046   6.565
 4595SOL    HW214685   5.449   1.936   6.676
 4596SOL     OW14686   0.328   1.143   2.506
 4596SOL    HW114687   0.273   1.063   2.481
 4596SOL    HW214688   0.369   1.182   2.424
 4597SOL     OW14689   3.018   6.445   0.031
 4597SOL    HW114690   3.001   6.397   6.969
 4597SOL    HW214691   3.006   6.544   0.017
 4598SOL     OW14692   1.678   4.822   0.341
 4598SOL    HW114693   1.670   4.726   0.364
 4598SOL    HW214694   1.741   4.833   0.264
 4599SOL     OW14695   2.506   5.766   2.406
 4599SOL    HW114696   2.466   5.675   2.402
 4599SOL    HW214697   2.594   5.766   2.358
 4600SOL     OW14698   0.205   6.922   5.818
 4600SOL    HW114699   0.217   6.894   5.914
 4600SOL    HW214700   0.131   6.988   5.811
 4601SOL     OW14701   1.806   1.138   4.828
 4601SOL    HW114702   1.766   1.055   4.790
 4601SOL    HW214703   1.740   1.182   4.888
 4602SOL     OW14704   2.648   2.124   6.539
 4602SOL    HW114705   2.705   2.206   6.538
 4602SOL    HW214706   2.554   2.148   6.515
 4603SOL     OW14707   4.888   0.270   0.840
 4603SOL    HW114708   4.926   0.357   0.868
 4603SOL    HW214709   4.837   0.281   0.754
 4604SOL     OW14710   5.715   0.160   5.603
 4604SOL    HW114711   5.657   0.205   5.535
 4604SOL    HW214712   5.805   0.141   5.563
 4605SOL     OW14713   3.619   0.420   2.048
 4605SOL    HW114714   3.678   0.483   2.099
 4605SOL    HW214715   3.535   0.404   2.100
 4606SOL     OW14716   6.814   6.566   4.335
 4606SOL    HW114717   6.892   6.624   4.312
 4606SOL    HW214718   6.806   6.560   4.435
 4607SOL     OW14719   2.087   2.763   1.180
 4607SOL    HW114720   2.166   2.771   1.119
 4607SOL    HW214721   2.012   2.717   1.132
 4608SOL     OW14722   6.742   3.033   4.260
 4608SOL    HW114723   6.812   3.103   4.271
 4608SOL    HW214724   6.662   3.073   4.215
 4609SOL     OW14725   4.148   6.227   6.708
 4609SOL    HW114726   4.104   6.264   6.790
 4609SOL    HW214727   4.241   6.264   6.700
 4610SOL     OW14728   5.183   3.269   0.306
 4610SOL    HW114729   5.167   3.353   0.357
 4610SOL    HW214730   5.223   3.292   0.217
 4611SOL     OW14731   1.111   0.857   6.273
 4611SOL    HW114732   1.173   0.907   6.333
 4611SOL    HW214733   1.136   0.760   6.272
 4612SOL     OW14734   2.308   0.651   1.392
 4612SOL    HW114735   2.381   0.595   1.430
 4612SOL    HW214736   2.233   0.591   1.360
 4613SOL     OW14737   1.744   4.630   1.375
 4613SOL    HW114738   1.691   4.555   1.413
 4613SOL    HW214739   1.818   4.594   1.318
 4614SOL     OW14740   6.383   3.944   4.704
 4614SOL    HW114741   6.312   4.001   4.664
 4614SOL    HW214742   6.429   3.893   4.631
 4615SOL     OW14743   1.292   2.221   0.200
 4615SOL    HW114744   1.343   2.220   0.286
 4615SOL    HW214745   1.219   2.289   0.206
 4616SOL     OW14746   6.377   2.665   6.047
 4616SOL    HW114747   6.374   2.568   6.071
 4616SOL    HW214748   6.294   2.710   6.080
 4617SOL     OW14749   0.180   2.997   3.263
 4617SOL    HW114750   0.278   3.017   3.264
 4617SOL    HW214751   0.128   3.081   3.277
 4618SOL     OW14752   1.886   4.434   5.396
 4618SOL    HW114753   1.834   4.364   5.346
 4618SOL    HW214754   1.826   4.512   5.414
 4619SOL     OW14755   3.830   6.443   5.887
 4619SOL    HW114756   3.830   6.371   5.956
 4619SOL    HW214757   3.754   6.428   5.824
 4620SOL     OW14758   6.994   4.652   2.340
 4620SOL    HW114759   7.013   4.620   2.433
 4620SOL    HW214760   6.946   4.739   2.344
 4621SOL     OW14761   4.064   0.619   3.028
 4621SOL    HW114762   4.085   0.570   3.113
 4621SOL    HW214763   4.148   0.629   2.975
 4622SOL     OW14764   5.179   5.905   1.936
 4622SOL    HW114765   5.218   5.813   1.936
 4622SOL    HW214766   5.245   5.968   1.895
 4623SOL     OW14767   3.110   4.779   1.064
 4623SOL    HW114768   3.036   4.742   1.008
 4623SOL    HW214769   3.072   4.825   1.144
 4624SOL     OW14770   4.558   0.891   2.082
 4624SOL    HW114771   4.521   0.804   2.113
 4624SOL    HW214772   4.595   0.881   1.990
 4625SOL     OW14773   1.463   5.892   1.968
 4625SOL    HW114774   1.414   5.841   2.039
 4625SOL    HW214775   1.555   5.855   1.958
 4626SOL     OW14776   4.145   3.897   1.836
 4626SOL    HW114777   4.142   3.984   1.787
 4626SOL    HW214778   4.231   3.851   1.816
 4627SOL     OW14779   5.726   6.838   5.065
 4627SOL    HW114780   5.651   6.902   5.048
 4627SOL    HW214781   5.729   6.771   4.991
 4628SOL     OW14782   5.217   5.047   4.226
 4628SOL    HW114783   5.240   5.005   4.314
 4628SOL    HW214784   5.133   5.005   4.191
 4629SOL     OW14785   2.096   6.188   6.452
 4629SOL    HW114786   2.145   6.271   6.480
 4629SOL    HW214787   2.148   6.141   6.380
 4630SOL     OW14788   1.760   3.487   2.151
 4630SOL    HW114789   1.754   3.512   2.054
 4630SOL    HW214790   1.851   3.450   2.170
 4631SOL     OW14791   6.712   0.863   3.486
 4631SOL    HW114792   6.763   0.851   3.401
 4631SOL    HW214793   6.766   0.919   3.549
 4632SOL     OW14794   3.381   4.862   2.340
 4632SOL    HW114795   3.459   4.831   2.285
 4632SOL    HW214796   3.399   4.842   2.437
 4633SOL     OW14797   5.443   1.233   4.196
 4633SOL    HW114798   5.422   1.314   4.252
 4633SOL    HW214799   5.541   1.216   4.198
 4634SOL     OW14800   2.872   3.707   4.748
 4634SOL    HW114801   2.930   3.657   4.812
 4634SOL    HW214802   2.779   3.714   4.784
 4635SOL     OW14803   4.989   6.746   1.321
 4635SOL    HW114804   4.982   6.648   1.304
 4635SOL    HW214805   4.916   6.775   1.384
 4636SOL     OW14806   2.211   5.428   0.392
 4636SOL    HW114807   2.268   5.448   0.472
 4636SOL    HW214808   2.156   5.508   0.370
 4637SOL     OW14809   2.796   1.261   2.682
 4637SOL    HW114810   2.840   1.330   2.624
 4637SOL    HW214811   2.759   1.188   2.624
 4638SOL     OW14812   3.398   4.742   0.065
 4638SOL    HW114813   3.490   4.728   0.027
 4638SOL    HW214814   3.330   4.726   7.017
 4639SOL     OW14815   2.708   2.258   1.036
 4639SOL    HW114816   2.682   2.298   1.125
 4639SOL    HW214817   2.798   2.291   1.010
 4640SOL     OW14818   6.521   2.752   6.709
 4640SOL    HW114819   6.433   2.705   6.715
 4640SOL    HW214820   6.537   2.802   6.795
 4641SOL     OW14821   1.005   5.553   4.069
 4641SOL    HW114822   1.064   5.627   4.100
 4641SOL    HW214823   1.061   5.479   4.032
 4642SOL     OW14824   7.013   1.342   3.890
 4642SOL    HW114825   7.016   1.437   3.920
 4642SOL    HW214826   0.066   1.324   3.828
 4643SOL     OW14827   0.326   1.856   0.192
 4643SOL    HW114828   0.256   1.914   0.233
 4643SOL    HW214829   0.292   1.816   0.107
 4644SOL     OW14830   1.347   1.150   0.310
 4644SOL    HW114831   1.432   1.111   0.344
 4644SOL    HW214832   1.270   1.109   0.359
 4645SOL     OW14833   0.999   1.459   3.944
 4645SOL    HW114834   1.071   1.528   3.942
 4645SOL    HW214835   0.954   1.455   3.855
 4646SOL     OW14836   2.400   4.904   3.987
 4646SOL    HW114837   2.329   4.836   4.005
 4646SOL    HW214838   2.358   4.995   3.982
 4647SOL     OW14839   1.241   6.313   2.279
 4647SOL    HW114840   1.257   6.251   2.202
 4647SOL    HW214841   1.328   6.345   2.315
 4648SOL     OW14842   2.865   1.733   4.777
 4648SOL    HW114843   2.792   1.798   4.755
 4648SOL    HW214844   2.834   1.672   4.850
 4649SOL     OW14845   6.335   0.785   0.185
 4649SOL    HW114846   6.260   0.766   0.248
 4649SOL    HW214847   6.352   0.705   0.127
 4650SOL     OW14848   5.540   5.951   1.359
 4650SOL    HW114849   5.549   5.865   1.310
 4650SOL    HW214850   5.522   5.933   1.456
 4651SOL     OW14851   6.639   3.631   6.326
 4651SOL    HW114852   6.573   3.645   6.253
 4651SOL    HW214853   6.626   3.540   6.366
 4652SOL     OW14854   0.191   6.483   4.647
 4652SOL    HW114855   0.182   6.385   4.665
 4652SOL    HW214856   0.101   6.521   4.625
 4653SOL     OW14857   5.440   5.601   0.709
 4653SOL    HW114858   5.364   5.621   0.649
 4653SOL    HW214859   5.429   5.649   0.796
 4654SOL     OW14860   0.423   6.751   5.207
 4654SOL    HW114861   0.396   6.718   5.116
 4654SOL    HW214862   0.454   6.674   5.262
 4655SOL     OW14863   4.292   2.498   1.120
 4655SOL    HW114864   4.347   2.541   1.192
 4655SOL    HW214865   4.197   2.527   1.129
 4656SOL     OW14866   0.792   1.086   2.207
 4656SOL    HW114867   0.749   1.136   2.132
 4656SOL    HW214868   0.792   0.988   2.185
 4657SOL     OW14869   5.120   0.236   1.940
 4657SOL    HW114870   5.078   0.196   2.022
 4657SOL    HW214871   5.179   0.168   1.896
 4658SOL     OW14872   1.648   2.535   6.033
 4658SOL    HW114873   1.700   2.495   5.957
 4658SOL    HW214874   1.552   2.542   6.008
 4659SOL     OW14875   2.492   4.553   0.565
 4659SOL    HW114876   2.510   4.651   0.555
 4659SOL    HW214877   2.486   4.510   0.474
 4660SOL     OW14878   1.257   5.970   4.435
 4660SOL    HW114879   1.225   6.065   4.439
 4660SOL    HW214880   1.244   5.927   4.524
 4661SOL     OW14881   1.042   2.475   5.302
 4661SOL    HW114882   1.131   2.506   5.270
 4661SOL    HW214883   1.054   2.416   5.383
 4662SOL     OW14884   2.886   6.211   5.165
 4662SOL    HW114885   2.810   6.208   5.100
 4662SOL    HW214886   2.896   6.305   5.199
 4663SOL     OW14887   1.446   0.053   0.261
 4663SOL    HW114888   1.464   0.054   0.162
 4663SOL    HW214889   1.529   0.080   0.309
 4664SOL     OW14890   6.838   6.751   6.857
 4664SOL    HW114891   6.786   6.700   6.788
 4664SOL    HW214892   6.839   6.699   6.943
 4665SOL     OW14893   2.339   0.236   4.504
 4665SOL    HW114894   2.394   0.248   4.422
 4665SOL    HW214895   2.283   0.317   4.520
 4666SOL     OW14896   2.461   1.968   5.238
 4666SOL    HW114897   2.489   2.052   5.191
 4666SOL    HW214898   2.451   1.894   5.171
 4667SOL     OW14899   6.499   3.886   1.509
 4667SOL    HW114900   6.596   3.911   1.507
 4667SOL    HW214901   6.479   3.832   1.591
 4668SOL     OW14902   4.311   2.039   3.873
 4668SOL    HW114903   4.288   2.128   3.834
 4668SOL    HW214904   4.246   2.016   3.945
 4669SOL     OW14905   5.775   0.026   6.426
 4669SOL    HW114906   5.749   6.955   6.444
 4669SOL    HW214907   5.841   0.029   6.351
 4670SOL     OW14908   0.684   2.527   0.719
 4670SOL    HW114909   0.768   2.542   0.772
 4670SOL    HW214910   0.614   2.489   0.778
 4671SOL     OW14911   0.807   3.745   1.123
 4671SOL    HW114912   0.722   3.751   1.071
 4671SOL    HW214913   0.814   3.655   1.165
 4672SOL     OW14914   2.540   3.648   6.373
 4672SOL    HW114915   2.465   3.703   6.337
 4672SOL    HW214916   2.627   3.692   6.351
 4673SOL     OW14917   6.033   0.700   7.018
 4673SOL    HW114918   5.947   0.748   7.001
 4673SOL    HW214919   6.106   0.767   0.007
 4674SOL     OW14920   1.497   1.945   1.038
 4674SOL    HW114921   1.532   1.975   0.948
 4674SOL    HW214922   1.398   1.931   1.032
 4675SOL     OW14923   2.038   6.085   6.758
 4675SOL    HW114924   2.006   6.056   6.667
 4675SOL    HW214925   2.027   6.184   6.766
 4676SOL     OW14926   0.306   6.210   3.923
 4676SOL    HW114927   0.304   6.310   3.914
 4676SOL    HW214928   0.329   6.185   4.017
 4677SOL     OW14929   4.645   0.491   6.550
 4677SOL    HW114930   4.580   0.497   6.474
 4677SOL    HW214931   4.677   0.397   6.560
 4678SOL     OW14932   2.249   4.503   6.665
 4678SOL    HW114933   2.330   4.548   6.704
 4678SOL    HW214934   2.193   4.571   6.617
 4679SOL     OW14935   3.154   0.765   6.011
 4679SOL    HW114936   3.231   0.717   5.968
 4679SOL    HW214937   3.087   0.789   5.940
 4680SOL     OW14938   1.758   4.738   0.593
 4680SOL    HW114939   1.770   4.815   0.531
 4680SOL    HW214940   1.680   4.683   0.563
 4681SOL     OW14941   0.843   5.674   5.212
 4681SOL    HW114942   0.836   5.773   5.211
 4681SOL    HW214943   0.778   5.636   5.279
 4682SOL     OW14944   4.031   6.602   0.773
 4682SOL    HW114945   4.118   6.564   0.804
 4682SOL    HW214946   3.963   6.590   0.846
 4683SOL     OW14947   6.093   4.474   3.500
 4683SOL    HW114948   6.047   4.476   3.588
 4683SOL    HW214949   6.188   4.446   3.512
 4684SOL     OW14950   1.578   0.888   4.708
 4684SOL    HW114951   1.533   0.907   4.796
 4684SOL    HW214952   1.534   0.808   4.666
 4685SOL     OW14953   5.203   4.781   4.714
 4685SOL    HW114954   5.261   4.709   4.677
 4685SOL    HW214955   5.182   4.847   4.642
 4686SOL     OW14956   3.912   6.023   0.340
 4686SOL    HW114957   3.938   5.932   0.307
 4686SOL    HW214958   3.995   6.078   0.355
 4687SOL     OW14959   6.048   6.109   4.676
 4687SOL    HW114960   6.069   6.108   4.578
 4687SOL    HW214961   5.970   6.168   4.693
 4688SOL     OW14962   0.776   2.129   6.619
 4688SOL    HW114963   0.833   2.181   6.555
 4688SOL    HW214964   0.806   2.034   6.621
 4689SOL     OW14965   1.306   5.904   5.133
 4689SOL    HW114966   1.286   5.896   5.035
 4689SOL    HW214967   1.319   5.813   5.173
 4690SOL     OW14968   1.629   2.379   6.966
 4690SOL    HW114969   1.589   2.288   6.962
 4690SOL    HW214970   1.690   2.386   0.021
 4691SOL     OW14971   2.633   5.644   0.701
 4691SOL    HW114972   2.660   5.580   0.772
 4691SOL    HW214973   2.714   5.690   0.665
 4692SOL     OW14974   0.217   5.290   3.340
 4692SOL    HW114975   0.289   5.284   3.271
 4692SOL    HW214976   0.257   5.318   3.427
 4693SOL     OW14977   0.559   1.273   3.489
 4693SOL    HW114978   0.565   1.189   3.435
 4693SOL    HW214979   0.489   1.262   3.560
 4694SOL     OW14980   0.958   2.124   6.330
 4694SOL    HW114981   0.934   2.064   6.253
 4694SOL    HW214982   1.022   2.077   6.391
 4695SOL     OW14983   3.326   3.248   1.896
 4695SOL    HW114984   3.403   3.237   1.958
 4695SOL    HW214985   3.357   3.294   1.813
 4696SOL     OW14986   0.018   3.112   6.598
 4696SOL    HW114987   6.990   3.038   6.642
 4696SOL    HW214988   0.025   3.093   6.500
 4697SOL     OW14989   0.825   5.177   0.030
 4697SOL    HW114990   0.825   5.079   0.050
 4697SOL    HW214991   0.746   5.220   0.074
 4698SOL     OW14992   5.867   3.108   1.245
 4698SOL    HW114993   5.807   3.186   1.229
 4698SOL    HW214994   5.935   3.102   1.171
 4699SOL     OW14995   0.138   0.315   3.217
 4699SOL    HW114996   0.122   0.411   3.194
 4699SOL    HW214997   0.234   0.302   3.239
 4700SOL     OW14998   4.847   0.924   1.133
 4700SOL    HW114999   4.793   0.985   1.074
 4700SOL    HW215000   4.818   0.830   1.117
 4701SOL     OW15001   0.778   0.846   0.895
 4701SOL    HW115002   0.819   0.855   0.986
 4701SOL    HW215003   0.686   0.884   0.897
 4702SOL     OW15004   3.100   4.036   0.212
 4702SOL    HW115005   3.163   4.088   0.271
 4702SOL    HW215006   3.065   3.957   0.263
 4703SOL     OW15007   2.056   0.516   1.682
 4703SOL    HW115008   2.082   0.507   1.778
 4703SOL    HW215009   2.058   0.426   1.639
 4704SOL     OW15010   5.246   6.822   0.701
 4704SOL    HW115011   5.221   6.874   0.619
 4704SOL    HW215012   5.345   6.818   0.709
 4705SOL     OW15013   3.296   3.745   4.463
 4705SOL    HW115014   3.372   3.684   4.440
 4705SOL    HW215015   3.242   3.764   4.382
 4706SOL     OW15016   3.845   5.743   0.271
 4706SOL    HW115017   3.818   5.683   0.195
 4706SOL    HW215018   3.902   5.691   0.334
 4707SOL     OW15019   2.503   5.686   1.254
 4707SOL    HW115020   2.458   5.709   1.168
 4707SOL    HW215021   2.601   5.703   1.246
 4708SOL     OW15022   2.342   2.648   2.149
 4708SOL    HW115023   2.346   2.701   2.234
 4708SOL    HW215024   2.248   2.648   2.115
 4709SOL     OW15025   3.990   4.477   6.003
 4709SOL    HW115026   3.940   4.557   5.969
 4709SOL    HW215027   4.036   4.501   6.088
 4710SOL     OW15028   4.914   1.613   0.507
 4710SOL    HW115029   4.898   1.709   0.530
 4710SOL    HW215030   4.995   1.606   0.449
 4711SOL     OW15031   3.172   0.504   2.783
 4711SOL    HW115032   3.240   0.465   2.720
 4711SOL    HW215033   3.181   0.603   2.785
 4712SOL     OW15034   1.980   4.901   0.799
 4712SOL    HW115035   2.028   4.823   0.759
 4712SOL    HW215036   1.991   4.900   0.898
 4713SOL     OW15037   2.054   5.485   0.896
 4713SOL    HW115038   1.989   5.457   0.967
 4713SOL    HW215039   2.104   5.405   0.864
 4714SOL     OW15040   2.919   2.485   1.157
 4714SOL    HW115041   2.981   2.421   1.111
 4714SOL    HW215042   2.936   2.481   1.256
 4715SOL     OW15043   6.785   3.213   3.478
 4715SOL    HW115044   6.780   3.311   3.498
 4715SOL    HW215045   6.789   3.162   3.563
 4716SOL     OW15046   3.520   6.286   0.942
 4716SOL    HW115047   3.423   6.289   0.918
 4716SOL    HW215048   3.542   6.196   0.980
 4717SOL     OW15049   1.819   5.821   3.752
 4717SOL    HW115050   1.778   5.748   3.696
 4717SOL    HW215051   1.779   5.909   3.727
 4718SOL     OW15052   5.872   1.327   5.925
 4718SOL    HW115053   5.945   1.266   5.896
 4718SOL    HW215054   5.840   1.381   5.847
 4719SOL     OW15055   4.057   2.804   0.961
 4719SOL    HW115056   3.983   2.866   0.989
 4719SOL    HW215057   4.131   2.808   1.028
 4720SOL     OW15058   2.795   0.432   4.697
 4720SOL    HW115059   2.706   0.439   4.741
 4720SOL    HW215060   2.791   0.365   4.623
 4721SOL     OW15061   1.338   1.919   1.614
 4721SOL    HW115062   1.253   1.940   1.566
 4721SOL    HW215063   1.415   1.957   1.563
 4722SOL     OW15064   2.457   0.174   0.663
 4722SOL    HW115065   2.521   0.239   0.621
 4722SOL    HW215066   2.405   0.128   0.592
 4723SOL     OW15067   2.554   6.640   6.792
 4723SOL    HW115068   2.489   6.707   6.757
 4723SOL    HW215069   2.549   6.556   6.737
 4724SOL     OW15070   4.305   5.993   1.550
 4724SOL    HW115071   4.337   6.027   1.461
 4724SOL    HW215072   4.302   5.893   1.548
 4725SOL     OW15073   5.123   6.455   3.177
 4725SOL    HW115074   5.081   6.513   3.247
 4725SOL    HW215075   5.103   6.359   3.197
 4726SOL     OW15076   0.160   5.054   6.479
 4726SOL    HW115077   0.208   5.061   6.391
 4726SOL    HW215078   0.155   4.959   6.507
 4727SOL     OW15079   0.535   5.971   0.162
 4727SOL    HW115080   0.602   6.009   0.098
 4727SOL    HW215081   0.453   6.028   0.163
 4728SOL     OW15082   6.881   0.868   0.055
 4728SOL    HW115083   6.858   0.846   6.983
 4728SOL    HW215084   6.980   0.859   0.068
 4729SOL     OW15085   3.542   0.842   1.521
 4729SOL    HW115086   3.572   0.862   1.615
 4729SOL    HW215087   3.621   0.823   1.464
 4730SOL     OW15088   1.901   0.215   5.606
 4730SOL    HW115089   1.996   0.221   5.575
 4730SOL    HW215090   1.867   0.305   5.631
 4731SOL     OW15091   5.391   1.487   5.181
 4731SOL    HW115092   5.386   1.395   5.219
 4731SOL    HW215093   5.485   1.505   5.150
 4732SOL     OW15094   0.154   2.064   0.286
 4732SOL    HW115095   0.152   2.105   0.196
 4732SOL    HW215096   0.105   2.122   0.351
 4733SOL     OW15097   6.769   2.933   3.271
 4733SOL    HW115098   6.770   3.008   3.204
 4733SOL    HW215099   6.857   2.929   3.318
 4734SOL     OW15100   4.091   4.426   6.591
 4734SOL    HW115101   4.160   4.406   6.661
 4734SOL    HW215102   4.001   4.398   6.623
 4735SOL     OW15103   1.130   5.096   3.347
 4735SOL    HW115104   1.172   5.183   3.321
 4735SOL    HW215105   1.136   5.032   3.271
 4736SOL     OW15106   1.072   0.714   0.743
 4736SOL    HW115107   1.022   0.793   0.709
 4736SOL    HW215108   1.081   0.720   0.843
 4737SOL     OW15109   2.338   5.126   1.699
 4737SOL    HW115110   2.436   5.108   1.691
 4737SOL    HW215111   2.324   5.216   1.742
 4738SOL     OW15112   6.677   6.303   2.240
 4738SOL    HW115113   6.660   6.392   2.282
 4738SOL    HW215114   6.731   6.247   2.303
 4739SOL     OW15115   4.463   0.674   1.274
 4739SOL    HW115116   4.397   0.703   1.205
 4739SOL    HW215117   4.556   0.679   1.236
 4740SOL     OW15118   0.731   1.988   3.494
 4740SOL    HW115119   0.823   1.993   3.454
 4740SOL    HW215120   0.697   2.080   3.513
 4741SOL     OW15121   3.956   3.694   1.834
 4741SOL    HW115122   4.014   3.776   1.831
 4741SOL    HW215123   3.860   3.722   1.841
 4742SOL     OW15124   3.163   6.730   0.425
 4742SOL    HW115125   3.201   6.754   0.336
 4742SOL    HW215126   3.065   6.752   0.426
 4743SOL     OW15127   2.519   5.170   0.974
 4743SOL    HW115128   2.445   5.124   0.926
 4743SOL    HW215129   2.497   5.268   0.982
 4744SOL     OW15130   2.527   5.899   0.814
 4744SOL    HW115131   2.562   5.826   0.757
 4744SOL    HW215132   2.457   5.863   0.876
 4745SOL     OW15133   1.047   4.532   0.173
 4745SOL    HW115134   0.959   4.519   0.126
 4745SOL    HW215135   1.060   4.458   0.239
 4746SOL     OW15136   4.578   5.119   4.135
 4746SOL    HW115137   4.561   5.177   4.215
 4746SOL    HW215138   4.540   5.163   4.053
 4747SOL     OW15139   1.513   2.065   0.441
 4747SOL    HW115140   1.442   2.134   0.452
 4747SOL    HW215141   1.569   2.087   0.361
 4748SOL     OW15142   1.609   6.799   3.098
 4748SOL    HW115143   1.623   6.869   3.028
 4748SOL    HW215144   1.698   6.767   3.132
 4749SOL     OW15145   2.090   0.991   6.628
 4749SOL    HW115146   2.138   0.981   6.715
 4749SOL    HW215147   1.999   1.029   6.645
 4750SOL     OW15148   4.728   2.743   5.397
 4750SOL    HW115149   4.749   2.793   5.482
 4750SOL    HW215150   4.673   2.802   5.337
 4751SOL     OW15151   3.930   0.807   3.189
 4751SOL    HW115152   3.972   0.727   3.146
 4751SOL    HW215153   3.928   0.794   3.289
 4752SOL     OW15154   4.655   1.792   6.969
 4752SOL    HW115155   4.654   1.704   7.016
 4752SOL    HW215156   4.572   1.843   6.993
 4753SOL     OW15157   3.272   5.944   5.083
 4753SOL    HW115158   3.320   6.031   5.096
 4753SOL    HW215159   3.299   5.880   5.155
 4754SOL     OW15160   4.881   4.994   6.462
 4754SOL    HW115161   4.920   5.076   6.504
 4754SOL    HW215162   4.850   5.016   6.369
 4755SOL     OW15163   1.439   1.151   1.392
 4755SOL    HW115164   1.412   1.248   1.389
 4755SOL    HW215165   1.362   1.096   1.426
 4756SOL     OW15166   5.931   3.962   6.563
 4756SOL    HW115167   5.878   4.032   6.611
 4756SOL    HW215168   6.022   3.998   6.541
 4757SOL     OW15169   1.983   3.820   1.357
 4757SOL    HW115170   2.019   3.767   1.279
 4757SOL    HW215171   1.898   3.865   1.330
 4758SOL     OW15172   3.067   6.163   3.376
 4758SOL    HW115173   3.157   6.165   3.331
 4758SOL    HW215174   3.077   6.125   3.468
 4759SOL     OW15175   0.795   5.335   1.328
 4759SOL    HW115176   0.815   5.423   1.285
 4759SOL    HW215177   0.762   5.271   1.259
 4760SOL     OW15178   1.373   5.896   1.400
 4760SOL    HW115179   1.452   5.955   1.416
 4760SOL    HW215180   1.308   5.906   1.476
 4761SOL     OW15181   6.522   6.524   1.330
 4761SOL    HW115182   6.436   6.540   1.378
 4761SOL    HW215183   6.513   6.444   1.271
 4762SOL     OW15184   1.702   0.313   2.003
 4762SOL    HW115185   1.615   0.361   2.012
 4762SOL    HW215186   1.688   0.227   1.955
 4763SOL     OW15187   5.532   4.687   1.918
 4763SOL    HW115188   5.596   4.708   1.992
 4763SOL    HW215189   5.572   4.616   1.860
 4764SOL     OW15190   4.192   3.208   6.937
 4764SOL    HW115191   4.204   3.251   0.004
 4764SOL    HW215192   4.217   3.111   6.943
 4765SOL     OW15193   3.493   1.858   4.470
 4765SOL    HW115194   3.488   1.810   4.558
 4765SOL    HW215195   3.553   1.807   4.409
 4766SOL     OW15196   0.522   0.076   4.413
 4766SOL    HW115197   0.516   0.154   4.475
 4766SOL    HW215198   0.529   0.108   4.319
 4767SOL     OW15199   1.374   4.398   3.678
 4767SOL    HW115200   1.420   4.412   3.590
 4767SOL    HW215201   1.443   4.382   3.749
 4768SOL     OW15202   3.813   2.757   6.858
 4768SOL    HW115203   3.835   2.747   6.761
 4768SOL    HW215204   3.890   2.725   6.913
 4769SOL     OW15205   2.168   4.634   0.662
 4769SOL    HW115206   2.127   4.545   0.682
 4769SOL    HW215207   2.158   4.654   0.565
 4770SOL     OW15208   0.692   1.717   5.847
 4770SOL    HW115209   0.629   1.640   5.856
 4770SOL    HW215210   0.751   1.703   5.767
 4771SOL     OW15211   2.056   6.274   5.170
 4771SOL    HW115212   2.103   6.213   5.234
 4771SOL    HW215213   2.111   6.287   5.088
 4772SOL     OW15214   2.972   5.294   2.028
 4772SOL    HW115215   3.037   5.221   2.005
 4772SOL    HW215216   3.013   5.383   2.006
 4773SOL     OW15217   1.982   4.997   4.703
 4773SOL    HW115218   2.036   5.017   4.784
 4773SOL    HW215219   2.011   5.055   4.627
 4774SOL     OW15220   1.193   4.104   0.050
 4774SOL    HW115221   1.179   4.201   0.030
 4774SOL    HW215222   1.134   4.049   7.014
 4775SOL     OW15223   6.582   6.054   4.783
 4775SOL    HW115224   6.540   6.083   4.697
 4775SOL    HW215225   6.681   6.050   4.772
 4776SOL     OW15226   0.158   1.043   6.575
 4776SOL    HW115227   0.077   1.100   6.578
 4776SOL    HW215228   0.138   0.955   6.618
 4777SOL     OW15229   0.948   6.998   2.466
 4777SOL    HW115230   0.864   6.969   2.513
 4777SOL    HW215231   0.932   0.062   2.421
 4778SOL     OW15232   0.788   1.498   6.474
 4778SOL    HW115233   0.784   1.406   6.514
 4778SOL    HW215234   0.865   1.503   6.411
 4779SOL     OW15235   5.451   0.236   4.190
 4779SOL    HW115236   5.508   0.280   4.259
 4779SOL    HW215237   5.403   0.159   4.231
 4780SOL     OW15238   6.167   2.889   4.826
 4780SOL    HW115239   6.114   2.810   4.856
 4780SOL    HW215240   6.261   2.882   4.860
 4781SOL     OW15241   2.235   5.817   2.465
 4781SOL    HW115242   2.323   5.810   2.418
 4781SOL    HW215243   2.249   5.818   2.564
 4782SOL     OW15244   0.056   6.413   3.925
 4782SOL    HW115245   7.009   6.484   3.935
 4782SOL    HW215246   0.144   6.450   3.955
 4783SOL     OW15247   6.428   3.448   0.019
 4783SOL    HW115248   6.402   3.395   0.100
 4783SOL    HW215249   6.444   3.543   0.045
 4784SOL     OW15250   4.977   3.057   6.617
 4784SOL    HW115251   4.954   2.961   6.598
 4784SOL    HW215252   5.000   3.067   6.713
 4785SOL     OW15253   0.375   6.471   4.191
 4785SOL    HW115254   0.435   6.505   4.263
 4785SOL    HW215255   0.414   6.492   4.102
 4786SOL     OW15256   1.742   6.016   0.371
 4786SOL    HW115257   1.734   5.917   0.364
 4786SOL    HW215258   1.753   6.042   0.467
 4787SOL     OW15259   3.695   1.265   4.062
 4787SOL    HW115260   3.631   1.200   4.102
 4787SOL    HW215261   3.673   1.357   4.093
 4788SOL     OW15262   6.188   6.416   0.416
 4788SOL    HW115263   6.198   6.504   0.371
 4788SOL    HW215264   6.099   6.412   0.461
 4789SOL     OW15265   5.802   1.190   3.094
 4789SOL    HW115266   5.706   1.169   3.112
 4789SOL    HW215267   5.857   1.168   3.175
 4790SOL     OW15268   6.792   1.807   5.098
 4790SOL    HW115269   6.797   1.889   5.155
 4790SOL    HW215270   6.717   1.817   5.033
 4791SOL     OW15271   6.938   0.760   0.460
 4791SOL    HW115272   6.893   0.699   0.395
 4791SOL    HW215273   6.935   0.719   0.552
 4792SOL     OW15274   2.225   3.058   2.782
 4792SOL    HW115275   2.294   3.115   2.739
 4792SOL    HW215276   2.228   2.966   2.743
 4793SOL     OW15277   0.969   3.808   5.881
 4793SOL    HW115278   0.963   3.870   5.803
 4793SOL    HW215279   1.004   3.719   5.850
 4794SOL     OW15280   4.284   1.670   4.681
 4794SOL    HW115281   4.357   1.604   4.694
 4794SOL    HW215282   4.323   1.759   4.655
 4795SOL     OW15283   6.916   0.708   6.049
 4795SOL    HW115284   6.991   0.741   6.106
 4795SOL    HW215285   6.895   0.776   5.979
 4796SOL     OW15286   4.286   1.208   4.866
 4796SOL    HW115287   4.343   1.168   4.938
 4796SOL    HW215288   4.338   1.211   4.780
 4797SOL     OW15289   1.547   5.098   5.108
 4797SOL    HW115290   1.484   5.167   5.072
 4797SOL    HW215291   1.626   5.143   5.150
 4798SOL     OW15292   3.950   4.983   6.768
 4798SOL    HW115293   4.030   4.999   6.710
 4798SOL    HW215294   3.981   4.959   6.860
 4799SOL     OW15295   3.740   3.084   0.014
 4799SOL    HW115296   3.808   3.038   6.981
 4799SOL    HW215297   3.782   3.117   0.099
 4800SOL     OW15298   0.949   4.400   0.603
 4800SOL    HW115299   0.990   4.363   0.520
 4800SOL    HW215300   0.941   4.329   0.672
 4801SOL     OW15301   5.374   2.770   1.798
 4801SOL    HW115302   5.303   2.800   1.862
 4801SOL    HW215303   5.347   2.795   1.705
 4802SOL     OW15304   6.596   6.741   3.879
 4802SOL    HW115305   6.546   6.714   3.796
 4802SOL    HW215306   6.530   6.763   3.951
 4803SOL     OW15307   4.838   4.266   6.151
 4803SOL    HW115308   4.831   4.366   6.155
 4803SOL    HW215309   4.790   4.226   6.229
 4804SOL     OW15310   4.741   1.550   1.017
 4804SOL    HW115311   4.699   1.635   0.986
 4804SOL    HW215312   4.828   1.570   1.062
 4805SOL     OW15313   6.500   0.999   0.144
 4805SOL    HW115314   6.433   0.925   0.140
 4805SOL    HW215315   6.509   1.040   0.054
 4806SOL     OW15316   1.059   1.092   3.176
 4806SOL    HW115317   0.970   1.058   3.206
 4806SOL    HW215318   1.047   1.152   3.097
 4807SOL     OW15319   0.618   3.695   5.536
 4807SOL    HW115320   0.522   3.712   5.515
 4807SOL    HW215321   0.662   3.651   5.457
 4808SOL     OW15322   4.194   5.501   1.277
 4808SOL    HW115323   4.176   5.599   1.279
 4808SOL    HW215324   4.224   5.471   1.367
 4809SOL     OW15325   3.630   4.346   1.391
 4809SOL    HW115326   3.561   4.328   1.321
 4809SOL    HW215327   3.706   4.282   1.380
 4810SOL     OW15328   0.328   4.664   3.829
 4810SOL    HW115329   0.330   4.610   3.913
 4810SOL    HW215330   0.242   4.714   3.824
 4811SOL     OW15331   3.315   4.179   4.320
 4811SOL    HW115332   3.262   4.264   4.327
 4811SOL    HW215333   3.299   4.137   4.231
 4812SOL     OW15334   1.105   0.236   2.349
 4812SOL    HW115335   1.110   0.251   2.448
 4812SOL    HW215336   1.160   0.156   2.324
 4813SOL     OW15337   6.108   1.863   5.895
 4813SOL    HW115338   6.062   1.788   5.848
 4813SOL    HW215339   6.115   1.941   5.833
 4814SOL     OW15340   6.138   4.075   1.560
 4814SOL    HW115341   6.216   4.045   1.614
 4814SOL    HW215342   6.080   4.135   1.616
 4815SOL     OW15343   5.565   5.301   2.250
 4815SOL    HW115344   5.490   5.363   2.228
 4815SOL    HW215345   5.632   5.348   2.307
 4816SOL     OW15346   2.007   1.298   2.577
 4816SOL    HW115347   1.983   1.252   2.491
 4816SOL    HW215348   2.106   1.295   2.590
 4817SOL     OW15349   3.798   2.311   0.748
 4817SOL    HW115350   3.862   2.356   0.685
 4817SOL    HW215351   3.838   2.309   0.839
 4818SOL     OW15352   3.857   0.301   5.678
 4818SOL    HW115353   3.812   0.357   5.748
 4818SOL    HW215354   3.951   0.332   5.666
 4819SOL     OW15355   3.171   0.606   1.396
 4819SOL    HW115356   3.107   0.532   1.376
 4819SOL    HW215357   3.260   0.585   1.356
 4820SOL     OW15358   5.770   4.420   2.136
 4820SOL    HW115359   5.825   4.451   2.059
 4820SOL    HW215360   5.754   4.496   2.198
 4821SOL     OW15361   0.164   4.178   1.473
 4821SOL    HW115362   0.154   4.273   1.443
 4821SOL    HW215363   0.074   4.136   1.479
 4822SOL     OW15364   1.993   4.131   2.773
 4822SOL    HW115365   1.897   4.156   2.786
 4822SOL    HW215366   2.000   4.033   2.753
 4823SOL     OW15367   1.235   0.999   4.590
 4823SOL    HW115368   1.257   0.941   4.512
 4823SOL    HW215369   1.149   0.968   4.631
 4824SOL     OW15370   5.198   2.802   2.021
 4824SOL    HW115371   5.152   2.882   1.982
 4824SOL    HW215372   5.188   2.803   2.120
 4825SOL     OW15373   0.625   2.909   3.091
 4825SOL    HW115374   0.647   2.870   3.002
 4825SOL    HW215375   0.707   2.950   3.131
 4826SOL     OW15376   6.332   6.448   0.038
 4826SOL    HW115377   6.246   6.397   0.048
 4826SOL    HW215378   6.317   6.543   0.065
 4827SOL     OW15379   5.500   0.828   1.136
 4827SOL    HW115380   5.472   0.913   1.093
 4827SOL    HW215381   5.519   0.760   1.066
 4828SOL     OW15382   5.611   3.565   0.483
 4828SOL    HW115383   5.705   3.600   0.490
 4828SOL    HW215384   5.576   3.546   0.574
 4829SOL     OW15385   2.942   0.487   5.950
 4829SOL    HW115386   2.982   0.518   6.037
 4829SOL    HW215387   3.005   0.424   5.904
 4830SOL     OW15388   4.122   6.856   4.582
 4830SOL    HW115389   4.058   6.791   4.543
 4830SOL    HW215390   4.157   6.820   4.669
 4831SOL     OW15391   6.124   4.005   5.940
 4831SOL    HW115392   6.129   3.961   6.030
 4831SOL    HW215393   6.175   3.951   5.873
 4832SOL     OW15394   2.465   3.608   6.628
 4832SOL    HW115395   2.517   3.635   6.547
 4832SOL    HW215396   2.387   3.669   6.639
 4833SOL     OW15397   4.868   1.518   2.834
 4833SOL    HW115398   4.876   1.426   2.873
 4833SOL    HW215399   4.935   1.579   2.878
 4834SOL     OW15400   5.296   0.989   2.699
 4834SOL    HW115401   5.247   0.977   2.785
 4834SOL    HW215402   5.318   0.899   2.660
 4835SOL     OW15403   2.328   0.785   6.701
 4835SOL    HW115404   2.241   0.770   6.748
 4835SOL    HW215405   2.357   0.699   6.657
 4836SOL     OW15406   5.399   2.685   3.835
 4836SOL    HW115407   5.370   2.594   3.865
 4836SOL    HW215408   5.498   2.687   3.823
 4837SOL     OW15409   1.293   3.741   0.226
 4837SOL    HW115410   1.242   3.825   0.211
 4837SOL    HW215411   1.323   3.703   0.138
 4838SOL     OW15412   3.024   5.855   2.512
 4838SOL    HW115413   3.054   5.775   2.563
 4838SOL    HW215414   2.933   5.883   2.544
 4839SOL     OW15415   0.367   6.138   6.762
 4839SOL    HW115416   0.370   6.177   6.854
 4839SOL    HW215417   0.322   6.202   6.700
 4840SOL     OW15418   0.213   6.716   0.317
 4840SOL    HW115419   0.137   6.692   0.257
 4840SOL    HW215420   0.245   6.808   0.295
 4841SOL     OW15421   3.065   5.883   1.959
 4841SOL    HW115422   3.057   5.924   2.050
 4841SOL    HW215423   3.087   5.786   1.968
 4842SOL     OW15424   4.381   6.025   1.264
 4842SOL    HW115425   4.290   6.062   1.285
 4842SOL    HW215426   4.414   6.064   1.179
 4843SOL     OW15427   0.158   3.188   6.945
 4843SOL    HW115428   0.227   3.246   6.989
 4843SOL    HW215429   0.084   3.169   7.009
 4844SOL     OW15430   5.887   2.084   6.177
 4844SOL    HW115431   5.798   2.070   6.220
 4844SOL    HW215432   5.943   2.003   6.190
 4845SOL     OW15433   6.324   5.621   3.897
 4845SOL    HW115434   6.337   5.651   3.992
 4845SOL    HW215435   6.405   5.645   3.843
 4846SOL     OW15436   1.132   4.090   0.546
 4846SOL    HW115437   1.069   4.067   0.620
 4846SOL    HW215438   1.173   4.006   0.511
 4847SOL     OW15439   3.690   2.098   4.429
 4847SOL    HW115440   3.597   2.124   4.403
 4847SOL    HW215441   3.703   2.000   4.409
 4848SOL     OW15442   2.698   2.410   2.866
 4848SOL    HW115443   2.705   2.318   2.828
 4848SOL    HW215444   2.760   2.419   2.944
 4849SOL     OW15445   1.581   6.525   0.484
 4849SOL    HW115446   1.513   6.515   0.557
 4849SOL    HW215447   1.623   6.436   0.466
 4850SOL     OW15448   4.187   0.560   2.320
 4850SOL    HW115449   4.238   0.476   2.301
 4850SOL    HW215450   4.122   0.577   2.246
 4851SOL     OW15451   5.511   6.030   4.948
 4851SOL    HW115452   5.544   6.066   5.035
 4851SOL    HW215453   5.411   6.018   4.954
 4852SOL     OW15454   1.840   0.968   0.150
 4852SOL    HW115455   1.848   0.896   0.082
 4852SOL    HW215456   1.908   0.953   0.222
 4853SOL     OW15457   2.966   1.857   2.144
 4853SOL    HW115458   3.039   1.844   2.077
 4853SOL    HW215459   2.964   1.953   2.174
 4854SOL     OW15460   5.216   6.877   1.424
 4854SOL    HW115461   5.144   6.836   1.367
 4854SOL    HW215462   5.208   6.976   1.421
 4855SOL     OW15463   6.920   2.067   2.277
 4855SOL    HW115464   6.942   1.975   2.246
 4855SOL    HW215465   7.002   2.109   2.317
 4856SOL     OW15466   2.841   4.748   3.550
 4856SOL    HW115467   2.750   4.736   3.509
 4856SOL    HW215468   2.831   4.762   3.649
 4857SOL     OW15469   6.535   1.837   5.832
 4857SOL    HW115470   6.627   1.809   5.860
 4857SOL    HW215471   6.509   1.788   5.749
 4858SOL     OW15472   1.533   1.370   4.121
 4858SOL    HW115473   1.464   1.298   4.115
 4858SOL    HW215474   1.518   1.423   4.205
 4859SOL     OW15475   2.632   5.764   4.567
 4859SOL    HW115476   2.674   5.797   4.482
 4859SOL    HW215477   2.543   5.807   4.579
 4860SOL     OW15478   4.230   5.120   0.845
 4860SOL    HW115479   4.244   5.054   0.771
 4860SOL    HW215480   4.302   5.109   0.914
 4861SOL     OW15481   5.084   4.083   4.801
 4861SOL    HW115482   5.156   4.079   4.871
 4861SOL    HW215483   5.050   4.177   4.794
 4862SOL     OW15484   1.335   6.748   2.135
 4862SOL    HW115485   1.298   6.730   2.226
 4862SOL    HW215486   1.392   6.672   2.106
 4863SOL     OW15487   6.137   4.224   0.165
 4863SOL    HW115488   6.131   4.149   0.230
 4863SOL    HW215489   6.153   4.187   0.073
 4864SOL     OW15490   2.675   1.004   3.141
 4864SOL    HW115491   2.629   1.050   3.065
 4864SOL    HW215492   2.757   1.055   3.166
 4865SOL     OW15493   2.450   6.430   4.549
 4865SOL    HW115494   2.512   6.445   4.472
 4865SOL    HW215495   2.423   6.519   4.587
 4866SOL     OW15496   6.670   3.811   0.586
 4866SOL    HW115497   6.614   3.737   0.550
 4866SOL    HW215498   6.748   3.773   0.636
 4867SOL     OW15499   4.864   0.065   2.848
 4867SOL    HW115500   4.862   0.142   2.911
 4867SOL    HW215501   4.952   0.061   2.801
 4868SOL     OW15502   6.679   4.657   1.189
 4868SOL    HW115503   6.679   4.588   1.117
 4868SOL    HW215504   6.613   4.631   1.260
 4869SOL     OW15505   0.430   1.253   0.009
 4869SOL    HW115506   0.403   1.262   0.104
 4869SOL    HW215507   0.445   1.344   6.993
 4870SOL     OW15508   0.559   6.088   2.069
 4870SOL    HW115509   0.540   6.053   1.977
 4870SOL    HW215510   0.626   6.162   2.064
 4871SOL     OW15511   0.968   1.693   4.500
 4871SOL    HW115512   0.979   1.596   4.522
 4871SOL    HW215513   0.988   1.707   4.403
 4872SOL     OW15514   5.740   0.135   3.830
 4872SOL    HW115515   5.814   0.072   3.855
 4872SOL    HW215516   5.716   0.192   3.908
 4873SOL     OW15517   6.596   5.911   5.491
 4873SOL    HW115518   6.501   5.942   5.493
 4873SOL    HW215519   6.626   5.891   5.584
 4874SOL     OW15520   4.834   2.996   2.916
 4874SOL    HW115521   4.902   2.974   2.985
 4874SOL    HW215522   4.860   3.082   2.870
 4875SOL     OW15523   5.511   6.324   5.681
 4875SOL    HW115524   5.514   6.407   5.625
 4875SOL    HW215525   5.593   6.319   5.738
 4876SOL     OW15526   1.961   1.082   2.723
 4876SOL    HW115527   2.013   1.020   2.664
 4876SOL    HW215528   1.977   1.176   2.696
 4877SOL     OW15529   0.202   2.266   4.722
 4877SOL    HW115530   0.248   2.264   4.811
 4877SOL    HW215531   0.259   2.316   4.656
 4878SOL     OW15532   0.894   2.802   2.643
 4878SOL    HW115533   0.928   2.773   2.554
 4878SOL    HW215534   0.798   2.830   2.636
 4879SOL     OW15535   5.095   1.431   3.107
 4879SOL    HW115536   5.075   1.464   3.200
 4879SOL    HW215537   5.135   1.505   3.054
 4880SOL     OW15538   5.926   2.774   6.292
 4880SOL    HW115539   5.892   2.683   6.313
 4880SOL    HW215540   5.875   2.842   6.345
 4881SOL     OW15541   1.494   3.626   1.965
 4881SOL    HW115542   1.575   3.569   1.946
 4881SOL    HW215543   1.415   3.567   1.980
 4882SOL     OW15544   4.554   2.505   4.765
 4882SOL    HW115545   4.604   2.445   4.702
 4882SOL    HW215546   4.470   2.460   4.794
 4883SOL     OW15547   6.293   4.057   1.790
 4883SOL    HW115548   6.207   4.021   1.827
 4883SOL    HW215549   6.370   4.005   1.827
 4884SOL     OW15550   2.366   6.409   1.717
 4884SOL    HW115551   2.300   6.482   1.730
 4884SOL    HW215552   2.381   6.394   1.619
 4885SOL     OW15553   1.103   4.750   0.763
 4885SOL    HW115554   1.117   4.727   0.859
 4885SOL    HW215555   1.175   4.709   0.707
 4886SOL     OW15556   3.022   1.630   2.383
 4886SOL    HW115557   3.059   1.614   2.291
 4886SOL    HW215558   3.081   1.695   2.432
 4887SOL     OW15559   0.215   6.803   1.447
 4887SOL    HW115560   0.275   6.724   1.441
 4887SOL    HW215561   0.222   6.843   1.538
 4888SOL     OW15562   3.560   6.314   3.107
 4888SOL    HW115563   3.555   6.297   3.009
 4888SOL    HW215564   3.534   6.409   3.126
 4889SOL     OW15565   6.983   2.920   3.464
 4889SOL    HW115566   7.005   2.991   3.530
 4889SOL    HW215567   0.042   2.868   3.442
 4890SOL     OW15568   0.488   1.449   4.773
 4890SOL    HW115569   0.547   1.527   4.751
 4890SOL    HW215570   0.394   1.480   4.784
 4891SOL     OW15571   2.574   5.763   6.066
 4891SOL    HW115572   2.611   5.751   6.158
 4891SOL    HW215573   2.635   5.824   6.014
 4892SOL     OW15574   5.172   6.158   2.932
 4892SOL    HW115575   5.256   6.108   2.912
 4892SOL    HW215576   5.143   6.140   3.026
 4893SOL     OW15577   0.532   3.512   1.882
 4893SOL    HW115578   0.575   3.458   1.954
 4893SOL    HW215579   0.491   3.452   1.815
 4894SOL     OW15580   4.364   6.506   2.140
 4894SOL    HW115581   4.306   6.530   2.218
 4894SOL    HW215582   4.374   6.407   2.135
 4895SOL     OW15583   6.593   4.696   3.991
 4895SOL    HW115584   6.614   4.620   4.052
 4895SOL    HW215585   6.561   4.660   3.903
 4896SOL     OW15586   2.114   4.801   4.093
 4896SOL    HW115587   2.175   4.723   4.081
 4896SOL    HW215588   2.076   4.800   4.186
 4897SOL     OW15589   1.971   6.432   5.626
 4897SOL    HW115590   1.920   6.506   5.583
 4897SOL    HW215591   2.062   6.465   5.652
 4898SOL     OW15592   3.991   1.887   3.902
 4898SOL    HW115593   4.005   1.908   3.805
 4898SOL    HW215594   4.069   1.834   3.935
 4899SOL     OW15595   6.861   4.895   1.610
 4899SOL    HW115596   6.820   4.986   1.615
 4899SOL    HW215597   6.938   4.889   1.675
 4900SOL     OW15598   3.802   6.219   5.659
 4900SOL    HW115599   3.818   6.187   5.752
 4900SOL    HW215600   3.890   6.230   5.612
 4901SOL     OW15601   0.259   1.263   6.077
 4901SOL    HW115602   0.258   1.194   6.150
 4901SOL    HW215603   0.337   1.247   6.018
 4902SOL     OW15604   1.938   0.473   6.055
 4902SOL    HW115605   1.889   0.446   6.139
 4902SOL    HW215606   1.872   0.491   5.982
 4903SOL     OW15607   5.398   4.958   1.619
 4903SOL    HW115608   5.479   4.910   1.583
 4903SOL    HW215609   5.338   4.982   1.543
 4904SOL     OW15610   1.762   0.396   0.517
 4904SOL    HW115611   1.707   0.341   0.580
 4904SOL    HW215612   1.802   0.473   0.566
 4905SOL     OW15613   3.259   6.495   2.474
 4905SOL    HW115614   3.297   6.587   2.477
 4905SOL    HW215615   3.249   6.466   2.379
 4906SOL     OW15616   5.425   3.175   4.970
 4906SOL    HW115617   5.405   3.260   4.921
 4906SOL    HW215618   5.379   3.177   5.059
 4907SOL     OW15619   4.380   1.650   6.226
 4907SOL    HW115620   4.378   1.663   6.127
 4907SOL    HW215621   4.467   1.607   6.252
 4908SOL     OW15622   4.591   6.757   0.041
 4908SOL    HW115623   4.637   6.824   7.007
 4908SOL    HW215624   4.517   6.802   0.092
 4909SOL     OW15625   5.690   4.238   4.284
 4909SOL    HW115626   5.609   4.268   4.234
 4909SOL    HW215627   5.695   4.287   4.371
 4910SOL     OW15628   4.652   1.418   5.594
 4910SOL    HW115629   4.624   1.338   5.645
 4910SOL    HW215630   4.627   1.501   5.644
 4911SOL     OW15631   0.311   2.238   1.769
 4911SOL    HW115632   0.308   2.256   1.867
 4911SOL    HW215633   0.219   2.244   1.731
 4912SOL     OW15634   5.983   2.241   4.100
 4912SOL    HW115635   5.949   2.327   4.064
 4912SOL    HW215636   6.035   2.258   4.184
 4913SOL     OW15637   6.527   2.759   5.599
 4913SOL    HW115638   6.540   2.710   5.686
 4913SOL    HW215639   6.538   2.696   5.523
 4914SOL     OW15640   4.934   0.579   4.066
 4914SOL    HW115641   5.008   0.588   3.999
 4914SOL    HW215642   4.871   0.656   4.058
 4915SOL     OW15643   4.145   5.731   5.652
 4915SOL    HW115644   4.178   5.782   5.572
 4915SOL    HW215645   4.221   5.715   5.715
 4916SOL     OW15646   6.071   1.999   4.030
 4916SOL    HW115647   6.039   2.088   4.063
 4916SOL    HW215648   6.147   1.968   4.086
 4917SOL     OW15649   4.697   0.054   0.978
 4917SOL    HW115650   4.724   0.148   0.957
 4917SOL    HW215651   4.742   0.024   1.062
 4918SOL     OW15652   6.190   5.637   2.060
 4918SOL    HW115653   6.235   5.639   2.150
 4918SOL    HW215654   6.222   5.558   2.009
 4919SOL     OW15655   3.613   4.049   2.343
 4919SOL    HW115656   3.645   4.051   2.438
 4919SOL    HW215657   3.515   4.067   2.340
 4920SOL     OW15658   6.054   0.911   5.256
 4920SOL    HW115659   6.092   0.939   5.344
 4920SOL    HW215660   6.101   0.829   5.223
 4921SOL     OW15661   0.270   0.008   2.257
 4921SOL    HW115662   0.233   0.100   2.247
 4921SOL    HW215663   0.299   7.018   2.352
 4922SOL     OW15664   3.640   2.344   6.234
 4922SOL    HW115665   3.674   2.271   6.173
 4922SOL    HW215666   3.570   2.306   6.295
 4923SOL     OW15667   3.410   1.749   2.600
 4923SOL    HW115668   3.450   1.758   2.691
 4923SOL    HW215669   3.325   1.801   2.595
 4924SOL     OW15670   2.502   0.754   5.657
 4924SOL    HW115671   2.530   0.676   5.714
 4924SOL    HW215672   2.429   0.725   5.594
 4925SOL     OW15673   5.449   6.027   3.714
 4925SOL    HW115674   5.453   6.034   3.615
 4925SOL    HW215675   5.358   6.052   3.746
 4926SOL     OW15676   5.491   2.188   0.880
 4926SOL    HW115677   5.582   2.148   0.865
 4926SOL    HW215678   5.501   2.285   0.901
 4927SOL     OW15679   3.603   1.532   6.539
 4927SOL    HW115680   3.591   1.516   6.441
 4927SOL    HW215681   3.601   1.630   6.558
 4928SOL     OW15682   0.411   2.088   0.392
 4928SOL    HW115683   0.321   2.074   0.350
 4928SOL    HW215684   0.470   2.138   0.328
 4929SOL     OW15685   0.644   6.293   4.689
 4929SOL    HW115686   0.663   6.220   4.755
 4929SOL    HW215687   0.629   6.379   4.738
 4930SOL     OW15688   5.452   6.835   2.122
 4930SOL    HW115689   5.490   6.869   2.208
 4930SOL    HW215690   5.515   6.854   2.047
 4931SOL     OW15691   6.099   6.069   0.665
 4931SOL    HW115692   6.069   5.974   0.671
 4931SOL    HW215693   6.047   6.117   0.594
 4932SOL     OW15694   3.038   3.148   2.217
 4932SOL    HW115695   3.001   3.188   2.301
 4932SOL    HW215696   2.964   3.110   2.162
 4933SOL     OW15697   3.227   5.985   5.402
 4933SOL    HW115698   3.272   5.907   5.358
 4933SOL    HW215699   3.129   5.983   5.382
 4934SOL     OW15700   3.897   4.800   3.074
 4934SOL    HW115701   3.981   4.757   3.106
 4934SOL    HW215702   3.919   4.865   3.000
 4935SOL     OW15703   0.653   0.855   6.313
 4935SOL    HW115704   0.728   0.830   6.251
 4935SOL    HW215705   0.594   0.775   6.328
 4936SOL     OW15706   2.757   3.656   1.046
 4936SOL    HW115707   2.750   3.625   1.141
 4936SOL    HW215708   2.788   3.751   1.045
 4937SOL     OW15709   4.490   2.577   5.098
 4937SOL    HW115710   4.443   2.665   5.106
 4937SOL    HW215711   4.505   2.557   5.001
 4938SOL     OW15712   4.174   5.858   5.985
 4938SOL    HW115713   4.118   5.893   5.910
 4938SOL    HW215714   4.269   5.853   5.955
 4939SOL     OW15715   4.706   3.185   5.719
 4939SOL    HW115716   4.638   3.144   5.657
 4939SOL    HW215717   4.693   3.147   5.811
 4940SOL     OW15718   2.605   6.538   4.342
 4940SOL    HW115719   2.693   6.572   4.377
 4940SOL    HW215720   2.543   6.614   4.327
 4941SOL     OW15721   5.707   0.538   0.561
 4941SOL    HW115722   5.772   0.546   0.637
 4941SOL    HW215723   5.615   0.520   0.598
 4942SOL     OW15724   4.936   3.644   5.301
 4942SOL    HW115725   5.020   3.590   5.300
 4942SOL    HW215726   4.878   3.617   5.224
 4943SOL     OW15727   4.252   2.433   0.732
 4943SOL    HW115728   4.156   2.453   0.751
 4943SOL    HW215729   4.311   2.498   0.780
 4944SOL     OW15730   2.196   4.526   2.188
 4944SOL    HW115731   2.194   4.625   2.195
 4944SOL    HW215732   2.102   4.490   2.192
 4945SOL     OW15733   0.906   6.608   4.297
 4945SOL    HW115734   0.847   6.675   4.343
 4945SOL    HW215735   0.910   6.525   4.352
 4946SOL     OW15736   1.252   3.877   2.648
 4946SOL    HW115737   1.226   3.920   2.561
 4946SOL    HW215738   1.215   3.931   2.724
 4947SOL     OW15739   0.558   6.585   0.543
 4947SOL    HW115740   0.479   6.523   0.535
 4947SOL    HW215741   0.641   6.531   0.558
 4948SOL     OW15742   2.192   1.298   1.944
 4948SOL    HW115743   2.159   1.284   2.038
 4948SOL    HW215744   2.117   1.285   1.880
 4949SOL     OW15745   5.785   1.495   4.172
 4949SOL    HW115746   5.751   1.551   4.096
 4949SOL    HW215747   5.744   1.403   4.166
 4950SOL     OW15748   3.082   5.617   4.735
 4950SOL    HW115749   3.151   5.677   4.774
 4950SOL    HW215750   3.060   5.544   4.799
 4951SOL     OW15751   4.360   2.398   3.659
 4951SOL    HW115752   4.367   2.456   3.578
 4951SOL    HW215753   4.444   2.345   3.669
 4952SOL     OW15754   0.840   5.925   5.258
 4952SOL    HW115755   0.777   6.003   5.256
 4952SOL    HW215756   0.934   5.958   5.268
 4953SOL     OW15757   1.732   5.246   1.722
 4953SOL    HW115758   1.649   5.204   1.758
 4953SOL    HW215759   1.772   5.305   1.792
 4954SOL     OW15760   5.421   6.007   6.911
 4954SOL    HW115761   5.443   6.096   6.871
 4954SOL    HW215762   5.475   5.994   6.993
 4955SOL     OW15763   1.168   6.343   1.138
 4955SOL    HW115764   1.095   6.334   1.205
 4955SOL    HW215765   1.253   6.368   1.184
 4956SOL     OW15766   4.691   6.236   4.211
 4956SOL    HW115767   4.650   6.144   4.205
 4956SOL    HW215768   4.685   6.281   4.122
 4957SOL     OW15769   0.955   0.262   4.124
 4957SOL    HW115770   0.905   0.341   4.090
 4957SOL    HW215771   0.956   0.262   4.224
 4958SOL     OW15772   6.951   5.882   0.075
 4958SOL    HW115773   6.939   5.929   7.011
 4958SOL    HW215774   6.863   5.875   0.122
 4959SOL     OW15775   0.889   0.948   1.142
 4959SOL    HW115776   0.950   1.022   1.170
 4959SOL    HW215777   0.804   0.952   1.194
 4960SOL     OW15778   4.203   6.962   4.900
 4960SOL    HW115779   4.298   6.990   4.887
 4960SOL    HW215780   4.190   6.929   4.994
 4961SOL     OW15781   4.733   0.604   5.384
 4961SOL    HW115782   4.768   0.512   5.368
 4961SOL    HW215783   4.633   0.604   5.380
 4962SOL     OW15784   6.901   1.070   0.907
 4962SOL    HW115785   6.955   1.138   0.857
 4962SOL    HW215786   6.956   1.032   0.981
 4963SOL     OW15787   0.452   4.744   1.661
 4963SOL    HW115788   0.546   4.749   1.695
 4963SOL    HW215789   0.388   4.742   1.738
 4964SOL     OW15790   3.819   6.644   3.127
 4964SOL    HW115791   3.874   6.690   3.057
 4964SOL    HW215792   3.873   6.633   3.210
 4965SOL     OW15793   0.041   6.703   4.360
 4965SOL    HW115794   0.036   6.698   4.261
 4965SOL    HW215795   0.100   6.779   4.388
 4966SOL     OW15796   3.871   4.838   3.753
 4966SOL    HW115797   3.781   4.857   3.715
 4966SOL    HW215798   3.862   4.811   3.849
 4967SOL     OW15799   4.110   2.541   5.769
 4967SOL    HW115800   4.014   2.514   5.780
 4967SOL    HW215801   4.119   2.639   5.784
 4968SOL     OW15802   5.825   2.772   5.622
 4968SOL    HW115803   5.824   2.817   5.533
 4968SOL    HW215804   5.896   2.813   5.679
 4969SOL     OW15805   1.170   1.651   1.904
 4969SOL    HW115806   1.151   1.580   1.836
 4969SOL    HW215807   1.160   1.613   1.996
 4970SOL     OW15808   0.582   2.468   6.022
 4970SOL    HW115809   0.573   2.533   5.946
 4970SOL    HW215810   0.604   2.377   5.985
 4971SOL     OW15811   5.653   5.594   3.616
 4971SOL    HW115812   5.714   5.618   3.540
 4971SOL    HW215813   5.693   5.626   3.701
 4972SOL     OW15814   1.341   2.613   6.248
 4972SOL    HW115815   1.248   2.600   6.214
 4972SOL    HW215816   1.379   2.525   6.277
 4973SOL     OW15817   5.248   6.530   2.424
 4973SOL    HW115818   5.238   6.430   2.426
 4973SOL    HW215819   5.207   6.569   2.507
 4974SOL     OW15820   5.706   6.916   1.968
 4974SOL    HW115821   5.738   7.004   1.932
 4974SOL    HW215822   5.752   6.897   2.055
 4975SOL     OW15823   5.742   6.035   0.729
 4975SOL    HW115824   5.796   5.956   0.701
 4975SOL    HW215825   5.787   6.082   0.804
 4976SOL     OW15826   3.932   0.494   4.655
 4976SOL    HW115827   3.944   0.565   4.586
 4976SOL    HW215828   3.872   0.423   4.619
 4977SOL     OW15829   3.622   4.084   0.506
 4977SOL    HW115830   3.615   4.177   0.541
 4977SOL    HW215831   3.548   4.029   0.544
 4978SOL     OW15832   5.597   3.218   6.229
 4978SOL    HW115833   5.571   3.121   6.231
 4978SOL    HW215834   5.602   3.249   6.134
 4979SOL     OW15835   1.196   1.036   5.752
 4979SOL    HW115836   1.214   0.995   5.663
 4979SOL    HW215837   1.098   1.056   5.760
 4980SOL     OW15838   2.453   5.432   2.003
 4980SOL    HW115839   2.531   5.371   2.013
 4980SOL    HW215840   2.394   5.400   1.929
 4981SOL     OW15841   4.427   6.499   5.337
 4981SOL    HW115842   4.498   6.443   5.378
 4981SOL    HW215843   4.443   6.595   5.360
 4982SOL     OW15844   2.677   3.032   0.433
 4982SOL    HW115845   2.619   3.044   0.353
 4982SOL    HW215846   2.660   2.942   0.473
 4983SOL     OW15847   5.569   2.972   4.360
 4983SOL    HW115848   5.521   2.912   4.296
 4983SOL    HW215849   5.509   3.048   4.387
 4984SOL     OW15850   4.716   4.100   2.522
 4984SOL    HW115851   4.746   4.018   2.571
 4984SOL    HW215852   4.778   4.117   2.445
 4985SOL     OW15853   5.754   4.560   2.384
 4985SOL    HW115854   5.807   4.490   2.432
 4985SOL    HW215855   5.732   4.634   2.446
 4986SOL     OW15856   4.725   4.956   1.841
 4986SOL    HW115857   4.684   5.034   1.794
 4986SOL    HW215858   4.726   4.973   1.940
 4987SOL     OW15859   0.019   3.291   1.525
 4987SOL    HW115860   0.067   3.377   1.507
 4987SOL    HW215861   6.956   3.310   1.572
 4988SOL     OW15862   0.602   2.106   4.775
 4988SOL    HW115863   0.568   2.053   4.853
 4988SOL    HW215864   0.544   2.090   4.695
 4989SOL     OW15865   0.578   0.974   0.465
 4989SOL    HW115866   0.664   0.923   0.469
 4989SOL    HW215867   0.518   0.931   0.398
 4990SOL     OW15868   0.751   2.586   5.718
 4990SOL    HW115869   0.760   2.582   5.618
 4990SOL    HW215870   0.841   2.583   5.760
 4991SOL     OW15871   1.256   2.788   4.279
 4991SOL    HW115872   1.339   2.812   4.229
 4991SOL    HW215873   1.198   2.870   4.288
 4992SOL     OW15874   3.426   0.497   6.112
 4992SOL    HW115875   3.348   0.473   6.171
 4992SOL    HW215876   3.455   0.591   6.133
 4993SOL     OW15877   2.740   5.854   3.847
 4993SOL    HW115878   2.757   5.774   3.789
 4993SOL    HW215879   2.825   5.904   3.860
 4994SOL     OW15880   0.261   6.729   2.731
 4994SOL    HW115881   0.316   6.744   2.649
 4994SOL    HW215882   0.290   6.644   2.775
 4995SOL     OW15883   5.654   2.970   5.949
 4995SOL    HW115884   5.734   2.910   5.956
 4995SOL    HW215885   5.681   3.064   5.967
 4996SOL     OW15886   1.069   1.104   3.901
 4996SOL    HW115887   1.086   1.042   3.824
 4996SOL    HW215888   1.127   1.185   3.893
 4997SOL     OW15889   0.292   2.425   3.641
 4997SOL    HW115890   0.293   2.427   3.741
 4997SOL    HW215891   0.212   2.375   3.609
 4998SOL     OW15892   2.038   5.502   4.726
 4998SOL    HW115893   2.097   5.486   4.806
 4998SOL    HW215894   2.014   5.599   4.722
 4999SOL     OW15895   6.166   4.800   1.554
 4999SOL    HW115896   6.071   4.827   1.543
 4999SOL    HW215897   6.183   4.716   1.501
 5000SOL     OW15898   0.085   6.230   4.722
 5000SOL    HW115899   0.084   6.140   4.678
 5000SOL    HW215900   7.015   6.263   4.732
 5001SOL     OW15901   4.374   4.215   5.693
 5001SOL    HW115902   4.444   4.192   5.625
 5001SOL    HW215903   4.303   4.271   5.650
 5002SOL     OW15904   2.215   1.260   1.459
 5002SOL    HW115905   2.232   1.355   1.435
 5002SOL    HW215906   2.116   1.245   1.468
 5003SOL     OW15907   6.388   5.922   2.874
 5003SOL    HW115908   6.360   5.888   2.784
 5003SOL    HW215909   6.481   5.893   2.894
 5004SOL     OW15910   3.309   5.646   7.012
 5004SOL    HW115911   3.214   5.663   6.985
 5004SOL    HW215912   3.335   5.710   0.061
 5005SOL     OW15913   4.444   2.073   6.760
 5005SOL    HW115914   4.417   2.158   6.806
 5005SOL    HW215915   4.449   2.089   6.662
 5006SOL     OW15916   5.429   5.618   4.046
 5006SOL    HW115917   5.425   5.700   3.989
 5006SOL    HW215918   5.401   5.641   4.139
 5007SOL     OW15919   3.839   1.615   5.186
 5007SOL    HW115920   3.923   1.603   5.238
 5007SOL    HW215921   3.821   1.713   5.174
 5008SOL     OW15922   6.120   1.906   3.773
 5008SOL    HW115923   6.211   1.939   3.796
 5008SOL    HW215924   6.052   1.951   3.832
 5009SOL     OW15925   1.734   6.082   3.653
 5009SOL    HW115926   1.691   6.170   3.671
 5009SOL    HW215927   1.833   6.091   3.661
 5010SOL     OW15928   4.101   3.250   4.565
 5010SOL    HW115929   4.014   3.280   4.525
 5010SOL    HW215930   4.171   3.249   4.494
 5011SOL     OW15931   1.437   2.621   2.464
 5011SOL    HW115932   1.449   2.691   2.534
 5011SOL    HW215933   1.518   2.619   2.405
 5012SOL     OW15934   6.114   3.094   6.661
 5012SOL    HW115935   6.158   3.142   6.736
 5012SOL    HW215936   6.179   3.083   6.586
 5013SOL     OW15937   4.080   0.865   6.840
 5013SOL    HW115938   4.142   0.936   6.807
 5013SOL    HW215939   4.076   0.867   6.940
 5014SOL     OW15940   6.184   6.712   0.198
 5014SOL    HW115941   6.138   6.800   0.187
 5014SOL    HW215942   6.246   6.716   0.276
 5015SOL     OW15943   4.793   2.390   3.500
 5015SOL    HW115944   4.718   2.391   3.565
 5015SOL    HW215945   4.757   2.372   3.408
 5016SOL     OW15946   1.941   0.113   2.676
 5016SOL    HW115947   1.932   0.047   2.601
 5016SOL    HW215948   1.990   0.071   2.752
 5017SOL     OW15949   2.555   2.910   1.367
 5017SOL    HW115950   2.552   2.831   1.428
 5017SOL    HW215951   2.463   2.939   1.344
 5018SOL     OW15952   6.748   5.514   3.935
 5018SOL    HW115953   6.800   5.574   3.997
 5018SOL    HW215954   6.724   5.430   3.983
 5019SOL     OW15955   2.655   5.061   6.388
 5019SOL    HW115956   2.753   5.040   6.380
 5019SOL    HW215957   2.623   5.104   6.304
 5020SOL     OW15958   4.898   6.022   6.566
 5020SOL    HW115959   4.826   5.960   6.536
 5020SOL    HW215960   4.982   6.002   6.516
 5021SOL     OW15961   1.496   4.806   5.992
 5021SOL    HW115962   1.538   4.751   6.064
 5021SOL    HW215963   1.435   4.874   6.033
 5022SOL     OW15964   1.308   5.367   0.481
 5022SOL    HW115965   1.217   5.383   0.443
 5022SOL    HW215966   1.305   5.285   0.539
 5023SOL     OW15967   6.296   3.069   2.597
 5023SOL    HW115968   6.324   3.132   2.525
 5023SOL    HW215969   6.198   3.050   2.590
 5024SOL     OW15970   5.849   3.531   4.736
 5024SOL    HW115971   5.805   3.609   4.781
 5024SOL    HW215972   5.942   3.521   4.772
 5025SOL     OW15973   6.119   1.471   3.271
 5025SOL    HW115974   6.122   1.372   3.288
 5025SOL    HW215975   6.204   1.500   3.228
 5026SOL     OW15976   0.626   6.482   3.728
 5026SOL    HW115977   0.622   6.469   3.827
 5026SOL    HW215978   0.574   6.410   3.683
 5027SOL     OW15979   1.058   6.648   3.517
 5027SOL    HW115980   1.111   6.732   3.501
 5027SOL    HW215981   0.982   6.668   3.579
 5028SOL     OW15982   0.931   0.653   2.598
 5028SOL    HW115983   1.019   0.659   2.646
 5028SOL    HW215984   0.858   0.683   2.660
 5029SOL     OW15985   0.330   0.995   1.875
 5029SOL    HW115986   0.295   1.000   1.969
 5029SOL    HW215987   0.349   0.899   1.852
 5030SOL     OW15988   1.445   6.057   0.160
 5030SOL    HW115989   1.408   6.150   0.157
 5030SOL    HW215990   1.486   6.040   0.250
 5031SOL     OW15991   5.488   0.358   4.810
 5031SOL    HW115992   5.525   0.448   4.831
 5031SOL    HW215993   5.390   0.365   4.790
 5032SOL     OW15994   1.488   5.860   0.831
 5032SOL    HW115995   1.458   5.775   0.876
 5032SOL    HW215996   1.586   5.872   0.844
 5033SOL     OW15997   1.904   4.609   5.792
 5033SOL    HW115998   1.875   4.526   5.839
 5033SOL    HW215999   1.837   4.681   5.808
 5034SOL     OW16000   6.883   3.756   0.793
 5034SOL    HW116001   6.946   3.817   0.744
 5034SOL    HW216002   6.932   3.675   0.825
 5035SOL     OW16003   5.953   4.113   0.842
 5035SOL    HW116004   5.985   4.032   0.891
 5035SOL    HW216005   5.974   4.104   0.744
 5036SOL     OW16006   1.983   0.564   2.274
 5036SOL    HW116007   1.908   0.553   2.208
 5036SOL    HW216008   1.953   0.621   2.350
 5037SOL     OW16009   4.608   2.373   3.760
 5037SOL    HW116010   4.580   2.349   3.853
 5037SOL    HW216011   4.690   2.429   3.763
 5038SOL     OW16012   3.030   6.455   5.551
 5038SOL    HW116013   2.945   6.417   5.589
 5038SOL    HW216014   3.075   6.386   5.494
 5039SOL     OW16015   2.026   1.452   4.410
 5039SOL    HW116016   2.022   1.437   4.508
 5039SOL    HW216017   2.095   1.522   4.389
 5040SOL     OW16018   2.461   3.646   6.073
 5040SOL    HW116019   2.367   3.644   6.108
 5040SOL    HW216020   2.481   3.738   6.038
 5041SOL     OW16021   1.387   5.237   0.917
 5041SOL    HW116022   1.347   5.147   0.934
 5041SOL    HW216023   1.369   5.264   0.822
 5042SOL     OW16024   5.634   2.679   6.388
 5042SOL    HW116025   5.654   2.697   6.291
 5042SOL    HW216026   5.617   2.582   6.400
 5043SOL     OW16027   3.984   0.507   3.295
 5043SOL    HW116028   3.929   0.498   3.379
 5043SOL    HW216029   4.078   0.532   3.319
 5044SOL     OW16030   6.269   4.359   3.226
 5044SOL    HW116031   6.180   4.317   3.247
 5044SOL    HW216032   6.315   4.383   3.311
 5045SOL     OW16033   6.503   2.893   6.483
 5045SOL    HW116034   6.404   2.910   6.475
 5045SOL    HW216035   6.519   2.818   6.547
 5046SOL     OW16036   3.349   2.944   5.319
 5046SOL    HW116037   3.294   3.022   5.287
 5046SOL    HW216038   3.401   2.971   5.400
 5047SOL     OW16039   0.994   1.190   2.611
 5047SOL    HW116040   0.928   1.115   2.614
 5047SOL    HW216041   1.015   1.213   2.516
 5048SOL     OW16042   5.784   2.853   1.372
 5048SOL    HW116043   5.724   2.874   1.449
 5048SOL    HW216044   5.838   2.935   1.349
 5049SOL     OW16045   1.390   2.401   2.627
 5049SOL    HW116046   1.457   2.327   2.635
 5049SOL    HW216047   1.436   2.484   2.594
 5050SOL     OW16048   0.684   3.424   1.352
 5050SOL    HW116049   0.613   3.446   1.285
 5050SOL    HW216050   0.736   3.507   1.373
 5051SOL     OW16051   2.921   5.216   0.137
 5051SOL    HW116052   2.959   5.262   0.218
 5051SOL    HW216053   2.988   5.219   0.063
 5052SOL     OW16054   5.401   4.283   0.904
 5052SOL    HW116055   5.414   4.247   0.996
 5052SOL    HW216056   5.469   4.243   0.843
 5053SOL     OW16057   2.111   4.541   0.156
 5053SOL    HW116058   2.193   4.508   0.203
 5053SOL    HW216059   2.121   4.523   0.058
 5054SOL     OW16060   3.792   5.569   4.487
 5054SOL    HW116061   3.705   5.520   4.489
 5054SOL    HW216062   3.781   5.658   4.531
 5055SOL     OW16063   1.566   2.023   4.278
 5055SOL    HW116064   1.483   1.979   4.313
 5055SOL    HW216065   1.591   1.981   4.191
 5056SOL     OW16066   1.915   2.724   5.489
 5056SOL    HW116067   1.861   2.644   5.514
 5056SOL    HW216068   1.957   2.709   5.399
 5057SOL     OW16069   0.701   4.600   2.831
 5057SOL    HW116070   0.744   4.680   2.789
 5057SOL    HW216071   0.756   4.519   2.812
 5058SOL     OW16072   3.259   4.108   6.657
 5058SOL    HW116073   3.353   4.119   6.689
 5058SOL    HW216074   3.197   4.104   6.735
 5059SOL     OW16075   3.143   1.448   3.580
 5059SOL    HW116076   3.182   1.496   3.501
 5059SOL    HW216077   3.049   1.481   3.595
 5060SOL     OW16078   0.409   3.423   5.829
 5060SOL    HW116079   0.386   3.461   5.740
 5060SOL    HW216080   0.351   3.465   5.899
 5061SOL     OW16081   3.740   2.829   5.749
 5061SOL    HW116082   3.826   2.874   5.771
 5061SOL    HW216083   3.729   2.827   5.649
 5062SOL     OW16084   5.487   1.283   3.270
 5062SOL    HW116085   5.396   1.324   3.285
 5062SOL    HW216086   5.476   1.189   3.237
 5063SOL     OW16087   1.210   0.941   2.587
 5063SOL    HW116088   1.205   1.035   2.553
 5063SOL    HW216089   1.135   0.925   2.652
 5064SOL     OW16090   5.113   5.866   1.160
 5064SOL    HW116091   5.049   5.820   1.222
 5064SOL    HW216092   5.192   5.898   1.212
 5065SOL     OW16093   2.369   0.627   2.325
 5065SOL    HW116094   2.304   0.555   2.350
 5065SOL    HW216095   2.456   0.610   2.371
 5066SOL     OW16096   2.529   5.032   2.078
 5066SOL    HW116097   2.508   4.962   2.009
 5066SOL    HW216098   2.468   5.020   2.156
 5067SOL     OW16099   4.929   2.954   0.484
 5067SOL    HW116100   4.948   2.869   0.533
 5067SOL    HW216101   4.991   2.961   0.405
 5068SOL     OW16102   3.043   6.477   0.812
 5068SOL    HW116103   3.117   6.483   0.745
 5068SOL    HW216104   2.984   6.557   0.804
 5069SOL     OW16105   3.523   4.867   5.415
 5069SOL    HW116106   3.611   4.873   5.368
 5069SOL    HW216107   3.531   4.805   5.494
 5070SOL     OW16108   5.934   3.587   4.128
 5070SOL    HW116109   5.932   3.685   4.106
 5070SOL    HW216110   5.905   3.534   4.049
 5071SOL     OW16111   2.788   0.829   4.197
 5071SOL    HW116112   2.874   0.779   4.187
 5071SOL    HW216113   2.756   0.821   4.292
 5072SOL     OW16114   0.596   1.546   0.357
 5072SOL    HW116115   0.668   1.482   0.384
 5072SOL    HW216116   0.511   1.497   0.340
 5073SOL     OW16117   2.435   0.951   2.569
 5073SOL    HW116118   2.409   0.935   2.665
 5073SOL    HW216119   2.456   1.048   2.557
 5074SOL     OW16120   3.490   2.333   1.641
 5074SOL    HW116121   3.435   2.249   1.646
 5074SOL    HW216122   3.561   2.330   1.711
 5075SOL     OW16123   0.880   3.424   0.311
 5075SOL    HW116124   0.960   3.483   0.310
 5075SOL    HW216125   0.847   3.413   0.405
 5076SOL     OW16126   6.071   0.194   6.250
 5076SOL    HW116127   6.002   0.247   6.300
 5076SOL    HW216128   6.037   0.176   6.157
 5077SOL     OW16129   0.722   4.361   4.002
 5077SOL    HW116130   0.710   4.312   4.088
 5077SOL    HW216131   0.770   4.447   4.020
 5078SOL     OW16132   0.376   1.715   4.582
 5078SOL    HW116133   0.318   1.727   4.501
 5078SOL    HW216134   0.462   1.672   4.555
 5079SOL     OW16135   1.211   3.176   5.365
 5079SOL    HW116136   1.185   3.156   5.271
 5079SOL    HW216137   1.309   3.193   5.370
 5080SOL     OW16138   5.700   5.981   6.748
 5080SOL    HW116139   5.685   5.917   6.823
 5080SOL    HW216140   5.798   5.985   6.726
 5081SOL     OW16141   3.188   5.319   5.634
 5081SOL    HW116142   3.248   5.243   5.607
 5081SOL    HW216143   3.242   5.388   5.682
 5082SOL     OW16144   5.142   6.201   2.360
 5082SOL    HW116145   5.084   6.247   2.428
 5082SOL    HW216146   5.159   6.263   2.283
 5083SOL     OW16147   1.591   0.181   3.209
 5083SOL    HW116148   1.547   0.255   3.260
 5083SOL    HW216149   1.641   0.220   3.132
 5084SOL     OW16150   1.928   4.961   5.337
 5084SOL    HW116151   1.991   4.898   5.383
 5084SOL    HW216152   1.845   4.972   5.392
 5085SOL     OW16153   0.416   4.468   5.999
 5085SOL    HW116154   0.412   4.568   5.994
 5085SOL    HW216155   0.435   4.431   5.908
 5086SOL     OW16156   1.829   5.342   1.978
 5086SOL    HW116157   1.826   5.250   2.018
 5086SOL    HW216158   1.744   5.390   2.001
 5087SOL     OW16159   6.427   4.900   1.976
 5087SOL    HW116160   6.492   4.829   1.951
 5087SOL    HW216161   6.337   4.879   1.937
 5088SOL     OW16162   5.201   6.343   2.088
 5088SOL    HW116163   5.243   6.434   2.090
 5088SOL    HW216164   5.264   6.278   2.047
 5089SOL     OW16165   5.862   5.540   5.564
 5089SOL    HW116166   5.874   5.630   5.607
 5089SOL    HW216167   5.840   5.472   5.634
 5090SOL     OW16168   3.308   6.804   4.969
 5090SOL    HW116169   3.211   6.827   4.965
 5090SOL    HW216170   3.349   6.816   4.878
 5091SOL     OW16171   6.159   0.134   6.763
 5091SOL    HW116172   6.081   0.131   6.700
 5091SOL    HW216173   6.173   0.229   6.793
 5092SOL     OW16174   2.939   3.575   4.194
 5092SOL    HW116175   2.912   3.490   4.149
 5092SOL    HW216176   2.951   3.559   4.292
 5093SOL     OW16177   2.426   2.269   2.999
 5093SOL    HW116178   2.464   2.213   3.073
 5093SOL    HW216179   2.491   2.341   2.975
 5094SOL     OW16180   2.439   5.371   5.537
 5094SOL    HW116181   2.500   5.292   5.545
 5094SOL    HW216182   2.371   5.354   5.465
 5095SOL     OW16183   6.747   1.602   3.416
 5095SOL    HW116184   6.815   1.671   3.392
 5095SOL    HW216185   6.770   1.516   3.370
 5096SOL     OW16186   5.724   3.312   5.296
 5096SOL    HW116187   5.655   3.285   5.362
 5096SOL    HW216188   5.750   3.407   5.311
 5097SOL     OW16189   0.953   0.294   6.369
 5097SOL    HW116190   0.952   0.195   6.352
 5097SOL    HW216191   0.960   0.311   6.467
 5098SOL     OW16192   3.461   3.042   1.543
 5098SOL    HW116193   3.475   2.947   1.516
 5098SOL    HW216194   3.501   3.058   1.633
 5099SOL     OW16195   1.192   0.229   1.728
 5099SOL    HW116196   1.256   0.305   1.724
 5099SOL    HW216197   1.193   0.179   1.641
 5100SOL     OW16198   5.734   4.635   2.831
 5100SOL    HW116199   5.641   4.668   2.843
 5100SOL    HW216200   5.734   4.553   2.774
 5101SOL     OW16201   3.943   0.197   6.533
 5101SOL    HW116202   3.991   0.282   6.556
 5101SOL    HW216203   3.950   0.181   6.435
 5102SOL     OW16204   5.019   4.248   4.525
 5102SOL    HW116205   5.064   4.173   4.476
 5102SOL    HW216206   4.925   4.222   4.547
 5103SOL     OW16207   1.028   0.926   6.557
 5103SOL    HW116208   1.105   0.896   6.499
 5103SOL    HW216209   0.951   0.865   6.544
 5104SOL     OW16210   3.466   3.571   1.422
 5104SOL    HW116211   3.381   3.574   1.369
 5104SOL    HW216212   3.539   3.530   1.368
 5105SOL     OW16213   4.336   3.704   6.304
 5105SOL    HW116214   4.379   3.692   6.215
 5105SOL    HW216215   4.277   3.625   6.324
 5106SOL     OW16216   4.550   2.581   0.712
 5106SOL    HW116217   4.475   2.590   0.779
 5106SOL    HW216218   4.570   2.484   0.699
 5107SOL     OW16219   4.609   3.398   0.271
 5107SOL    HW116220   4.582   3.432   0.180
 5107SOL    HW216221   4.527   3.370   0.321
 5108SOL     OW16222   4.122   4.713   0.105
 5108SOL    HW116223   4.174   4.629   0.090
 5108SOL    HW216224   4.031   4.691   0.140
 5109SOL     OW16225   1.155   2.737   1.404
 5109SOL    HW116226   1.232   2.682   1.435
 5109SOL    HW216227   1.174   2.772   1.312
 5110SOL     OW16228   4.881   0.537   5.854
 5110SOL    HW116229   4.829   0.621   5.836
 5110SOL    HW216230   4.922   0.505   5.768
 5111SOL     OW16231   0.925   6.561   4.910
 5111SOL    HW116232   0.864   6.637   4.890
 5111SOL    HW216233   0.918   6.536   5.007
 5112SOL     OW16234   0.187   0.236   2.953
 5112SOL    HW116235   0.284   0.221   2.933
 5112SOL    HW216236   0.176   0.260   3.049
 5113SOL     OW16237   1.909   3.873   6.870
 5113SOL    HW116238   1.994   3.925   6.856
 5113SOL    HW216239   1.923   3.805   6.942
 5114SOL     OW16240   4.757   5.506   1.220
 5114SOL    HW116241   4.679   5.444   1.231
 5114SOL    HW216242   4.723   5.598   1.199
 5115SOL     OW16243   1.859   3.505   1.185
 5115SOL    HW116244   1.954   3.529   1.166
 5115SOL    HW216245   1.846   3.498   1.284
 5116SOL     OW16246   2.198   0.020   6.694
 5116SOL    HW116247   2.150   0.049   6.611
 5116SOL    HW216248   2.133   0.018   6.771
 5117SOL     OW16249   1.357   2.325   4.029
 5117SOL    HW116250   1.305   2.404   3.998
 5117SOL    HW216251   1.304   2.241   4.014
 5118SOL     OW16252   5.076   6.169   6.108
 5118SOL    HW116253   5.011   6.224   6.057
 5118SOL    HW216254   5.106   6.219   6.190
 5119SOL     OW16255   5.290   1.213   0.216
 5119SOL    HW116256   5.341   1.278   0.160
 5119SOL    HW216257   5.208   1.258   0.252
 5120SOL     OW16258   5.432   6.867   5.590
 5120SOL    HW116259   5.467   6.915   5.510
 5120SOL    HW216260   5.506   6.854   5.657
 5121SOL     OW16261   1.526   3.903   6.476
 5121SOL    HW116262   1.598   3.871   6.414
 5121SOL    HW216263   1.559   3.896   6.571
 5122SOL     OW16264   5.261   5.336   4.307
 5122SOL    HW116265   5.316   5.312   4.388
 5122SOL    HW216266   5.252   5.256   4.248
 5123SOL     OW16267   5.146   2.996   1.802
 5123SOL    HW116268   5.160   2.970   1.706
 5123SOL    HW216269   5.051   2.978   1.827
 5124SOL     OW16270   2.343   5.904   4.404
 5124SOL    HW116271   2.412   5.939   4.467
 5124SOL    HW216272   2.373   5.816   4.367
 5125SOL     OW16273   0.332   1.588   3.671
 5125SOL    HW116274   0.242   1.582   3.626
 5125SOL    HW216275   0.336   1.671   3.726
 5126SOL     OW16276   2.438   0.107   0.406
 5126SOL    HW116277   2.340   0.093   0.391
 5126SOL    HW216278   2.478   0.151   0.326
 5127SOL     OW16279   1.672   5.302   6.799
 5127SOL    HW116280   1.715   5.241   6.865
 5127SOL    HW216281   1.629   5.247   6.727
 5128SOL     OW16282   6.266   6.812   1.967
 5128SOL    HW116283   6.235   6.818   1.872
 5128SOL    HW216284   6.276   6.905   2.004
 5129SOL     OW16285   5.621   6.801   1.196
 5129SOL    HW116286   5.685   6.741   1.245
 5129SOL    HW216287   5.666   6.840   1.116
 5130SOL     OW16288   6.774   4.899   3.453
 5130SOL    HW116289   6.836   4.820   3.443
 5130SOL    HW216290   6.810   4.960   3.523
 5131SOL     OW16291   2.634   2.496   3.141
 5131SOL    HW116292   2.599   2.549   3.064
 5131SOL    HW216293   2.700   2.429   3.109
 5132SOL     OW16294   2.828   5.651   5.009
 5132SOL    HW116295   2.763   5.648   5.084
 5132SOL    HW216296   2.872   5.741   5.006
 5133SOL     OW16297   3.716   6.545   6.194
 5133SOL    HW116298   3.815   6.534   6.179
 5133SOL    HW216299   3.696   6.638   6.224
 5134SOL     OW16300   7.018   3.543   0.504
 5134SOL    HW116301   6.919   3.546   0.488
 5134SOL    HW216302   0.014   3.489   0.586
 5135SOL     OW16303   6.447   1.874   4.698
 5135SOL    HW116304   6.511   1.811   4.653
 5135SOL    HW216305   6.498   1.949   4.740
 5136SOL     OW16306   4.100   1.534   4.085
 5136SOL    HW116307   4.087   1.626   4.049
 5136SOL    HW216308   4.178   1.491   4.040
 5137SOL     OW16309   3.169   4.668   6.116
 5137SOL    HW116310   3.138   4.574   6.106
 5137SOL    HW216311   3.173   4.712   6.026
 5138SOL     OW16312   2.615   3.786   5.844
 5138SOL    HW116313   2.706   3.828   5.833
 5138SOL    HW216314   2.545   3.858   5.843
 5139SOL     OW16315   0.972   0.397   3.491
 5139SOL    HW116316   0.958   0.479   3.546
 5139SOL    HW216317   0.932   0.318   3.538
 5140SOL     OW16318   3.281   2.809   1.252
 5140SOL    HW116319   3.338   2.803   1.334
 5140SOL    HW216320   3.242   2.901   1.246
 5141SOL     OW16321   6.657   3.192   6.881
 5141SOL    HW116322   6.703   3.251   6.947
 5141SOL    HW216323   6.630   3.245   6.801
 5142SOL     OW16324   5.401   3.315   4.154
 5142SOL    HW116325   5.458   3.280   4.228
 5142SOL    HW216326   5.400   3.249   4.079
 5143SOL     OW16327   6.741   5.554   4.362
 5143SOL    HW116328   6.695   5.472   4.328
 5143SOL    HW216329   6.793   5.596   4.288
 5144SOL     OW16330   1.275   1.171   5.435
 5144SOL    HW116331   1.185   1.188   5.474
 5144SOL    HW216332   1.323   1.258   5.420
 5145SOL     OW16333   3.161   5.627   5.876
 5145SOL    HW116334   3.099   5.548   5.876
 5145SOL    HW216335   3.231   5.613   5.806
 5146SOL     OW16336   3.029   4.927   6.943
 5146SOL    HW116337   3.112   4.882   6.911
 5146SOL    HW216338   2.977   4.863   7.000
 5147SOL     OW16339   6.064   4.774   6.869
 5147SOL    HW116340   6.044   4.859   6.820
 5147SOL    HW216341   6.053   4.789   6.968
 5148SOL     OW16342   0.484   5.990   1.558
 5148SOL    HW116343   0.425   6.059   1.516
 5148SOL    HW216344   0.554   5.961   1.493
 5149SOL     OW16345   6.917   1.450   4.952
 5149SOL    HW116346   6.996   1.512   4.955
 5149SOL    HW216347   6.860   1.472   4.873
 5150SOL     OW16348   1.812   5.136   4.390
 5150SOL    HW116349   1.748   5.213   4.387
 5150SOL    HW216350   1.775   5.065   4.450
 5151SOL     OW16351   4.399   0.895   6.701
 5151SOL    HW116352   4.422   0.950   6.781
 5151SOL    HW216353   4.452   0.926   6.622
 5152SOL     OW16354   0.534   4.955   0.238
 5152SOL    HW116355   0.455   4.989   0.289
 5152SOL    HW216356   0.615   4.960   0.297
 5153SOL     OW16357   1.664   1.992   0.811
 5153SOL    HW116358   1.680   1.932   0.733
 5153SOL    HW216359   1.744   1.991   0.871
 5154SOL     OW16360   1.961   3.059   4.759
 5154SOL    HW116361   1.930   3.138   4.705
 5154SOL    HW216362   2.022   3.002   4.705
 5155SOL     OW16363   2.956   0.614   2.429
 5155SOL    HW116364   2.965   0.554   2.350
 5155SOL    HW216365   3.026   0.686   2.424
 5156SOL     OW16366   5.884   2.760   5.132
 5156SOL    HW116367   5.786   2.769   5.119
 5156SOL    HW216368   5.905   2.668   5.166
 5157SOL     OW16369   5.562   3.307   3.428
 5157SOL    HW116370   5.650   3.268   3.456
 5157SOL    HW216371   5.574   3.360   3.343
 5158SOL     OW16372   4.364   1.663   1.485
 5158SOL    HW116373   4.378   1.598   1.559
 5158SOL    HW216374   4.451   1.706   1.461
 5159SOL     OW16375   1.500   3.199   4.092
 5159SOL    HW116376   1.505   3.270   4.162
 5159SOL    HW216377   1.577   3.136   4.103
 5160SOL     OW16378   1.708   3.044   4.166
 5160SOL    HW116379   1.648   2.982   4.216
 5160SOL    HW216380   1.792   2.995   4.141
 5161SOL     OW16381   1.710   2.992   6.238
 5161SOL    HW116382   1.706   2.905   6.189
 5161SOL    HW216383   1.654   3.060   6.191
 5162SOL     OW16384   6.774   6.299   4.278
 5162SOL    HW116385   6.779   6.398   4.290
 5162SOL    HW216386   6.829   6.272   4.198
 5163SOL     OW16387   5.580   3.769   0.749
 5163SOL    HW116388   5.587   3.690   0.809
 5163SOL    HW216389   5.493   3.765   0.700
 5164SOL     OW16390   5.780   4.537   6.256
 5164SOL    HW116391   5.851   4.508   6.320
 5164SOL    HW216392   5.776   4.473   6.179
 5165SOL     OW16393   6.495   4.107   4.382
 5165SOL    HW116394   6.472   4.010   4.367
 5165SOL    HW216395   6.507   4.152   4.294
 5166SOL     OW16396   1.409   6.565   1.759
 5166SOL    HW116397   1.328   6.516   1.728
 5166SOL    HW216398   1.475   6.572   1.684
 5167SOL     OW16399   0.697   6.650   5.774
 5167SOL    HW116400   0.690   6.587   5.697
 5167SOL    HW216401   0.656   6.738   5.749
 5168SOL     OW16402   4.211   2.178   3.010
 5168SOL    HW116403   4.146   2.188   2.935
 5168SOL    HW216404   4.303   2.169   2.973
 5169SOL     OW16405   3.640   4.262   6.068
 5169SOL    HW116406   3.545   4.234   6.068
 5169SOL    HW216407   3.683   4.237   6.155
 5170SOL     OW16408   5.480   3.860   4.666
 5170SOL    HW116409   5.540   3.825   4.595
 5170SOL    HW216410   5.498   3.957   4.681
 5171SOL     OW16411   2.579   4.793   4.648
 5171SOL    HW116412   2.561   4.758   4.556
 5171SOL    HW216413   2.642   4.870   4.643
 5172SOL     OW16414   1.444   5.279   1.503
 5172SOL    HW116415   1.544   5.280   1.502
 5172SOL    HW216416   1.410   5.311   1.415
 5173SOL     OW16417   5.563   3.639   5.943
 5173SOL    HW116418   5.622   3.559   5.954
 5173SOL    HW216419   5.468   3.611   5.945
 5174SOL     OW16420   1.007   4.698   5.995
 5174SOL    HW116421   0.951   4.719   6.075
 5174SOL    HW216422   0.988   4.604   5.965
 5175SOL     OW16423   0.447   4.849   6.513
 5175SOL    HW116424   0.483   4.916   6.448
 5175SOL    HW216425   0.420   4.766   6.465
 5176SOL     OW16426   5.428   3.500   0.691
 5176SOL    HW116427   5.400   3.587   0.649
 5176SOL    HW216428   5.356   3.432   0.676
 5177SOL     OW16429   5.518   0.146   6.479
 5177SOL    HW116430   5.459   0.067   6.463
 5177SOL    HW216431   5.612   0.122   6.456
 5178SOL     OW16432   2.452   2.380   2.180
 5178SOL    HW116433   2.363   2.345   2.152
 5178SOL    HW216434   2.441   2.473   2.215
 5179SOL     OW16435   3.289   6.080   5.911
 5179SOL    HW116436   3.270   6.076   5.813
 5179SOL    HW216437   3.266   5.992   5.953
 5180SOL     OW16438   3.061   2.149   1.300
 5180SOL    HW116439   3.079   2.092   1.220
 5180SOL    HW216440   3.118   2.231   1.296
 5181SOL     OW16441   3.682   6.191   2.286
 5181SOL    HW116442   3.769   6.144   2.274
 5181SOL    HW216443   3.687   6.251   2.365
 5182SOL     OW16444   4.979   4.631   1.815
 5182SOL    HW116445   4.986   4.695   1.892
 5182SOL    HW216446   5.070   4.597   1.792
 5183SOL     OW16447   4.393   0.385   2.293
 5183SOL    HW116448   4.375   0.309   2.231
 5183SOL    HW216449   4.413   0.350   2.384
 5184SOL     OW16450   1.002   1.204   2.920
 5184SOL    HW116451   0.914   1.213   2.875
 5184SOL    HW216452   1.073   1.190   2.851
 5185SOL     OW16453   3.769   0.617   2.394
 5185SOL    HW116454   3.827   0.697   2.414
 5185SOL    HW216455   3.683   0.648   2.353
 5186SOL     OW16456   6.270   4.657   0.750
 5186SOL    HW116457   6.329   4.724   0.796
 5186SOL    HW216458   6.327   4.597   0.693
 5187SOL     OW16459   5.213   1.814   3.864
 5187SOL    HW116460   5.187   1.892   3.922
 5187SOL    HW216461   5.306   1.827   3.830
 5188SOL     OW16462   1.183   3.932   5.630
 5188SOL    HW116463   1.223   4.022   5.612
 5188SOL    HW216464   1.242   3.882   5.692
 5189SOL     OW16465   4.607   5.415   6.412
 5189SOL    HW116466   4.534   5.461   6.362
 5189SOL    HW216467   4.655   5.482   6.469
 5190SOL     OW16468   1.370   2.351   3.705
 5190SOL    HW116469   1.441   2.421   3.713
 5190SOL    HW216470   1.339   2.346   3.610
 5191SOL     OW16471   3.705   0.453   1.787
 5191SOL    HW116472   3.798   0.417   1.776
 5191SOL    HW216473   3.679   0.449   1.884
 5192SOL     OW16474   6.356   5.068   2.746
 5192SOL    HW116475   6.292   4.992   2.741
 5192SOL    HW216476   6.321   5.138   2.807
 5193SOL     OW16477   4.839   3.876   2.603
 5193SOL    HW116478   4.859   3.796   2.548
 5193SOL    HW216479   4.921   3.904   2.653
 5194SOL     OW16480   6.105   0.811   5.525
 5194SOL    HW116481   6.060   0.885   5.576
 5194SOL    HW216482   6.204   0.827   5.525
 5195SOL     OW16483   6.312   6.046   6.143
 5195SOL    HW116484   6.388   5.981   6.145
 5195SOL    HW216485   6.314   6.097   6.057
 5196SOL     OW16486   0.339   3.657   1.978
 5196SOL    HW116487   0.414   3.647   1.913
 5196SOL    HW216488   0.279   3.578   1.972
 5197SOL     OW16489   3.361   6.114   4.531
 5197SOL    HW116490   3.276   6.140   4.486
 5197SOL    HW216491   3.418   6.061   4.468
 5198SOL     OW16492   4.421   6.629   5.085
 5198SOL    HW116493   4.407   6.564   5.160
 5198SOL    HW216494   4.364   6.710   5.099
 5199SOL     OW16495   1.110   4.896   1.961
 5199SOL    HW116496   1.011   4.888   1.969
 5199SOL    HW216497   1.137   4.992   1.967
 5200SOL     OW16498   6.850   0.508   5.098
 5200SOL    HW116499   6.785   0.558   5.040
 5200SOL    HW216500   6.930   0.482   5.044
 5201SOL     OW16501   6.622   5.319   4.224
 5201SOL    HW116502   6.616   5.258   4.302
 5201SOL    HW216503   6.683   5.280   4.155
 5202SOL     OW16504   3.662   3.140   6.277
 5202SOL    HW116505   3.696   3.219   6.226
 5202SOL    HW216506   3.707   3.136   6.366
 5203SOL     OW16507   2.086   0.103   0.108
 5203SOL    HW116508   2.130   0.176   0.160
 5203SOL    HW216509   2.151   0.028   0.096
 5204SOL     OW16510   2.884   0.521   0.533
 5204SOL    HW116511   2.957   0.479   0.478
 5204SOL    HW216512   2.847   0.599   0.484
 5205SOL     OW16513   0.492   5.747   0.856
 5205SOL    HW116514   0.590   5.729   0.846
 5205SOL    HW216515   0.475   5.845   0.846
 5206SOL     OW16516   1.058   4.690   4.145
 5206SOL    HW116517   1.085   4.781   4.177
 5206SOL    HW216518   1.056   4.627   4.223
 5207SOL     OW16519   6.845   0.197   3.940
 5207SOL    HW116520   6.824   0.122   3.877
 5207SOL    HW216521   6.933   0.237   3.916
 5208SOL     OW16522   5.044   1.990   0.363
 5208SOL    HW116523   5.091   2.077   0.383
 5208SOL    HW216524   4.945   2.003   0.369
 5209SOL     OW16525   5.842   6.237   2.752
 5209SOL    HW116526   5.939   6.236   2.775
 5209SOL    HW216527   5.826   6.303   2.679
 5210SOL     OW16528   5.307   4.079   6.784
 5210SOL    HW116529   5.253   4.070   6.868
 5210SOL    HW216530   5.285   4.166   6.739
 5211SOL     OW16531   5.112   2.767   4.573
 5211SOL    HW116532   5.211   2.767   4.588
 5211SOL    HW216533   5.066   2.803   4.654
 5212SOL     OW16534   1.020   3.658   0.661
 5212SOL    HW116535   1.068   3.595   0.600
 5212SOL    HW216536   1.066   3.746   0.661
 5213SOL     OW16537   4.106   3.727   3.139
 5213SOL    HW116538   4.153   3.733   3.051
 5213SOL    HW216539   4.065   3.636   3.149
 5214SOL     OW16540   5.402   3.608   5.396
 5214SOL    HW116541   5.500   3.592   5.411
 5214SOL    HW216542   5.354   3.605   5.484
 5215SOL     OW16543   0.303   3.636   4.902
 5215SOL    HW116544   0.242   3.577   4.849
 5215SOL    HW216545   0.380   3.581   4.935
 5216SOL     OW16546   5.271   4.998   1.381
 5216SOL    HW116547   5.320   5.016   1.296
 5216SOL    HW216548   5.191   5.057   1.387
 5217SOL     OW16549   4.458   6.193   3.126
 5217SOL    HW116550   4.364   6.225   3.110
 5217SOL    HW216551   4.458   6.128   3.202
 5218SOL     OW16552   0.726   6.655   0.982
 5218SOL    HW116553   0.675   6.641   1.066
 5218SOL    HW216554   0.733   6.568   0.932
 5219SOL     OW16555   3.335   1.253   4.847
 5219SOL    HW116556   3.406   1.228   4.914
 5219SOL    HW216557   3.249   1.268   4.894
 5220SOL     OW16558   2.291   4.603   4.016
 5220SOL    HW116559   2.378   4.593   4.064
 5220SOL    HW216560   2.286   4.536   3.942
 5221SOL     OW16561   6.292   5.795   1.145
 5221SOL    HW116562   6.361   5.819   1.214
 5221SOL    HW216563   6.338   5.772   1.059
 5222SOL     OW16564   5.911   3.943   1.138
 5222SOL    HW116565   5.975   3.917   1.211
 5222SOL    HW216566   5.866   4.028   1.162
 5223SOL     OW16567   6.893   3.090   0.830
 5223SOL    HW116568   6.833   3.133   0.762
 5223SOL    HW216569   6.840   3.024   0.884
 5224SOL     OW16570   0.300   2.234   4.978
 5224SOL    HW116571   0.290   2.306   5.047
 5224SOL    HW216572   0.388   2.188   4.990
 5225SOL     OW16573   6.906   1.787   4.774
 5225SOL    HW116574   6.834   1.718   4.779
 5225SOL    HW216575   6.918   1.829   4.865
 5226SOL     OW16576   0.796   6.685   3.606
 5226SOL    HW116577   0.744   6.716   3.526
 5226SOL    HW216578   0.740   6.623   3.660
 5227SOL     OW16579   6.853   2.722   5.280
 5227SOL    HW116580   6.854   2.711   5.380
 5227SOL    HW216581   6.758   2.716   5.247
 5228SOL     OW16582   0.971   1.295   5.855
 5228SOL    HW116583   0.945   1.296   5.951
 5228SOL    HW216584   1.070   1.303   5.846
 5229SOL     OW16585   3.237   1.711   5.896
 5229SOL    HW116586   3.200   1.703   5.803
 5229SOL    HW216587   3.315   1.775   5.895
 5230SOL     OW16588   6.932   6.804   2.292
 5230SOL    HW116589   6.960   6.845   2.379
 5230SOL    HW216590   6.988   6.840   2.218
 5231SOL     OW16591   6.928   2.063   1.180
 5231SOL    HW116592   7.002   2.078   1.246
 5231SOL    HW216593   6.956   2.098   1.091
 5232SOL     OW16594   1.711   3.089   5.923
 5232SOL    HW116595   1.687   2.993   5.912
 5232SOL    HW216596   1.627   3.142   5.939
 5233SOL     OW16597   3.040   0.114   2.928
 5233SOL    HW116598   2.999   0.189   2.878
 5233SOL    HW216599   3.039   0.135   3.026
 5234SOL     OW16600   2.013   1.926   0.052
 5234SOL    HW116601   2.072   1.897   6.999
 5234SOL    HW216602   2.066   1.926   0.137
 5235SOL     OW16603   2.253   2.793   1.463
 5235SOL    HW116604   2.183   2.722   1.469
 5235SOL    HW216605   2.246   2.838   1.374
 5236SOL     OW16606   3.356   5.332   1.881
 5236SOL    HW116607   3.433   5.310   1.820
 5236SOL    HW216608   3.279   5.366   1.827
 5237SOL     OW16609   1.919   2.047   2.428
 5237SOL    HW116610   2.015   2.072   2.430
 5237SOL    HW216611   1.899   1.995   2.345
 5238SOL     OW16612   0.783   6.273   2.968
 5238SOL    HW116613   0.764   6.370   2.976
 5238SOL    HW216614   0.801   6.250   2.872
 5239SOL     OW16615   2.163   3.713   0.924
 5239SOL    HW116616   2.200   3.790   0.871
 5239SOL    HW216617   2.071   3.692   0.891
 5240SOL     OW16618   1.936   3.709   5.799
 5240SOL    HW116619   1.966   3.623   5.841
 5240SOL    HW216620   1.929   3.698   5.700
 5241SOL     OW16621   0.124   5.494   2.064
 5241SOL    HW116622   0.209   5.518   2.112
 5241SOL    HW216623   0.136   5.406   2.017
 5242SOL     OW16624   4.663   0.500   0.075
 5242SOL    HW116625   4.686   0.516   7.002
 5242SOL    HW216626   4.575   0.453   0.082
 5243SOL     OW16627   2.356   6.912   1.991
 5243SOL    HW116628   2.380   6.920   1.894
 5243SOL    HW216629   2.425   6.959   2.047
 5244SOL     OW16630   4.537   2.056   0.123
 5244SOL    HW116631   4.502   2.132   0.177
 5244SOL    HW216632   4.461   2.009   0.079
 5245SOL     OW16633   3.671   3.636   1.603
 5245SOL    HW116634   3.635   3.687   1.681
 5245SOL    HW216635   3.601   3.627   1.532
 5246SOL     OW16636   6.461   3.701   0.100
 5246SOL    HW116637   6.466   3.751   0.014
 5246SOL    HW216638   6.434   3.764   0.173
 5247SOL     OW16639   4.458   1.967   6.217
 5247SOL    HW116640   4.370   1.950   6.261
 5247SOL    HW216641   4.471   2.066   6.204
 5248SOL     OW16642   6.252   1.223   3.481
 5248SOL    HW116643   6.230   1.133   3.518
 5248SOL    HW216644   6.309   1.212   3.399
 5249SOL     OW16645   0.276   4.813   6.986
 5249SOL    HW116646   0.262   4.829   6.888
 5249SOL    HW216647   0.225   4.881   0.015
 5250SOL     OW16648   1.813   5.687   1.138
 5250SOL    HW116649   1.829   5.599   1.094
 5250SOL    HW216650   1.715   5.708   1.138
 5251SOL     OW16651   0.879   4.757   0.292
 5251SOL    HW116652   0.919   4.679   0.243
 5251SOL    HW216653   0.873   4.736   0.389
 5252SOL     OW16654   3.824   6.510   2.574
 5252SOL    HW116655   3.756   6.443   2.605
 5252SOL    HW216656   3.896   6.463   2.524
 5253SOL     OW16657   0.126   5.796   4.867
 5253SOL    HW116658   0.135   5.743   4.951
 5253SOL    HW216659   0.174   5.883   4.876
 5254SOL     OW16660   5.705   6.817   3.854
 5254SOL    HW116661   5.712   6.794   3.757
 5254SOL    HW216662   5.623   6.871   3.870
 5255SOL     OW16663   6.086   1.781   5.555
 5255SOL    HW116664   5.996   1.817   5.577
 5255SOL    HW216665   6.077   1.701   5.495
 5256SOL     OW16666   0.189   1.707   2.374
 5256SOL    HW116667   0.273   1.660   2.348
 5256SOL    HW216668   0.139   1.735   2.292
 5257SOL     OW16669   4.066   0.972   6.237
 5257SOL    HW116670   4.115   1.049   6.196
 5257SOL    HW216671   4.024   1.000   6.323
 5258SOL     OW16672   4.017   1.387   2.894
 5258SOL    HW116673   3.983   1.441   2.971
 5258SOL    HW216674   4.090   1.437   2.848
 5259SOL     OW16675   6.313   5.033   3.659
 5259SOL    HW116676   6.408   5.062   3.651
 5259SOL    HW216677   6.262   5.063   3.578
 5260SOL     OW16678   2.780   0.932   0.835
 5260SOL    HW116679   2.759   1.027   0.811
 5260SOL    HW216680   2.739   0.911   0.924
 5261SOL     OW16681   5.508   3.991   6.954
 5261SOL    HW116682   5.436   4.029   6.896
 5261SOL    HW216683   5.496   3.892   6.962
 5262SOL     OW16684   2.136   0.964   2.555
 5262SOL    HW116685   2.165   0.896   2.488
 5262SOL    HW216686   2.214   0.993   2.609
 5263SOL     OW16687   1.002   6.376   2.194
 5263SOL    HW116688   0.955   6.438   2.257
 5263SOL    HW216689   1.084   6.340   2.238
 5264SOL     OW16690   6.087   1.353   1.814
 5264SOL    HW116691   6.054   1.346   1.908
 5264SOL    HW216692   6.013   1.387   1.755
 5265SOL     OW16693   6.485   5.103   4.664
 5265SOL    HW116694   6.413   5.164   4.696
 5265SOL    HW216695   6.498   5.116   4.565
 5266SOL     OW16696   2.052   0.320   6.923
 5266SOL    HW116697   2.030   0.285   6.831
 5266SOL    HW216698   1.971   0.314   6.981
 5267SOL     OW16699   5.401   2.844   4.558
 5267SOL    HW116700   5.371   2.903   4.483
 5267SOL    HW216701   5.394   2.894   4.645
 5268SOL     OW16702   5.509   0.353   6.194
 5268SOL    HW116703   5.451   0.419   6.241
 5268SOL    HW216704   5.453   0.297   6.132
 5269SOL     OW16705   0.357   6.878   4.223
 5269SOL    HW116706   0.303   6.890   4.306
 5269SOL    HW216707   0.437   6.937   4.225
 5270SOL     OW16708   0.176   1.985   6.431
 5270SOL    HW116709   0.236   1.905   6.429
 5270SOL    HW216710   0.229   2.067   6.406
 5271SOL     OW16711   0.416   4.830   3.061
 5271SOL    HW116712   0.318   4.832   3.083
 5271SOL    HW216713   0.467   4.791   3.137
 5272SOL     OW16714   4.702   0.275   0.319
 5272SOL    HW116715   4.777   0.330   0.282
 5272SOL    HW216716   4.615   0.321   0.302
 5273SOL     OW16717   1.796   2.122   2.633
 5273SOL    HW116718   1.845   2.063   2.570
 5273SOL    HW216719   1.861   2.168   2.694
 5274SOL     OW16720   4.730   5.232   1.491
 5274SOL    HW116721   4.694   5.258   1.401
 5274SOL    HW216722   4.799   5.160   1.480
 5275SOL     OW16723   4.509   2.132   6.488
 5275SOL    HW116724   4.575   2.201   6.459
 5275SOL    HW216725   4.542   2.041   6.460
 5276SOL     OW16726   4.594   6.087   2.004
 5276SOL    HW116727   4.608   6.124   1.912
 5276SOL    HW216728   4.683   6.062   2.044
 5277SOL     OW16729   2.324   2.870   1.786
 5277SOL    HW116730   2.359   2.938   1.722
 5277SOL    HW216731   2.396   2.846   1.852
 5278SOL     OW16732   4.377   3.753   1.736
 5278SOL    HW116733   4.476   3.756   1.746
 5278SOL    HW216734   4.345   3.660   1.756
 5279SOL     OW16735   2.096   5.558   2.769
 5279SOL    HW116736   2.144   5.642   2.744
 5279SOL    HW216737   2.156   5.500   2.824
 5280SOL     OW16738   4.944   6.225   4.888
 5280SOL    HW116739   4.930   6.221   4.789
 5280SOL    HW216740   5.027   6.277   4.908
 5281SOL     OW16741   0.031   2.236   1.714
 5281SOL    HW116742   0.012   2.334   1.716
 5281SOL    HW216743   6.985   2.190   1.659
 5282SOL     OW16744   5.220   1.994   2.188
 5282SOL    HW116745   5.146   1.945   2.233
 5282SOL    HW216746   5.184   2.047   2.111
 5283SOL     OW16747   5.218   5.220   6.701
 5283SOL    HW116748   5.208   5.216   6.601
 5283SOL    HW216749   5.311   5.191   6.726
 5284SOL     OW16750   5.629   3.015   3.654
 5284SOL    HW116751   5.677   3.009   3.742
 5284SOL    HW216752   5.690   2.984   3.581
 5285SOL     OW16753   3.056   5.589   2.649
 5285SOL    HW116754   3.141   5.547   2.621
 5285SOL    HW216755   3.049   5.588   2.749
 5286SOL     OW16756   2.020   4.806   1.901
 5286SOL    HW116757   1.994   4.803   1.804
 5286SOL    HW216758   2.070   4.890   1.919
 5287SOL     OW16759   0.726   1.395   1.409
 5287SOL    HW116760   0.674   1.479   1.419
 5287SOL    HW216761   0.703   1.351   1.322
 5288SOL     OW16762   4.377   1.126   0.674
 5288SOL    HW116763   4.397   1.216   0.712
 5288SOL    HW216764   4.306   1.134   0.604
 5289SOL     OW16765   2.252   5.506   1.248
 5289SOL    HW116766   2.208   5.584   1.203
 5289SOL    HW216767   2.222   5.500   1.343
 5290SOL     OW16768   5.141   5.658   0.742
 5290SOL    HW116769   5.152   5.654   0.643
 5290SOL    HW216770   5.111   5.750   0.768
 5291SOL     OW16771   2.007   5.231   5.912
 5291SOL    HW116772   1.967   5.140   5.923
 5291SOL    HW216773   2.106   5.222   5.897
 5292SOL     OW16774   4.899   2.934   6.284
 5292SOL    HW116775   4.849   3.020   6.273
 5292SOL    HW216776   4.951   2.916   6.201
 5293SOL     OW16777   0.864   0.965   4.741
 5293SOL    HW116778   0.772   0.980   4.705
 5293SOL    HW216779   0.885   1.035   4.809
 5294SOL     OW16780   5.045   2.356   5.291
 5294SOL    HW116781   4.971   2.340   5.227
 5294SOL    HW216782   5.010   2.403   5.372
 5295SOL     OW16783   5.630   0.767   2.443
 5295SOL    HW116784   5.603   0.845   2.386
 5295SOL    HW216785   5.666   0.695   2.384
 5296SOL     OW16786   0.932   3.880   0.446
 5296SOL    HW116787   1.002   3.821   0.405
 5296SOL    HW216788   0.843   3.861   0.403
 5297SOL     OW16789   1.743   2.920   1.384
 5297SOL    HW116790   1.825   2.964   1.346
 5297SOL    HW216791   1.750   2.919   1.484
 5298SOL     OW16792   1.126   5.058   1.493
 5298SOL    HW116793   1.162   5.113   1.418
 5298SOL    HW216794   1.197   4.994   1.524
 5299SOL     OW16795   3.170   0.436   1.629
 5299SOL    HW116796   3.195   0.527   1.596
 5299SOL    HW216797   3.228   0.368   1.585
 5300SOL     OW16798   6.697   5.320   3.142
 5300SOL    HW116799   6.786   5.275   3.145
 5300SOL    HW216800   6.640   5.287   3.218
 5301SOL     OW16801   4.864   0.512   0.440
 5301SOL    HW116802   4.887   0.498   0.536
 5301SOL    HW216803   4.792   0.582   0.433
 5302SOL     OW16804   6.616   4.433   3.395
 5302SOL    HW116805   6.594   4.432   3.298
 5302SOL    HW216806   6.645   4.525   3.422
 5303SOL     OW16807   0.453   4.910   3.391
 5303SOL    HW116808   0.511   4.853   3.331
 5303SOL    HW216809   0.368   4.931   3.343
 5304SOL     OW16810   5.190   2.119   5.424
 5304SOL    HW116811   5.170   2.185   5.352
 5304SOL    HW216812   5.105   2.092   5.469
 5305SOL     OW16813   2.783   0.912   2.659
 5305SOL    HW116814   2.731   0.910   2.745
 5305SOL    HW216815   2.731   0.864   2.588
 5306SOL     OW16816   2.508   0.358   4.716
 5306SOL    HW116817   2.434   0.388   4.777
 5306SOL    HW216818   2.472   0.292   4.650
 5307SOL     OW16819   4.524   6.991   6.649
 5307SOL    HW116820   4.527   6.954   6.743
 5307SOL    HW216821   4.433   0.004   6.631
 5308SOL     OW16822   6.917   1.086   2.881
 5308SOL    HW116823   6.982   1.162   2.884
 5308SOL    HW216824   6.924   1.040   2.793
 5309SOL     OW16825   3.679   3.387   4.357
 5309SOL    HW116826   3.774   3.380   4.386
 5309SOL    HW216827   3.673   3.453   4.282
 5310SOL     OW16828   5.738   1.936   0.590
 5310SOL    HW116829   5.661   1.905   0.646
 5310SOL    HW216830   5.815   1.875   0.602
 5311SOL     OW16831   1.903   5.689   6.705
 5311SOL    HW116832   1.934   5.761   6.644
 5311SOL    HW216833   1.916   5.718   6.800
 5312SOL     OW16834   0.685   2.526   1.911
 5312SOL    HW116835   0.636   2.537   1.998
 5312SOL    HW216836   0.710   2.615   1.874
 5313SOL     OW16837   1.610   5.911   6.709
 5313SOL    HW116838   1.614   5.981   6.781
 5313SOL    HW216839   1.646   5.948   6.624
 5314SOL     OW16840   3.534   4.980   0.853
 5314SOL    HW116841   3.451   4.949   0.899
 5314SOL    HW216842   3.612   4.926   0.886
 5315SOL     OW16843   5.164   3.183   2.435
 5315SOL    HW116844   5.251   3.212   2.475
 5315SOL    HW216845   5.114   3.129   2.503
 5316SOL     OW16846   6.529   5.381   5.255
 5316SOL    HW116847   6.439   5.338   5.266
 5316SOL    HW216848   6.527   5.442   5.177
 5317SOL     OW16849   5.209   5.780   2.792
 5317SOL    HW116850   5.131   5.781   2.728
 5317SOL    HW216851   5.239   5.685   2.805
 5318SOL     OW16852   0.295   2.423   5.189
 5318SOL    HW116853   0.212   2.477   5.204
 5318SOL    HW216854   0.356   2.433   5.267
 5319SOL     OW16855   3.906   6.966   1.475
 5319SOL    HW116856   3.902   0.010   1.549
 5319SOL    HW216857   3.999   6.961   1.439
 5320SOL     OW16858   5.797   3.759   5.940
 5320SOL    HW116859   5.707   3.717   5.950
 5320SOL    HW216860   5.857   3.730   6.014
 5321SOL     OW16861   1.712   5.445   6.331
 5321SOL    HW116862   1.719   5.474   6.426
 5321SOL    HW216863   1.802   5.416   6.298
 5322SOL     OW16864   3.515   6.142   0.437
 5322SOL    HW116865   3.556   6.102   0.355
 5322SOL    HW216866   3.492   6.238   0.420
 5323SOL     OW16867   6.096   3.427   0.128
 5323SOL    HW116868   6.178   3.484   0.127
 5323SOL    HW216869   6.029   3.465   0.191
 5324SOL     OW16870   3.995   2.952   1.835
 5324SOL    HW116871   4.032   3.020   1.772
 5324SOL    HW216872   3.968   2.871   1.784
 5325SOL     OW16873   4.816   5.758   4.318
 5325SOL    HW116874   4.780   5.669   4.292
 5325SOL    HW216875   4.825   5.763   4.417
 5326SOL     OW16876   0.301   0.408   2.197
 5326SOL    HW116877   0.376   0.350   2.163
 5326SOL    HW216878   0.234   0.351   2.245
 5327SOL     OW16879   7.003   0.729   4.632
 5327SOL    HW116880   6.982   0.753   4.537
 5327SOL    HW216881   0.067   0.772   4.658
 5328SOL     OW16882   3.658   4.685   0.900
 5328SOL    HW116883   3.697   4.607   0.948
 5328SOL    HW216884   3.728   4.728   0.843
 5329SOL     OW16885   6.460   5.346   0.225
 5329SOL    HW116886   6.394   5.276   0.253
 5329SOL    HW216887   6.506   5.383   0.306
 5330SOL     OW16888   3.634   4.862   0.275
 5330SOL    HW116889   3.535   4.872   0.263
 5330SOL    HW216890   3.681   4.890   0.191
 5331SOL     OW16891   4.161   2.603   6.416
 5331SOL    HW116892   4.233   2.578   6.480
 5331SOL    HW216893   4.168   2.546   6.334
 5332SOL     OW16894   6.023   3.111   0.214
 5332SOL    HW116895   5.980   3.025   0.187
 5332SOL    HW216896   6.006   3.181   0.144
 5333SOL     OW16897   1.228   1.943   4.119
 5333SOL    HW116898   1.327   1.932   4.114
 5333SOL    HW216899   1.203   1.975   4.211
 5334SOL     OW16900   3.357   5.896   1.610
 5334SOL    HW116901   3.334   5.987   1.645
 5334SOL    HW216902   3.379   5.835   1.686
 5335SOL     OW16903   0.461   4.168   1.469
 5335SOL    HW116904   0.489   4.263   1.457
 5335SOL    HW216905   0.362   4.161   1.456
 5336SOL     OW16906   1.590   3.035   4.887
 5336SOL    HW116907   1.624   3.127   4.906
 5336SOL    HW216908   1.642   2.968   4.941
 5337SOL     OW16909   6.294   5.134   0.590
 5337SOL    HW116910   6.238   5.114   0.670
 5337SOL    HW216911   6.366   5.065   0.581
 5338SOL     OW16912   6.173   3.505   1.019
 5338SOL    HW116913   6.208   3.533   1.109
 5338SOL    HW216914   6.131   3.584   0.973
 5339SOL     OW16915   5.249   3.533   2.725
 5339SOL    HW116916   5.243   3.601   2.797
 5339SOL    HW216917   5.218   3.573   2.638
 5340SOL     OW16918   4.896   3.920   2.244
 5340SOL    HW116919   4.909   3.880   2.154
 5340SOL    HW216920   4.881   3.847   2.311
 5341SOL     OW16921   4.369   4.591   3.854
 5341SOL    HW116922   4.377   4.525   3.779
 5341SOL    HW216923   4.459   4.606   3.896
 5342SOL     OW16924   6.858   5.814   4.957
 5342SOL    HW116925   6.946   5.791   4.997
 5342SOL    HW216926   6.804   5.731   4.943
 5343SOL     OW16927   3.135   2.804   6.223
 5343SOL    HW116928   3.106   2.900   6.217
 5343SOL    HW216929   3.223   2.799   6.271
 5344SOL     OW16930   0.500   1.232   6.292
 5344SOL    HW116931   0.565   1.188   6.354
 5344SOL    HW216932   0.410   1.188   6.303
 5345SOL     OW16933   4.740   1.500   6.849
 5345SOL    HW116934   4.708   1.501   6.943
 5345SOL    HW216935   4.663   1.519   6.787
 5346SOL     OW16936   2.789   6.109   3.271
 5346SOL    HW116937   2.878   6.140   3.305
 5346SOL    HW216938   2.717   6.166   3.309
 5347SOL     OW16939   5.734   1.817   4.005
 5347SOL    HW116940   5.769   1.878   4.076
 5347SOL    HW216941   5.810   1.766   3.964
 5348SOL     OW16942   4.978   2.451   4.567
 5348SOL    HW116943   5.047   2.428   4.498
 5348SOL    HW216944   4.938   2.540   4.546
 5349SOL     OW16945   0.813   3.655   1.431
 5349SOL    HW116946   0.766   3.657   1.519
 5349SOL    HW216947   0.839   3.748   1.405
 5350SOL     OW16948   0.869   5.904   6.880
 5350SOL    HW116949   0.825   5.970   6.940
 5350SOL    HW216950   0.881   5.818   6.928
 5351SOL     OW16951   6.482   6.058   3.260
 5351SOL    HW116952   6.525   6.115   3.190
 5351SOL    HW216953   6.457   6.114   3.339
 5352SOL     OW16954   1.316   3.140   5.992
 5352SOL    HW116955   1.351   3.089   6.069
 5352SOL    HW216956   1.245   3.087   5.945
 5353SOL     OW16957   4.006   4.871   3.514
 5353SOL    HW116958   4.091   4.820   3.528
 5353SOL    HW216959   3.948   4.862   3.595
 5354SOL     OW16960   3.749   5.739   1.336
 5354SOL    HW116961   3.772   5.776   1.426
 5354SOL    HW216962   3.762   5.810   1.267
 5355SOL     OW16963   5.392   4.474   5.316
 5355SOL    HW116964   5.356   4.392   5.273
 5355SOL    HW216965   5.492   4.474   5.312
 5356SOL     OW16966   0.260   5.599   0.844
 5356SOL    HW116967   0.196   5.674   0.829
 5356SOL    HW216968   0.353   5.635   0.851
 5357SOL     OW16969   6.213   3.600   2.839
 5357SOL    HW116970   6.136   3.663   2.830
 5357SOL    HW216971   6.182   3.515   2.881
 5358SOL     OW16972   4.324   1.316   6.778
 5358SOL    HW116973   4.397   1.377   6.809
 5358SOL    HW216974   4.285   1.351   6.693
 5359SOL     OW16975   3.179   2.399   6.632
 5359SOL    HW116976   3.142   2.459   6.560
 5359SOL    HW216977   3.107   2.336   6.663
 5360SOL     OW16978   5.588   4.734   4.167
 5360SOL    HW116979   5.599   4.832   4.151
 5360SOL    HW216980   5.654   4.684   4.112
 5361SOL     OW16981   1.106   5.352   2.210
 5361SOL    HW116982   1.185   5.318   2.261
 5361SOL    HW216983   1.098   5.451   2.222
 5362SOL     OW16984   5.662   1.572   2.281
 5362SOL    HW116985   5.755   1.607   2.276
 5362SOL    HW216986   5.645   1.537   2.373
 5363SOL     OW16987   5.894   4.818   3.844
 5363SOL    HW116988   5.944   4.888   3.793
 5363SOL    HW216989   5.799   4.847   3.856
 5364SOL     OW16990   4.846   1.878   2.865
 5364SOL    HW116991   4.752   1.882   2.901
 5364SOL    HW216992   4.903   1.944   2.915
 5365SOL     OW16993   2.969   3.295   4.226
 5365SOL    HW116994   3.063   3.326   4.241
 5365SOL    HW216995   2.928   3.272   4.314
 5366SOL     OW16996   6.198   6.438   3.255
 5366SOL    HW116997   6.211   6.407   3.161
 5366SOL    HW216998   6.125   6.385   3.298
 5367SOL     OW16999   6.082   5.664   1.248
 5367SOL    HW117000   6.155   5.707   1.194
 5367SOL    HW217001   6.021   5.614   1.187
 5368SOL     OW17002   6.938   5.923   4.027
 5368SOL    HW117003   6.865   5.922   3.958
 5368SOL    HW217004   7.012   5.864   3.997
 5369SOL     OW17005   3.539   5.660   2.503
 5369SOL    HW117006   3.583   5.626   2.585
 5369SOL    HW217007   3.499   5.750   2.521
 5370SOL     OW17008   1.480   3.073   0.408
 5370SOL    HW117009   1.538   3.145   0.447
 5370SOL    HW217010   1.433   3.108   0.327
 5371SOL     OW17011   6.010   5.414   4.827
 5371SOL    HW117012   5.913   5.436   4.814
 5371SOL    HW217013   6.019   5.352   4.905
 5372SOL     OW17014   1.712   6.932   2.881
 5372SOL    HW117015   1.692   7.016   2.830
 5372SOL    HW217016   1.810   6.929   2.904
 5373SOL     OW17017   2.988   1.173   6.536
 5373SOL    HW117018   3.041   1.168   6.621
 5373SOL    HW217019   2.948   1.265   6.527
 5374SOL     OW17020   1.984   4.371   1.880
 5374SOL    HW117021   1.913   4.327   1.935
 5374SOL    HW217022   1.945   4.396   1.791
 5375SOL     OW17023   2.349   4.851   4.773
 5375SOL    HW117024   2.437   4.809   4.750
 5375SOL    HW217025   2.332   4.841   4.871
 5376SOL     OW17026   0.652   0.226   5.918
 5376SOL    HW117027   0.554   0.247   5.907
 5376SOL    HW217028   0.704   0.312   5.918
 5377SOL     OW17029   1.638   1.281   2.699
 5377SOL    HW117030   1.597   1.270   2.609
 5377SOL    HW217031   1.687   1.198   2.724
 5378SOL     OW17032   4.664   0.425   2.642
 5378SOL    HW117033   4.640   0.461   2.552
 5378SOL    HW217034   4.673   0.500   2.708
 5379SOL     OW17035   1.840   2.176   4.911
 5379SOL    HW117036   1.898   2.161   4.830
 5379SOL    HW217037   1.879   2.250   4.967
 5380SOL     OW17038   4.072   6.410   1.926
 5380SOL    HW117039   4.006   6.485   1.934
 5380SOL    HW217040   4.061   6.367   1.836
 5381SOL     OW17041   2.836   0.072   3.789
 5381SOL    HW117042   2.752   0.066   3.843
 5381SOL    HW217043   2.872   7.003   3.774
 5382SOL     OW17044   4.688   0.760   2.385
 5382SOL    HW117045   4.614   0.822   2.360
 5382SOL    HW217046   4.738   0.732   2.303
 5383SOL     OW17047   2.246   2.916   4.351
 5383SOL    HW117048   2.158   2.954   4.322
 5383SOL    HW217049   2.292   2.981   4.411
 5384SOL     OW17050   5.856   5.596   5.277
 5384SOL    HW117051   5.870   5.596   5.376
 5384SOL    HW217052   5.789   5.525   5.254
 5385SOL     OW17053   3.781   3.391   6.177
 5385SOL    HW117054   3.771   3.418   6.272
 5385SOL    HW217055   3.711   3.435   6.122
 5386SOL     OW17056   5.139   4.477   4.387
 5386SOL    HW117057   5.047   4.466   4.351
 5386SOL    HW217058   5.164   4.397   4.441
 5387SOL     OW17059   1.032   1.638   4.168
 5387SOL    HW117060   1.002   1.562   4.111
 5387SOL    HW217061   1.032   1.722   4.113
 5388SOL     OW17062   0.356   6.737   3.082
 5388SOL    HW117063   0.336   6.644   3.049
 5388SOL    HW217064   0.299   6.803   3.034
 5389SOL     OW17065   4.913   1.465   3.579
 5389SOL    HW117066   4.923   1.553   3.627
 5389SOL    HW217067   4.818   1.434   3.586
 5390SOL     OW17068   0.030   3.531   3.427
 5390SOL    HW117069   6.954   3.524   3.437
 5390SOL    HW217070   0.051   3.580   3.342
 5391SOL     OW17071   3.027   2.660   0.446
 5391SOL    HW117072   3.125   2.649   0.465
 5391SOL    HW217073   2.996   2.587   0.386
 5392SOL     OW17074   6.125   0.962   3.746
 5392SOL    HW117075   6.045   1.022   3.738
 5392SOL    HW217076   6.208   1.017   3.746
 5393SOL     OW17077   4.312   2.363   4.500
 5393SOL    HW117078   4.397   2.335   4.456
 5393SOL    HW217079   4.320   2.458   4.530
 5394SOL     OW17080   0.926   1.875   1.251
 5394SOL    HW117081   0.958   1.952   1.196
 5394SOL    HW217082   0.887   1.909   1.337
 5395SOL     OW17083   6.483   1.315   0.885
 5395SOL    HW117084   6.571   1.343   0.846
 5395SOL    HW217085   6.486   1.217   0.905
 5396SOL     OW17086   4.668   3.960   0.639
 5396SOL    HW117087   4.616   4.046   0.639
 5396SOL    HW217088   4.747   3.969   0.578
 5397SOL     OW17089   0.024   0.919   2.672
 5397SOL    HW117090   7.017   0.826   2.652
 5397SOL    HW217091   0.086   0.917   2.751
 5398SOL     OW17092   6.243   2.875   2.242
 5398SOL    HW117093   6.160   2.930   2.241
 5398SOL    HW217094   6.238   2.807   2.315
 5399SOL     OW17095   1.524   1.790   0.058
 5399SOL    HW117096   1.586   1.825   7.011
 5399SOL    HW217097   1.432   1.824   0.042
 5400SOL     OW17098   4.740   3.023   1.292
 5400SOL    HW117099   4.671   3.093   1.314
 5400SOL    HW217100   4.789   2.998   1.375
 5401SOL     OW17101   5.199   2.686   1.169
 5401SOL    HW117102   5.157   2.747   1.236
 5401SOL    HW217103   5.273   2.634   1.213
 5402SOL     OW17104   1.442   6.436   2.428
 5402SOL    HW117105   1.499   6.500   2.377
 5402SOL    HW217106   1.488   6.412   2.514
 5403SOL     OW17107   4.428   2.488   0.006
 5403SOL    HW117108   4.449   2.501   0.103
 5403SOL    HW217109   4.512   2.495   6.976
 5404SOL     OW17110   4.988   0.454   6.892
 5404SOL    HW117111   4.937   0.536   6.867
 5404SOL    HW217112   5.058   0.477   6.960
 5405SOL     OW17113   0.227   4.599   0.129
 5405SOL    HW117114   0.239   4.632   0.223
 5405SOL    HW217115   0.264   4.667   0.065
 5406SOL     OW17116   2.265   0.947   6.143
 5406SOL    HW117117   2.189   0.884   6.130
 5406SOL    HW217118   2.252   0.999   6.227
 5407SOL     OW17119   1.768   0.013   3.360
 5407SOL    HW117120   1.860   0.052   3.355
 5407SOL    HW217121   1.709   0.058   3.293
 5408SOL     OW17122   2.193   1.639   4.780
 5408SOL    HW117123   2.249   1.557   4.769
 5408SOL    HW217124   2.250   1.714   4.814
 5409SOL     OW17125   1.206   2.872   2.200
 5409SOL    HW117126   1.184   2.890   2.296
 5409SOL    HW217127   1.151   2.931   2.141
 5410SOL     OW17128   6.337   2.379   0.502
 5410SOL    HW117129   6.250   2.335   0.525
 5410SOL    HW217130   6.367   2.348   0.411
 5411SOL     OW17131   3.485   5.576   6.804
 5411SOL    HW117132   3.426   5.595   6.883
 5411SOL    HW217133   3.560   5.516   6.831
 5412SOL     OW17134   6.744   2.052   6.112
 5412SOL    HW117135   6.818   2.021   6.054
 5412SOL    HW217136   6.781   2.092   6.196
 5413SOL     OW17137   1.050   5.201   4.788
 5413SOL    HW117138   0.950   5.193   4.792
 5413SOL    HW217139   1.083   5.165   4.700
 5414SOL     OW17140   5.107   4.569   5.795
 5414SOL    HW117141   5.128   4.472   5.800
 5414SOL    HW217142   5.169   4.620   5.856
 5415SOL     OW17143   4.102   1.113   0.565
 5415SOL    HW117144   4.078   1.087   0.471
 5415SOL    HW217145   4.069   1.206   0.583
 5416SOL     OW17146   3.704   5.425   6.838
 5416SOL    HW117147   3.737   5.339   6.800
 5416SOL    HW217148   3.730   5.431   6.935
 5417SOL     OW17149   4.363   6.670   3.906
 5417SOL    HW117150   4.388   6.676   4.002
 5417SOL    HW217151   4.297   6.743   3.884
 5418SOL     OW17152   6.633   3.008   5.681
 5418SOL    HW117153   6.580   2.935   5.638
 5418SOL    HW217154   6.584   3.043   5.761
 5419SOL     OW17155   4.183   1.393   6.032
 5419SOL    HW117156   4.282   1.376   6.028
 5419SOL    HW217157   4.156   1.450   5.954
 5420SOL     OW17158   1.773   2.477   1.902
 5420SOL    HW117159   1.690   2.423   1.917
 5420SOL    HW217160   1.807   2.511   1.990
 5421SOL     OW17161   3.668   4.881   2.230
 5421SOL    HW117162   3.682   4.825   2.148
 5421SOL    HW217163   3.700   4.974   2.213
 5422SOL     OW17164   2.847   5.157   3.992
 5422SOL    HW117165   2.778   5.088   4.009
 5422SOL    HW217166   2.924   5.116   3.944
 5423SOL     OW17167   4.794   6.554   1.830
 5423SOL    HW117168   4.872   6.561   1.892
 5423SOL    HW217169   4.827   6.549   1.736
 5424SOL     OW17170   3.987   3.500   5.348
 5424SOL    HW117171   4.085   3.511   5.333
 5424SOL    HW217172   3.972   3.440   5.427
 5425SOL     OW17173   1.509   4.424   5.379
 5425SOL    HW117174   1.542   4.517   5.393
 5425SOL    HW217175   1.426   4.409   5.433
 5426SOL     OW17176   6.574   5.251   1.324
 5426SOL    HW117177   6.546   5.308   1.400
 5426SOL    HW217178   6.674   5.255   1.315
 5427SOL     OW17179   4.259   2.791   0.292
 5427SOL    HW117180   4.306   2.781   0.379
 5427SOL    HW217181   4.325   2.814   0.221
 5428SOL     OW17182   5.514   5.167   3.085
 5428SOL    HW117183   5.523   5.267   3.091
 5428SOL    HW217184   5.462   5.133   3.163
 5429SOL     OW17185   3.491   0.525   4.411
 5429SOL    HW117186   3.509   0.561   4.503
 5429SOL    HW217187   3.425   0.583   4.364
 5430SOL     OW17188   2.823   3.950   5.440
 5430SOL    HW117189   2.880   3.877   5.475
 5430SOL    HW217190   2.730   3.917   5.427
 5431SOL     OW17191   5.054   4.542   0.537
 5431SOL    HW117192   5.030   4.454   0.497
 5431SOL    HW217193   5.107   4.595   0.472
 5432SOL     OW17194   0.536   5.143   6.705
 5432SOL    HW117195   0.489   5.081   6.643
 5432SOL    HW217196   0.486   5.149   6.791
 5433SOL     OW17197   3.372   0.496   1.222
 5433SOL    HW117198   3.420   0.512   1.308
 5433SOL    HW217199   3.334   0.404   1.221
 5434SOL     OW17200   4.806   0.690   4.567
 5434SOL    HW117201   4.821   0.599   4.606
 5434SOL    HW217202   4.732   0.736   4.617
 5435SOL     OW17203   6.484   4.942   0.607
 5435SOL    HW117204   6.578   4.970   0.590
 5435SOL    HW217205   6.482   4.876   0.682
 5436SOL     OW17206   2.036   4.493   2.848
 5436SOL    HW117207   1.973   4.436   2.902
 5436SOL    HW217208   2.039   4.459   2.754
 5437SOL     OW17209   3.452   6.558   0.981
 5437SOL    HW117210   3.485   6.467   0.955
 5437SOL    HW217211   3.514   6.597   1.049
 5438SOL     OW17212   4.617   6.022   2.371
 5438SOL    HW117213   4.612   5.936   2.321
 5438SOL    HW217214   4.584   6.096   2.312
 5439SOL     OW17215   0.927   4.715   1.613
 5439SOL    HW117216   1.009   4.665   1.585
 5439SOL    HW217217   0.907   4.786   1.545
 5440SOL     OW17218   5.967   6.830   3.710
 5440SOL    HW117219   5.871   6.821   3.684
 5440SOL    HW217220   5.975   6.896   3.785
 5441SOL     OW17221   5.802   2.547   4.661
 5441SOL    HW117222   5.786   2.538   4.562
 5441SOL    HW217223   5.781   2.640   4.690
 5442SOL     OW17224   3.270   0.320   6.564
 5442SOL    HW117225   3.260   0.385   6.640
 5442SOL    HW217226   3.298   0.231   6.599
 5443SOL     OW17227   4.903   1.153   3.420
 5443SOL    HW117228   5.002   1.168   3.423
 5443SOL    HW217229   4.881   1.069   3.471
 5444SOL     OW17230   6.600   0.761   6.074
 5444SOL    HW117231   6.632   0.852   6.100
 5444SOL    HW217232   6.658   0.692   6.116
 5445SOL     OW17233   5.560   5.734   6.068
 5445SOL    HW117234   5.570   5.739   5.968
 5445SOL    HW217235   5.495   5.803   6.099
 5446SOL     OW17236   6.931   4.025   5.987
 5446SOL    HW117237   7.013   4.083   5.990
 5446SOL    HW217238   6.922   3.976   6.073
 5447SOL     OW17239   6.950   1.377   1.757
 5447SOL    HW117240   7.014   1.369   1.681
 5447SOL    HW217241   6.863   1.335   1.733
 5448SOL     OW17242   5.216   4.646   2.915
 5448SOL    HW117243   5.140   4.592   2.877
 5448SOL    HW217244   5.194   4.743   2.910
 5449SOL     OW17245   3.053   1.064   1.869
 5449SOL    HW117246   2.968   1.071   1.816
 5449SOL    HW217247   3.081   0.968   1.873
 5450SOL     OW17248   4.311   5.659   1.963
 5450SOL    HW117249   4.369   5.741   1.955
 5450SOL    HW217250   4.247   5.656   1.886
 5451SOL     OW17251   6.417   6.754   3.120
 5451SOL    HW117252   6.352   6.734   3.194
 5451SOL    HW217253   6.490   6.813   3.155
 5452SOL     OW17254   1.944   4.183   2.334
 5452SOL    HW117255   1.903   4.133   2.258
 5452SOL    HW217256   1.882   4.182   2.413
 5453SOL     OW17257   6.463   4.431   3.901
 5453SOL    HW117258   6.390   4.495   3.877
 5453SOL    HW217259   6.424   4.340   3.916
 5454SOL     OW17260   6.483   3.986   3.432
 5454SOL    HW117261   6.488   3.983   3.333
 5454SOL    HW217262   6.561   4.037   3.468
 5455SOL     OW17263   2.387   2.006   3.726
 5455SOL    HW117264   2.378   2.042   3.819
 5455SOL    HW217265   2.422   2.077   3.665
 5456SOL     OW17266   5.098   2.292   0.739
 5456SOL    HW117267   5.170   2.223   0.735
 5456SOL    HW217268   5.129   2.370   0.795
 5457SOL     OW17269   5.448   1.231   6.318
 5457SOL    HW117270   5.415   1.226   6.224
 5457SOL    HW217271   5.440   1.325   6.352
 5458SOL     OW17272   5.880   3.293   0.427
 5458SOL    HW117273   5.852   3.262   0.518
 5458SOL    HW217274   5.924   3.217   0.379
 5459SOL     OW17275   1.906   3.500   5.125
 5459SOL    HW117276   1.861   3.413   5.144
 5459SOL    HW217277   1.996   3.483   5.083
 5460SOL     OW17278   0.886   0.804   1.435
 5460SOL    HW117279   0.853   0.863   1.509
 5460SOL    HW217280   0.981   0.778   1.453
 5461SOL     OW17281   6.365   0.837   5.574
 5461SOL    HW117282   6.396   0.765   5.636
 5461SOL    HW217283   6.443   0.880   5.530
 5462SOL     OW17284   4.994   4.380   6.475
 5462SOL    HW117285   4.970   4.475   6.457
 5462SOL    HW217286   4.912   4.327   6.493
 5463SOL     OW17287   1.180   2.793   6.065
 5463SOL    HW117288   1.252   2.823   6.127
 5463SOL    HW217289   1.152   2.700   6.089
 5464SOL     OW17290   2.077   5.576   5.928
 5464SOL    HW117291   2.121   5.623   5.851
 5464SOL    HW217292   1.999   5.630   5.960
 5465SOL     OW17293   0.762   6.842   4.459
 5465SOL    HW117294   0.737   6.934   4.487
 5465SOL    HW217295   0.682   6.796   4.420
 5466SOL     OW17296   6.201   2.275   4.958
 5466SOL    HW117297   6.150   2.312   4.880
 5466SOL    HW217298   6.277   2.337   4.979
 5467SOL     OW17299   5.009   2.837   4.320
 5467SOL    HW117300   4.965   2.770   4.260
 5467SOL    HW217301   5.035   2.793   4.406
 5468SOL     OW17302   0.131   1.014   1.096
 5468SOL    HW117303   0.175   0.945   1.038
 5468SOL    HW217304   0.145   0.991   1.192
 5469SOL     OW17305   3.944   0.105   4.147
 5469SOL    HW117306   3.991   0.035   4.200
 5469SOL    HW217307   3.863   0.136   4.197
 5470SOL     OW17308   3.850   5.433   3.863
 5470SOL    HW117309   3.822   5.341   3.836
 5470SOL    HW217310   3.787   5.469   3.932
 5471SOL     OW17311   4.843   0.932   3.573
 5471SOL    HW117312   4.749   0.922   3.607
 5471SOL    HW217313   4.905   0.943   3.651
 5472SOL     OW17314   3.157   3.597   6.631
 5472SOL    HW117315   3.075   3.594   6.688
 5472SOL    HW217316   3.173   3.691   6.600
 5473SOL     OW17317   2.303   4.711   1.676
 5473SOL    HW117318   2.291   4.647   1.752
 5473SOL    HW217319   2.391   4.757   1.685
 5474SOL     OW17320   1.169   5.073   2.667
 5474SOL    HW117321   1.211   5.164   2.677
 5474SOL    HW217322   1.227   5.005   2.711
 5475SOL     OW17323   0.916   1.205   4.889
 5475SOL    HW117324   0.836   1.257   4.918
 5475SOL    HW217325   0.991   1.218   4.954
 5476SOL     OW17326   2.588   6.992   5.271
 5476SOL    HW117327   2.663   7.006   5.208
 5476SOL    HW217328   2.509   0.024   5.242
 5477SOL     OW17329   1.646   3.767   3.924
 5477SOL    HW117330   1.577   3.735   3.859
 5477SOL    HW217331   1.601   3.796   4.009
 5478SOL     OW17332   5.182   4.961   6.189
 5478SOL    HW117333   5.102   4.947   6.130
 5478SOL    HW217334   5.162   4.926   6.281
 5479SOL     OW17335   4.777   1.763   4.813
 5479SOL    HW117336   4.736   1.718   4.733
 5479SOL    HW217337   4.846   1.703   4.853
 5480SOL     OW17338   0.723   3.686   4.050
 5480SOL    HW117339   0.686   3.672   3.959
 5480SOL    HW217340   0.783   3.610   4.074
 5481SOL     OW17341   4.693   1.523   6.042
 5481SOL    HW117342   4.630   1.594   6.012
 5481SOL    HW217343   4.722   1.468   5.964
 5482SOL     OW17344   5.328   3.041   1.241
 5482SOL    HW117345   5.370   3.064   1.153
 5482SOL    HW217346   5.230   3.030   1.229
 5483SOL     OW17347   6.590   2.538   6.517
 5483SOL    HW117348   6.586   2.611   6.586
 5483SOL    HW217349   6.499   2.523   6.479
 5484SOL     OW17350   6.952   6.598   4.585
 5484SOL    HW117351   6.922   6.642   4.669
 5484SOL    HW217352   6.999   6.664   4.527
 5485SOL     OW17353   3.589   0.227   5.418
 5485SOL    HW117354   3.529   0.273   5.483
 5485SOL    HW217355   3.535   0.193   5.341
 5486SOL     OW17356   1.182   0.695   4.172
 5486SOL    HW117357   1.196   0.735   4.262
 5486SOL    HW217358   1.085   0.696   4.149
 5487SOL     OW17359   4.461   5.045   0.983
 5487SOL    HW117360   4.421   5.082   1.068
 5487SOL    HW217361   4.501   5.120   0.931
 5488SOL     OW17362   4.778   1.334   5.874
 5488SOL    HW117363   4.733   1.280   5.945
 5488SOL    HW217364   4.836   1.274   5.818
 5489SOL     OW17365   0.876   3.849   3.478
 5489SOL    HW117366   0.842   3.770   3.428
 5489SOL    HW217367   0.810   3.923   3.472
 5490SOL     OW17368   1.748   1.905   6.960
 5490SOL    HW117369   1.843   1.897   6.990
 5490SOL    HW217370   1.741   1.881   6.863
 5491SOL     OW17371   0.747   5.201   1.098
 5491SOL    HW117372   0.837   5.180   1.061
 5491SOL    HW217373   0.681   5.206   1.024
 5492SOL     OW17374   1.390   0.867   5.269
 5492SOL    HW117375   1.424   0.789   5.320
 5492SOL    HW217376   1.467   0.920   5.234
 5493SOL     OW17377   3.285   3.215   6.899
 5493SOL    HW117378   3.194   3.183   6.925
 5493SOL    HW217379   3.281   3.261   6.810
 5494SOL     OW17380   5.951   3.222   1.979
 5494SOL    HW117381   5.913   3.151   1.920
 5494SOL    HW217382   5.888   3.300   1.982
 5495SOL     OW17383   3.552   2.875   2.770
 5495SOL    HW117384   3.504   2.789   2.756
 5495SOL    HW217385   3.485   2.950   2.769
 5496SOL     OW17386   3.498   5.622   1.488
 5496SOL    HW117387   3.564   5.692   1.459
 5496SOL    HW217388   3.491   5.551   1.418
 5497SOL     OW17389   6.536   6.701   2.037
 5497SOL    HW117390   6.469   6.657   2.096
 5497SOL    HW217391   6.579   6.632   1.979
 5498SOL     OW17392   4.506   1.016   5.066
 5498SOL    HW117393   4.523   1.042   5.162
 5498SOL    HW217394   4.455   0.930   5.064
 5499SOL     OW17395   0.245   1.897   4.130
 5499SOL    HW117396   0.186   1.864   4.204
 5499SOL    HW217397   0.216   1.988   4.102
 5500SOL     OW17398   1.736   5.928   1.818
 5500SOL    HW117399   1.649   5.977   1.819
 5500SOL    HW217400   1.777   5.934   1.727
 5501SOL     OW17401   2.177   6.776   2.395
 5501SOL    HW117402   2.234   6.852   2.365
 5501SOL    HW217403   2.124   6.741   2.318
 5502SOL     OW17404   4.467   4.100   6.760
 5502SOL    HW117405   4.410   4.177   6.728
 5502SOL    HW217406   4.410   4.036   6.811
 5503SOL     OW17407   1.724   5.517   3.941
 5503SOL    HW117408   1.803   5.569   3.974
 5503SOL    HW217409   1.653   5.514   4.012
 5504SOL     OW17410   3.381   2.138   4.965
 5504SOL    HW117411   3.389   2.179   4.875
 5504SOL    HW217412   3.290   2.156   5.002
 5505SOL     OW17413   2.409   4.925   5.869
 5505SOL    HW117414   2.484   4.985   5.898
 5505SOL    HW217415   2.427   4.890   5.777
 5506SOL     OW17416   6.538   7.009   5.463
 5506SOL    HW117417   6.621   6.954   5.452
 5506SOL    HW217418   6.539   0.061   5.398
 5507SOL     OW17419   2.953   6.055   3.878
 5507SOL    HW117420   2.956   6.073   3.976
 5507SOL    HW217421   2.907   6.130   3.832
 5508SOL     OW17422   2.466   0.748   6.113
 5508SOL    HW117423   2.564   0.764   6.096
 5508SOL    HW217424   2.414   0.827   6.082
 5509SOL     OW17425   5.523   6.288   6.571
 5509SOL    HW117426   5.517   6.292   6.671
 5509SOL    HW217427   5.432   6.278   6.532
 5510SOL     OW17428   5.298   0.817   5.173
 5510SOL    HW117429   5.212   0.865   5.191
 5510SOL    HW217430   5.349   0.867   5.102
 5511SOL     OW17431   0.410   1.577   2.308
 5511SOL    HW117432   0.390   1.492   2.356
 5511SOL    HW217433   0.509   1.584   2.293
 5512SOL     OW17434   1.662   0.073   1.143
 5512SOL    HW117435   1.729   7.022   1.136
 5512SOL    HW217436   1.680   0.126   1.226
 5513SOL     OW17437   3.783   4.922   4.620
 5513SOL    HW117438   3.846   4.845   4.607
 5513SOL    HW217439   3.705   4.891   4.674
 5514SOL     OW17440   5.829   5.313   2.917
 5514SOL    HW117441   5.848   5.309   3.015
 5514SOL    HW217442   5.752   5.375   2.901
 5515SOL     OW17443   6.564   2.650   1.293
 5515SOL    HW117444   6.663   2.637   1.294
 5515SOL    HW217445   6.520   2.578   1.346
 5516SOL     OW17446   1.365   3.353   6.270
 5516SOL    HW117447   1.398   3.423   6.334
 5516SOL    HW217448   1.329   3.275   6.322
 5517SOL     OW17449   2.447   1.545   2.629
 5517SOL    HW117450   2.514   1.540   2.554
 5517SOL    HW217451   2.431   1.641   2.653
 5518SOL     OW17452   6.125   4.654   4.778
 5518SOL    HW117453   6.193   4.700   4.721
 5518SOL    HW217454   6.037   4.701   4.768
 5519SOL     OW17455   5.166   3.422   4.108
 5519SOL    HW117456   5.262   3.407   4.130
 5519SOL    HW217457   5.150   3.396   4.013
 5520SOL     OW17458   1.886   3.744   1.664
 5520SOL    HW117459   1.809   3.767   1.604
 5520SOL    HW217460   1.895   3.814   1.734
 5521SOL     OW17461   5.170   5.191   1.650
 5521SOL    HW117462   5.258   5.146   1.668
 5521SOL    HW217463   5.187   5.287   1.628
 5522SOL     OW17464   2.171   3.651   1.748
 5522SOL    HW117465   2.226   3.577   1.787
 5522SOL    HW217466   2.221   3.737   1.755
 5523SOL     OW17467   2.801   0.767   1.969
 5523SOL    HW117468   2.758   0.681   1.943
 5523SOL    HW217469   2.730   0.833   1.993
 5524SOL     OW17470   0.121   5.908   5.906
 5524SOL    HW117471   0.189   5.954   5.964
 5524SOL    HW217472   0.135   5.809   5.909
 5525SOL     OW17473   0.017   5.588   5.112
 5525SOL    HW117474   0.039   5.632   5.199
 5525SOL    HW217475   0.069   5.503   5.104
 5526SOL     OW17476   6.470   2.818   4.533
 5526SOL    HW117477   6.491   2.726   4.565
 5526SOL    HW217478   6.517   2.835   4.446
 5527SOL     OW17479   1.833   3.525   1.455
 5527SOL    HW117480   1.755   3.583   1.478
 5527SOL    HW217481   1.809   3.429   1.470
 5528SOL     OW17482   0.406   3.484   3.117
 5528SOL    HW117483   0.428   3.392   3.086
 5528SOL    HW217484   0.321   3.515   3.073
 5529SOL     OW17485   1.630   1.272   4.998
 5529SOL    HW117486   1.533   1.274   5.021
 5529SOL    HW217487   1.682   1.313   5.073
 5530SOL     OW17488   0.936   2.587   0.778
 5530SOL    HW117489   1.014   2.646   0.756
 5530SOL    HW217490   0.968   2.494   0.795
 5531SOL     OW17491   3.298   2.617   6.046
 5531SOL    HW117492   3.377   2.593   5.988
 5531SOL    HW217493   3.319   2.701   6.096
 5532SOL     OW17494   2.704   1.541   1.207
 5532SOL    HW117495   2.801   1.561   1.218
 5532SOL    HW217496   2.650   1.613   1.248
 5533SOL     OW17497   4.133   0.878   1.464
 5533SOL    HW117498   4.123   0.791   1.416
 5533SOL    HW217499   4.185   0.864   1.548
 5534SOL     OW17500   0.192   4.018   5.671
 5534SOL    HW117501   0.113   3.958   5.683
 5534SOL    HW217502   0.162   4.114   5.672
 5535SOL     OW17503   6.307   2.785   3.252
 5535SOL    HW117504   6.219   2.804   3.210
 5535SOL    HW217505   6.300   2.793   3.351
 5536SOL     OW17506   1.984   0.680   3.745
 5536SOL    HW117507   1.890   0.710   3.759
 5536SOL    HW217508   1.985   0.605   3.680
 5537SOL     OW17509   4.405   0.874   4.325
 5537SOL    HW117510   4.418   0.786   4.280
 5537SOL    HW217511   4.307   0.889   4.340
 5538SOL     OW17512   5.153   1.757   0.367
 5538SOL    HW117513   5.109   1.845   0.382
 5538SOL    HW217514   5.121   1.717   0.282
 5539SOL     OW17515   3.315   0.048   0.271
 5539SOL    HW117516   3.411   0.071   0.254
 5539SOL    HW217517   3.298   0.049   0.370
 5540SOL     OW17518   5.250   0.743   6.499
 5540SOL    HW117519   5.344   0.710   6.490
 5540SOL    HW217520   5.194   0.671   6.538
 5541SOL     OW17521   4.551   3.739   6.114
 5541SOL    HW117522   4.535   3.778   6.205
 5541SOL    HW217523   4.647   3.710   6.107
 5542SOL     OW17524   4.180   4.446   0.486
 5542SOL    HW117525   4.097   4.500   0.497
 5542SOL    HW217526   4.191   4.386   0.565
 5543SOL     OW17527   1.230   0.510   1.040
 5543SOL    HW117528   1.175   0.590   1.015
 5543SOL    HW217529   1.309   0.503   0.979
 5544SOL     OW17530   4.209   5.475   5.955
 5544SOL    HW117531   4.263   5.526   5.889
 5544SOL    HW217532   4.116   5.511   5.959
 5545SOL     OW17533   3.584   0.341   3.121
 5545SOL    HW117534   3.683   0.340   3.135
 5545SOL    HW217535   3.538   0.359   3.208
 5546SOL     OW17536   1.095   5.528   5.066
 5546SOL    HW117537   1.090   5.498   4.970
 5546SOL    HW217538   1.003   5.542   5.102
 5547SOL     OW17539   5.587   1.476   4.805
 5547SOL    HW117540   5.664   1.523   4.762
 5547SOL    HW217541   5.513   1.542   4.821
 5548SOL     OW17542   6.630   4.660   5.339
 5548SOL    HW117543   6.694   4.725   5.298
 5548SOL    HW217544   6.645   4.570   5.300
 5549SOL     OW17545   4.365   2.912   0.957
 5549SOL    HW117546   4.414   2.995   0.984
 5549SOL    HW217547   4.327   2.924   0.865
 5550SOL     OW17548   1.583   3.530   2.340
 5550SOL    HW117549   1.652   3.508   2.272
 5550SOL    HW217550   1.568   3.629   2.342
 5551SOL     OW17551   2.085   4.964   3.859
 5551SOL    HW117552   2.111   4.910   3.940
 5551SOL    HW217553   2.017   4.913   3.806
 5552SOL     OW17554   0.684   6.755   6.829
 5552SOL    HW117555   0.710   6.841   6.785
 5552SOL    HW217556   0.584   6.750   6.835
 5553SOL     OW17557   4.841   0.196   6.921
 5553SOL    HW117558   4.862   0.294   6.923
 5553SOL    HW217559   4.785   0.176   6.840
 5554SOL     OW17560   5.337   2.697   1.485
 5554SOL    HW117561   5.313   2.600   1.483
 5554SOL    HW217562   5.416   2.712   1.426
 5555SOL     OW17563   1.735   4.170   2.528
 5555SOL    HW117564   1.705   4.087   2.575
 5555SOL    HW217565   1.743   4.245   2.594
 5556SOL     OW17566   0.036   0.334   4.881
 5556SOL    HW117567   0.107   0.265   4.871
 5556SOL    HW217568   0.023   0.382   4.794
 5557SOL     OW17569   3.269   6.439   1.918
 5557SOL    HW117570   3.342   6.489   1.965
 5557SOL    HW217571   3.301   6.346   1.898
 5558SOL     OW17572   3.748   4.422   7.018
 5558SOL    HW117573   3.677   4.374   6.967
 5558SOL    HW217574   3.837   4.399   6.981
 5559SOL     OW17575   1.746   0.318   2.713
 5559SOL    HW117576   1.821   0.252   2.719
 5559SOL    HW217577   1.751   0.367   2.626
 5560SOL     OW17578   0.502   5.877   2.904
 5560SOL    HW117579   0.502   5.807   2.976
 5560SOL    HW217580   0.439   5.850   2.831
 5561SOL     OW17581   3.398   0.495   3.822
 5561SOL    HW117582   3.390   0.590   3.851
 5561SOL    HW217583   3.369   0.435   3.896
 5562SOL     OW17584   4.039   3.529   1.178
 5562SOL    HW117585   4.058   3.621   1.211
 5562SOL    HW217586   4.118   3.470   1.197
 5563SOL     OW17587   2.733   4.777   2.632
 5563SOL    HW117588   2.746   4.726   2.547
 5563SOL    HW217589   2.740   4.715   2.710
 5564SOL     OW17590   5.492   0.749   5.621
 5564SOL    HW117591   5.469   0.847   5.622
 5564SOL    HW217592   5.527   0.722   5.710
 5565SOL     OW17593   2.819   2.421   6.740
 5565SOL    HW117594   2.815   2.491   6.811
 5565SOL    HW217595   2.747   2.354   6.755
 5566SOL     OW17596   1.170   3.366   6.546
 5566SOL    HW117597   1.200   3.278   6.510
 5566SOL    HW217598   1.094   3.401   6.492
 5567SOL     OW17599   6.461   4.233   1.665
 5567SOL    HW117600   6.399   4.187   1.728
 5567SOL    HW217601   6.408   4.277   1.592
 5568SOL     OW17602   4.353   6.363   1.879
 5568SOL    HW117603   4.263   6.404   1.894
 5568SOL    HW217604   4.371   6.296   1.950
 5569SOL     OW17605   2.349   2.807   4.038
 5569SOL    HW117606   2.339   2.875   4.110
 5569SOL    HW217607   2.382   2.721   4.076
 5570SOL     OW17608   0.150   3.274   3.162
 5570SOL    HW117609   0.222   3.236   3.104
 5570SOL    HW217610   0.190   3.310   3.246
 5571SOL     OW17611   6.630   5.127   1.915
 5571SOL    HW117612   6.568   5.057   1.879
 5571SOL    HW217613   6.656   5.103   2.009
 5572SOL     OW17614   1.094   2.988   4.511
 5572SOL    HW117615   1.143   3.075   4.522
 5572SOL    HW217616   1.057   2.982   4.419
 5573SOL     OW17617   2.407   5.236   4.190
 5573SOL    HW117618   2.443   5.147   4.218
 5573SOL    HW217619   2.358   5.278   4.267
 5574SOL     OW17620   0.336   2.273   6.570
 5574SOL    HW117621   0.254   2.312   6.614
 5574SOL    HW217622   0.356   2.184   6.610
 5575SOL     OW17623   0.630   0.427   1.432
 5575SOL    HW117624   0.612   0.352   1.496
 5575SOL    HW217625   0.555   0.435   1.367
 5576SOL     OW17626   1.851   3.902   3.792
 5576SOL    HW117627   1.900   3.960   3.857
 5576SOL    HW217628   1.781   3.850   3.840
 5577SOL     OW17629   1.544   3.549   6.444
 5577SOL    HW117630   1.560   3.476   6.512
 5577SOL    HW217631   1.450   3.583   6.454
 5578SOL     OW17632   3.643   3.181   2.780
 5578SOL    HW117633   3.600   3.239   2.711
 5578SOL    HW217634   3.695   3.108   2.735
 5579SOL     OW17635   0.261   2.761   1.474
 5579SOL    HW117636   0.232   2.675   1.515
 5579SOL    HW217637   0.216   2.772   1.385
 5580SOL     OW17638   4.780   2.063   5.202
 5580SOL    HW117639   4.856   2.027   5.149
 5580SOL    HW217640   4.710   1.992   5.214
 5581SOL     OW17641   0.725   1.759   0.290
 5581SOL    HW117642   0.678   1.674   0.313
 5581SOL    HW217643   0.673   1.809   0.221
 5582SOL     OW17644   2.083   3.425   6.233
 5582SOL    HW117645   2.080   3.411   6.332
 5582SOL    HW217646   2.162   3.376   6.195
 5583SOL     OW17647   4.921   1.360   1.979
 5583SOL    HW117648   4.836   1.354   2.032
 5583SOL    HW217649   4.972   1.275   1.989
 5584SOL     OW17650   0.287   4.426   5.220
 5584SOL    HW117651   0.384   4.408   5.232
 5584SOL    HW217652   0.273   4.493   5.147
 5585SOL     OW17653   4.523   4.915   2.201
 5585SOL    HW117654   4.454   4.981   2.171
 5585SOL    HW217655   4.614   4.954   2.187
 5586SOL     OW17656   6.580   3.142   6.248
 5586SOL    HW117657   6.679   3.158   6.246
 5586SOL    HW217658   6.560   3.054   6.206
 5587SOL     OW17659   4.870   0.844   6.330
 5587SOL    HW117660   4.953   0.872   6.380
 5587SOL    HW217661   4.857   0.905   6.252
 5588SOL     OW17662   3.223   6.863   1.519
 5588SOL    HW117663   3.234   6.825   1.610
 5588SOL    HW217664   3.237   6.791   1.450
 5589SOL     OW17665   5.594   4.826   6.846
 5589SOL    HW117666   5.571   4.736   6.881
 5589SOL    HW217667   5.684   4.823   6.802
 5590SOL     OW17668   5.935   5.933   4.168
 5590SOL    HW117669   5.981   6.013   4.207
 5590SOL    HW217670   5.968   5.850   4.214
 5591SOL     OW17671   6.054   1.572   1.257
 5591SOL    HW117672   6.014   1.525   1.336
 5591SOL    HW217673   6.153   1.562   1.260
 5592SOL     OW17674   0.910   4.530   3.448
 5592SOL    HW117675   0.912   4.443   3.499
 5592SOL    HW217676   0.851   4.595   3.496
 5593SOL     OW17677   6.086   1.935   0.004
 5593SOL    HW117678   6.147   1.999   6.980
 5593SOL    HW217679   6.140   1.863   0.047
 5594SOL     OW17680   5.474   2.037   5.406
 5594SOL    HW117681   5.502   2.057   5.312
 5594SOL    HW217682   5.379   2.063   5.419
 5595SOL     OW17683   0.897   2.672   5.449
 5595SOL    HW117684   0.968   2.621   5.400
 5595SOL    HW217685   0.940   2.729   5.519
 5596SOL     OW17686   4.338   0.190   2.959
 5596SOL    HW117687   4.369   0.229   3.046
 5596SOL    HW217688   4.413   0.192   2.893
 5597SOL     OW17689   5.137   3.024   3.414
 5597SOL    HW117690   5.232   3.045   3.437
 5597SOL    HW217691   5.093   3.106   3.375
 5598SOL     OW17692   5.464   2.590   4.482
 5598SOL    HW117693   5.561   2.578   4.457
 5598SOL    HW217694   5.448   2.685   4.508
 5599SOL     OW17695   0.456   1.975   4.585
 5599SOL    HW117696   0.374   2.019   4.550
 5599SOL    HW217697   0.453   1.877   4.563
 5600SOL     OW17698   1.566   2.657   4.118
 5600SOL    HW117699   1.532   2.578   4.170
 5600SOL    HW217700   1.619   2.625   4.040
 5601SOL     OW17701   2.678   1.153   5.841
 5601SOL    HW117702   2.631   1.106   5.916
 5601SOL    HW217703   2.680   1.251   5.858
 5602SOL     OW17704   0.847   1.225   0.762
 5602SOL    HW117705   0.924   1.213   0.825
 5602SOL    HW217706   0.785   1.294   0.798
 5603SOL     OW17707   5.160   1.986   0.089
 5603SOL    HW117708   5.241   1.974   0.148
 5603SOL    HW217709   5.078   1.982   0.145
 5604SOL     OW17710   5.850   2.134   5.721
 5604SOL    HW117711   5.829   2.036   5.715
 5604SOL    HW217712   5.823   2.168   5.811
 5605SOL     OW17713   0.672   1.840   4.330
 5605SOL    HW117714   0.658   1.749   4.370
 5605SOL    HW217715   0.692   1.831   4.233
 5606SOL     OW17716   4.921   0.066   1.581
 5606SOL    HW117717   5.015   0.097   1.565
 5606SOL    HW217718   4.892   0.008   1.505
 5607SOL     OW17719   5.249   1.522   1.633
 5607SOL    HW117720   5.232   1.566   1.721
 5607SOL    HW217721   5.222   1.584   1.559
 5608SOL     OW17722   4.458   0.448   4.931
 5608SOL    HW117723   4.498   0.358   4.913
 5608SOL    HW217724   4.449   0.498   4.845
 5609SOL     OW17725   2.535   6.395   6.655
 5609SOL    HW117726   2.576   6.306   6.634
 5609SOL    HW217727   2.447   6.381   6.700
 5610SOL     OW17728   5.176   0.440   0.092
 5610SOL    HW117729   5.242   0.392   0.034
 5610SOL    HW217730   5.201   0.537   0.098
 5611SOL     OW17731   1.558   4.997   3.279
 5611SOL    HW117732   1.647   4.981   3.321
 5611SOL    HW217733   1.544   5.095   3.266
 5612SOL     OW17734   3.355   0.715   5.821
 5612SOL    HW117735   3.369   0.763   5.734
 5612SOL    HW217736   3.407   0.630   5.821
 5613SOL     OW17737   4.491   4.545   2.364
 5613SOL    HW117738   4.424   4.584   2.301
 5613SOL    HW217739   4.543   4.473   2.317
 5614SOL     OW17740   4.648   2.679   3.253
 5614SOL    HW117741   4.689   2.667   3.344
 5614SOL    HW217742   4.631   2.776   3.237
 5615SOL     OW17743   1.654   0.387   0.282
 5615SOL    HW117744   1.583   0.451   0.254
 5615SOL    HW217745   1.680   0.405   0.377
 5616SOL     OW17746   1.858   1.022   4.269
 5616SOL    HW117747   1.941   1.070   4.238
 5616SOL    HW217748   1.842   1.043   4.365
 5617SOL     OW17749   2.152   0.521   4.815
 5617SOL    HW117750   2.078   0.482   4.870
 5617SOL    HW217751   2.232   0.533   4.873
 5618SOL     OW17752   6.281   4.180   3.679
 5618SOL    HW117753   6.187   4.158   3.655
 5618SOL    HW217754   6.332   4.095   3.693
 5619SOL     OW17755   2.186   3.699   5.487
 5619SOL    HW117756   2.277   3.661   5.501
 5619SOL    HW217757   2.182   3.746   5.398
 5620SOL     OW17758   3.563   2.346   6.765
 5620SOL    HW117759   3.615   2.402   6.830
 5620SOL    HW217760   3.479   2.314   6.809
 5621SOL     OW17761   1.298   1.753   5.497
 5621SOL    HW117762   1.222   1.692   5.520
 5621SOL    HW217763   1.383   1.701   5.495
 5622SOL     OW17764   4.634   0.860   6.040
 5622SOL    HW117765   4.541   0.880   6.009
 5622SOL    HW217766   4.699   0.894   5.972
 5623SOL     OW17767   1.982   6.500   6.496
 5623SOL    HW117768   1.893   6.545   6.491
 5623SOL    HW217769   2.055   6.568   6.488
 5624SOL     OW17770   1.093   4.721   3.660
 5624SOL    HW117771   1.127   4.629   3.678
 5624SOL    HW217772   1.120   4.750   3.568
 5625SOL     OW17773   6.733   2.559   4.782
 5625SOL    HW117774   6.776   2.649   4.782
 5625SOL    HW217775   6.797   2.491   4.817
 5626SOL     OW17776   3.848   6.906   4.983
 5626SOL    HW117777   3.787   6.970   5.029
 5626SOL    HW217778   3.795   6.826   4.954
 5627SOL     OW17779   1.601   6.038   1.433
 5627SOL    HW117780   1.605   6.131   1.469
 5627SOL    HW217781   1.673   5.983   1.477
 5628SOL     OW17782   1.967   1.988   5.191
 5628SOL    HW117783   1.916   1.926   5.132
 5628SOL    HW217784   2.011   1.936   5.264
 5629SOL     OW17785   3.578   3.836   2.848
 5629SOL    HW117786   3.663   3.787   2.868
 5629SOL    HW217787   3.597   3.934   2.841
 5630SOL     OW17788   0.568   4.728   1.044
 5630SOL    HW117789   0.537   4.636   1.067
 5630SOL    HW217790   0.571   4.740   0.945
 5631SOL     OW17791   4.715   1.200   0.443
 5631SOL    HW117792   4.764   1.195   0.356
 5631SOL    HW217793   4.700   1.296   0.468
 5632SOL     OW17794   4.475   3.976   6.351
 5632SOL    HW117795   4.503   4.059   6.303
 5632SOL    HW217796   4.381   3.953   6.327
 5633SOL     OW17797   6.646   2.787   4.300
 5633SOL    HW117798   6.688   2.877   4.289
 5633SOL    HW217799   6.575   2.774   4.231
 5634SOL     OW17800   4.022   5.313   4.579
 5634SOL    HW117801   3.956   5.268   4.518
 5634SOL    HW217802   3.978   5.333   4.667
 5635SOL     OW17803   2.540   2.518   4.860
 5635SOL    HW117804   2.527   2.614   4.887
 5635SOL    HW217805   2.491   2.501   4.774
 5636SOL     OW17806   4.247   5.519   2.884
 5636SOL    HW117807   4.216   5.424   2.872
 5636SOL    HW217808   4.189   5.565   2.951
 5637SOL     OW17809   5.871   6.980   4.083
 5637SOL    HW117810   5.823   6.895   4.061
 5637SOL    HW217811   5.810   0.017   4.135
 5638SOL     OW17812   5.024   3.069   6.879
 5638SOL    HW117813   5.100   3.112   6.928
 5638SOL    HW217814   5.024   2.971   6.899
 5639SOL     OW17815   0.955   1.522   6.273
 5639SOL    HW117816   0.923   1.602   6.223
 5639SOL    HW217817   1.053   1.508   6.255
 5640SOL     OW17818   2.546   6.872   3.643
 5640SOL    HW117819   2.632   6.842   3.685
 5640SOL    HW217820   2.513   6.802   3.581
 5641SOL     OW17821   6.468   4.857   5.730
 5641SOL    HW117822   6.440   4.768   5.693
 5641SOL    HW217823   6.493   4.918   5.654
 5642SOL     OW17824   1.702   1.709   6.378
 5642SOL    HW117825   1.769   1.781   6.363
 5642SOL    HW217826   1.619   1.748   6.419
 5643SOL     OW17827   6.151   2.307   4.325
 5643SOL    HW117828   6.224   2.241   4.347
 5643SOL    HW217829   6.190   2.399   4.320
 5644SOL     OW17830   3.107   6.959   6.424
 5644SOL    HW117831   3.106   0.034   6.406
 5644SOL    HW217832   3.016   6.929   6.452
 5645SOL     OW17833   5.961   3.455   3.684
 5645SOL    HW117834   6.001   3.409   3.763
 5645SOL    HW217835   6.034   3.492   3.626
 5646SOL     OW17836   1.839   4.301   2.956
 5646SOL    HW117837   1.887   4.327   3.039
 5646SOL    HW217838   1.787   4.217   2.972
 5647SOL     OW17839   5.943   5.974   3.223
 5647SOL    HW117840   5.884   6.053   3.240
 5647SOL    HW217841   6.032   6.005   3.191
 5648SOL     OW17842   4.042   6.153   2.721
 5648SOL    HW117843   3.985   6.084   2.677
 5648SOL    HW217844   4.084   6.211   2.651
 5649SOL     OW17845   0.616   5.849   3.836
 5649SOL    HW117846   0.597   5.753   3.816
 5649SOL    HW217847   0.714   5.867   3.825
 5650SOL     OW17848   6.917   4.278   0.835
 5650SOL    HW117849   6.869   4.203   0.790
 5650SOL    HW217850   6.977   4.241   0.906
 5651SOL     OW17851   1.503   0.724   1.511
 5651SOL    HW117852   1.406   0.744   1.525
 5651SOL    HW217853   1.541   0.684   1.594
 5652SOL     OW17854   0.848   5.427   1.590
 5652SOL    HW117855   0.773   5.468   1.643
 5652SOL    HW217856   0.818   5.411   1.496
 5653SOL     OW17857   0.254   6.303   1.979
 5653SOL    HW117858   0.188   6.367   2.018
 5653SOL    HW217859   0.207   6.240   1.917
 5654SOL     OW17860   2.489   5.986   4.601
 5654SOL    HW117861   2.521   6.079   4.582
 5654SOL    HW217862   2.508   5.964   4.697
 5655SOL     OW17863   6.433   2.674   4.116
 5655SOL    HW117864   6.406   2.747   4.053
 5655SOL    HW217865   6.518   2.632   4.084
 5656SOL     OW17866   0.268   3.042   6.694
 5656SOL    HW117867   0.172   3.065   6.676
 5656SOL    HW217868   0.274   2.987   6.777
 5657SOL     OW17869   4.398   5.203   4.943
 5657SOL    HW117870   4.303   5.218   4.915
 5657SOL    HW217871   4.423   5.107   4.927
 5658SOL     OW17872   1.921   2.040   5.639
 5658SOL    HW117873   1.953   1.948   5.618
 5658SOL    HW217874   1.979   2.080   5.710
 5659SOL     OW17875   3.515   4.179   6.464
 5659SOL    HW117876   3.539   4.091   6.505
 5659SOL    HW217877   3.585   4.205   6.397
 5660SOL     OW17878   4.287   0.402   6.716
 5660SOL    HW117879   4.324   0.480   6.766
 5660SOL    HW217880   4.349   0.378   6.641
 5661SOL     OW17881   1.113   5.477   5.841
 5661SOL    HW117882   1.146   5.569   5.817
 5661SOL    HW217883   1.140   5.413   5.770
 5662SOL     OW17884   2.758   6.173   2.267
 5662SOL    HW117885   2.816   6.112   2.213
 5662SOL    HW217886   2.678   6.124   2.301
 5663SOL     OW17887   1.318   2.762   0.406
 5663SOL    HW117888   1.281   2.854   0.420
 5663SOL    HW217889   1.404   2.767   0.355
 5664SOL     OW17890   5.097   4.030   4.359
 5664SOL    HW117891   5.059   3.938   4.370
 5664SOL    HW217892   5.097   4.054   4.262
 5665SOL     OW17893   2.534   0.800   1.290
 5665SOL    HW117894   2.527   0.898   1.309
 5665SOL    HW217895   2.454   0.753   1.327
 5666SOL     OW17896   6.232   1.109   4.850
 5666SOL    HW117897   6.311   1.083   4.795
 5666SOL    HW217898   6.151   1.060   4.816
 5667SOL     OW17899   2.712   5.502   4.557
 5667SOL    HW117900   2.685   5.597   4.574
 5667SOL    HW217901   2.798   5.500   4.506
 5668SOL     OW17902   5.393   3.087   3.449
 5668SOL    HW117903   5.435   3.038   3.526
 5668SOL    HW217904   5.457   3.154   3.413
 5669SOL     OW17905   6.172   4.307   6.761
 5669SOL    HW117906   6.216   4.391   6.792
 5669SOL    HW217907   6.198   4.231   6.821
 5670SOL     OW17908   1.112   2.179   2.444
 5670SOL    HW117909   1.145   2.271   2.422
 5670SOL    HW217910   1.048   2.184   2.521
 5671SOL     OW17911   0.589   6.830   3.502
 5671SOL    HW117912   0.508   6.886   3.520
 5671SOL    HW217913   0.562   6.747   3.452
 5672SOL     OW17914   5.177   4.016   5.383
 5672SOL    HW117915   5.218   3.932   5.348
 5672SOL    HW217916   5.206   4.030   5.478
 5673SOL     OW17917   0.675   0.593   0.736
 5673SOL    HW117918   0.726   0.678   0.748
 5673SOL    HW217919   0.631   0.593   0.646
 5674SOL     OW17920   1.942   5.579   5.220
 5674SOL    HW117921   1.910   5.497   5.171
 5674SOL    HW217922   1.864   5.639   5.238
 5675SOL     OW17923   2.057   1.799   0.511
 5675SOL    HW117924   2.006   1.765   0.432
 5675SOL    HW217925   2.144   1.751   0.517
 5676SOL     OW17926   2.686   2.133   1.743
 5676SOL    HW117927   2.733   2.146   1.830
 5676SOL    HW217928   2.753   2.134   1.668
 5677SOL     OW17929   6.694   0.415   1.429
 5677SOL    HW117930   6.706   0.508   1.462
 5677SOL    HW217931   6.751   0.353   1.481
 5678SOL     OW17932   3.361   1.998   1.765
 5678SOL    HW117933   3.307   2.064   1.713
 5678SOL    HW217934   3.444   1.975   1.714
 5679SOL     OW17935   5.894   3.562   5.298
 5679SOL    HW117936   5.932   3.510   5.221
 5679SOL    HW217937   5.896   3.660   5.277
 5680SOL     OW17938   1.547   6.054   5.757
 5680SOL    HW117939   1.613   6.106   5.703
 5680SOL    HW217940   1.558   6.076   5.854
 5681SOL     OW17941   0.783   4.194   3.241
 5681SOL    HW117942   0.696   4.208   3.194
 5681SOL    HW217943   0.768   4.193   3.340
 5682SOL     OW17944   2.215   4.200   1.971
 5682SOL    HW117945   2.172   4.172   2.056
 5682SOL    HW217946   2.152   4.258   1.920
 5683SOL     OW17947   4.836   1.620   6.517
 5683SOL    HW117948   4.881   1.633   6.606
 5683SOL    HW217949   4.853   1.527   6.485
 5684SOL     OW17950   2.191   2.594   5.317
 5684SOL    HW117951   2.290   2.593   5.311
 5684SOL    HW217952   2.163   2.574   5.411
 5685SOL     OW17953   2.720   1.601   3.924
 5685SOL    HW117954   2.649   1.568   3.985
 5685SOL    HW217955   2.764   1.523   3.878
 5686SOL     OW17956   3.392   6.209   6.474
 5686SOL    HW117957   3.316   6.232   6.413
 5686SOL    HW217958   3.467   6.272   6.458
 5687SOL     OW17959   2.503   6.521   6.175
 5687SOL    HW117960   2.446   6.570   6.110
 5687SOL    HW217961   2.458   6.434   6.199
 5688SOL     OW17962   2.215   3.049   3.511
 5688SOL    HW117963   2.209   3.148   3.506
 5688SOL    HW217964   2.243   3.022   3.603
 5689SOL     OW17965   0.711   1.639   1.726
 5689SOL    HW117966   0.786   1.699   1.752
 5689SOL    HW217967   0.652   1.687   1.660
 5690SOL     OW17968   1.678   5.741   0.334
 5690SOL    HW117969   1.649   5.723   0.240
 5690SOL    HW217970   1.775   5.717   0.344
 5691SOL     OW17971   3.819   1.302   2.490
 5691SOL    HW117972   3.794   1.210   2.460
 5691SOL    HW217973   3.780   1.320   2.580
 5692SOL     OW17974   3.992   4.941   1.050
 5692SOL    HW117975   4.024   5.032   1.023
 5692SOL    HW217976   4.058   4.872   1.020
 5693SOL     OW17977   3.775   0.806   1.372
 5693SOL    HW117978   3.832   0.860   1.309
 5693SOL    HW217979   3.814   0.714   1.380
 5694SOL     OW17980   0.868   0.003   2.047
 5694SOL    HW117981   0.798   7.015   2.118
 5694SOL    HW217982   0.825   0.031   1.962
 5695SOL     OW17983   1.451   0.506   0.869
 5695SOL    HW117984   1.408   0.562   0.799
 5695SOL    HW217985   1.522   0.560   0.916
 5696SOL     OW17986   1.628   6.601   3.846
 5696SOL    HW117987   1.710   6.544   3.856
 5696SOL    HW217988   1.654   6.697   3.839
 5697SOL     OW17989   6.126   2.731   0.203
 5697SOL    HW117990   6.181   2.648   0.205
 5697SOL    HW217991   6.146   2.787   0.284
 5698SOL     OW17992   2.328   2.645   3.740
 5698SOL    HW117993   2.337   2.648   3.640
 5698SOL    HW217994   2.308   2.737   3.774
 5699SOL     OW17995   2.235   2.784   2.684
 5699SOL    HW117996   2.143   2.777   2.646
 5699SOL    HW217997   2.239   2.739   2.773
 5700SOL     OW17998   6.187   0.914   3.494
 5700SOL    HW117999   6.132   0.865   3.426
 5700SOL    HW218000   6.142   0.909   3.584
 5701SOL     OW18001   7.008   0.448   1.050
 5701SOL    HW118002   0.056   0.424   0.984
 5701SOL    HW218003   6.969   0.365   1.089
 5702SOL     OW18004   2.455   6.918   4.665
 5702SOL    HW118005   2.502   7.006   4.651
 5702SOL    HW218006   2.517   6.844   4.639
 5703SOL     OW18007   0.022   2.757   6.791
 5703SOL    HW118008   6.982   2.833   6.809
 5703SOL    HW218009   0.023   2.737   6.692
 5704SOL     OW18010   5.496   4.369   4.148
 5704SOL    HW118011   5.462   4.291   4.096
 5704SOL    HW218012   5.438   4.449   4.129
 5705SOL     OW18013   6.159   6.626   5.932
 5705SOL    HW118014   6.222   6.583   5.996
 5705SOL    HW218015   6.101   6.691   5.980
 5706SOL     OW18016   5.368   2.163   6.878
 5706SOL    HW118017   5.409   2.126   6.794
 5706SOL    HW218018   5.387   2.101   6.954
 5707SOL     OW18019   5.505   6.317   2.701
 5707SOL    HW118020   5.574   6.291   2.768
 5707SOL    HW218021   5.489   6.240   2.639
 5708SOL     OW18022   4.367   5.749   3.067
 5708SOL    HW118023   4.316   5.804   3.002
 5708SOL    HW218024   4.458   5.728   3.030
 5709SOL     OW18025   0.686   1.580   2.292
 5709SOL    HW118026   0.723   1.646   2.227
 5709SOL    HW218027   0.760   1.524   2.329
 5710SOL     OW18028   2.320   2.193   0.717
 5710SOL    HW118029   2.260   2.256   0.668
 5710SOL    HW218030   2.370   2.243   0.788
 5711SOL     OW18031   5.545   2.222   1.931
 5711SOL    HW118032   5.589   2.133   1.939
 5711SOL    HW218033   5.556   2.256   1.837
 5712SOL     OW18034   6.319   6.281   1.406
 5712SOL    HW118035   6.291   6.290   1.311
 5712SOL    HW218036   6.341   6.186   1.426
 5713SOL     OW18037   2.248   6.309   0.608
 5713SOL    HW118038   2.322   6.242   0.607
 5713SOL    HW218039   2.205   6.309   0.698
 5714SOL     OW18040   6.221   6.810   1.191
 5714SOL    HW118041   6.144   6.747   1.203
 5714SOL    HW218042   6.217   6.851   1.100
 5715SOL     OW18043   0.817   0.106   1.458
 5715SOL    HW118044   0.834   0.140   1.550
 5715SOL    HW218045   0.866   0.162   1.391
 5716SOL     OW18046   6.718   4.408   6.077
 5716SOL    HW118047   6.629   4.444   6.048
 5716SOL    HW218048   6.706   4.320   6.122
 5717SOL     OW18049   1.214   5.072   3.064
 5717SOL    HW118050   1.174   5.035   2.980
 5717SOL    HW218051   1.251   4.997   3.119
 5718SOL     OW18052   0.657   3.396   0.121
 5718SOL    HW118053   0.606   3.436   0.198
 5718SOL    HW218054   0.755   3.402   0.139
 5719SOL     OW18055   2.618   3.903   0.773
 5719SOL    HW118056   2.527   3.863   0.782
 5719SOL    HW218057   2.666   3.859   0.697
 5720SOL     OW18058   2.097   4.937   5.700
 5720SOL    HW118059   2.149   5.017   5.671
 5720SOL    HW218060   2.153   4.855   5.688
 5721SOL     OW18061   4.138   4.138   0.175
 5721SOL    HW118062   4.236   4.132   0.154
 5721SOL    HW218063   4.125   4.147   0.273
 5722SOL     OW18064   0.493   1.196   5.568
 5722SOL    HW118065   0.415   1.225   5.512
 5722SOL    HW218066   0.466   1.116   5.621
 5723SOL     OW18067   4.214   2.908   6.866
 5723SOL    HW118068   4.310   2.932   6.882
 5723SOL    HW218069   4.203   2.874   6.773
 5724SOL     OW18070   5.530   2.343   3.516
 5724SOL    HW118071   5.543   2.428   3.464
 5724SOL    HW218072   5.450   2.353   3.575
 5725SOL     OW18073   6.799   3.771   3.813
 5725SOL    HW118074   6.733   3.736   3.746
 5725SOL    HW218075   6.809   3.870   3.801
 5726SOL     OW18076   5.310   4.425   2.565
 5726SOL    HW118077   5.353   4.415   2.475
 5726SOL    HW218078   5.321   4.519   2.597
 5727SOL     OW18079   0.449   2.555   5.019
 5727SOL    HW118080   0.385   2.507   5.079
 5727SOL    HW218081   0.484   2.491   4.950
 5728SOL     OW18082   5.263   6.219   4.824
 5728SOL    HW118083   5.202   6.277   4.878
 5728SOL    HW218084   5.267   6.127   4.863
 5729SOL     OW18085   1.840   1.648   5.557
 5729SOL    HW118086   1.851   1.610   5.648
 5729SOL    HW218087   1.904   1.725   5.545
 5730SOL     OW18088   6.220   4.133   5.575
 5730SOL    HW118089   6.277   4.168   5.649
 5730SOL    HW218090   6.260   4.158   5.487
 5731SOL     OW18091   0.645   6.564   1.873
 5731SOL    HW118092   0.729   6.511   1.879
 5731SOL    HW218093   0.590   6.550   1.956
 5732SOL     OW18094   1.277   6.946   3.828
 5732SOL    HW118095   1.303   0.019   3.838
 5732SOL    HW218096   1.283   6.901   3.917
 5733SOL     OW18097   3.819   0.355   5.178
 5733SOL    HW118098   3.847   0.393   5.266
 5733SOL    HW218099   3.729   0.391   5.153
 5734SOL     OW18100   1.923   6.417   2.779
 5734SOL    HW118101   1.934   6.514   2.758
 5734SOL    HW218102   1.863   6.374   2.711
 5735SOL     OW18103   2.739   1.276   2.082
 5735SOL    HW118104   2.777   1.354   2.033
 5735SOL    HW218105   2.639   1.280   2.078
 5736SOL     OW18106   1.449   5.314   0.262
 5736SOL    HW118107   1.412   5.327   0.354
 5736SOL    HW218108   1.393   5.246   0.213
 5737SOL     OW18109   5.640   4.823   0.793
 5737SOL    HW118110   5.714   4.817   0.725
 5737SOL    HW218111   5.554   4.794   0.750
 5738SOL     OW18112   1.478   4.142   6.056
 5738SOL    HW118113   1.446   4.164   6.148
 5738SOL    HW218114   1.564   4.090   6.063
 5739SOL     OW18115   1.086   1.161   1.258
 5739SOL    HW118116   1.131   1.104   1.327
 5739SOL    HW218117   1.142   1.163   1.175
 5740SOL     OW18118   4.088   6.317   6.215
 5740SOL    HW118119   4.085   6.317   6.315
 5740SOL    HW218120   4.005   6.273   6.179
 5741SOL     OW18121   0.671   5.012   3.526
 5741SOL    HW118122   0.646   4.993   3.621
 5741SOL    HW218123   0.602   4.971   3.465
 5742SOL     OW18124   6.620   6.706   4.218
 5742SOL    HW118125   6.687   6.642   4.257
 5742SOL    HW218126   6.633   6.712   4.119
 5743SOL     OW18127   1.802   6.592   5.485
 5743SOL    HW118128   1.827   6.602   5.389
 5743SOL    HW218129   1.775   6.681   5.522
 5744SOL     OW18130   5.921   0.097   2.635
 5744SOL    HW118131   6.011   0.069   2.603
 5744SOL    HW218132   5.930   0.151   2.718
 5745SOL     OW18133   1.198   1.855   3.768
 5745SOL    HW118134   1.277   1.851   3.707
 5745SOL    HW218135   1.136   1.780   3.747
 5746SOL     OW18136   5.638   3.550   0.109
 5746SOL    HW118137   5.598   3.485   0.173
 5746SOL    HW218138   5.569   3.580   0.044
 5747SOL     OW18139   1.143   5.805   3.135
 5747SOL    HW118140   1.131   5.886   3.193
 5747SOL    HW218141   1.100   5.821   3.046
 5748SOL     OW18142   2.345   6.345   2.712
 5748SOL    HW118143   2.428   6.380   2.756
 5748SOL    HW218144   2.317   6.260   2.756
 5749SOL     OW18145   2.591   1.792   3.677
 5749SOL    HW118146   2.632   1.869   3.726
 5749SOL    HW218147   2.528   1.744   3.738
 5750SOL     OW18148   6.450   5.971   2.583
 5750SOL    HW118149   6.361   5.971   2.536
 5750SOL    HW218150   6.495   5.884   2.568
 5751SOL     OW18151   2.438   4.027   5.813
 5751SOL    HW118152   2.382   3.961   5.763
 5751SOL    HW218153   2.392   4.116   5.813
 5752SOL     OW18154   6.619   0.473   6.735
 5752SOL    HW118155   6.535   0.524   6.754
 5752SOL    HW218156   6.606   0.377   6.761
 5753SOL     OW18157   3.368   2.350   0.339
 5753SOL    HW118158   3.422   2.378   0.418
 5753SOL    HW218159   3.427   2.346   0.259
 5754SOL     OW18160   5.945   4.608   1.426
 5754SOL    HW118161   6.004   4.547   1.478
 5754SOL    HW218162   5.959   4.592   1.328
 5755SOL     OW18163   3.552   3.937   1.222
 5755SOL    HW118164   3.527   3.872   1.150
 5755SOL    HW218165   3.638   3.908   1.265
 5756SOL     OW18166   0.382   6.026   4.528
 5756SOL    HW118167   0.403   5.929   4.521
 5756SOL    HW218168   0.285   6.041   4.508
 5757SOL     OW18169   0.340   4.980   0.913
 5757SOL    HW118170   0.309   4.913   0.846
 5757SOL    HW218171   0.352   4.936   1.002
 5758SOL     OW18172   0.733   1.766   5.561
 5758SOL    HW118173   0.685   1.836   5.616
 5758SOL    HW218174   0.707   1.777   5.465
 5759SOL     OW18175   5.212   1.834   4.794
 5759SOL    HW118176   5.216   1.912   4.856
 5759SOL    HW218177   5.149   1.855   4.719
 5760SOL     OW18178   1.637   5.507   2.082
 5760SOL    HW118179   1.663   5.602   2.097
 5760SOL    HW218180   1.548   5.503   2.036
 5761SOL     OW18181   4.970   6.992   4.853
 5761SOL    HW118182   4.994   6.898   4.877
 5761SOL    HW218183   4.946   6.996   4.756
 5762SOL     OW18184   5.565   5.926   1.674
 5762SOL    HW118185   5.660   5.956   1.675
 5762SOL    HW218186   5.555   5.843   1.729
 5763SOL     OW18187   0.935   1.117   1.740
 5763SOL    HW118188   1.017   1.154   1.696
 5763SOL    HW218189   0.858   1.120   1.675
 5764SOL     OW18190   4.170   3.729   5.365
 5764SOL    HW118191   4.212   3.780   5.439
 5764SOL    HW218192   4.134   3.793   5.297
 5765SOL     OW18193   5.608   4.735   0.446
 5765SOL    HW118194   5.695   4.721   0.493
 5765SOL    HW218195   5.549   4.794   0.501
 5766SOL     OW18196   2.895   1.123   3.316
 5766SOL    HW118197   2.909   1.138   3.414
 5766SOL    HW218198   2.946   1.042   3.287
 5767SOL     OW18199   0.120   6.464   1.726
 5767SOL    HW118200   0.094   6.381   1.775
 5767SOL    HW218201   0.214   6.455   1.693
 5768SOL     OW18202   6.810   1.514   2.833
 5768SOL    HW118203   6.741   1.565   2.885
 5768SOL    HW218204   6.765   1.457   2.764
 5769SOL     OW18205   2.393   5.474   3.474
 5769SOL    HW118206   2.356   5.460   3.565
 5769SOL    HW218207   2.357   5.405   3.412
 5770SOL     OW18208   6.349   0.288   1.834
 5770SOL    HW118209   6.345   0.282   1.735
 5770SOL    HW218210   6.396   0.207   1.870
 5771SOL     OW18211   0.526   1.625   1.988
 5771SOL    HW118212   0.610   1.672   2.015
 5771SOL    HW218213   0.536   1.590   1.894
 5772SOL     OW18214   6.521   3.978   0.252
 5772SOL    HW118215   6.434   3.961   0.298
 5772SOL    HW218216   6.592   3.923   0.295
 5773SOL     OW18217   5.725   5.635   3.884
 5773SOL    HW118218   5.806   5.592   3.923
 5773SOL    HW218219   5.662   5.661   3.957
 5774SOL     OW18220   2.278   5.384   3.242
 5774SOL    HW118221   2.180   5.402   3.232
 5774SOL    HW218222   2.291   5.291   3.277
 5775SOL     OW18223   0.053   0.405   0.392
 5775SOL    HW118224   6.981   0.416   0.420
 5775SOL    HW218225   0.061   0.421   0.294
 5776SOL     OW18226   5.403   1.014   5.653
 5776SOL    HW118227   5.363   1.026   5.744
 5776SOL    HW218228   5.338   1.046   5.584
 5777SOL     OW18229   6.526   0.616   5.381
 5777SOL    HW118230   6.552   0.648   5.290
 5777SOL    HW218231   6.470   0.685   5.426
 5778SOL     OW18232   2.603   0.115   3.963
 5778SOL    HW118233   2.646   0.178   4.027
 5778SOL    HW218234   2.616   0.021   3.995
 5779SOL     OW18235   4.668   1.183   2.461
 5779SOL    HW118236   4.763   1.151   2.454
 5779SOL    HW218237   4.632   1.159   2.551
 5780SOL     OW18238   5.994   3.815   1.543
 5780SOL    HW118239   5.923   3.798   1.611
 5780SOL    HW218240   6.016   3.913   1.542
 5781SOL     OW18241   2.290   5.309   4.809
 5781SOL    HW118242   2.329   5.218   4.825
 5781SOL    HW218243   2.285   5.326   4.710
 5782SOL     OW18244   2.544   1.324   2.772
 5782SOL    HW118245   2.498   1.383   2.706
 5782SOL    HW218246   2.638   1.307   2.743
 5783SOL     OW18247   1.903   6.816   0.845
 5783SOL    HW118248   1.980   6.752   0.849
 5783SOL    HW218249   1.823   6.769   0.810
 5784SOL     OW18250   1.754   5.464   0.016
 5784SOL    HW118251   1.850   5.486   0.032
 5784SOL    HW218252   1.748   5.381   6.985
 5785SOL     OW18253   1.979   1.601   0.293
 5785SOL    HW118254   2.067   1.556   0.285
 5785SOL    HW218255   1.906   1.538   0.265
 5786SOL     OW18256   1.433   3.104   0.935
 5786SOL    HW118257   1.485   3.064   1.010
 5786SOL    HW218258   1.362   3.040   0.906
 5787SOL     OW18259   6.898   2.912   5.702
 5787SOL    HW118260   6.939   2.974   5.769
 5787SOL    HW218261   6.809   2.948   5.673
 5788SOL     OW18262   2.300   2.409   1.817
 5788SOL    HW118263   2.312   2.501   1.852
 5788SOL    HW218264   2.221   2.366   1.861
 5789SOL     OW18265   3.058   5.196   6.903
 5789SOL    HW118266   3.158   5.190   6.898
 5789SOL    HW218267   3.019   5.105   6.912
 5790SOL     OW18268   6.006   5.745   3.621
 5790SOL    HW118269   6.099   5.771   3.593
 5790SOL    HW218270   5.984   5.787   3.708
 5791SOL     OW18271   3.880   1.455   2.263
 5791SOL    HW118272   3.978   1.475   2.263
 5791SOL    HW218273   3.856   1.407   2.347
 5792SOL     OW18274   4.975   3.050   2.585
 5792SOL    HW118275   4.986   2.996   2.668
 5792SOL    HW218276   4.946   2.990   2.510
 5793SOL     OW18277   4.145   2.449   6.201
 5793SOL    HW118278   4.160   2.436   6.103
 5793SOL    HW218279   4.204   2.386   6.253
 5794SOL     OW18280   4.210   6.683   0.000
 5794SOL    HW118281   4.269   6.630   0.061
 5794SOL    HW218282   4.154   6.746   0.054
 5795SOL     OW18283   2.370   5.821   1.445
 5795SOL    HW118284   2.332   5.903   1.403
 5795SOL    HW218285   2.403   5.759   1.374
 5796SOL     OW18286   5.122   0.983   6.491
 5796SOL    HW118287   5.148   0.887   6.503
 5796SOL    HW218288   5.076   1.016   6.574
 5797SOL     OW18289   6.206   2.567   1.209
 5797SOL    HW118290   6.214   2.611   1.119
 5797SOL    HW218291   6.272   2.493   1.216
 5798SOL     OW18292   1.810   3.540   4.856
 5798SOL    HW118293   1.844   3.527   4.949
 5798SOL    HW218294   1.821   3.636   4.830
 5799SOL     OW18295   2.357   6.641   3.695
 5799SOL    HW118296   2.358   6.554   3.744
 5799SOL    HW218297   2.421   6.704   3.737
 5800SOL     OW18298   1.646   0.246   1.583
 5800SOL    HW118299   1.562   0.194   1.568
 5800SOL    HW218300   1.702   0.200   1.651
 5801SOL     OW18301   2.193   1.772   1.994
 5801SOL    HW118302   2.104   1.726   1.992
 5801SOL    HW218303   2.235   1.769   1.903
 5802SOL     OW18304   0.530   0.421   1.755
 5802SOL    HW118305   0.608   0.385   1.805
 5802SOL    HW218306   0.521   0.519   1.771
 5803SOL     OW18307   0.370   5.828   4.244
 5803SOL    HW118308   0.296   5.787   4.297
 5803SOL    HW218309   0.429   5.756   4.208
 5804SOL     OW18310   5.853   1.935   2.939
 5804SOL    HW118311   5.774   1.995   2.945
 5804SOL    HW218312   5.894   1.943   2.848
 5805SOL     OW18313   1.408   2.588   1.963
 5805SOL    HW118314   1.397   2.510   1.902
 5805SOL    HW218315   1.400   2.673   1.910
 5806SOL     OW18316   6.935   4.250   1.983
 5806SOL    HW118317   6.869   4.274   2.054
 5806SOL    HW218318   6.910   4.295   1.897
 5807SOL     OW18319   2.120   0.474   1.317
 5807SOL    HW118320   2.080   0.445   1.404
 5807SOL    HW218321   2.048   0.510   1.258
 5808SOL     OW18322   6.733   0.232   5.562
 5808SOL    HW118323   6.756   0.172   5.485
 5808SOL    HW218324   6.642   0.209   5.597
 5809SOL     OW18325   0.057   2.271   5.353
 5809SOL    HW118326   0.107   2.256   5.439
 5809SOL    HW218327   6.988   2.303   5.374
 5810SOL     OW18328   3.014   6.457   4.929
 5810SOL    HW118329   3.084   6.496   4.989
 5810SOL    HW218330   3.055   6.388   4.870
 5811SOL     OW18331   4.072   4.672   6.473
 5811SOL    HW118332   4.049   4.583   6.513
 5811SOL    HW218333   4.136   4.720   6.532
 5812SOL     OW18334   5.275   2.787   6.982
 5812SOL    HW118335   5.336   2.737   0.021
 5812SOL    HW218336   5.202   2.726   6.951
 5813SOL     OW18337   4.954   5.495   0.484
 5813SOL    HW118338   4.871   5.466   0.532
 5813SOL    HW218339   4.952   5.594   0.471
 5814SOL     OW18340   5.178   1.227   1.708
 5814SOL    HW118341   5.221   1.230   1.618
 5814SOL    HW218342   5.168   1.319   1.744
 5815SOL     OW18343   6.697   2.653   3.971
 5815SOL    HW118344   6.706   2.649   3.871
 5815SOL    HW218345   6.758   2.586   4.013
 5816SOL     OW18346   0.216   3.543   2.612
 5816SOL    HW118347   0.206   3.485   2.531
 5816SOL    HW218348   0.126   3.563   2.651
 5817SOL     OW18349   5.927   3.828   3.246
 5817SOL    HW118350   5.985   3.907   3.225
 5817SOL    HW218351   5.875   3.847   3.329
 5818SOL     OW18352   2.303   0.755   4.422
 5818SOL    HW118353   2.342   0.674   4.466
 5818SOL    HW218354   2.218   0.729   4.375
 5819SOL     OW18355   4.341   4.821   0.311
 5819SOL    HW118356   4.364   4.742   0.255
 5819SOL    HW218357   4.259   4.801   0.364
 5820SOL     OW18358   5.635   6.451   2.408
 5820SOL    HW118359   5.715   6.395   2.429
 5820SOL    HW218360   5.556   6.418   2.460
 5821SOL     OW18361   0.085   0.269   1.302
 5821SOL    HW118362   7.016   0.236   1.283
 5821SOL    HW218363   0.082   0.368   1.318
 5822SOL     OW18364   1.578   3.791   3.239
 5822SOL    HW118365   1.599   3.887   3.219
 5822SOL    HW218366   1.664   3.739   3.245
 5823SOL     OW18367   1.571   5.935   3.482
 5823SOL    HW118368   1.593   6.008   3.548
 5823SOL    HW218369   1.641   5.864   3.486
 5824SOL     OW18370   1.232   7.005   2.269
 5824SOL    HW118371   1.173   6.962   2.337
 5824SOL    HW218372   1.199   6.983   2.178
 5825SOL     OW18373   5.251   1.337   3.925
 5825SOL    HW118374   5.220   1.381   4.010
 5825SOL    HW218375   5.341   1.297   3.939
 5826SOL     OW18376   0.964   6.457   5.522
 5826SOL    HW118377   0.980   6.409   5.436
 5826SOL    HW218378   1.023   6.538   5.526
 5827SOL     OW18379   2.117   4.259   3.689
 5827SOL    HW118380   2.019   4.256   3.671
 5827SOL    HW218381   2.165   4.209   3.616
 5828SOL     OW18382   3.857   0.779   5.472
 5828SOL    HW118383   3.894   0.727   5.395
 5828SOL    HW218384   3.763   0.807   5.451
 5829SOL     OW18385   2.269   0.592   3.533
 5829SOL    HW118386   2.295   0.687   3.517
 5829SOL    HW218387   2.206   0.563   3.461
 5830SOL     OW18388   4.111   4.893   4.679
 5830SOL    HW118389   4.099   4.868   4.583
 5830SOL    HW218390   4.197   4.854   4.714
 5831SOL     OW18391   1.518   2.168   5.452
 5831SOL    HW118392   1.616   2.158   5.468
 5831SOL    HW218393   1.471   2.084   5.478
 5832SOL     OW18394   3.180   5.128   1.953
 5832SOL    HW118395   3.260   5.188   1.945
 5832SOL    HW218396   3.202   5.051   2.013
 5833SOL     OW18397   3.734   5.042   0.081
 5833SOL    HW118398   3.834   5.050   0.079
 5833SOL    HW218399   3.696   5.109   0.145
 5834SOL     OW18400   5.865   2.738   6.617
 5834SOL    HW118401   5.815   2.820   6.589
 5834SOL    HW218402   5.929   2.760   6.690
 5835SOL     OW18403   5.059   2.328   2.788
 5835SOL    HW118404   5.078   2.291   2.879
 5835SOL    HW218405   5.141   2.373   2.752
 5836SOL     OW18406   4.731   6.137   2.732
 5836SOL    HW118407   4.822   6.098   2.721
 5836SOL    HW218408   4.739   6.227   2.774
 5837SOL     OW18409   2.606   5.550   6.575
 5837SOL    HW118410   2.601   5.457   6.540
 5837SOL    HW218411   2.522   5.599   6.554
 5838SOL     OW18412   3.949   2.461   0.561
 5838SOL    HW118413   3.988   2.511   0.638
 5838SOL    HW218414   3.897   2.523   0.503
 5839SOL     OW18415   1.935   2.458   0.400
 5839SOL    HW118416   1.871   2.532   0.420
 5839SOL    HW218417   1.904   2.375   0.446
 5840SOL     OW18418   0.227   3.333   3.414
 5840SOL    HW118419   0.204   3.263   3.482
 5840SOL    HW218420   0.149   3.393   3.401
 5841SOL     OW18421   4.994   1.320   0.621
 5841SOL    HW118422   4.915   1.288   0.673
 5841SOL    HW218423   5.015   1.414   0.647
 5842SOL     OW18424   2.144   2.240   0.985
 5842SOL    HW118425   2.045   2.246   1.000
 5842SOL    HW218426   2.167   2.281   0.897
 5843SOL     OW18427   2.774   3.918   1.010
 5843SOL    HW118428   2.786   3.995   1.073
 5843SOL    HW218429   2.729   3.949   0.927
 5844SOL     OW18430   0.735   5.807   4.803
 5844SOL    HW118431   0.756   5.845   4.713
 5844SOL    HW218432   0.810   5.826   4.866
 5845SOL     OW18433   1.431   0.128   2.358
 5845SOL    HW118434   1.485   0.069   2.418
 5845SOL    HW218435   1.364   0.072   2.308
 5846SOL     OW18436   0.028   3.920   5.288
 5846SOL    HW118437   0.104   3.870   5.245
 5846SOL    HW218438   0.057   4.013   5.309
 5847SOL     OW18439   1.977   3.942   6.531
 5847SOL    HW118440   2.020   4.010   6.590
 5847SOL    HW218441   1.975   3.976   6.437
 5848SOL     OW18442   1.723   5.324   2.320
 5848SOL    HW118443   1.701   5.405   2.266
 5848SOL    HW218444   1.785   5.266   2.268
 5849SOL     OW18445   3.484   5.836   5.681
 5849SOL    HW118446   3.523   5.827   5.772
 5849SOL    HW218447   3.391   5.874   5.688
 5850SOL     OW18448   1.005   1.210   2.327
 5850SOL    HW118449   1.105   1.209   2.319
 5850SOL    HW218450   0.965   1.156   2.253
 5851SOL     OW18451   6.500   3.352   4.478
 5851SOL    HW118452   6.438   3.323   4.405
 5851SOL    HW218453   6.455   3.340   4.566
 5852SOL     OW18454   4.951   4.324   2.047
 5852SOL    HW118455   4.891   4.404   2.045
 5852SOL    HW218456   5.046   4.353   2.031
 5853SOL     OW18457   4.797   5.137   6.259
 5853SOL    HW118458   4.738   5.109   6.183
 5853SOL    HW218459   4.833   5.228   6.241
 5854SOL     OW18460   3.301   4.723   5.343
 5854SOL    HW118461   3.383   4.779   5.355
 5854SOL    HW218462   3.241   4.765   5.276
 5855SOL     OW18463   2.257   2.891   3.304
 5855SOL    HW118464   2.258   2.951   3.224
 5855SOL    HW218465   2.240   2.946   3.386
 5856SOL     OW18466   1.206   6.009   2.890
 5856SOL    HW118467   1.110   6.005   2.917
 5856SOL    HW218468   1.223   5.942   2.817
 5857SOL     OW18469   5.488   5.053   6.792
 5857SOL    HW118470   5.517   4.961   6.820
 5857SOL    HW218471   5.492   5.115   6.871
 5858SOL     OW18472   1.911   0.876   2.196
 5858SOL    HW118473   1.849   0.802   2.223
 5858SOL    HW218474   1.992   0.876   2.255
 5859SOL     OW18475   5.380   5.641   1.350
 5859SOL    HW118476   5.408   5.545   1.357
 5859SOL    HW218477   5.431   5.685   1.276
 5860SOL     OW18478   0.375   4.157   3.450
 5860SOL    HW118479   0.431   4.076   3.467
 5860SOL    HW218480   0.301   4.161   3.517
 5861SOL     OW18481   5.036   0.919   4.857
 5861SOL    HW118482   5.070   0.878   4.772
 5861SOL    HW218483   5.018   0.846   4.924
 5862SOL     OW18484   6.008   5.769   2.451
 5862SOL    HW118485   5.951   5.768   2.534
 5862SOL    HW218486   5.962   5.821   2.380
 5863SOL     OW18487   4.013   6.907   6.556
 5863SOL    HW118488   3.989   6.990   6.606
 5863SOL    HW218489   4.105   6.917   6.518
 5864SOL     OW18490   3.308   4.121   2.377
 5864SOL    HW118491   3.319   4.214   2.411
 5864SOL    HW218492   3.267   4.124   2.285
 5865SOL     OW18493   6.697   0.477   6.152
 5865SOL    HW118494   6.736   0.399   6.201
 5865SOL    HW218495   6.766   0.516   6.091
 5866SOL     OW18496   3.260   3.325   2.928
 5866SOL    HW118497   3.272   3.314   3.026
 5866SOL    HW218498   3.292   3.416   2.900
 5867SOL     OW18499   2.805   1.680   2.001
 5867SOL    HW118500   2.873   1.719   2.063
 5867SOL    HW218501   2.835   1.590   1.971
 5868SOL     OW18502   0.864   1.331   6.098
 5868SOL    HW118503   0.895   1.242   6.131
 5868SOL    HW218504   0.901   1.403   6.157
 5869SOL     OW18505   1.156   6.035   3.272
 5869SOL    HW118506   1.156   6.042   3.372
 5869SOL    HW218507   1.119   6.119   3.233
 5870SOL     OW18508   3.481   5.720   4.302
 5870SOL    HW118509   3.422   5.799   4.285
 5870SOL    HW218510   3.576   5.751   4.312
 5871SOL     OW18511   2.979   3.365   3.795
 5871SOL    HW118512   2.981   3.299   3.870
 5871SOL    HW218513   3.022   3.324   3.714
 5872SOL     OW18514   4.935   5.723   1.600
 5872SOL    HW118515   4.907   5.709   1.505
 5872SOL    HW218516   5.032   5.749   1.603
 5873SOL     OW18517   4.270   6.085   2.397
 5873SOL    HW118518   4.274   6.053   2.302
 5873SOL    HW218519   4.325   6.025   2.455
 5874SOL     OW18520   1.330   4.203   5.177
 5874SOL    HW118521   1.375   4.232   5.092
 5874SOL    HW218522   1.317   4.104   5.175
 5875SOL     OW18523   2.977   1.859   1.240
 5875SOL    HW118524   3.058   1.896   1.195
 5875SOL    HW218525   2.895   1.894   1.195
 5876SOL     OW18526   3.421   2.927   1.835
 5876SOL    HW118527   3.457   3.021   1.830
 5876SOL    HW218528   3.481   2.872   1.894
 5877SOL     OW18529   5.747   4.422   1.341
 5877SOL    HW118530   5.720   4.453   1.250
 5877SOL    HW218531   5.803   4.492   1.385
 5878SOL     OW18532   2.211   4.682   2.479
 5878SOL    HW118533   2.242   4.587   2.472
 5878SOL    HW218534   2.286   4.739   2.515
 5879SOL     OW18535   0.346   4.447   4.530
 5879SOL    HW118536   0.421   4.508   4.502
 5879SOL    HW218537   0.367   4.408   4.620
 5880SOL     OW18538   3.122   5.681   0.505
 5880SOL    HW118539   3.138   5.755   0.570
 5880SOL    HW218540   3.205   5.666   0.451
 5881SOL     OW18541   1.695   5.680   4.669
 5881SOL    HW118542   1.789   5.685   4.703
 5881SOL    HW218543   1.688   5.728   4.581
 5882SOL     OW18544   4.811   0.715   2.036
 5882SOL    HW118545   4.856   0.626   2.041
 5882SOL    HW218546   4.712   0.702   2.044
 5883SOL     OW18547   0.080   3.292   5.215
 5883SOL    HW118548   0.112   3.217   5.273
 5883SOL    HW218549   0.140   3.301   5.135
 5884SOL     OW18550   1.013   1.368   3.517
 5884SOL    HW118551   1.063   1.283   3.534
 5884SOL    HW218552   1.067   1.428   3.458
 5885SOL     OW18553   5.713   6.921   0.950
 5885SOL    HW118554   5.673   6.954   0.865
 5885SOL    HW218555   5.734   6.998   1.010
 5886SOL     OW18556   0.121   0.808   6.186
 5886SOL    HW118557   0.173   0.861   6.119
 5886SOL    HW218558   0.184   0.761   6.248
 5887SOL     OW18559   4.685   6.540   3.262
 5887SOL    HW118560   4.609   6.509   3.319
 5887SOL    HW218561   4.715   6.630   3.292
 5888SOL     OW18562   1.711   0.524   3.346
 5888SOL    HW118563   1.651   0.535   3.266
 5888SOL    HW218564   1.665   0.466   3.413
 5889SOL     OW18565   2.798   0.667   0.730
 5889SOL    HW118566   2.764   0.761   0.720
 5889SOL    HW218567   2.843   0.639   0.645
 5890SOL     OW18568   3.256   5.002   5.920
 5890SOL    HW118569   3.326   5.005   5.849
 5890SOL    HW218570   3.181   4.943   5.892
 5891SOL     OW18571   2.255   3.736   0.001
 5891SOL    HW118572   2.160   3.721   0.028
 5891SOL    HW218573   2.283   3.665   6.959
 5892SOL     OW18574   1.316   0.104   1.955
 5892SOL    HW118575   1.253   0.039   1.997
 5892SOL    HW218576   1.273   0.144   1.874
 5893SOL     OW18577   1.707   1.087   3.068
 5893SOL    HW118578   1.702   1.187   3.068
 5893SOL    HW218579   1.643   1.051   3.136
 5894SOL     OW18580   0.696   3.182   3.366
 5894SOL    HW118581   0.728   3.228   3.448
 5894SOL    HW218582   0.701   3.245   3.288
 5895SOL     OW18583   5.332   3.714   3.961
 5895SOL    HW118584   5.356   3.780   3.890
 5895SOL    HW218585   5.321   3.623   3.919
 5896SOL     OW18586   4.071   2.166   5.464
 5896SOL    HW118587   4.112   2.247   5.421
 5896SOL    HW218588   3.979   2.153   5.430
 5897SOL     OW18589   3.961   0.316   1.830
 5897SOL    HW118590   4.048   0.329   1.783
 5897SOL    HW218591   3.977   0.306   1.928
 5898SOL     OW18592   1.681   0.222   2.278
 5898SOL    HW118593   1.587   0.195   2.299
 5898SOL    HW218594   1.688   0.248   2.182
 5899SOL     OW18595   5.443   0.032   3.891
 5899SOL    HW118596   5.437   0.017   3.990
 5899SOL    HW218597   5.521   0.091   3.871
 5900SOL     OW18598   4.603   5.291   2.469
 5900SOL    HW118599   4.548   5.275   2.552
 5900SOL    HW218600   4.606   5.389   2.450
 5901SOL     OW18601   3.800   6.878   5.310
 5901SOL    HW118602   3.776   6.795   5.260
 5901SOL    HW218603   3.782   6.958   5.252
 5902SOL     OW18604   6.144   1.178   6.614
 5902SOL    HW118605   6.131   1.277   6.610
 5902SOL    HW218606   6.059   1.134   6.643
 5903SOL     OW18607   6.383   3.282   6.334
 5903SOL    HW118608   6.464   3.243   6.291
 5903SOL    HW218609   6.411   3.340   6.411
 5904SOL     OW18610   0.452   4.674   2.535
 5904SOL    HW118611   0.412   4.594   2.579
 5904SOL    HW218612   0.384   4.747   2.530
 5905SOL     OW18613   6.679   5.194   2.511
 5905SOL    HW118614   6.765   5.160   2.474
 5905SOL    HW218615   6.686   5.292   2.528
 5906SOL     OW18616   6.502   1.613   4.022
 5906SOL    HW118617   6.555   1.538   3.983
 5906SOL    HW218618   6.456   1.663   3.948
 5907SOL     OW18619   1.792   0.062   1.756
 5907SOL    HW118620   1.832   7.005   1.711
 5907SOL    HW218621   1.865   0.123   1.787
 5908SOL     OW18622   0.301   2.744   6.177
 5908SOL    HW118623   0.374   2.752   6.245
 5908SOL    HW218624   0.276   2.835   6.145
 5909SOL     OW18625   6.778   4.006   0.956
 5909SOL    HW118626   6.786   4.004   1.056
 5909SOL    HW218627   6.821   3.924   0.917
 5910SOL     OW18628   2.062   1.939   3.781
 5910SOL    HW118629   2.059   1.949   3.682
 5910SOL    HW218630   2.132   2.000   3.819
 5911SOL     OW18631   6.925   5.618   6.070
 5911SOL    HW118632   6.850   5.593   6.008
 5911SOL    HW218633   7.003   5.650   6.016
 5912SOL     OW18634   0.693   0.738   4.032
 5912SOL    HW118635   0.742   0.811   3.986
 5912SOL    HW218636   0.654   0.773   4.117
 5913SOL     OW18637   5.339   1.732   6.864
 5913SOL    HW118638   5.248   1.769   6.882
 5913SOL    HW218639   5.372   1.682   6.944
 5914SOL     OW18640   6.960   5.720   0.520
 5914SOL    HW118641   7.008   5.734   0.434
 5914SOL    HW218642   0.003   5.698   0.592
 5915SOL     OW18643   3.590   1.423   5.921
 5915SOL    HW118644   3.576   1.488   5.847
 5915SOL    HW218645   3.673   1.448   5.971
 5916SOL     OW18646   0.987   6.396   2.617
 5916SOL    HW118647   0.964   6.450   2.537
 5916SOL    HW218648   1.086   6.389   2.626
 5917SOL     OW18649   3.572   4.592   0.302
 5917SOL    HW118650   3.627   4.651   0.244
 5917SOL    HW218651   3.507   4.647   0.354
 5918SOL     OW18652   3.140   6.259   5.398
 5918SOL    HW118653   3.075   6.237   5.326
 5918SOL    HW218654   3.200   6.180   5.414
 5919SOL     OW18655   3.376   2.982   3.915
 5919SOL    HW118656   3.341   3.039   3.990
 5919SOL    HW218657   3.375   3.035   3.831
 5920SOL     OW18658   6.233   0.287   4.881
 5920SOL    HW118659   6.307   0.337   4.926
 5920SOL    HW218660   6.256   0.272   4.785
 5921SOL     OW18661   2.665   4.584   6.108
 5921SOL    HW118662   2.675   4.591   6.009
 5921SOL    HW218663   2.721   4.510   6.143
 5922SOL     OW18664   5.322   3.672   2.983
 5922SOL    HW118665   5.308   3.625   3.071
 5922SOL    HW218666   5.420   3.674   2.962
 5923SOL     OW18667   0.033   0.514   3.039
 5923SOL    HW118668   6.961   0.484   3.048
 5923SOL    HW218669   0.076   0.465   2.964
 5924SOL     OW18670   5.810   0.089   3.553
 5924SOL    HW118671   5.761   0.073   3.638
 5924SOL    HW218672   5.888   0.149   3.569
 5925SOL     OW18673   4.160   0.243   1.561
 5925SOL    HW118674   4.063   0.240   1.537
 5925SOL    HW218675   4.202   0.155   1.540
 5926SOL     OW18676   4.702   4.856   4.099
 5926SOL    HW118677   4.684   4.946   4.137
 5926SOL    HW218678   4.634   4.791   4.132
 5927SOL     OW18679   0.784   4.801   2.042
 5927SOL    HW118680   0.780   4.844   2.132
 5927SOL    HW218681   0.776   4.702   2.052
 5928SOL     OW18682   3.420   0.752   0.473
 5928SOL    HW118683   3.401   0.694   0.552
 5928SOL    HW218684   3.482   0.704   0.411
 5929SOL     OW18685   1.829   0.901   6.309
 5929SOL    HW118686   1.889   0.893   6.389
 5929SOL    HW218687   1.868   0.967   6.244
 5930SOL     OW18688   1.091   3.586   2.352
 5930SOL    HW118689   1.025   3.514   2.327
 5930SOL    HW218690   1.184   3.552   2.338
 5931SOL     OW18691   4.791   6.292   3.264
 5931SOL    HW118692   4.762   6.260   3.174
 5931SOL    HW218693   4.739   6.374   3.289
 5932SOL     OW18694   2.780   0.845   6.910
 5932SOL    HW118695   2.712   0.813   6.844
 5932SOL    HW218696   2.819   0.931   6.879
 5933SOL     OW18697   6.250   6.113   3.988
 5933SOL    HW118698   6.211   6.024   4.015
 5933SOL    HW218699   6.215   6.184   4.049
 5934SOL     OW18700   3.329   3.432   6.115
 5934SOL    HW118701   3.352   3.342   6.151
 5934SOL    HW218702   3.265   3.477   6.178
 5935SOL     OW18703   1.336   5.851   6.294
 5935SOL    HW118704   1.286   5.765   6.289
 5935SOL    HW218705   1.345   5.880   6.389
 5936SOL     OW18706   3.417   3.393   1.657
 5936SOL    HW118707   3.514   3.392   1.685
 5936SOL    HW218708   3.406   3.454   1.579
 5937SOL     OW18709   0.026   2.788   1.663
 5937SOL    HW118710   6.956   2.823   1.657
 5937SOL    HW218711   0.080   2.823   1.586
 5938SOL     OW18712   0.240   4.755   4.722
 5938SOL    HW118713   0.247   4.855   4.724
 5938SOL    HW218714   0.305   4.716   4.787
 5939SOL     OW18715   3.329   0.791   4.980
 5939SOL    HW118716   3.287   0.881   4.970
 5939SOL    HW218717   3.426   0.800   4.999
 5940SOL     OW18718   5.067   5.777   2.534
 5940SOL    HW118719   5.088   5.690   2.490
 5940SOL    HW218720   5.001   5.827   2.479
 5941SOL     OW18721   0.138   2.186   2.367
 5941SOL    HW118722   0.142   2.182   2.467
 5941SOL    HW218723   0.219   2.233   2.332
 5942SOL     OW18724   5.230   3.259   6.244
 5942SOL    HW118725   5.138   3.221   6.246
 5942SOL    HW218726   5.293   3.193   6.202
 5943SOL     OW18727   3.004   4.367   1.672
 5943SOL    HW118728   2.970   4.424   1.747
 5943SOL    HW218729   3.104   4.360   1.678
 5944SOL     OW18730   0.133   3.343   6.688
 5944SOL    HW118731   0.178   3.309   6.771
 5944SOL    HW218732   0.070   3.273   6.653
 5945SOL     OW18733   0.400   5.713   5.030
 5945SOL    HW118734   0.420   5.616   5.028
 5945SOL    HW218735   0.418   5.754   4.941
 5946SOL     OW18736   3.280   4.389   0.686
 5946SOL    HW118737   3.219   4.451   0.736
 5946SOL    HW218738   3.226   4.331   0.626
 5947SOL     OW18739   3.811   3.208   4.849
 5947SOL    HW118740   3.907   3.187   4.868
 5947SOL    HW218741   3.771   3.134   4.795
 5948SOL     OW18742   4.666   3.781   1.749
 5948SOL    HW118743   4.666   3.746   1.655
 5948SOL    HW218744   4.673   3.880   1.748
 5949SOL     OW18745   6.695   4.336   2.118
 5949SOL    HW118746   6.610   4.309   2.072
 5949SOL    HW218747   6.698   4.295   2.209
 5950SOL     OW18748   4.406   0.527   5.261
 5950SOL    HW118749   4.462   0.461   5.211
 5950SOL    HW218750   4.380   0.602   5.199
 5951SOL     OW18751   0.706   3.856   6.443
 5951SOL    HW118752   0.611   3.825   6.447
 5951SOL    HW218753   0.759   3.792   6.388
 5952SOL     OW18754   3.865   4.894   0.801
 5952SOL    HW118755   3.857   4.990   0.773
 5952SOL    HW218756   3.919   4.889   0.885
 5953SOL     OW18757   6.433   2.840   4.919
 5953SOL    HW118758   6.522   2.885   4.913
 5953SOL    HW218759   6.438   2.750   4.877
 5954SOL     OW18760   1.729   5.841   4.031
 5954SOL    HW118761   1.807   5.800   4.079
 5954SOL    HW218762   1.728   5.808   3.936
 5955SOL     OW18763   5.849   3.689   0.574
 5955SOL    HW118764   5.855   3.686   0.674
 5955SOL    HW218765   5.914   3.756   0.539
 5956SOL     OW18766   5.133   2.649   5.006
 5956SOL    HW118767   5.081   2.710   5.067
 5956SOL    HW218768   5.070   2.600   4.946
 5957SOL     OW18769   0.666   1.679   2.869
 5957SOL    HW118770   0.688   1.625   2.788
 5957SOL    HW218771   0.738   1.666   2.938
 5958SOL     OW18772   3.655   6.743   2.579
 5958SOL    HW118773   3.719   6.668   2.592
 5958SOL    HW218774   3.703   6.823   2.543
 5959SOL     OW18775   5.281   2.341   4.428
 5959SOL    HW118776   5.324   2.422   4.470
 5959SOL    HW218777   5.346   2.297   4.366
 5960SOL     OW18778   4.394   0.393   6.127
 5960SOL    HW118779   4.430   0.486   6.129
 5960SOL    HW218780   4.309   0.391   6.073
 5961SOL     OW18781   2.616   2.123   3.183
 5961SOL    HW118782   2.660   2.210   3.207
 5961SOL    HW218783   2.660   2.049   3.234
 5962SOL     OW18784   4.767   6.612   0.721
 5962SOL    HW118785   4.702   6.625   0.646
 5962SOL    HW218786   4.801   6.700   0.752
 5963SOL     OW18787   3.264   4.287   6.459
 5963SOL    HW118788   3.357   4.257   6.439
 5963SOL    HW218789   3.228   4.235   6.536
 5964SOL     OW18790   2.336   6.836   2.907
 5964SOL    HW118791   2.274   6.914   2.911
 5964SOL    HW218792   2.322   6.787   2.820
 5965SOL     OW18793   2.171   0.448   0.185
 5965SOL    HW118794   2.143   0.417   0.094
 5965SOL    HW218795   2.106   0.416   0.254
 5966SOL     OW18796   2.819   1.063   4.853
 5966SOL    HW118797   2.898   1.112   4.815
 5966SOL    HW218798   2.782   1.001   4.784
 5967SOL     OW18799   3.299   1.699   4.127
 5967SOL    HW118800   3.324   1.752   4.046
 5967SOL    HW218801   3.292   1.761   4.206
 5968SOL     OW18802   5.409   2.531   1.222
 5968SOL    HW118803   5.440   2.445   1.263
 5968SOL    HW218804   5.483   2.598   1.225
 5969SOL     OW18805   4.940   1.052   6.971
 5969SOL    HW118806   4.858   1.100   6.939
 5969SOL    HW218807   4.929   0.954   6.953
 5970SOL     OW18808   0.317   3.525   0.811
 5970SOL    HW118809   0.256   3.460   0.855
 5970SOL    HW218810   0.315   3.612   0.861
 5971SOL     OW18811   0.653   6.732   4.010
 5971SOL    HW118812   0.699   6.820   4.025
 5971SOL    HW218813   0.719   6.665   3.977
 5972SOL     OW18814   4.576   5.258   0.858
 5972SOL    HW118815   4.663   5.211   0.842
 5972SOL    HW218816   4.592   5.356   0.868
 5973SOL     OW18817   2.175   2.433   2.699
 5973SOL    HW118818   2.169   2.452   2.601
 5973SOL    HW218819   2.249   2.369   2.716
 5974SOL     OW18820   5.279   2.068   5.755
 5974SOL    HW118821   5.287   2.004   5.679
 5974SOL    HW218822   5.262   2.018   5.840
 5975SOL     OW18823   4.655   4.921   0.574
 5975SOL    HW118824   4.573   4.941   0.519
 5975SOL    HW218825   4.629   4.911   0.670
 5976SOL     OW18826   2.494   3.617   5.681
 5976SOL    HW118827   2.474   3.536   5.737
 5976SOL    HW218828   2.541   3.685   5.737
 5977SOL     OW18829   6.527   4.290   0.600
 5977SOL    HW118830   6.610   4.340   0.622
 5977SOL    HW218831   6.523   4.272   0.502
 5978SOL     OW18832   3.113   4.518   0.884
 5978SOL    HW118833   3.187   4.525   0.951
 5978SOL    HW218834   3.025   4.523   0.932
 5979SOL     OW18835   5.721   0.692   1.588
 5979SOL    HW118836   5.715   0.694   1.688
 5979SOL    HW218837   5.643   0.742   1.549
 5980SOL     OW18838   3.174   3.064   1.259
 5980SOL    HW118839   3.114   3.139   1.230
 5980SOL    HW218840   3.156   3.043   1.355
 5981SOL     OW18841   2.508   2.588   0.579
 5981SOL    HW118842   2.582   2.589   0.511
 5981SOL    HW218843   2.529   2.521   0.650
 5982SOL     OW18844   5.843   2.803   0.967
 5982SOL    HW118845   5.884   2.894   0.967
 5982SOL    HW218846   5.876   2.751   1.046
 5983SOL     OW18847   6.962   0.603   3.487
 5983SOL    HW118848   6.971   0.670   3.413
 5983SOL    HW218849   6.879   0.621   3.539
 5984SOL     OW18850   6.572   6.740   3.444
 5984SOL    HW118851   6.560   6.809   3.372
 5984SOL    HW218852   6.629   6.778   3.517
 5985SOL     OW18853   5.607   2.992   2.767
 5985SOL    HW118854   5.624   2.897   2.793
 5985SOL    HW218855   5.517   2.998   2.722
 5986SOL     OW18856   4.116   3.786   5.043
 5986SOL    HW118857   4.189   3.739   4.992
 5986SOL    HW218858   4.068   3.848   4.981
 5987SOL     OW18859   0.024   0.250   5.546
 5987SOL    HW118860   0.034   0.346   5.570
 5987SOL    HW218861   6.980   0.207   5.605
 5988SOL     OW18862   1.126   2.307   6.173
 5988SOL    HW118863   1.207   2.294   6.231
 5988SOL    HW218864   1.061   2.232   6.189
 5989SOL     OW18865   0.443   5.851   6.588
 5989SOL    HW118866   0.386   5.790   6.533
 5989SOL    HW218867   0.506   5.797   6.644
 5990SOL     OW18868   3.628   4.976   1.774
 5990SOL    HW118869   3.608   4.924   1.857
 5990SOL    HW218870   3.551   5.036   1.753
 5991SOL     OW18871   5.040   0.060   0.944
 5991SOL    HW118872   4.990   0.039   1.028
 5991SOL    HW218873   4.988   0.125   0.889
 5992SOL     OW18874   3.831   6.591   1.942
 5992SOL    HW118875   3.810   6.543   2.027
 5992SOL    HW218876   3.810   6.688   1.952
 5993SOL     OW18877   6.273   1.798   0.145
 5993SOL    HW118878   6.305   1.855   0.221
 5993SOL    HW218879   6.338   1.805   0.069
 5994SOL     OW18880   0.782   3.578   0.723
 5994SOL    HW118881   0.874   3.617   0.724
 5994SOL    HW218882   0.714   3.651   0.730
 5995SOL     OW18883   4.477   3.935   1.505
 5995SOL    HW118884   4.547   3.972   1.566
 5995SOL    HW218885   4.392   3.921   1.556
 5996SOL     OW18886   3.065   5.296   0.841
 5996SOL    HW118887   3.045   5.350   0.923
 5996SOL    HW218888   3.031   5.202   0.855
 5997SOL     OW18889   6.795   6.987   3.807
 5997SOL    HW118890   6.815   6.976   3.710
 5997SOL    HW218891   6.728   6.919   3.836
 5998SOL     OW18892   6.144   6.870   1.439
 5998SOL    HW118893   6.173   6.836   1.350
 5998SOL    HW218894   6.065   6.931   1.427
 5999SOL     OW18895   5.016   2.767   0.938
 5999SOL    HW118896   4.918   2.752   0.952
 5999SOL    HW218897   5.068   2.708   0.999
 6000SOL     OW18898   0.194   3.823   1.487
 6000SOL    HW118899   0.123   3.880   1.444
 6000SOL    HW218900   0.215   3.860   1.578
 6001SOL     OW18901   6.527   5.029   5.528
 6001SOL    HW118902   6.508   5.110   5.584
 6001SOL    HW218903   6.475   5.034   5.443
 6002SOL     OW18904   6.086   5.556   4.180
 6002SOL    HW118905   6.171   5.608   4.181
 6002SOL    HW218906   6.106   5.460   4.161
 6003SOL     OW18907   0.545   2.954   4.553
 6003SOL    HW118908   0.579   2.960   4.460
 6003SOL    HW218909   0.595   2.882   4.602
 6004SOL     OW18910   5.302   2.604   4.255
 6004SOL    HW118911   5.230   2.537   4.268
 6004SOL    HW218912   5.362   2.605   4.335
 6005SOL     OW18913   3.801   5.175   6.292
 6005SOL    HW118914   3.820   5.111   6.367
 6005SOL    HW218915   3.715   5.222   6.309
 6006SOL     OW18916   3.539   6.219   5.881
 6006SOL    HW118917   3.594   6.156   5.936
 6006SOL    HW218918   3.442   6.196   5.892
 6007SOL     OW18919   2.123   5.798   6.455
 6007SOL    HW118920   2.140   5.752   6.367
 6007SOL    HW218921   2.197   5.775   6.518
 6008SOL     OW18922   3.355   3.985   6.158
 6008SOL    HW118923   3.359   3.917   6.085
 6008SOL    HW218924   3.387   4.073   6.123
 6009SOL     OW18925   3.336   4.877   3.148
 6009SOL    HW118926   3.260   4.906   3.207
 6009SOL    HW218927   3.307   4.800   3.091
 6010SOL     OW18928   0.808   5.550   4.963
 6010SOL    HW118929   0.842   5.560   5.057
 6010SOL    HW218930   0.765   5.635   4.934
 6011SOL     OW18931   5.978   1.835   1.535
 6011SOL    HW118932   6.019   1.782   1.609
 6011SOL    HW218933   5.887   1.798   1.513
 6012SOL     OW18934   6.850   0.299   6.291
 6012SOL    HW118935   6.841   0.288   6.390
 6012SOL    HW218936   6.788   0.236   6.244
 6013SOL     OW18937   5.921   1.596   2.407
 6013SOL    HW118938   5.972   1.661   2.463
 6013SOL    HW218939   5.899   1.515   2.461
 6014SOL     OW18940   3.930   3.101   4.190
 6014SOL    HW118941   3.913   3.061   4.280
 6014SOL    HW218942   3.848   3.146   4.157
 6015SOL     OW18943   5.773   1.384   4.451
 6015SOL    HW118944   5.782   1.466   4.395
 6015SOL    HW218945   5.864   1.348   4.473
 6016SOL     OW18946   5.406   1.105   4.535
 6016SOL    HW118947   5.493   1.144   4.567
 6016SOL    HW218948   5.330   1.153   4.578
 6017SOL     OW18949   6.849   2.049   5.257
 6017SOL    HW118950   6.826   2.085   5.347
 6017SOL    HW218951   6.944   2.071   5.236
 6018SOL     OW18952   3.241   1.050   5.414
 6018SOL    HW118953   3.155   1.091   5.444
 6018SOL    HW218954   3.223   0.993   5.334
 6019SOL     OW18955   6.947   3.346   6.899
 6019SOL    HW118956   6.998   3.410   6.842
 6019SOL    HW218957   7.000   3.261   6.909
 6020SOL     OW18958   0.653   4.597   6.865
 6020SOL    HW118959   0.602   4.612   6.950
 6020SOL    HW218960   0.655   4.681   6.812
 6021SOL     OW18961   4.764   0.196   3.291
 6021SOL    HW118962   4.741   0.209   3.194
 6021SOL    HW218963   4.860   0.170   3.300
 6022SOL     OW18964   5.831   1.619   1.645
 6022SOL    HW118965   5.864   1.629   1.739
 6022SOL    HW218966   5.809   1.523   1.628
 6023SOL     OW18967   4.189   0.731   2.019
 6023SOL    HW118968   4.205   0.633   2.008
 6023SOL    HW218969   4.239   0.764   2.099
 6024SOL     OW18970   0.868   5.637   0.237
 6024SOL    HW118971   0.864   5.600   0.329
 6024SOL    HW218972   0.931   5.715   0.235
 6025SOL     OW18973   3.168   0.898   4.491
 6025SOL    HW118974   3.097   0.966   4.472
 6025SOL    HW218975   3.125   0.813   4.520
 6026SOL     OW18976   6.609   4.290   4.542
 6026SOL    HW118977   6.706   4.264   4.545
 6026SOL    HW218978   6.553   4.209   4.524
 6027SOL     OW18979   5.688   4.124   6.753
 6027SOL    HW118980   5.651   4.155   6.665
 6027SOL    HW218981   5.651   4.034   6.774
 6028SOL     OW18982   5.611   5.098   6.558
 6028SOL    HW118983   5.710   5.093   6.557
 6028SOL    HW218984   5.578   5.088   6.653
 6029SOL     OW18985   2.343   0.768   3.051
 6029SOL    HW118986   2.421   0.710   3.028
 6029SOL    HW218987   2.263   0.711   3.067
 6030SOL     OW18988   5.420   3.659   4.384
 6030SOL    HW118989   5.466   3.598   4.320
 6030SOL    HW218990   5.327   3.677   4.351
 6031SOL     OW18991   1.037   6.099   5.050
 6031SOL    HW118992   0.980   6.181   5.056
 6031SOL    HW218993   1.116   6.117   4.992
 6032SOL     OW18994   3.493   6.261   3.538
 6032SOL    HW118995   3.474   6.220   3.449
 6032SOL    HW218996   3.513   6.190   3.605
 6033SOL     OW18997   1.972   1.734   2.358
 6033SOL    HW118998   2.026   1.651   2.347
 6033SOL    HW218999   1.940   1.741   2.452
 6034SOL     OW19000   0.454   0.826   0.265
 6034SOL    HW119001   0.400   0.746   0.291
 6034SOL    HW219002   0.413   0.868   0.184
 6035SOL     OW19003   2.020   0.587   2.626
 6035SOL    HW119004   2.107   0.632   2.609
 6035SOL    HW219005   1.970   0.636   2.697
 6036SOL     OW19006   6.433   2.231   0.901
 6036SOL    HW119007   6.371   2.153   0.888
 6036SOL    HW219008   6.475   2.225   0.992
 6037SOL     OW19009   5.148   2.250   0.369
 6037SOL    HW119010   5.055   2.261   0.335
 6037SOL    HW219011   5.209   2.313   0.321
 6038SOL     OW19012   0.280   1.753   6.040
 6038SOL    HW119013   0.222   1.688   6.089
 6038SOL    HW219014   0.238   1.775   5.952
 6039SOL     OW19015   3.684   3.665   3.421
 6039SOL    HW119016   3.585   3.654   3.434
 6039SOL    HW219017   3.731   3.649   3.508
 6040SOL     OW19018   0.396   1.727   0.436
 6040SOL    HW119019   0.378   1.749   0.340
 6040SOL    HW219020   0.481   1.674   0.442
 6041SOL     OW19021   2.254   3.345   5.724
 6041SOL    HW119022   2.247   3.246   5.738
 6041SOL    HW219023   2.303   3.385   5.802
 6042SOL     OW19024   3.824   6.204   3.077
 6042SOL    HW119025   3.887   6.273   3.113
 6042SOL    HW219026   3.730   6.229   3.099
 6043SOL     OW19027   2.541   0.387   3.633
 6043SOL    HW119028   2.565   0.291   3.620
 6043SOL    HW219029   2.569   0.440   3.553
 6044SOL     OW19030   0.727   2.853   1.362
 6044SOL    HW119031   0.655   2.821   1.423
 6044SOL    HW219032   0.731   2.953   1.364
 6045SOL     OW19033   4.986   2.074   3.627
 6045SOL    HW119034   4.985   2.141   3.553
 6045SOL    HW219035   4.906   2.014   3.619
 6046SOL     OW19036   3.173   3.056   2.619
 6046SOL    HW119037   3.184   3.006   2.534
 6046SOL    HW219038   3.201   3.151   2.606
 6047SOL     OW19039   6.109   1.209   0.782
 6047SOL    HW119040   6.153   1.157   0.709
 6047SOL    HW219041   6.081   1.148   0.856
 6048SOL     OW19042   6.068   5.778   4.390
 6048SOL    HW119043   6.051   5.691   4.344
 6048SOL    HW219044   6.090   5.761   4.486
 6049SOL     OW19045   4.369   4.885   5.477
 6049SOL    HW119046   4.352   4.868   5.575
 6049SOL    HW219047   4.452   4.939   5.467
 6050SOL     OW19048   3.930   6.639   1.667
 6050SOL    HW119049   4.014   6.693   1.673
 6050SOL    HW219050   3.871   6.659   1.745
 6051SOL     OW19051   1.119   1.089   3.475
 6051SOL    HW119052   1.118   1.106   3.376
 6051SOL    HW219053   1.210   1.109   3.511
 6052SOL     OW19054   5.519   6.725   0.337
 6052SOL    HW119055   5.470   6.717   0.250
 6052SOL    HW219056   5.478   6.664   0.405
 6053SOL     OW19057   4.113   2.870   6.113
 6053SOL    HW119058   4.051   2.830   6.046
 6053SOL    HW219059   4.074   2.863   6.204
 6054SOL     OW19060   3.808   4.179   1.014
 6054SOL    HW119061   3.778   4.145   0.924
 6054SOL    HW219062   3.753   4.136   1.086
 6055SOL     OW19063   3.371   4.669   0.469
 6055SOL    HW119064   3.315   4.752   0.461
 6055SOL    HW219065   3.311   4.589   0.472
 6056SOL     OW19066   5.328   5.794   5.223
 6056SOL    HW119067   5.367   5.876   5.266
 6056SOL    HW219068   5.239   5.775   5.264
 6057SOL     OW19069   4.892   0.351   4.288
 6057SOL    HW119070   4.960   0.397   4.230
 6057SOL    HW219071   4.901   0.384   4.382
 6058SOL     OW19072   5.370   2.023   6.356
 6058SOL    HW119073   5.341   1.927   6.363
 6058SOL    HW219074   5.458   2.028   6.310
 6059SOL     OW19075   4.208   3.467   6.739
 6059SOL    HW119076   4.161   3.394   6.790
 6059SOL    HW219077   4.157   3.552   6.747
 6060SOL     OW19078   2.533   3.190   6.427
 6060SOL    HW119079   2.620   3.241   6.427
 6060SOL    HW219080   2.464   3.244   6.475
 6061SOL     OW19081   3.573   4.980   6.888
 6061SOL    HW119082   3.637   5.009   6.960
 6061SOL    HW219083   3.622   4.925   6.821
 6062SOL     OW19084   1.925   2.179   7.004
 6062SOL    HW119085   1.972   2.091   7.009
 6062SOL    HW219086   1.850   2.181   0.047
 6063SOL     OW19087   4.299   4.347   6.236
 6063SOL    HW119088   4.330   4.435   6.274
 6063SOL    HW219089   4.282   4.358   6.138
 6064SOL     OW19090   6.851   5.694   0.906
 6064SOL    HW119091   6.891   5.659   0.991
 6064SOL    HW219092   6.776   5.756   0.929
 6065SOL     OW19093   0.612   6.149   2.426
 6065SOL    HW119094   0.524   6.139   2.471
 6065SOL    HW219095   0.609   6.227   2.363
 6066SOL     OW19096   5.673   6.412   3.484
 6066SOL    HW119097   5.617   6.461   3.550
 6066SOL    HW219098   5.725   6.477   3.429
 6067SOL     OW19099   5.689   0.442   6.441
 6067SOL    HW119100   5.772   0.387   6.449
 6067SOL    HW219101   5.612   0.384   6.415
 6068SOL     OW19102   4.608   1.864   5.197
 6068SOL    HW119103   4.589   1.770   5.226
 6068SOL    HW219104   4.525   1.904   5.158
 6069SOL     OW19105   0.115   3.616   6.539
 6069SOL    HW119106   0.149   3.525   6.563
 6069SOL    HW219107   0.107   3.671   6.621
 6070SOL     OW19108   2.754   1.783   0.901
 6070SOL    HW119109   2.660   1.790   0.933
 6070SOL    HW219110   2.783   1.687   0.905
 6071SOL     OW19111   6.209   0.081   5.163
 6071SOL    HW119112   6.225   0.040   5.073
 6071SOL    HW219113   6.126   0.138   5.160
 6072SOL     OW19114   0.072   2.656   0.971
 6072SOL    HW119115   0.089   2.734   0.911
 6072SOL    HW219116   0.036   2.580   0.916
 6073SOL     OW19117   4.707   2.568   0.268
 6073SOL    HW119118   4.769   2.590   0.343
 6073SOL    HW219119   4.612   2.571   0.299
 6074SOL     OW19120   0.322   6.418   2.696
 6074SOL    HW119121   0.414   6.380   2.695
 6074SOL    HW219122   0.279   6.404   2.607
 6075SOL     OW19123   5.067   6.974   6.784
 6075SOL    HW119124   5.086   7.004   6.877
 6075SOL    HW219125   5.064   0.031   6.723
 6076SOL     OW19126   1.313   4.935   3.530
 6076SOL    HW119127   1.357   4.852   3.496
 6076SOL    HW219128   1.254   4.973   3.458
 6077SOL     OW19129   5.543   6.566   1.776
 6077SOL    HW119130   5.636   6.573   1.741
 6077SOL    HW219131   5.545   6.564   1.876
 6078SOL     OW19132   4.189   3.412   0.572
 6078SOL    HW119133   4.136   3.332   0.604
 6078SOL    HW219134   4.201   3.475   0.648
 6079SOL     OW19135   3.183   3.823   6.507
 6079SOL    HW119136   3.189   3.916   6.543
 6079SOL    HW219137   3.173   3.827   6.407
 6080SOL     OW19138   6.946   4.304   6.822
 6080SOL    HW119139   7.012   4.325   6.749
 6080SOL    HW219140   6.992   4.253   6.895
 6081SOL     OW19141   1.717   3.278   4.310
 6081SOL    HW119142   1.761   3.362   4.280
 6081SOL    HW219143   1.738   3.204   4.245
 6082SOL     OW19144   4.517   1.004   1.046
 6082SOL    HW119145   4.454   1.075   1.015
 6082SOL    HW219146   4.510   0.995   1.145
 6083SOL     OW19147   4.889   0.186   6.567
 6083SOL    HW119148   4.808   0.214   6.618
 6083SOL    HW219149   4.971   0.218   6.615
 6084SOL     OW19150   6.984   6.519   2.892
 6084SOL    HW119151   6.910   6.507   2.825
 6084SOL    HW219152   6.945   6.545   2.980
 6085SOL     OW19153   0.393   6.005   0.828
 6085SOL    HW119154   0.309   6.010   0.881
 6085SOL    HW219155   0.444   6.090   0.839
 6086SOL     OW19156   3.565   3.920   6.339
 6086SOL    HW119157   3.544   3.827   6.311
 6086SOL    HW219158   3.497   3.983   6.301
 6087SOL     OW19159   5.082   6.666   0.838
 6087SOL    HW119160   4.985   6.690   0.848
 6087SOL    HW219161   5.131   6.743   0.796
 6088SOL     OW19162   5.333   6.768   3.548
 6088SOL    HW119163   5.313   6.684   3.598
 6088SOL    HW219164   5.339   6.748   3.450
 6089SOL     OW19165   6.180   3.691   3.264
 6089SOL    HW119166   6.086   3.711   3.236
 6089SOL    HW219167   6.243   3.720   3.191
 6090SOL     OW19168   4.171   6.182   4.132
 6090SOL    HW119169   4.089   6.183   4.074
 6090SOL    HW219170   4.246   6.136   4.084
 6091SOL     OW19171   1.943   1.274   1.828
 6091SOL    HW119172   1.926   1.190   1.778
 6091SOL    HW219173   1.958   1.349   1.763
 6092SOL     OW19174   4.125   6.146   1.261
 6092SOL    HW119175   4.034   6.149   1.302
 6092SOL    HW219176   4.117   6.143   1.161
 6093SOL     OW19177   2.122   2.000   2.137
 6093SOL    HW119178   2.119   1.915   2.085
 6093SOL    HW219179   2.190   1.994   2.209
 6094SOL     OW19180   0.673   6.090   4.879
 6094SOL    HW119181   0.747   6.049   4.934
 6094SOL    HW219182   0.610   6.138   4.939
 6095SOL     OW19183   4.346   5.548   0.910
 6095SOL    HW119184   4.307   5.639   0.922
 6095SOL    HW219185   4.309   5.506   0.827
 6096SOL     OW19186   5.796   6.691   3.096
 6096SOL    HW119187   5.700   6.672   3.118
 6096SOL    HW219188   5.824   6.637   3.017
 6097SOL     OW19189   2.015   5.827   2.322
 6097SOL    HW119190   2.095   5.837   2.381
 6097SOL    HW219191   1.958   5.751   2.354
 6098SOL     OW19192   6.556   0.768   4.881
 6098SOL    HW119193   6.647   0.738   4.853
 6098SOL    HW219194   6.520   0.833   4.814
 6099SOL     OW19195   4.278   0.699   5.931
 6099SOL    HW119196   4.336   0.773   5.896
 6099SOL    HW219197   4.282   0.621   5.868
 6100SOL     OW19198   0.310   6.029   4.877
 6100SOL    HW119199   0.361   5.952   4.839
 6100SOL    HW219200   0.278   6.088   4.803
 6101SOL     OW19201   6.226   2.797   1.330
 6101SOL    HW119202   6.313   2.831   1.294
 6101SOL    HW219203   6.206   2.708   1.290
 6102SOL     OW19204   4.556   0.186   2.802
 6102SOL    HW119205   4.643   0.163   2.758
 6102SOL    HW219206   4.571   0.261   2.867
 6103SOL     OW19207   6.967   1.695   1.652
 6103SOL    HW119208   6.932   1.602   1.650
 6103SOL    HW219209   6.947   1.736   1.741
 6104SOL     OW19210   6.737   0.837   4.357
 6104SOL    HW119211   6.832   0.864   4.371
 6104SOL    HW219212   6.684   0.915   4.325
 6105SOL     OW19213   3.083   4.815   5.193
 6105SOL    HW119214   3.031   4.743   5.147
 6105SOL    HW219215   3.035   4.902   5.184
 6106SOL     OW19216   6.187   5.300   6.622
 6106SOL    HW119217   6.223   5.238   6.552
 6106SOL    HW219218   6.090   5.318   6.603
 6107SOL     OW19219   5.363   4.742   5.837
 6107SOL    HW119220   5.353   4.842   5.841
 6107SOL    HW219221   5.370   4.714   5.741
 6108SOL     OW19222   2.243   1.411   1.000
 6108SOL    HW119223   2.265   1.506   0.976
 6108SOL    HW219224   2.280   1.390   1.090
 6109SOL     OW19225   6.300   0.188   3.106
 6109SOL    HW119226   6.258   0.276   3.087
 6109SOL    HW219227   6.228   0.120   3.121
 6110SOL     OW19228   1.714   1.660   5.051
 6110SOL    HW119229   1.743   1.738   4.996
 6110SOL    HW219230   1.758   1.664   5.141
 6111SOL     OW19231   1.527   4.516   1.230
 6111SOL    HW119232   1.578   4.449   1.177
 6111SOL    HW219233   1.582   4.598   1.242
 6112SOL     OW19234   4.753   0.165   2.557
 6112SOL    HW119235   4.729   0.260   2.572
 6112SOL    HW219236   4.842   0.159   2.511
 6113SOL     OW19237   2.318   5.451   6.938
 6113SOL    HW119238   2.412   5.482   6.929
 6113SOL    HW219239   2.312   5.383   7.012
 6114SOL     OW19240   5.010   1.558   0.777
 6114SOL    HW119241   5.058   1.624   0.720
 6114SOL    HW219242   4.941   1.606   0.832
 6115SOL     OW19243   1.054   0.379   5.301
 6115SOL    HW119244   0.979   0.434   5.262
 6115SOL    HW219245   1.101   0.431   5.372
 6116SOL     OW19246   4.983   2.057   5.613
 6116SOL    HW119247   4.893   2.015   5.616
 6116SOL    HW219248   5.013   2.078   5.706
 6117SOL     OW19249   1.900   2.191   1.295
 6117SOL    HW119250   1.831   2.124   1.323
 6117SOL    HW219251   1.872   2.234   1.209
 6118SOL     OW19252   6.187   0.311   0.129
 6118SOL    HW119253   6.136   0.236   0.170
 6118SOL    HW219254   6.148   0.398   0.159
 6119SOL     OW19255   6.695   1.697   0.733
 6119SOL    HW119256   6.685   1.598   0.717
 6119SOL    HW219257   6.761   1.712   0.806
 6120SOL     OW19258   2.199   0.957   5.401
 6120SOL    HW119259   2.214   1.056   5.402
 6120SOL    HW219260   2.115   0.936   5.351
 6121SOL     OW19261   0.451   2.974   5.149
 6121SOL    HW119262   0.486   3.018   5.066
 6121SOL    HW219263   0.378   2.909   5.124
 6122SOL     OW19264   5.311   5.611   5.774
 6122SOL    HW119265   5.251   5.598   5.853
 6122SOL    HW219266   5.376   5.684   5.794
 6123SOL     OW19267   5.576   1.795   5.123
 6123SOL    HW119268   5.482   1.828   5.137
 6123SOL    HW219269   5.625   1.860   5.065
 6124SOL     OW19270   2.364   6.941   4.160
 6124SOL    HW119271   2.320   6.965   4.074
 6124SOL    HW219272   2.405   7.023   4.200
 6125SOL     OW19273   1.908   2.016   6.633
 6125SOL    HW119274   1.881   2.096   6.686
 6125SOL    HW219275   1.933   2.044   6.540
 6126SOL     OW19276   6.274   2.803   5.499
 6126SOL    HW119277   6.365   2.802   5.540
 6126SOL    HW219278   6.262   2.887   5.447
 6127SOL     OW19279   3.980   2.130   1.921
 6127SOL    HW119280   3.964   2.054   1.858
 6127SOL    HW219281   3.917   2.122   1.999
 6128SOL     OW19282   6.048   6.113   0.221
 6128SOL    HW119283   6.065   6.027   0.174
 6128SOL    HW219284   6.126   6.135   0.279
 6129SOL     OW19285   1.528   5.534   2.592
 6129SOL    HW119286   1.579   5.448   2.602
 6129SOL    HW219287   1.589   5.605   2.558
 6130SOL     OW19288   5.258   2.195   1.081
 6130SOL    HW119289   5.348   2.218   1.045
 6130SOL    HW219290   5.192   2.266   1.054
 6131SOL     OW19291   6.982   1.802   2.631
 6131SOL    HW119292   7.014   1.763   2.718
 6131SOL    HW219293   7.021   1.893   2.620
 6132SOL     OW19294   3.415   1.082   6.524
 6132SOL    HW119295   3.424   0.985   6.545
 6132SOL    HW219296   3.318   1.107   6.525
 6133SOL     OW19297   1.838   1.376   4.010
 6133SOL    HW119298   1.739   1.373   4.023
 6133SOL    HW219299   1.882   1.309   4.069
 6134SOL     OW19300   5.358   6.957   6.407
 6134SOL    HW119301   5.383   6.887   6.341
 6134SOL    HW219302   5.262   6.947   6.433
 6135SOL     OW19303   6.578   0.106   6.489
 6135SOL    HW119304   6.543   0.062   6.406
 6135SOL    HW219305   6.626   0.039   6.545
 6136SOL     OW19306   1.415   3.053   2.431
 6136SOL    HW119307   1.362   2.970   2.446
 6136SOL    HW219308   1.355   3.126   2.399
 6137SOL     OW19309   6.793   4.256   2.435
 6137SOL    HW119310   6.877   4.230   2.387
 6137SOL    HW219311   6.727   4.181   2.430
 6138SOL     OW19312   3.695   0.142   1.984
 6138SOL    HW119313   3.631   0.072   2.017
 6138SOL    HW219314   3.659   0.233   2.007
 6139SOL     OW19315   1.782   0.477   5.674
 6139SOL    HW119316   1.684   0.492   5.682
 6139SOL    HW219317   1.830   0.522   5.749
 6140SOL     OW19318   1.767   6.748   3.363
 6140SOL    HW119319   1.728   6.839   3.379
 6140SOL    HW219320   1.842   6.755   3.297
 6141SOL     OW19321   0.758   0.486   5.921
 6141SOL    HW119322   0.776   0.580   5.892
 6141SOL    HW219323   0.703   0.486   6.005
 6142SOL     OW19324   0.548   0.256   1.047
 6142SOL    HW119325   0.633   0.237   1.096
 6142SOL    HW219326   0.540   0.193   0.970
 6143SOL     OW19327   6.421   4.147   5.798
 6143SOL    HW119328   6.506   4.112   5.838
 6143SOL    HW219329   6.436   4.241   5.767
 6144SOL     OW19330   3.912   4.896   2.770
 6144SOL    HW119331   3.881   4.893   2.675
 6144SOL    HW219332   3.936   4.990   2.794
 6145SOL     OW19333   4.846   3.113   4.704
 6145SOL    HW119334   4.869   3.177   4.631
 6145SOL    HW219335   4.904   3.031   4.695
 6146SOL     OW19336   5.544   0.231   5.040
 6146SOL    HW119337   5.519   0.276   4.954
 6146SOL    HW219338   5.478   0.159   5.061
 6147SOL     OW19339   1.666   2.149   3.662
 6147SOL    HW119340   1.734   2.188   3.601
 6147SOL    HW219341   1.649   2.211   3.738
 6148SOL     OW19342   3.275   6.056   0.568
 6148SOL    HW119343   3.269   5.963   0.602
 6148SOL    HW219344   3.349   6.063   0.501
 6149SOL     OW19345   2.970   6.927   2.087
 6149SOL    HW119346   3.037   7.000   2.102
 6149SOL    HW219347   2.982   6.857   2.157
 6150SOL     OW19348   6.232   4.160   6.547
 6150SOL    HW119349   6.218   4.231   6.616
 6150SOL    HW219350   6.296   4.192   6.478
 6151SOL     OW19351   4.648   4.633   4.376
 6151SOL    HW119352   4.611   4.627   4.283
 6151SOL    HW219353   4.666   4.541   4.411
 6152SOL     OW19354   0.771   4.612   4.116
 6152SOL    HW119355   0.744   4.653   4.203
 6152SOL    HW219356   0.860   4.647   4.089
 6153SOL     OW19357   5.175   5.210   1.032
 6153SOL    HW119358   5.112   5.214   1.109
 6153SOL    HW219359   5.124   5.188   0.949
 6154SOL     OW19360   6.190   3.356   1.983
 6154SOL    HW119361   6.188   3.448   1.944
 6154SOL    HW219362   6.096   3.323   1.996
 6155SOL     OW19363   2.142   1.371   3.039
 6155SOL    HW119364   2.209   1.443   3.054
 6155SOL    HW219365   2.058   1.412   3.002
 6156SOL     OW19366   4.968   5.075   1.502
 6156SOL    HW119367   4.946   4.985   1.539
 6156SOL    HW219368   5.022   5.126   1.569
 6157SOL     OW19369   1.348   2.034   2.440
 6157SOL    HW119370   1.352   2.013   2.538
 6157SOL    HW219371   1.269   2.093   2.422
 6158SOL     OW19372   2.961   2.813   5.683
 6158SOL    HW119373   2.939   2.806   5.586
 6158SOL    HW219374   3.036   2.879   5.696
 6159SOL     OW19375   5.538   3.096   6.891
 6159SOL    HW119376   5.555   3.010   6.843
 6159SOL    HW219377   5.595   3.101   6.973
 6160SOL     OW19378   0.695   0.086   6.900
 6160SOL    HW119379   0.610   0.112   6.945
 6160SOL    HW219380   0.772   0.101   6.963
 6161SOL     OW19381   4.580   2.576   6.436
 6161SOL    HW119382   4.653   2.643   6.450
 6161SOL    HW219383   4.559   2.532   6.524
 6162SOL     OW19384   6.221   5.612   2.572
 6162SOL    HW119385   6.239   5.609   2.671
 6162SOL    HW219386   6.129   5.650   2.557
 6163SOL     OW19387   5.568   5.831   3.073
 6163SOL    HW119388   5.575   5.883   3.158
 6163SOL    HW219389   5.644   5.768   3.065
 6164SOL     OW19390   3.629   4.040   4.875
 6164SOL    HW119391   3.544   4.040   4.926
 6164SOL    HW219392   3.706   4.053   4.937
 6165SOL     OW19393   3.848   1.863   0.362
 6165SOL    HW119394   3.759   1.907   0.357
 6165SOL    HW219395   3.836   1.765   0.379
 6166SOL     OW19396   0.558   2.205   0.157
 6166SOL    HW119397   0.564   2.303   0.179
 6166SOL    HW219398   0.499   2.192   0.078
 6167SOL     OW19399   1.192   3.583   3.558
 6167SOL    HW119400   1.290   3.565   3.564
 6167SOL    HW219401   1.175   3.681   3.567
 6168SOL     OW19402   0.682   3.509   4.397
 6168SOL    HW119403   0.730   3.432   4.439
 6168SOL    HW219404   0.606   3.537   4.456
 6169SOL     OW19405   2.550   6.900   0.139
 6169SOL    HW119406   2.618   6.851   0.083
 6169SOL    HW219407   2.584   6.907   0.233
 6170SOL     OW19408   3.770   4.056   6.809
 6170SOL    HW119409   3.810   3.985   6.752
 6170SOL    HW219410   3.817   4.060   6.897
 6171SOL     OW19411   1.851   4.554   2.511
 6171SOL    HW119412   1.896   4.495   2.444
 6171SOL    HW219413   1.814   4.498   2.585
 6172SOL     OW19414   1.144   6.357   2.901
 6172SOL    HW119415   1.159   6.276   2.959
 6172SOL    HW219416   1.062   6.343   2.846
 6173SOL     OW19417   1.358   5.269   2.708
 6173SOL    HW119418   1.329   5.318   2.790
 6173SOL    HW219419   1.456   5.278   2.696
 6174SOL     OW19420   5.152   5.317   2.944
 6174SOL    HW119421   5.150   5.335   3.042
 6174SOL    HW219422   5.204   5.233   2.926
 6175SOL     OW19423   4.629   0.682   3.544
 6175SOL    HW119424   4.598   0.696   3.638
 6175SOL    HW219425   4.726   0.657   3.545
 6176SOL     OW19426   6.072   3.419   5.982
 6176SOL    HW119427   6.117   3.440   5.894
 6176SOL    HW219428   6.139   3.379   6.044
 6177SOL     OW19429   5.302   2.106   0.708
 6177SOL    HW119430   5.333   2.141   0.619
 6177SOL    HW219431   5.366   2.134   0.779
 6178SOL     OW19432   5.533   3.528   0.926
 6178SOL    HW119433   5.615   3.478   0.954
 6178SOL    HW219434   5.500   3.494   0.838
 6179SOL     OW19435   0.035   2.391   5.645
 6179SOL    HW119436   6.962   2.420   5.648
 6179SOL    HW219437   0.092   2.460   5.689
 6180SOL     OW19438   4.053   6.788   1.076
 6180SOL    HW119439   3.982   6.738   1.026
 6180SOL    HW219440   4.040   6.886   1.063
 6181SOL     OW19441   5.014   6.474   6.799
 6181SOL    HW119442   4.932   6.443   6.845
 6181SOL    HW219443   5.082   6.401   6.798
 6182SOL     OW19444   4.872   6.244   6.392
 6182SOL    HW119445   4.797   6.310   6.398
 6182SOL    HW219446   4.864   6.177   6.465
 6183SOL     OW19447   2.893   6.850   3.659
 6183SOL    HW119448   2.948   6.772   3.690
 6183SOL    HW219449   2.887   6.848   3.559
 6184SOL     OW19450   0.683   0.380   6.374
 6184SOL    HW119451   0.775   0.343   6.365
 6184SOL    HW219452   0.616   0.306   6.365
 6185SOL     OW19453   0.048   3.325   6.327
 6185SOL    HW119454   0.108   3.387   6.377
 6185SOL    HW219455   7.015   3.377   6.263
 6186SOL     OW19456   5.357   0.515   4.435
 6186SOL    HW119457   5.310   0.543   4.352
 6186SOL    HW219458   5.454   0.538   4.428
 6187SOL     OW19459   4.501   4.577   4.151
 6187SOL    HW119460   4.541   4.546   4.065
 6187SOL    HW219461   4.425   4.517   4.177
 6188SOL     OW19462   2.572   6.616   1.293
 6188SOL    HW119463   2.615   6.589   1.206
 6188SOL    HW219464   2.642   6.652   1.354
 6189SOL     OW19465   5.676   4.996   3.407
 6189SOL    HW119466   5.666   5.063   3.334
 6189SOL    HW219467   5.672   5.043   3.496
 6190SOL     OW19468   5.255   2.651   6.669
 6190SOL    HW119469   5.339   2.687   6.629
 6190SOL    HW219470   5.272   2.559   6.705
 6191SOL     OW19471   5.733   1.753   0.027
 6191SOL    HW119472   5.779   1.795   6.972
 6191SOL    HW219473   5.778   1.781   0.112
 6192SOL     OW19474   2.531   2.836   6.827
 6192SOL    HW119475   2.556   2.915   6.772
 6192SOL    HW219476   2.592   2.830   6.907
 6193SOL     OW19477   5.436   0.297   1.811
 6193SOL    HW119478   5.339   0.282   1.829
 6193SOL    HW219479   5.459   0.392   1.829
 6194SOL     OW19480   3.004   0.741   0.906
 6194SOL    HW119481   2.982   0.791   0.990
 6194SOL    HW219482   2.930   0.754   0.840
 6195SOL     OW19483   3.334   6.863   6.606
 6195SOL    HW119484   3.407   6.798   6.582
 6195SOL    HW219485   3.281   6.884   6.524
 6196SOL     OW19486   0.888   1.999   6.084
 6196SOL    HW119487   0.921   1.905   6.071
 6196SOL    HW219488   0.789   1.998   6.099
 6197SOL     OW19489   2.303   3.900   0.737
 6197SOL    HW119490   2.314   3.974   0.670
 6197SOL    HW219491   2.264   3.820   0.693
 6198SOL     OW19492   3.786   4.871   2.502
 6198SOL    HW119493   3.730   4.880   2.419
 6198SOL    HW219494   3.729   4.840   2.578
 6199SOL     OW19495   1.732   6.711   0.300
 6199SOL    HW119496   1.692   6.671   0.382
 6199SOL    HW219497   1.680   6.683   0.219
 6200SOL     OW19498   3.998   1.029   6.494
 6200SOL    HW119499   3.986   0.947   6.549
 6200SOL    HW219500   4.086   1.071   6.516
 6201SOL     OW19501   1.997   3.988   5.432
 6201SOL    HW119502   1.963   4.078   5.459
 6201SOL    HW219503   2.004   3.982   5.333
 6202SOL     OW19504   2.973   2.262   0.944
 6202SOL    HW119505   3.054   2.296   0.896
 6202SOL    HW219506   2.955   2.168   0.916
 6203SOL     OW19507   5.014   1.205   4.448
 6203SOL    HW119508   5.046   1.188   4.542
 6203SOL    HW219509   4.915   1.210   4.447
 6204SOL     OW19510   2.433   6.092   5.326
 6204SOL    HW119511   2.334   6.087   5.330
 6204SOL    HW219512   2.461   6.168   5.267
 6205SOL     OW19513   5.201   5.869   7.015
 6205SOL    HW119514   5.267   5.917   6.957
 6205SOL    HW219515   5.248   5.803   0.049
 6206SOL     OW19516   5.901   0.279   2.916
 6206SOL    HW119517   5.924   0.333   2.996
 6206SOL    HW219518   5.851   0.335   2.851
 6207SOL     OW19519   1.414   4.064   4.797
 6207SOL    HW119520   1.381   4.158   4.806
 6207SOL    HW219521   1.506   4.065   4.759
 6208SOL     OW19522   5.975   6.864   6.062
 6208SOL    HW119523   6.049   6.909   6.112
 6208SOL    HW219524   5.888   6.906   6.087
 6209SOL     OW19525   4.294   6.582   0.282
 6209SOL    HW119526   4.346   6.531   0.350
 6209SOL    HW219527   4.239   6.652   0.327
 6210SOL     OW19528   5.745   4.238   3.519
 6210SOL    HW119529   5.671   4.277   3.573
 6210SOL    HW219530   5.770   4.302   3.446
 6211SOL     OW19531   2.989   0.113   4.834
 6211SOL    HW119532   3.027   0.187   4.890
 6211SOL    HW219533   2.895   0.135   4.810
 6212SOL     OW19534   6.366   6.415   3.902
 6212SOL    HW119535   6.310   6.485   3.946
 6212SOL    HW219536   6.389   6.344   3.969
 6213SOL     OW19537   6.450   0.710   6.408
 6213SOL    HW119538   6.448   0.637   6.341
 6213SOL    HW219539   6.396   0.788   6.374
 6214SOL     OW19540   6.512   4.733   2.542
 6214SOL    HW119541   6.556   4.819   2.568
 6214SOL    HW219542   6.440   4.712   2.608
 6215SOL     OW19543   2.859   2.993   1.043
 6215SOL    HW119544   2.911   2.908   1.050
 6215SOL    HW219545   2.789   2.983   0.972
 6216SOL     OW19546   5.296   1.926   1.907
 6216SOL    HW119547   5.391   1.894   1.899
 6216SOL    HW219548   5.290   1.994   1.980
 6217SOL     OW19549   4.731   2.214   0.924
 6217SOL    HW119550   4.676   2.177   0.999
 6217SOL    HW219551   4.810   2.155   0.908
 6218SOL     OW19552   2.523   4.973   4.338
 6218SOL    HW119553   2.498   4.879   4.359
 6218SOL    HW219554   2.581   5.009   4.411
 6219SOL     OW19555   1.063   2.394   4.968
 6219SOL    HW119556   1.127   2.448   5.023
 6219SOL    HW219557   0.980   2.375   5.021
 6220SOL     OW19558   2.338   4.789   5.046
 6220SOL    HW119559   2.350   4.692   5.026
 6220SOL    HW219560   2.380   4.811   5.134
 6221SOL     OW19561   3.964   4.927   4.375
 6221SOL    HW119562   3.902   4.983   4.430
 6221SOL    HW219563   3.983   4.972   4.288
 6222SOL     OW19564   6.507   0.094   1.940
 6222SOL    HW119565   6.511   0.083   2.039
 6222SOL    HW219566   6.516   0.004   1.896
 6223SOL     OW19567   5.754   2.969   4.594
 6223SOL    HW119568   5.682   2.937   4.532
 6223SOL    HW219569   5.771   2.901   4.665
 6224SOL     OW19570   2.562   1.620   5.653
 6224SOL    HW119571   2.561   1.709   5.606
 6224SOL    HW219572   2.644   1.615   5.711
 6225SOL     OW19573   3.298   3.252   0.502
 6225SOL    HW119574   3.222   3.187   0.507
 6225SOL    HW219575   3.371   3.223   0.565
 6226SOL     OW19576   5.552   0.583   4.110
 6226SOL    HW119577   5.520   0.678   4.116
 6226SOL    HW219578   5.482   0.527   4.067
 6227SOL     OW19579   3.615   4.486   5.916
 6227SOL    HW119580   3.633   4.405   5.972
 6227SOL    HW219581   3.529   4.474   5.866
 6228SOL     OW19582   0.049   1.389   3.384
 6228SOL    HW119583   6.982   1.350   3.365
 6228SOL    HW219584   0.101   1.394   3.299
 6229SOL     OW19585   2.244   2.656   2.910
 6229SOL    HW119586   2.218   2.630   3.003
 6229SOL    HW219587   2.304   2.586   2.871
 6230SOL     OW19588   2.192   2.180   4.212
 6230SOL    HW119589   2.267   2.129   4.256
 6230SOL    HW219590   2.230   2.257   4.161
 6231SOL     OW19591   0.178   5.219   1.449
 6231SOL    HW119592   0.166   5.125   1.418
 6231SOL    HW219593   0.104   5.276   1.414
 6232SOL     OW19594   0.256   0.593   0.444
 6232SOL    HW119595   0.187   0.525   0.424
 6232SOL    HW219596   0.221   0.684   0.423
 6233SOL     OW19597   4.771   2.343   6.464
 6233SOL    HW119598   4.862   2.383   6.474
 6233SOL    HW219599   4.702   2.416   6.472
 6234SOL     OW19600   1.441   1.947   4.604
 6234SOL    HW119601   1.480   1.983   4.689
 6234SOL    HW219602   1.364   1.888   4.626
 6235SOL     OW19603   1.785   0.410   2.454
 6235SOL    HW119604   1.748   0.342   2.391
 6235SOL    HW219605   1.780   0.501   2.413
 6236SOL     OW19606   0.019   4.200   1.078
 6236SOL    HW119607   0.104   4.149   1.087
 6236SOL    HW219608   7.023   4.249   1.163
 6237SOL     OW19609   4.330   6.740   1.053
 6237SOL    HW119610   4.235   6.771   1.054
 6237SOL    HW219611   4.383   6.797   0.990
 6238SOL     OW19612   4.729   5.591   1.710
 6238SOL    HW119613   4.746   5.496   1.738
 6238SOL    HW219614   4.815   5.632   1.678
 6239SOL     OW19615   2.324   6.687   2.678
 6239SOL    HW119616   2.261   6.707   2.603
 6239SOL    HW219617   2.416   6.677   2.642
 6240SOL     OW19618   1.605   3.241   0.574
 6240SOL    HW119619   1.520   3.273   0.616
 6240SOL    HW219620   1.659   3.192   0.642
 6241SOL     OW19621   3.032   0.164   1.463
 6241SOL    HW119622   3.078   0.077   1.484
 6241SOL    HW219623   2.977   0.192   1.542
 6242SOL     OW19624   5.068   2.146   3.882
 6242SOL    HW119625   5.035   2.123   3.791
 6242SOL    HW219626   5.087   2.244   3.887
 6243SOL     OW19627   5.418   6.307   4.064
 6243SOL    HW119628   5.375   6.283   4.151
 6243SOL    HW219629   5.480   6.233   4.036
 6244SOL     OW19630   2.694   1.900   2.262
 6244SOL    HW119631   2.742   1.883   2.177
 6244SOL    HW219632   2.619   1.965   2.246
 6245SOL     OW19633   2.912   4.674   1.504
 6245SOL    HW119634   2.850   4.621   1.561
 6245SOL    HW219635   3.000   4.683   1.550
 6246SOL     OW19636   2.871   2.100   5.510
 6246SOL    HW119637   2.908   2.163   5.441
 6246SOL    HW219638   2.818   2.153   5.577
 6247SOL     OW19639   0.470   6.592   3.421
 6247SOL    HW119640   0.436   6.553   3.507
 6247SOL    HW219641   0.555   6.547   3.395
 6248SOL     OW19642   0.757   4.667   1.277
 6248SOL    HW119643   0.671   4.690   1.231
 6248SOL    HW219644   0.790   4.747   1.327
 6249SOL     OW19645   6.917   3.894   0.263
 6249SOL    HW119646   6.836   3.836   0.261
 6249SOL    HW219647   6.904   3.969   0.328
 6250SOL     OW19648   5.892   6.560   6.846
 6250SOL    HW119649   5.829   6.625   6.887
 6250SOL    HW219650   5.965   6.539   6.911
 6251SOL     OW19651   4.203   1.590   0.766
 6251SOL    HW119652   4.106   1.609   0.747
 6251SOL    HW219653   4.253   1.677   0.769
 6252SOL     OW19654   3.319   5.728   4.873
 6252SOL    HW119655   3.344   5.632   4.887
 6252SOL    HW219656   3.326   5.777   4.960
 6253SOL     OW19657   2.354   4.028   1.791
 6253SOL    HW119658   2.314   4.090   1.859
 6253SOL    HW219659   2.453   4.023   1.804
 6254SOL     OW19660   5.934   0.177   0.233
 6254SOL    HW119661   5.920   0.251   0.299
 6254SOL    HW219662   5.884   0.197   0.149
 6255SOL     OW19663   0.654   1.318   2.507
 6255SOL    HW119664   0.587   1.275   2.447
 6255SOL    HW219665   0.742   1.325   2.460
 6256SOL     OW19666   4.140   4.727   2.821
 6256SOL    HW119667   4.052   4.774   2.822
 6256SOL    HW219668   4.126   4.630   2.804
 6257SOL     OW19669   5.479   2.762   0.142
 6257SOL    HW119670   5.409   2.787   0.210
 6257SOL    HW219671   5.567   2.751   0.188
 6258SOL     OW19672   4.469   1.952   2.133
 6258SOL    HW119673   4.394   2.017   2.127
 6258SOL    HW219674   4.551   1.992   2.093
 6259SOL     OW19675   3.009   2.216   1.768
 6259SOL    HW119676   2.983   2.124   1.795
 6259SOL    HW219677   2.964   2.283   1.828
 6260SOL     OW19678   3.173   4.055   6.967
 6260SOL    HW119679   3.251   4.117   6.960
 6260SOL    HW219680   3.143   4.049   0.039
 6261SOL     OW19681   4.414   1.290   0.151
 6261SOL    HW119682   4.357   1.357   0.104
 6261SOL    HW219683   4.393   1.292   0.249
 6262SOL     OW19684   1.284   4.586   6.684
 6262SOL    HW119685   1.266   4.549   6.593
 6262SOL    HW219686   1.216   4.656   6.705
 6263SOL     OW19687   6.892   6.790   0.452
 6263SOL    HW119688   6.831   6.752   0.521
 6263SOL    HW219689   6.954   6.856   0.493
 6264SOL     OW19690   2.274   1.988   0.453
 6264SOL    HW119691   2.327   1.979   0.537
 6264SOL    HW219692   2.310   1.926   0.383
 6265SOL     OW19693   4.090   3.773   1.285
 6265SOL    HW119694   4.044   3.793   1.372
 6265SOL    HW219695   4.188   3.785   1.296
 6266SOL     OW19696   3.492   0.784   3.020
 6266SOL    HW119697   3.475   0.831   2.933
 6266SOL    HW219698   3.499   0.685   3.003
 6267SOL     OW19699   3.364   0.157   6.912
 6267SOL    HW119700   3.392   0.135   6.818
 6267SOL    HW219701   3.301   0.087   6.945
 6268SOL     OW19702   3.347   4.988   2.644
 6268SOL    HW119703   3.337   5.052   2.720
 6268SOL    HW219704   3.256   4.956   2.616
 6269SOL     OW19705   5.842   5.713   1.520
 6269SOL    HW119706   5.809   5.651   1.449
 6269SOL    HW219707   5.940   5.697   1.534
 6270SOL     OW19708   1.169   0.266   4.817
 6270SOL    HW119709   1.110   0.204   4.869
 6270SOL    HW219710   1.140   0.360   4.832
 6271SOL     OW19711   0.228   1.452   0.265
 6271SOL    HW119712   0.181   1.470   0.179
 6271SOL    HW219713   0.296   1.380   0.252
 6272SOL     OW19714   2.184   2.425   3.844
 6272SOL    HW119715   2.240   2.491   3.795
 6272SOL    HW219716   2.146   2.359   3.779
 6273SOL     OW19717   2.525   1.082   1.306
 6273SOL    HW119718   2.453   1.151   1.318
 6273SOL    HW219719   2.597   1.119   1.247
 6274SOL     OW19720   3.588   6.045   6.113
 6274SOL    HW119721   3.538   6.016   6.195
 6274SOL    HW219722   3.685   6.052   6.134
 6275SOL     OW19723   1.909   0.264   4.662
 6275SOL    HW119724   1.921   0.351   4.709
 6275SOL    HW219725   1.813   0.238   4.664
 6276SOL     OW19726   1.248   5.537   3.737
 6276SOL    HW119727   1.327   5.487   3.702
 6276SOL    HW219728   1.164   5.501   3.695
 6277SOL     OW19729   5.079   2.748   2.652
 6277SOL    HW119730   5.073   2.678   2.580
 6277SOL    HW219731   4.991   2.756   2.697
 6278SOL     OW19732   5.060   0.252   4.033
 6278SOL    HW119733   5.148   0.284   4.000
 6278SOL    HW219734   4.992   0.261   3.960
 6279SOL     OW19735   3.929   1.912   0.750
 6279SOL    HW119736   3.937   1.813   0.760
 6279SOL    HW219737   3.996   1.944   0.683
 6280SOL     OW19738   0.043   4.460   5.551
 6280SOL    HW119739   6.984   4.403   5.548
 6280SOL    HW219740   0.045   4.519   5.470
 6281SOL     OW19741   2.348   0.664   5.432
 6281SOL    HW119742   2.413   0.598   5.394
 6281SOL    HW219743   2.260   0.654   5.386
 6282SOL     OW19744   2.276   6.968   4.439
 6282SOL    HW119745   2.312   0.032   4.404
 6282SOL    HW219746   2.339   6.931   4.506
 6283SOL     OW19747   0.052   2.571   5.272
 6283SOL    HW119748   7.001   2.638   5.279
 6283SOL    HW219749   0.036   2.497   5.336
 6284SOL     OW19750   1.173   4.938   5.466
 6284SOL    HW119751   1.199   4.843   5.485
 6284SOL    HW219752   1.205   4.963   5.374
 6285SOL     OW19753   1.747   3.170   3.235
 6285SOL    HW119754   1.765   3.211   3.145
 6285SOL    HW219755   1.675   3.102   3.226
 6286SOL     OW19756   5.631   1.519   3.276
 6286SOL    HW119757   5.632   1.585   3.201
 6286SOL    HW219758   5.598   1.431   3.243
 6287SOL     OW19759   5.120   4.055   1.534
 6287SOL    HW119760   5.121   3.969   1.485
 6287SOL    HW219761   5.146   4.040   1.630
 6288SOL     OW19762   5.318   3.702   0.343
 6288SOL    HW119763   5.278   3.791   0.320
 6288SOL    HW219764   5.417   3.706   0.328
 6289SOL     OW19765   1.540   1.572   3.727
 6289SOL    HW119766   1.524   1.551   3.823
 6289SOL    HW219767   1.562   1.669   3.717
 6290SOL     OW19768   5.000   4.038   3.524
 6290SOL    HW119769   5.072   4.100   3.493
 6290SOL    HW219770   4.911   4.074   3.496
 6291SOL     OW19771   3.574   4.144   3.873
 6291SOL    HW119772   3.642   4.200   3.920
 6291SOL    HW219773   3.620   4.086   3.805
 6292SOL     OW19774   1.067   1.783   2.372
 6292SOL    HW119775   1.054   1.782   2.471
 6292SOL    HW219776   1.046   1.874   2.336
 6293SOL     OW19777   4.875   0.015   0.604
 6293SOL    HW119778   4.820   7.016   0.523
 6293SOL    HW219779   4.862   0.111   0.627
 6294SOL     OW19780   3.931   5.126   2.959
 6294SOL    HW119781   3.840   5.089   2.974
 6294SOL    HW219782   3.926   5.225   2.947
 6295SOL     OW19783   5.655   5.872   6.445
 6295SOL    HW119784   5.568   5.864   6.493
 6295SOL    HW219785   5.729   5.887   6.511
 6296SOL     OW19786   6.396   1.017   3.056
 6296SOL    HW119787   6.324   0.989   2.992
 6296SOL    HW219788   6.478   0.963   3.040
 6297SOL     OW19789   5.360   6.326   5.938
 6297SOL    HW119790   5.431   6.305   5.871
 6297SOL    HW219791   5.352   6.425   5.948
 6298SOL     OW19792   0.225   2.887   5.435
 6298SOL    HW119793   0.205   2.862   5.530
 6298SOL    HW219794   0.307   2.945   5.432
 6299SOL     OW19795   6.718   3.039   6.512
 6299SOL    HW119796   6.635   2.985   6.498
 6299SOL    HW219797   6.761   3.057   6.424
 6300SOL     OW19798   4.468   0.951   3.748
 6300SOL    HW119799   4.443   0.855   3.765
 6300SOL    HW219800   4.439   0.977   3.656
 6301SOL     OW19801   3.444   6.794   0.853
 6301SOL    HW119802   3.439   6.697   0.880
 6301SOL    HW219803   3.358   6.821   0.810
 6302SOL     OW19804   2.137   1.137   3.527
 6302SOL    HW119805   2.110   1.076   3.602
 6302SOL    HW219806   2.112   1.231   3.550
 6303SOL     OW19807   1.588   6.295   5.036
 6303SOL    HW119808   1.536   6.239   5.100
 6303SOL    HW219809   1.582   6.255   4.944
 6304SOL     OW19810   2.793   1.326   0.053
 6304SOL    HW119811   2.863   1.381   0.098
 6304SOL    HW219812   2.802   1.335   6.977
 6305SOL     OW19813   6.872   6.924   1.340
 6305SOL    HW119814   6.924   6.925   1.255
 6305SOL    HW219815   6.917   6.864   1.407
 6306SOL     OW19816   6.801   3.117   3.731
 6306SOL    HW119817   6.811   3.025   3.767
 6306SOL    HW219818   6.762   3.176   3.802
 6307SOL     OW19819   1.827   5.161   6.960
 6307SOL    HW119820   1.914   5.207   6.976
 6307SOL    HW219821   1.844   5.063   6.943
 6308SOL     OW19822   2.842   1.858   5.330
 6308SOL    HW119823   2.900   1.913   5.390
 6308SOL    HW219824   2.844   1.896   5.237
 6309SOL     OW19825   5.388   2.000   4.036
 6309SOL    HW119826   5.424   1.978   3.945
 6309SOL    HW219827   5.383   1.916   4.090
 6310SOL     OW19828   1.015   4.656   4.620
 6310SOL    HW119829   1.075   4.728   4.656
 6310SOL    HW219830   0.965   4.614   4.696
 6311SOL     OW19831   5.893   0.382   4.488
 6311SOL    HW119832   5.848   0.332   4.562
 6311SOL    HW219833   5.933   0.318   4.424
 6312SOL     OW19834   4.535   5.053   6.091
 6312SOL    HW119835   4.506   4.967   6.050
 6312SOL    HW219836   4.614   5.090   6.041
 6313SOL     OW19837   2.354   5.948   3.444
 6313SOL    HW119838   2.277   5.886   3.435
 6313SOL    HW219839   2.402   5.956   3.356
 6314SOL     OW19840   2.773   6.118   2.671
 6314SOL    HW119841   2.779   6.028   2.627
 6314SOL    HW219842   2.700   6.116   2.739
 6315SOL     OW19843   2.861   3.834   0.313
 6315SOL    HW119844   2.764   3.834   0.336
 6315SOL    HW219845   2.873   3.802   0.219
 6316SOL     OW19846   4.568   2.670   5.734
 6316SOL    HW119847   4.485   2.681   5.679
 6316SOL    HW219848   4.586   2.572   5.747
 6317SOL     OW19849   5.341   7.017   3.647
 6317SOL    HW119850   5.354   6.928   3.604
 6317SOL    HW219851   5.360   7.010   3.745
 6318SOL     OW19852   2.518   2.276   5.352
 6318SOL    HW119853   2.438   2.220   5.374
 6318SOL    HW219854   2.490   2.372   5.345
 6319SOL     OW19855   0.786   1.730   3.331
 6319SOL    HW119856   0.723   1.655   3.353
 6319SOL    HW219857   0.761   1.811   3.384
 6320SOL     OW19858   5.687   3.883   3.034
 6320SOL    HW119859   5.617   3.889   2.962
 6320SOL    HW219860   5.713   3.788   3.047
 6321SOL     OW19861   2.395   4.985   0.804
 6321SOL    HW119862   2.314   5.027   0.761
 6321SOL    HW219863   2.375   4.889   0.825
 6322SOL     OW19864   1.478   0.954   6.731
 6322SOL    HW119865   1.503   0.929   6.824
 6322SOL    HW219866   1.384   0.989   6.730
 6323SOL     OW19867   3.644   2.791   0.629
 6323SOL    HW119868   3.668   2.712   0.573
 6323SOL    HW219869   3.728   2.836   0.661
 6324SOL     OW19870   3.973   1.135   6.009
 6324SOL    HW119871   3.987   1.064   5.940
 6324SOL    HW219872   4.052   1.196   6.010
 6325SOL     OW19873   0.687   2.563   2.198
 6325SOL    HW119874   0.781   2.589   2.220
 6325SOL    HW219875   0.624   2.629   2.238
 6326SOL     OW19876   5.237   5.752   1.545
 6326SOL    HW119877   5.214   5.850   1.539
 6326SOL    HW219878   5.278   5.723   1.459
 6327SOL     OW19879   6.100   5.810   5.592
 6327SOL    HW119880   6.066   5.790   5.684
 6327SOL    HW219881   6.133   5.726   5.549
 6328SOL     OW19882   2.855   4.104   6.365
 6328SOL    HW119883   2.937   4.114   6.309
 6328SOL    HW219884   2.824   4.009   6.362
 6329SOL     OW19885   1.529   1.322   3.181
 6329SOL    HW119886   1.562   1.363   3.096
 6329SOL    HW219887   1.498   1.393   3.243
 6330SOL     OW19888   4.036   1.371   0.606
 6330SOL    HW119889   3.951   1.423   0.611
 6330SOL    HW219890   4.076   1.363   0.698
 6331SOL     OW19891   6.460   2.163   1.417
 6331SOL    HW119892   6.540   2.199   1.370
 6331SOL    HW219893   6.382   2.162   1.355
 6332SOL     OW19894   6.221   5.424   1.214
 6332SOL    HW119895   6.179   5.508   1.250
 6332SOL    HW219896   6.244   5.363   1.290
 6333SOL     OW19897   3.151   4.935   3.366
 6333SOL    HW119898   3.184   4.884   3.445
 6333SOL    HW219899   3.065   4.895   3.334
 6334SOL     OW19900   2.169   0.810   2.292
 6334SOL    HW119901   2.229   0.735   2.320
 6334SOL    HW219902   2.172   0.820   2.193
 6335SOL     OW19903   6.558   1.243   6.276
 6335SOL    HW119904   6.478   1.210   6.327
 6335SOL    HW219905   6.529   1.281   6.188
 6336SOL     OW19906   0.120   2.331   4.322
 6336SOL    HW119907   0.108   2.413   4.266
 6336SOL    HW219908   0.213   2.331   4.360
 6337SOL     OW19909   5.925   4.301   5.870
 6337SOL    HW119910   6.000   4.238   5.849
 6337SOL    HW219911   5.861   4.304   5.793
 6338SOL     OW19912   3.438   1.461   2.910
 6338SOL    HW119913   3.447   1.362   2.895
 6338SOL    HW219914   3.431   1.507   2.821
 6339SOL     OW19915   0.694   1.795   4.062
 6339SOL    HW119916   0.633   1.842   3.998
 6339SOL    HW219917   0.789   1.808   4.032
 6340SOL     OW19918   2.731   5.565   3.851
 6340SOL    HW119919   2.682   5.568   3.764
 6340SOL    HW219920   2.672   5.600   3.924
 6341SOL     OW19921   6.948   4.133   3.629
 6341SOL    HW119922   0.016   4.131   3.670
 6341SOL    HW219923   6.949   4.189   3.547
 6342SOL     OW19924   1.212   1.965   1.340
 6342SOL    HW119925   1.178   2.058   1.328
 6342SOL    HW219926   1.142   1.899   1.312
 6343SOL     OW19927   3.546   1.294   6.871
 6343SOL    HW119928   3.583   1.271   6.781
 6343SOL    HW219929   3.467   1.236   6.891
 6344SOL     OW19930   0.658   4.093   4.812
 6344SOL    HW119931   0.610   4.141   4.885
 6344SOL    HW219932   0.714   4.020   4.852
 6345SOL     OW19933   3.658   1.414   2.112
 6345SOL    HW119934   3.733   1.423   2.177
 6345SOL    HW219935   3.583   1.475   2.138
 6346SOL     OW19936   0.667   4.012   3.512
 6346SOL    HW119937   0.644   3.991   3.607
 6346SOL    HW219938   0.619   3.949   3.451
 6347SOL     OW19939   3.168   6.920   0.736
 6347SOL    HW119940   3.091   6.962   0.688
 6347SOL    HW219941   3.147   6.915   0.834
 6348SOL     OW19942   0.644   2.787   3.957
 6348SOL    HW119943   0.580   2.832   4.019
 6348SOL    HW219944   0.666   2.696   3.991
 6349SOL     OW19945   2.968   1.287   1.042
 6349SOL    HW119946   3.012   1.199   1.021
 6349SOL    HW219947   2.876   1.270   1.076
 6350SOL     OW19948   1.531   5.937   2.286
 6350SOL    HW119949   1.445   5.980   2.259
 6350SOL    HW219950   1.545   5.947   2.384
 6351SOL     OW19951   0.174   1.304   2.222
 6351SOL    HW119952   0.254   1.344   2.178
 6351SOL    HW219953   0.091   1.349   2.189
 6352SOL     OW19954   1.032   5.609   2.295
 6352SOL    HW119955   1.018   5.703   2.324
 6352SOL    HW219956   0.970   5.549   2.346
 6353SOL     OW19957   0.482   0.098   0.839
 6353SOL    HW119958   0.402   0.064   0.888
 6353SOL    HW219959   0.554   0.029   0.841
 6354SOL     OW19960   0.991   6.998   2.786
 6354SOL    HW119961   0.981   6.981   2.884
 6354SOL    HW219962   1.086   6.980   2.759
 6355SOL     OW19963   1.743   2.799   2.985
 6355SOL    HW119964   1.841   2.816   2.995
 6355SOL    HW219965   1.702   2.870   2.928
 6356SOL     OW19966   3.485   4.375   1.123
 6356SOL    HW119967   3.432   4.293   1.144
 6356SOL    HW219968   3.423   4.447   1.091
 6357SOL     OW19969   3.911   1.985   0.021
 6357SOL    HW119970   3.895   1.984   0.120
 6357SOL    HW219971   3.831   1.949   6.997
 6358SOL     OW19972   0.233   2.114   3.514
 6358SOL    HW119973   0.267   2.139   3.423
 6358SOL    HW219974   0.305   2.070   3.567
 6359SOL     OW19975   7.012   0.601   6.399
 6359SOL    HW119976   6.915   0.625   6.405
 6359SOL    HW219977   0.009   0.568   6.306
 6360SOL     OW19978   3.208   5.209   3.974
 6360SOL    HW119979   3.208   5.306   3.951
 6360SOL    HW219980   3.141   5.161   3.917
 6361SOL     OW19981   4.398   6.264   5.927
 6361SOL    HW119982   4.348   6.348   5.948
 6361SOL    HW219983   4.413   6.258   5.828
 6362SOL     OW19984   5.886   5.056   6.507
 6362SOL    HW119985   5.889   5.155   6.501
 6362SOL    HW219986   5.906   5.017   6.417
 6363SOL     OW19987   1.762   5.792   4.392
 6363SOL    HW119988   1.844   5.758   4.346
 6363SOL    HW219989   1.695   5.821   4.323
 6364SOL     OW19990   2.323   2.610   6.144
 6364SOL    HW119991   2.314   2.703   6.180
 6364SOL    HW219992   2.240   2.558   6.165
 6365SOL     OW19993   5.177   0.012   3.146
 6365SOL    HW119994   5.236   6.987   3.081
 6365SOL    HW219995   5.233   0.057   3.215
 6366SOL     OW19996   0.696   5.511   5.385
 6366SOL    HW119997   0.627   5.493   5.456
 6366SOL    HW219998   0.755   5.431   5.375
 6367SOL     OW19999   5.236   6.652   4.259
 6367SOL    HW120000   5.193   6.582   4.315
 6367SOL    HW220001   5.165   6.707   4.213
 6368SOL     OW20002   3.292   6.854   4.657
 6368SOL    HW120003   3.243   6.925   4.607
 6368SOL    HW220004   3.258   6.764   4.629
 6369SOL     OW20005   2.813   4.749   4.106
 6369SOL    HW120006   2.863   4.716   4.187
 6369SOL    HW220007   2.783   4.843   4.122
 6370SOL     OW20008   5.950   2.222   1.249
 6370SOL    HW120009   5.902   2.286   1.309
 6370SOL    HW220010   5.980   2.143   1.303
 6371SOL     OW20011   4.781   2.414   2.523
 6371SOL    HW120012   4.698   2.368   2.555
 6371SOL    HW220013   4.761   2.463   2.438
 6372SOL     OW20014   3.430   6.069   2.339
 6372SOL    HW120015   3.455   6.017   2.420
 6372SOL    HW220016   3.511   6.116   2.304
 6373SOL     OW20017   4.142   4.068   6.258
 6373SOL    HW120018   4.086   4.125   6.198
 6373SOL    HW220019   4.113   4.081   6.353
 6374SOL     OW20020   2.944   3.285   2.964
 6374SOL    HW120021   3.043   3.298   2.958
 6374SOL    HW220022   2.914   3.302   3.058
 6375SOL     OW20023   1.348   6.488   2.998
 6375SOL    HW120024   1.425   6.494   2.934
 6375SOL    HW220025   1.275   6.435   2.957
 6376SOL     OW20026   6.800   2.112   4.906
 6376SOL    HW120027   6.780   2.157   4.819
 6376SOL    HW220028   6.838   2.179   4.970
 6377SOL     OW20029   0.770   1.384   4.361
 6377SOL    HW120030   0.740   1.344   4.275
 6377SOL    HW220031   0.870   1.380   4.367
 6378SOL     OW20032   5.000   4.088   4.064
 6378SOL    HW120033   4.928   4.126   4.006
 6378SOL    HW220034   5.015   3.992   4.040
 6379SOL     OW20035   2.304   4.369   3.873
 6379SOL    HW120036   2.335   4.313   3.949
 6379SOL    HW220037   2.226   4.325   3.828
 6380SOL     OW20038   0.598   0.616   6.473
 6380SOL    HW120039   0.665   0.679   6.512
 6380SOL    HW220040   0.644   0.531   6.447
 6381SOL     OW20041   3.062   3.937   3.146
 6381SOL    HW120042   3.039   3.923   3.050
 6381SOL    HW220043   3.023   4.024   3.177
 6382SOL     OW20044   1.149   3.608   5.972
 6382SOL    HW120045   1.231   3.560   5.939
 6382SOL    HW220046   1.072   3.544   5.974
 6383SOL     OW20047   2.322   1.880   4.088
 6383SOL    HW120048   2.228   1.847   4.100
 6383SOL    HW220049   2.353   1.921   4.174
 6384SOL     OW20050   6.799   4.770   2.624
 6384SOL    HW120051   6.785   4.671   2.629
 6384SOL    HW220052   6.719   4.817   2.661
 6385SOL     OW20053   0.716   4.958   4.805
 6385SOL    HW120054   0.738   5.056   4.807
 6385SOL    HW220055   0.797   4.905   4.827
 6386SOL     OW20056   2.922   5.063   0.961
 6386SOL    HW120057   2.918   5.041   1.058
 6386SOL    HW220058   2.832   5.046   0.919
 6387SOL     OW20059   6.446   0.680   5.100
 6387SOL    HW120060   6.495   0.715   5.020
 6387SOL    HW220061   6.361   0.731   5.112
 6388SOL     OW20062   3.256   4.923   2.121
 6388SOL    HW120063   3.301   4.897   2.207
 6388SOL    HW220064   3.162   4.889   2.121
 6389SOL     OW20065   1.490   5.823   3.207
 6389SOL    HW120066   1.526   5.861   3.292
 6389SOL    HW220067   1.430   5.891   3.164
 6390SOL     OW20068   0.937   2.526   3.822
 6390SOL    HW120069   0.864   2.531   3.890
 6390SOL    HW220070   1.020   2.565   3.860
 6391SOL     OW20071   2.431   1.877   0.269
 6391SOL    HW120072   2.452   1.928   0.186
 6391SOL    HW220073   2.501   1.807   0.285
 6392SOL     OW20074   1.583   6.318   3.684
 6392SOL    HW120075   1.641   6.399   3.684
 6392SOL    HW220076   1.499   6.337   3.632
 6393SOL     OW20077   6.296   6.178   0.345
 6393SOL    HW120078   6.260   6.271   0.351
 6393SOL    HW220079   6.338   6.153   0.433
 6394SOL     OW20080   2.069   4.736   0.350
 6394SOL    HW120081   1.991   4.798   0.335
 6394SOL    HW220082   2.074   4.669   0.276
 6395SOL     OW20083   6.198   1.021   0.600
 6395SOL    HW120084   6.116   0.982   0.558
 6395SOL    HW220085   6.237   1.090   0.540
 6396SOL     OW20086   4.992   4.211   5.775
 6396SOL    HW120087   5.023   4.259   5.857
 6396SOL    HW220088   4.988   4.112   5.794
 6397SOL     OW20089   0.032   1.446   0.468
 6397SOL    HW120090   0.109   1.484   0.417
 6397SOL    HW220091   6.970   1.490   0.440
 6398SOL     OW20092   3.160   1.579   1.461
 6398SOL    HW120093   3.190   1.670   1.489
 6398SOL    HW220094   3.232   1.513   1.478
 6399SOL     OW20095   1.864   5.437   6.640
 6399SOL    HW120096   1.796   5.377   6.680
 6399SOL    HW220097   1.853   5.530   6.675
 6400SOL     OW20098   2.668   5.831   3.372
 6400SOL    HW120099   2.763   5.799   3.366
 6400SOL    HW220100   2.658   5.891   3.451
 6401SOL     OW20101   0.377   4.614   3.534
 6401SOL    HW120102   0.365   4.605   3.633
 6401SOL    HW220103   0.443   4.687   3.515
 6402SOL     OW20104   2.278   1.030   3.143
 6402SOL    HW120105   2.186   1.044   3.106
 6402SOL    HW220106   2.310   0.939   3.118
 6403SOL     OW20107   1.159   5.085   6.580
 6403SOL    HW120108   1.085   5.087   6.512
 6403SOL    HW220109   1.170   5.175   6.621
 6404SOL     OW20110   4.887   1.302   3.001
 6404SOL    HW120111   4.802   1.330   3.047
 6404SOL    HW220112   4.964   1.353   3.040
 6405SOL     OW20113   2.600   1.503   2.384
 6405SOL    HW120114   2.586   1.552   2.299
 6405SOL    HW220115   2.682   1.537   2.430
 6406SOL     OW20116   2.496   1.259   4.241
 6406SOL    HW120117   2.457   1.192   4.304
 6406SOL    HW220118   2.426   1.286   4.174
 6407SOL     OW20119   3.391   5.489   5.780
 6407SOL    HW120120   3.479   5.527   5.809
 6407SOL    HW220121   3.355   5.430   5.851
 6408SOL     OW20122   5.273   1.759   6.375
 6408SOL    HW120123   5.178   1.784   6.391
 6408SOL    HW220124   5.316   1.734   6.462
 6409SOL     OW20125   0.191   3.799   2.864
 6409SOL    HW120126   0.150   3.831   2.949
 6409SOL    HW220127   0.289   3.784   2.878
 6410SOL     OW20128   1.758   1.664   0.716
 6410SOL    HW120129   1.755   1.741   0.653
 6410SOL    HW220130   1.745   1.578   0.666
 6411SOL     OW20131   0.852   1.073   3.567
 6411SOL    HW120132   0.836   1.113   3.657
 6411SOL    HW220133   0.948   1.085   3.542
 6412SOL     OW20134   0.230   2.589   5.749
 6412SOL    HW120135   0.319   2.544   5.742
 6412SOL    HW220136   0.242   2.688   5.746
 6413SOL     OW20137   6.701   4.470   0.980
 6413SOL    HW120138   6.783   4.420   0.951
 6413SOL    HW220139   6.636   4.473   0.904
 6414SOL     OW20140   6.385   6.596   2.221
 6414SOL    HW120141   6.374   6.542   2.305
 6414SOL    HW220142   6.309   6.660   2.212
 6415SOL     OW20143   1.880   1.488   1.667
 6415SOL    HW120144   1.924   1.564   1.716
 6415SOL    HW220145   1.782   1.506   1.660
 6416SOL     OW20146   1.536   0.734   6.559
 6416SOL    HW120147   1.495   0.813   6.604
 6416SOL    HW220148   1.576   0.673   6.627
 6417SOL     OW20149   1.019   0.081   3.457
 6417SOL    HW120150   0.987   0.138   3.533
 6417SOL    HW220151   0.942   0.028   3.421
 6418SOL     OW20152   0.157   6.136   2.211
 6418SOL    HW120153   0.194   6.200   2.143
 6418SOL    HW220154   0.227   6.068   2.234
 6419SOL     OW20155   3.799   4.942   1.517
 6419SOL    HW120156   3.787   5.042   1.519
 6419SOL    HW220157   3.890   4.920   1.484
 6420SOL     OW20158   2.339   4.339   6.148
 6420SOL    HW120159   2.359   4.326   6.051
 6420SOL    HW220160   2.421   4.375   6.194
 6421SOL     OW20161   5.669   1.109   1.340
 6421SOL    HW120162   5.755   1.063   1.365
 6421SOL    HW220163   5.680   1.155   1.253
 6422SOL     OW20164   6.799   1.890   3.583
 6422SOL    HW120165   6.853   1.972   3.605
 6422SOL    HW220166   6.710   1.918   3.547
 6423SOL     OW20167   5.090   3.550   0.905
 6423SOL    HW120168   5.097   3.649   0.908
 6423SOL    HW220169   5.051   3.516   0.992
 6424SOL     OW20170   6.980   3.870   5.740
 6424SOL    HW120171   6.952   3.945   5.799
 6424SOL    HW220172   6.982   3.785   5.793
 6425SOL     OW20173   0.865   4.475   2.563
 6425SOL    HW120174   0.936   4.540   2.535
 6425SOL    HW220175   0.781   4.525   2.582
 6426SOL     OW20176   0.799   2.342   3.362
 6426SOL    HW120177   0.820   2.428   3.407
 6426SOL    HW220178   0.707   2.312   3.388
 6427SOL     OW20179   1.434   3.493   5.573
 6427SOL    HW120180   1.530   3.489   5.545
 6427SOL    HW220181   1.416   3.420   5.640
 6428SOL     OW20182   6.907   3.467   2.005
 6428SOL    HW120183   6.823   3.503   1.963
 6428SOL    HW220184   6.882   3.398   2.073
 6429SOL     OW20185   1.298   6.914   4.164
 6429SOL    HW120186   1.203   6.897   4.189
 6429SOL    HW220187   1.355   6.841   4.202
 6430SOL     OW20188   5.876   1.985   0.908
 6430SOL    HW120189   5.919   1.914   0.964
 6430SOL    HW220190   5.781   1.998   0.937
 6431SOL     OW20191   5.507   6.627   2.647
 6431SOL    HW120192   5.433   6.665   2.703
 6431SOL    HW220193   5.504   6.528   2.650
 6432SOL     OW20194   4.802   3.484   0.777
 6432SOL    HW120195   4.840   3.576   0.770
 6432SOL    HW220196   4.774   3.453   0.686
 6433SOL     OW20197   2.910   4.449   1.185
 6433SOL    HW120198   2.904   4.412   1.278
 6433SOL    HW220199   2.930   4.375   1.122
 6434SOL     OW20200   1.225   3.867   0.708
 6434SOL    HW120201   1.273   3.859   0.621
 6434SOL    HW220202   1.281   3.829   0.781
 6435SOL     OW20203   4.346   4.544   6.435
 6435SOL    HW120204   4.264   4.506   6.478
 6435SOL    HW220205   4.427   4.513   6.483
 6436SOL     OW20206   1.532   3.083   3.576
 6436SOL    HW120207   1.540   3.037   3.488
 6436SOL    HW220208   1.470   3.160   3.568
 6437SOL     OW20209   1.523   7.013   6.604
 6437SOL    HW120210   1.484   0.031   6.522
 6437SOL    HW220211   1.562   6.924   6.581
 6438SOL     OW20212   1.066   3.932   3.895
 6438SOL    HW120213   1.023   3.854   3.850
 6438SOL    HW220214   1.121   3.983   3.829
 6439SOL     OW20215   1.187   6.950   1.269
 6439SOL    HW120216   1.151   6.867   1.226
 6439SOL    HW220217   1.256   6.991   1.209
 6440SOL     OW20218   1.422   1.635   2.739
 6440SOL    HW120219   1.442   1.624   2.836
 6440SOL    HW220220   1.495   1.687   2.695
 6441SOL     OW20221   2.232   1.085   3.820
 6441SOL    HW120222   2.195   1.020   3.754
 6441SOL    HW220223   2.161   1.111   3.886
 6442SOL     OW20224   2.426   2.016   4.309
 6442SOL    HW120225   2.421   2.017   4.409
 6442SOL    HW220226   2.520   2.032   4.281
 6443SOL     OW20227   2.564   2.277   0.189
 6443SOL    HW120228   2.539   2.193   0.141
 6443SOL    HW220229   2.493   2.346   0.175
 6444SOL     OW20230   0.585   1.177   3.086
 6444SOL    HW120231   0.488   1.167   3.064
 6444SOL    HW220232   0.608   1.274   3.086
 6445SOL     OW20233   4.104   3.023   5.397
 6445SOL    HW120234   4.160   3.083   5.341
 6445SOL    HW220235   4.007   3.043   5.382
 6446SOL     OW20236   6.017   1.260   6.944
 6446SOL    HW120237   6.115   1.243   6.932
 6446SOL    HW220238   6.004   1.351   6.985
 6447SOL     OW20239   1.762   0.628   2.126
 6447SOL    HW120240   1.748   0.541   2.078
 6447SOL    HW220241   1.705   0.699   2.085
 6448SOL     OW20242   5.736   2.682   3.235
 6448SOL    HW120243   5.694   2.719   3.151
 6448SOL    HW220244   5.770   2.590   3.217
 6449SOL     OW20245   3.131   3.435   1.054
 6449SOL    HW120246   3.084   3.348   1.069
 6449SOL    HW220247   3.226   3.419   1.027
 6450SOL     OW20248   5.748   3.712   1.116
 6450SOL    HW120249   5.705   3.697   1.028
 6450SOL    HW220250   5.792   3.802   1.117
 6451SOL     OW20251   2.639   5.621   5.239
 6451SOL    HW120252   2.627   5.717   5.263
 6451SOL    HW220253   2.693   5.576   5.311
 6452SOL     OW20254   3.538   6.601   4.223
 6452SOL    HW120255   3.622   6.547   4.212
 6452SOL    HW220256   3.525   6.623   4.320
 6453SOL     OW20257   1.512   6.316   6.616
 6453SOL    HW120258   1.595   6.266   6.595
 6453SOL    HW220259   1.516   6.349   6.711
 6454SOL     OW20260   3.312   1.695   4.620
 6454SOL    HW120261   3.283   1.674   4.714
 6454SOL    HW220262   3.297   1.615   4.562
 6455SOL     OW20263   6.233   2.545   5.211
 6455SOL    HW120264   6.275   2.636   5.210
 6455SOL    HW220265   6.240   2.506   5.302
 6456SOL     OW20266   0.457   0.597   3.216
 6456SOL    HW120267   0.501   0.508   3.208
 6456SOL    HW220268   0.410   0.603   3.305
 6457SOL     OW20269   6.597   2.257   1.132
 6457SOL    HW120270   6.646   2.329   1.180
 6457SOL    HW220271   6.661   2.183   1.108
 6458SOL     OW20272   1.379   5.467   3.510
 6458SOL    HW120273   1.346   5.550   3.465
 6458SOL    HW220274   1.457   5.489   3.567
 6459SOL     OW20275   5.564   4.576   6.955
 6459SOL    HW120276   5.632   4.526   6.901
 6459SOL    HW220277   5.572   4.549   0.028
 6460SOL     OW20278   3.405   4.884   6.226
 6460SOL    HW120279   3.441   4.796   6.255
 6460SOL    HW220280   3.387   4.882   6.127
 6461SOL     OW20281   3.796   5.127   5.350
 6461SOL    HW120282   3.812   5.028   5.346
 6461SOL    HW220283   3.784   5.155   5.445
 6462SOL     OW20284   2.261   3.471   5.181
 6462SOL    HW120285   2.233   3.561   5.214
 6462SOL    HW220286   2.353   3.450   5.213
 6463SOL     OW20287   2.043   4.381   6.176
 6463SOL    HW120288   2.014   4.344   6.087
 6463SOL    HW220289   2.143   4.391   6.177
 6464SOL     OW20290   0.346   5.292   3.072
 6464SOL    HW120291   0.304   5.231   3.004
 6464SOL    HW220292   0.436   5.321   3.040
 6465SOL     OW20293   6.406   1.951   3.463
 6465SOL    HW120294   6.313   1.941   3.499
 6465SOL    HW220295   6.441   2.042   3.485
 6466SOL     OW20296   0.486   2.429   5.383
 6466SOL    HW120297   0.519   2.518   5.352
 6466SOL    HW220298   0.466   2.432   5.480
 6467SOL     OW20299   2.533   0.981   6.404
 6467SOL    HW120300   2.543   1.043   6.327
 6467SOL    HW220301   2.602   0.909   6.398
 6468SOL     OW20302   4.821   6.231   1.131
 6468SOL    HW120303   4.904   6.230   1.186
 6468SOL    HW220304   4.742   6.248   1.190
 6469SOL     OW20305   6.611   0.961   5.505
 6469SOL    HW120306   6.615   0.969   5.405
 6469SOL    HW220307   6.704   0.962   5.542
 6470SOL     OW20308   6.205   7.006   5.850
 6470SOL    HW120309   6.267   7.011   5.928
 6470SOL    HW220310   6.255   6.972   5.770
 6471SOL     OW20311   6.569   4.782   6.526
 6471SOL    HW120312   6.543   4.743   6.437
 6471SOL    HW220313   6.495   4.767   6.592
 6472SOL     OW20314   1.120   6.408   1.921
 6472SOL    HW120315   1.201   6.467   1.921
 6472SOL    HW220316   1.085   6.399   2.015
 6473SOL     OW20317   2.004   1.767   6.422
 6473SOL    HW120318   1.984   1.670   6.436
 6473SOL    HW220319   2.073   1.797   6.488
 6474SOL     OW20320   1.337   3.537   5.325
 6474SOL    HW120321   1.407   3.507   5.260
 6474SOL    HW220322   1.374   3.531   5.418
 6475SOL     OW20323   4.446   5.986   4.066
 6475SOL    HW120324   4.430   6.081   4.039
 6475SOL    HW220325   4.445   5.979   4.165
 6476SOL     OW20326   4.802   4.665   2.693
 6476SOL    HW120327   4.866   4.662   2.616
 6476SOL    HW220328   4.708   4.659   2.658
 6477SOL     OW20329   6.485   5.575   0.435
 6477SOL    HW120330   6.447   5.666   0.449
 6477SOL    HW220331   6.533   5.546   0.518
 6478SOL     OW20332   5.032   6.561   2.010
 6478SOL    HW120333   5.048   6.462   2.011
 6478SOL    HW220334   5.041   6.597   2.103
 6479SOL     OW20335   4.269   5.141   2.397
 6479SOL    HW120336   4.310   5.204   2.464
 6479SOL    HW220337   4.207   5.079   2.444
 6480SOL     OW20338   2.990   2.567   0.154
 6480SOL    HW120339   2.902   2.579   0.109
 6480SOL    HW220340   3.045   2.649   0.142
 6481SOL     OW20341   3.851   0.944   1.607
 6481SOL    HW120342   3.819   0.900   1.523
 6481SOL    HW220343   3.920   1.013   1.585
 6482SOL     OW20344   6.998   0.301   6.736
 6482SOL    HW120345   0.063   0.261   6.764
 6482SOL    HW220346   7.008   0.342   6.646
 6483SOL     OW20347   1.275   6.934   2.748
 6483SOL    HW120348   1.307   7.022   2.784
 6483SOL    HW220349   1.347   6.866   2.760
 6484SOL     OW20350   4.255   0.572   3.299
 6484SOL    HW120351   4.298   0.648   3.347
 6484SOL    HW220352   4.325   0.512   3.261
 6485SOL     OW20353   1.590   2.412   3.270
 6485SOL    HW120354   1.512   2.472   3.253
 6485SOL    HW220355   1.673   2.455   3.235
 6486SOL     OW20356   1.409   3.662   3.827
 6486SOL    HW120357   1.364   3.704   3.907
 6486SOL    HW220358   1.435   3.568   3.850
 6487SOL     OW20359   6.055   6.474   4.323
 6487SOL    HW120360   6.112   6.509   4.398
 6487SOL    HW220361   5.999   6.548   4.286
 6488SOL     OW20362   3.179   4.995   5.591
 6488SOL    HW120363   3.107   5.031   5.650
 6488SOL    HW220364   3.141   4.971   5.502
 6489SOL     OW20365   1.849   1.708   5.298
 6489SOL    HW120366   1.830   1.682   5.392
 6489SOL    HW220367   1.941   1.677   5.273
 6490SOL     OW20368   3.566   1.614   0.356
 6490SOL    HW120369   3.538   1.688   0.417
 6490SOL    HW220370   3.665   1.602   0.362
 6491SOL     OW20371   4.576   1.779   6.047
 6491SOL    HW120372   4.622   1.835   5.977
 6491SOL    HW220373   4.522   1.838   6.106
 6492SOL     OW20374   6.047   6.457   0.101
 6492SOL    HW120375   6.095   6.532   0.146
 6492SOL    HW220376   5.958   6.443   0.146
 6493SOL     OW20377   1.725   6.716   6.111
 6493SOL    HW120378   1.801   6.777   6.088
 6493SOL    HW220379   1.641   6.750   6.070
 6494SOL     OW20380   0.811   0.395   3.239
 6494SOL    HW120381   0.866   0.459   3.185
 6494SOL    HW220382   0.847   0.391   3.333
 6495SOL     OW20383   5.570   4.939   2.943
 6495SOL    HW120384   5.550   4.954   2.846
 6495SOL    HW220385   5.561   5.025   2.992
 6496SOL     OW20386   1.167   6.856   2.529
 6496SOL    HW120387   1.081   6.905   2.515
 6496SOL    HW220388   1.210   6.888   2.614
 6497SOL     OW20389   1.535   4.014   0.387
 6497SOL    HW120390   1.488   4.088   0.339
 6497SOL    HW220391   1.632   4.015   0.362
 6498SOL     OW20392   2.325   4.261   4.132
 6498SOL    HW120393   2.312   4.255   4.231
 6498SOL    HW220394   2.288   4.179   4.088
 6499SOL     OW20395   5.439   1.594   3.455
 6499SOL    HW120396   5.386   1.510   3.455
 6499SOL    HW220397   5.510   1.588   3.385
 6500SOL     OW20398   4.717   4.729   3.645
 6500SOL    HW120399   4.706   4.820   3.605
 6500SOL    HW220400   4.798   4.686   3.605
 6501SOL     OW20401   6.305   4.001   1.364
 6501SOL    HW120402   6.226   4.024   1.420
 6501SOL    HW220403   6.375   3.957   1.421
 6502SOL     OW20404   1.004   4.856   3.148
 6502SOL    HW120405   0.982   4.902   3.062
 6502SOL    HW220406   0.934   4.876   3.216
 6503SOL     OW20407   4.757   6.665   4.700
 6503SOL    HW120408   4.830   6.616   4.652
 6503SOL    HW220409   4.764   6.649   4.799
 6504SOL     OW20410   3.553   0.947   0.582
 6504SOL    HW120411   3.492   0.893   0.523
 6504SOL    HW220412   3.529   1.043   0.575
 6505SOL     OW20413   5.866   5.011   1.072
 6505SOL    HW120414   5.889   4.939   1.137
 6505SOL    HW220415   5.899   4.987   0.981
 6506SOL     OW20416   1.751   2.700   1.170
 6506SOL    HW120417   1.698   2.766   1.116
 6506SOL    HW220418   1.775   2.742   1.258
 6507SOL     OW20419   2.245   6.664   1.452
 6507SOL    HW120420   2.322   6.706   1.499
 6507SOL    HW220421   2.195   6.606   1.516
 6508SOL     OW20422   2.102   2.174   3.409
 6508SOL    HW120423   2.132   2.081   3.431
 6508SOL    HW220424   2.172   2.220   3.354
 6509SOL     OW20425   1.021   2.895   4.892
 6509SOL    HW120426   1.076   2.976   4.870
 6509SOL    HW220427   1.079   2.814   4.891
 6510SOL     OW20428   6.075   4.997   6.722
 6510SOL    HW120429   6.172   5.014   6.704
 6510SOL    HW220430   6.020   5.039   6.650
 6511SOL     OW20431   6.626   6.460   6.250
 6511SOL    HW120432   6.608   6.378   6.195
 6511SOL    HW220433   6.723   6.482   6.246
 6512SOL     OW20434   5.293   0.104   3.406
 6512SOL    HW120435   5.333   0.193   3.424
 6512SOL    HW220436   5.319   0.040   3.478
 6513SOL     OW20437   3.996   6.759   2.934
 6513SOL    HW120438   4.064   6.831   2.946
 6513SOL    HW220439   3.906   6.799   2.920
 6514SOL     OW20440   4.355   0.266   4.031
 6514SOL    HW120441   4.413   0.336   3.989
 6514SOL    HW220442   4.259   0.289   4.016
 6515SOL     OW20443   0.572   6.560   4.817
 6515SOL    HW120444   0.548   6.542   4.912
 6515SOL    HW220445   0.650   6.623   4.814
 6516SOL     OW20446   0.614   1.807   5.310
 6516SOL    HW120447   0.529   1.806   5.257
 6516SOL    HW220448   0.689   1.839   5.253
 6517SOL     OW20449   0.786   1.339   0.403
 6517SOL    HW120450   0.879   1.311   0.425
 6517SOL    HW220451   0.733   1.259   0.374
 6518SOL     OW20452   6.900   6.266   1.209
 6518SOL    HW120453   6.967   6.240   1.279
 6518SOL    HW220454   6.929   6.351   1.165
 6519SOL     OW20455   1.975   2.143   4.382
 6519SOL    HW120456   1.974   2.232   4.427
 6519SOL    HW220457   2.042   2.144   4.308
 6520SOL     OW20458   6.126   5.697   1.510
 6520SOL    HW120459   6.121   5.709   1.411
 6520SOL    HW220460   6.175   5.774   1.551
 6521SOL     OW20461   0.062   1.841   5.095
 6521SOL    HW120462   0.067   1.941   5.095
 6521SOL    HW220463   6.993   1.813   5.120
 6522SOL     OW20464   2.511   5.229   6.540
 6522SOL    HW120465   2.420   5.233   6.499
 6522SOL    HW220466   2.565   5.158   6.495
 6523SOL     OW20467   2.074   1.306   6.116
 6523SOL    HW120468   2.154   1.367   6.114
 6523SOL    HW220469   2.002   1.347   6.172
 6524SOL     OW20470   4.013   3.479   3.233
 6524SOL    HW120471   4.027   3.396   3.179
 6524SOL    HW220472   4.036   3.461   3.328
 6525SOL     OW20473   0.461   3.089   3.246
 6525SOL    HW120474   0.495   3.022   3.180
 6525SOL    HW220475   0.538   3.126   3.299
 6526SOL     OW20476   1.947   6.018   5.061
 6526SOL    HW120477   1.956   5.976   5.151
 6526SOL    HW220478   1.996   6.105   5.060
 6527SOL     OW20479   1.219   6.840   5.029
 6527SOL    HW120480   1.269   6.768   4.980
 6527SOL    HW220481   1.154   6.798   5.092
 6528SOL     OW20482   0.152   1.637   4.375
 6528SOL    HW120483   0.081   1.590   4.427
 6528SOL    HW220484   0.183   1.580   4.299
 6529SOL     OW20485   6.674   1.306   1.678
 6529SOL    HW120486   6.625   1.242   1.618
 6529SOL    HW220487   6.609   1.360   1.731
 6530SOL     OW20488   6.876   1.783   0.543
 6530SOL    HW120489   6.866   1.727   0.461
 6530SOL    HW220490   6.798   1.767   0.605
 6531SOL     OW20491   5.441   3.070   4.035
 6531SOL    HW120492   5.457   2.984   4.084
 6531SOL    HW220493   5.351   3.067   3.991
 6532SOL     OW20494   6.451   1.564   6.341
 6532SOL    HW120495   6.544   1.528   6.333
 6532SOL    HW220496   6.390   1.492   6.375
 6533SOL     OW20497   4.740   0.236   1.482
 6533SOL    HW120498   4.662   0.175   1.466
 6533SOL    HW220499   4.815   0.185   1.523
 6534SOL     OW20500   2.270   4.412   1.020
 6534SOL    HW120501   2.357   4.459   1.009
 6534SOL    HW220502   2.254   4.351   0.942
 6535SOL     OW20503   0.357   3.720   5.437
 6535SOL    HW120504   0.366   3.818   5.419
 6535SOL    HW220505   0.293   3.680   5.371
 6536SOL     OW20506   5.878   1.856   6.846
 6536SOL    HW120507   5.887   1.768   6.800
 6536SOL    HW220508   5.968   1.886   6.879
 6537SOL     OW20509   0.909   6.844   0.240
 6537SOL    HW120510   0.850   6.925   0.240
 6537SOL    HW220511   0.908   6.802   0.149
 6538SOL     OW20512   3.002   3.617   0.019
 6538SOL    HW120513   3.078   3.645   6.984
 6538SOL    HW220514   3.030   3.540   0.077
 6539SOL     OW20515   2.586   1.573   6.916
 6539SOL    HW120516   2.657   1.531   6.860
 6539SOL    HW220517   2.558   1.660   6.874
 6540SOL     OW20518   2.839   1.378   4.678
 6540SOL    HW120519   2.867   1.453   4.619
 6540SOL    HW220520   2.893   1.379   4.762
 6541SOL     OW20521   2.577   2.459   6.212
 6541SOL    HW120522   2.616   2.380   6.164
 6541SOL    HW220523   2.490   2.484   6.169
 6542SOL     OW20524   6.265   4.253   3.942
 6542SOL    HW120525   6.251   4.272   3.845
 6542SOL    HW220526   6.177   4.231   3.984
 6543SOL     OW20527   6.350   6.243   6.752
 6543SOL    HW120528   6.386   6.225   6.661
 6543SOL    HW220529   6.366   6.339   6.775
 6544SOL     OW20530   6.409   6.506   4.251
 6544SOL    HW120531   6.495   6.554   4.235
 6544SOL    HW220532   6.358   6.500   4.165
 6545SOL     OW20533   5.030   1.886   5.154
 6545SOL    HW120534   5.022   1.800   5.104
 6545SOL    HW220535   5.034   1.868   5.252
 6546SOL     OW20536   3.044   4.827   5.888
 6546SOL    HW120537   3.006   4.841   5.979
 6546SOL    HW220538   2.998   4.888   5.823
 6547SOL     OW20539   5.078   2.306   6.538
 6547SOL    HW120540   5.140   2.289   6.461
 6547SOL    HW220541   5.030   2.221   6.561
 6548SOL     OW20542   6.929   4.397   5.906
 6548SOL    HW120543   6.980   4.312   5.915
 6548SOL    HW220544   6.847   4.394   5.964
 6549SOL     OW20545   3.144   2.430   0.792
 6549SOL    HW120546   3.227   2.483   0.805
 6549SOL    HW220547   3.164   2.349   0.738
 6550SOL     OW20548   0.343   5.861   3.587
 6550SOL    HW120549   0.329   5.762   3.579
 6550SOL    HW220550   0.271   5.900   3.645
 6551SOL     OW20551   1.724   4.817   1.731
 6551SOL    HW120552   1.671   4.838   1.648
 6551SOL    HW220553   1.666   4.766   1.794
 6552SOL     OW20554   2.856   4.939   5.465
 6552SOL    HW120555   2.933   5.000   5.449
 6552SOL    HW220556   2.834   4.890   5.381
 6553SOL     OW20557   0.878   3.247   2.676
 6553SOL    HW120558   0.939   3.216   2.749
 6553SOL    HW220559   0.815   3.316   2.713
 6554SOL     OW20560   6.447   2.322   5.388
 6554SOL    HW120561   6.509   2.266   5.333
 6554SOL    HW220562   6.400   2.265   5.454
 6555SOL     OW20563   1.067   1.450   1.722
 6555SOL    HW120564   1.128   1.375   1.697
 6555SOL    HW220565   0.996   1.460   1.652
 6556SOL     OW20566   3.735   5.797   4.290
 6556SOL    HW120567   3.770   5.804   4.197
 6556SOL    HW220568   3.787   5.858   4.350
 6557SOL     OW20569   6.185   5.344   0.936
 6557SOL    HW120570   6.172   5.349   1.035
 6557SOL    HW220571   6.224   5.255   0.912
 6558SOL     OW20572   6.541   5.747   6.682
 6558SOL    HW120573   6.526   5.710   6.773
 6558SOL    HW220574   6.454   5.747   6.631
 6559SOL     OW20575   3.979   3.967   0.811
 6559SOL    HW120576   3.956   3.897   0.878
 6559SOL    HW220577   3.912   4.042   0.817
 6560SOL     OW20578   3.688   2.156   0.077
 6560SOL    HW120579   3.661   2.063   0.103
 6560SOL    HW220580   3.609   2.217   0.089
 6561SOL     OW20581   4.149   3.413   2.943
 6561SOL    HW120582   4.084   3.407   2.867
 6561SOL    HW220583   4.122   3.350   3.016
 6562SOL     OW20584   6.055   4.352   6.194
 6562SOL    HW120585   5.976   4.380   6.139
 6562SOL    HW220586   6.097   4.433   6.236
 6563SOL     OW20587   1.073   5.497   1.718
 6563SOL    HW120588   1.064   5.536   1.810
 6563SOL    HW220589   0.983   5.490   1.675
 6564SOL     OW20590   1.152   4.389   1.889
 6564SOL    HW120591   1.108   4.418   1.803
 6564SOL    HW220592   1.083   4.380   1.960
 6565SOL     OW20593   6.562   2.669   5.170
 6565SOL    HW120594   6.491   2.739   5.173
 6565SOL    HW220595   6.532   2.592   5.114
 6566SOL     OW20596   3.326   6.929   1.090
 6566SOL    HW120597   3.419   6.931   1.127
 6566SOL    HW220598   3.313   6.844   1.039
 6567SOL     OW20599   5.134   2.447   1.055
 6567SOL    HW120600   5.164   2.534   1.096
 6567SOL    HW220601   5.038   2.453   1.030
 6568SOL     OW20602   4.490   4.239   1.420
 6568SOL    HW120603   4.406   4.219   1.469
 6568SOL    HW220604   4.478   4.321   1.364
 6569SOL     OW20605   1.468   4.435   6.849
 6569SOL    HW120606   1.533   4.482   6.907
 6569SOL    HW220607   1.413   4.502   6.799
 6570SOL     OW20608   5.611   2.060   1.584
 6570SOL    HW120609   5.529   2.003   1.582
 6570SOL    HW220610   5.674   2.025   1.653
 6571SOL     OW20611   2.478   5.965   3.214
 6571SOL    HW120612   2.457   5.911   3.132
 6571SOL    HW220613   2.549   5.918   3.267
 6572SOL     OW20614   0.187   4.282   5.728
 6572SOL    HW120615   0.280   4.317   5.736
 6572SOL    HW220616   0.138   4.333   5.657
 6573SOL     OW20617   2.470   1.223   2.438
 6573SOL    HW120618   2.490   1.145   2.378
 6573SOL    HW220619   2.537   1.295   2.423
 6574SOL     OW20620   2.963   4.814   2.823
 6574SOL    HW120621   2.958   4.912   2.803
 6574SOL    HW220622   2.970   4.763   2.737
 6575SOL     OW20623   1.372   1.758   2.403
 6575SOL    HW120624   1.294   1.702   2.431
 6575SOL    HW220625   1.360   1.852   2.435
 6576SOL     OW20626   1.590   6.009   6.390
 6576SOL    HW120627   1.586   5.934   6.324
 6576SOL    HW220628   1.498   6.041   6.409
 6577SOL     OW20629   0.333   1.768   3.869
 6577SOL    HW120630   0.268   1.811   3.933
 6577SOL    HW220631   0.417   1.822   3.866
 6578SOL     OW20632   6.528   5.333   3.869
 6578SOL    HW120633   6.455   5.294   3.925
 6578SOL    HW220634   6.497   5.419   3.829
 6579SOL     OW20635   6.837   4.216   3.093
 6579SOL    HW120636   6.752   4.262   3.069
 6579SOL    HW220637   6.824   4.117   3.090
 6580SOL     OW20638   6.011   1.641   2.163
 6580SOL    HW120639   5.997   1.739   2.176
 6580SOL    HW220640   5.976   1.591   2.243
 6581SOL     OW20641   3.017   2.178   6.704
 6581SOL    HW120642   3.006   2.125   6.620
 6581SOL    HW220643   2.993   2.121   6.783
 6582SOL     OW20644   6.768   0.316   2.685
 6582SOL    HW120645   6.719   0.379   2.746
 6582SOL    HW220646   6.764   0.350   2.591
 6583SOL     OW20647   5.174   1.729   5.662
 6583SOL    HW120648   5.184   1.795   5.737
 6583SOL    HW220649   5.264   1.696   5.635
 6584SOL     OW20650   5.900   1.617   6.665
 6584SOL    HW120651   5.891   1.684   6.592
 6584SOL    HW220652   5.823   1.553   6.662
 6585SOL     OW20653   1.122   1.852   6.676
 6585SOL    HW120654   1.142   1.831   6.580
 6585SOL    HW220655   1.024   1.840   6.692
 6586SOL     OW20656   6.245   2.013   6.077
 6586SOL    HW120657   6.343   2.000   6.089
 6586SOL    HW220658   6.209   1.941   6.017
 6587SOL     OW20659   2.288   6.554   3.210
 6587SOL    HW120660   2.333   6.643   3.198
 6587SOL    HW220661   2.286   6.506   3.123
 6588SOL     OW20662   1.546   2.875   6.813
 6588SOL    HW120663   1.547   2.775   6.805
 6588SOL    HW220664   1.475   2.913   6.753
 6589SOL     OW20665   4.564   1.614   5.252
 6589SOL    HW120666   4.491   1.574   5.307
 6589SOL    HW220667   4.615   1.541   5.206
 6590SOL     OW20668   0.229   1.520   5.546
 6590SOL    HW120669   0.198   1.498   5.453
 6590SOL    HW220670   0.298   1.592   5.542
 6591SOL     OW20671   5.912   0.902   3.149
 6591SOL    HW120672   5.878   0.901   3.055
 6591SOL    HW220673   5.951   0.993   3.169
 6592SOL     OW20674   4.598   5.506   4.444
 6592SOL    HW120675   4.680   5.502   4.387
 6592SOL    HW220676   4.624   5.529   4.538
 6593SOL     OW20677   3.302   1.614   3.071
 6593SOL    HW120678   3.327   1.709   3.053
 6593SOL    HW220679   3.358   1.553   3.015
 6594SOL     OW20680   5.426   0.510   6.750
 6594SOL    HW120681   5.400   0.458   6.669
 6594SOL    HW220682   5.397   0.461   6.832
 6595SOL     OW20683   1.642   3.839   1.254
 6595SOL    HW120684   1.656   3.788   1.169
 6595SOL    HW220685   1.697   3.922   1.253
 6596SOL     OW20686   4.686   0.146   4.989
 6596SOL    HW120687   4.688   0.053   5.024
 6596SOL    HW220688   4.778   0.186   4.995
 6597SOL     OW20689   0.672   5.513   4.719
 6597SOL    HW120690   0.685   5.612   4.727
 6597SOL    HW220691   0.621   5.493   4.635
 6598SOL     OW20692   2.124   5.800   4.973
 6598SOL    HW120693   2.043   5.856   4.963
 6598SOL    HW220694   2.098   5.703   4.972
 6599SOL     OW20695   4.368   4.808   6.222
 6599SOL    HW120696   4.298   4.877   6.208
 6599SOL    HW220697   4.328   4.727   6.265
 6600SOL     OW20698   4.744   5.663   3.897
 6600SOL    HW120699   4.720   5.742   3.952
 6600SOL    HW220700   4.842   5.643   3.908
 6601SOL     OW20701   0.471   0.109   0.069
 6601SOL    HW120702   0.405   0.034   0.077
 6601SOL    HW220703   0.501   0.136   0.161
 6602SOL     OW20704   6.717   1.467   1.414
 6602SOL    HW120705   6.644   1.534   1.426
 6602SOL    HW220706   6.719   1.406   1.493
 6603SOL     OW20707   2.147   3.658   3.239
 6603SOL    HW120708   2.158   3.727   3.310
 6603SOL    HW220709   2.119   3.702   3.153
 6604SOL     OW20710   3.160   5.265   2.548
 6604SOL    HW120711   3.259   5.268   2.560
 6604SOL    HW220712   3.136   5.190   2.487
 6605SOL     OW20713   5.783   5.988   0.222
 6605SOL    HW120714   5.813   5.921   0.154
 6605SOL    HW220715   5.858   6.051   0.242
 6606SOL     OW20716   5.243   1.427   2.415
 6606SOL    HW120717   5.269   1.513   2.371
 6606SOL    HW220718   5.156   1.395   2.376
 6607SOL     OW20719   2.087   1.318   2.195
 6607SOL    HW120720   2.052   1.260   2.268
 6607SOL    HW220721   2.122   1.403   2.235
 6608SOL     OW20722   5.764   3.934   3.450
 6608SOL    HW120723   5.719   3.870   3.512
 6608SOL    HW220724   5.796   4.014   3.501
 6609SOL     OW20725   5.241   1.057   5.877
 6609SOL    HW120726   5.166   1.014   5.928
 6609SOL    HW220727   5.310   1.090   5.942
 6610SOL     OW20728   2.678   0.436   0.318
 6610SOL    HW120729   2.674   0.397   0.410
 6610SOL    HW220730   2.669   0.363   0.250
 6611SOL     OW20731   5.954   2.407   2.508
 6611SOL    HW120732   5.971   2.504   2.525
 6611SOL    HW220733   6.033   2.366   2.464
 6612SOL     OW20734   1.443   6.359   0.156
 6612SOL    HW120735   1.420   6.451   0.123
 6612SOL    HW220736   1.403   6.346   0.247
 6613SOL     OW20737   4.655   5.258   2.105
 6613SOL    HW120738   4.558   5.265   2.131
 6613SOL    HW220739   4.691   5.350   2.086
 6614SOL     OW20740   4.955   5.931   6.177
 6614SOL    HW120741   4.862   5.960   6.202
 6614SOL    HW220742   5.008   6.010   6.146
 6615SOL     OW20743   0.906   3.791   5.170
 6615SOL    HW120744   0.914   3.773   5.269
 6615SOL    HW220745   0.976   3.740   5.121
 6616SOL     OW20746   5.177   0.773   4.614
 6616SOL    HW120747   5.201   0.789   4.518
 6616SOL    HW220748   5.174   0.675   4.632
 6617SOL     OW20749   4.108   6.835   5.125
 6617SOL    HW120750   4.016   6.857   5.093
 6617SOL    HW220751   4.109   6.828   5.224
 6618SOL     OW20752   0.969   4.624   1.876
 6618SOL    HW120753   1.036   4.682   1.922
 6618SOL    HW220754   0.940   4.666   1.791
 6619SOL     OW20755   4.588   5.566   2.466
 6619SOL    HW120756   4.499   5.588   2.425
 6619SOL    HW220757   4.590   5.597   2.561
 6620SOL     OW20758   1.431   2.936   5.602
 6620SOL    HW120759   1.400   2.899   5.690
 6620SOL    HW220760   1.450   3.034   5.612
 6621SOL     OW20761   2.823   4.367   0.227
 6621SOL    HW120762   2.894   4.413   0.173
 6621SOL    HW220763   2.818   4.409   0.317
 6622SOL     OW20764   6.844   6.157   0.286
 6622SOL    HW120765   6.838   6.224   0.212
 6622SOL    HW220766   6.940   6.138   0.307
 6623SOL     OW20767   3.235   3.349   2.590
 6623SOL    HW120768   3.174   3.384   2.661
 6623SOL    HW220769   3.227   3.406   2.508
 6624SOL     OW20770   4.288   5.175   4.448
 6624SOL    HW120771   4.354   5.115   4.493
 6624SOL    HW220772   4.235   5.224   4.517
 6625SOL     OW20773   6.558   0.836   6.759
 6625SOL    HW120774   6.486   0.791   6.706
 6625SOL    HW220775   6.567   0.790   6.848
 6626SOL     OW20776   3.804   5.351   3.276
 6626SOL    HW120777   3.871   5.280   3.296
 6626SOL    HW220778   3.712   5.312   3.281
 6627SOL     OW20779   2.137   0.348   0.591
 6627SOL    HW120780   2.175   0.257   0.602
 6627SOL    HW220781   2.153   0.402   0.674
 6628SOL     OW20782   4.124   5.848   3.245
 6628SOL    HW120783   4.058   5.829   3.318
 6628SOL    HW220784   4.092   5.925   3.190
 6629SOL     OW20785   3.533   5.477   0.851
 6629SOL    HW120786   3.628   5.501   0.869
 6629SOL    HW220787   3.519   5.380   0.874
 6630SOL     OW20788   3.205   1.924   0.328
 6630SOL    HW120789   3.207   1.833   0.370
 6630SOL    HW220790   3.116   1.939   0.284
 6631SOL     OW20791   5.099   0.630   2.495
 6631SOL    HW120792   5.098   0.589   2.404
 6631SOL    HW220793   5.193   0.659   2.517
 6632SOL     OW20794   0.034   0.680   1.197
 6632SOL    HW120795   0.064   0.613   1.129
 6632SOL    HW220796   0.098   0.757   1.198
 6633SOL     OW20797   1.620   6.710   1.247
 6633SOL    HW120798   1.600   6.754   1.334
 6633SOL    HW220799   1.697   6.756   1.203
 6634SOL     OW20800   6.849   2.780   6.167
 6634SOL    HW120801   6.827   2.799   6.071
 6634SOL    HW220802   6.807   2.694   6.195
 6635SOL     OW20803   4.510   4.543   3.594
 6635SOL    HW120804   4.489   4.531   3.497
 6635SOL    HW220805   4.584   4.610   3.604
 6636SOL     OW20806   2.298   2.366   4.062
 6636SOL    HW120807   2.354   2.438   4.103
 6636SOL    HW220808   2.248   2.402   3.984
 6637SOL     OW20809   0.231   0.069   1.010
 6637SOL    HW120810   0.218   0.054   1.108
 6637SOL    HW220811   0.235   0.167   0.992
 6638SOL     OW20812   2.483   5.879   5.671
 6638SOL    HW120813   2.434   5.793   5.685
 6638SOL    HW220814   2.540   5.897   5.751
 6639SOL     OW20815   5.880   5.361   6.584
 6639SOL    HW120816   5.907   5.386   6.677
 6639SOL    HW220817   5.811   5.426   6.551
 6640SOL     OW20818   6.749   2.212   3.325
 6640SOL    HW120819   6.684   2.165   3.385
 6640SOL    HW220820   6.771   2.302   3.363
 6641SOL     OW20821   1.879   4.281   5.961
 6641SOL    HW120822   1.844   4.203   6.013
 6641SOL    HW220823   1.904   4.252   5.869
 6642SOL     OW20824   0.637   5.730   6.727
 6642SOL    HW120825   0.640   5.647   6.783
 6642SOL    HW220826   0.719   5.734   6.670
 6643SOL     OW20827   5.025   4.662   6.730
 6643SOL    HW120828   4.978   4.632   6.647
 6643SOL    HW220829   5.122   4.679   6.710
 6644SOL     OW20830   3.018   4.805   2.131
 6644SOL    HW120831   3.085   4.737   2.160
 6644SOL    HW220832   2.939   4.758   2.092
 6645SOL     OW20833   0.001   5.008   5.676
 6645SOL    HW120834   0.072   4.969   5.617
 6645SOL    HW220835   0.001   4.960   5.764
 6646SOL     OW20836   2.575   5.627   3.644
 6646SOL    HW120837   2.527   5.576   3.573
 6646SOL    HW220838   2.522   5.707   3.671
 6647SOL     OW20839   2.872   1.449   1.878
 6647SOL    HW120840   2.868   1.508   1.798
 6647SOL    HW220841   2.959   1.399   1.879
 6648SOL     OW20842   4.848   5.591   2.358
 6648SOL    HW120843   4.757   5.587   2.400
 6648SOL    HW220844   4.852   5.668   2.294
 6649SOL     OW20845   4.307   2.281   6.336
 6649SOL    HW120846   4.331   2.202   6.394
 6649SOL    HW220847   4.365   2.281   6.255
 6650SOL     OW20848   4.086   1.867   3.653
 6650SOL    HW120849   4.163   1.878   3.590
 6650SOL    HW220850   4.012   1.818   3.606
 6651SOL     OW20851   0.631   2.697   0.062
 6651SOL    HW120852   0.647   2.776   0.121
 6651SOL    HW220853   0.656   2.719   6.991
 6652SOL     OW20854   6.739   5.945   2.309
 6652SOL    HW120855   6.701   5.990   2.228
 6652SOL    HW220856   6.778   6.014   2.370
 6653SOL     OW20857   3.763   3.846   4.095
 6653SOL    HW120858   3.744   3.943   4.088
 6653SOL    HW220859   3.712   3.807   4.172
 6654SOL     OW20860   2.255   3.234   1.732
 6654SOL    HW120861   2.277   3.308   1.796
 6654SOL    HW220862   2.339   3.188   1.704
 6655SOL     OW20863   2.711   6.487   1.927
 6655SOL    HW120864   2.645   6.530   1.866
 6655SOL    HW220865   2.785   6.553   1.948
 6656SOL     OW20866   6.282   2.012   1.173
 6656SOL    HW120867   6.261   2.055   1.085
 6656SOL    HW220868   6.198   2.001   1.225
 6657SOL     OW20869   3.196   6.332   6.708
 6657SOL    HW120870   3.131   6.395   6.666
 6657SOL    HW220871   3.264   6.304   6.640
 6658SOL     OW20872   5.856   1.135   4.949
 6658SOL    HW120873   5.881   1.222   4.906
 6658SOL    HW220874   5.789   1.088   4.891
 6659SOL     OW20875   2.328   3.237   0.257
 6659SOL    HW120876   2.320   3.331   0.290
 6659SOL    HW220877   2.245   3.213   0.205
 6660SOL     OW20878   6.764   6.953   2.948
 6660SOL    HW120879   6.838   6.897   2.986
 6660SOL    HW220880   6.792   0.025   2.948
 6661SOL     OW20881   0.324   5.876   3.978
 6661SOL    HW120882   0.408   5.865   3.925
 6661SOL    HW220883   0.346   5.884   4.075
 6662SOL     OW20884   1.239   1.903   0.115
 6662SOL    HW120885   1.293   1.928   0.195
 6662SOL    HW220886   1.150   1.867   0.144
 6663SOL     OW20887   0.324   5.606   2.239
 6663SOL    HW120888   0.423   5.611   2.251
 6663SOL    HW220889   0.287   5.699   2.235
 6664SOL     OW20890   1.550   0.698   2.360
 6664SOL    HW120891   1.506   0.615   2.324
 6664SOL    HW220892   1.501   0.729   2.441
 6665SOL     OW20893   2.251   6.530   2.933
 6665SOL    HW120894   2.276   6.530   2.836
 6665SOL    HW220895   2.198   6.612   2.954
 6666SOL     OW20896   6.023   0.771   5.948
 6666SOL    HW120897   6.116   0.743   5.973
 6666SOL    HW220898   5.968   0.781   6.030
 6667SOL     OW20899   6.755   5.091   5.025
 6667SOL    HW120900   6.840   5.079   4.972
 6667SOL    HW220901   6.686   5.026   4.991
 6668SOL     OW20902   1.059   4.365   1.555
 6668SOL    HW120903   1.114   4.330   1.479
 6668SOL    HW220904   1.083   4.461   1.572
 6669SOL     OW20905   1.975   6.002   2.907
 6669SOL    HW120906   1.883   6.027   2.938
 6669SOL    HW220907   1.996   5.909   2.936
 6670SOL     OW20908   3.385   4.978   0.205
 6670SOL    HW120909   3.290   4.999   0.227
 6670SOL    HW220910   3.389   4.896   0.148
 6671SOL     OW20911   6.518   3.168   5.269
 6671SOL    HW120912   6.424   3.134   5.268
 6671SOL    HW220913   6.523   3.255   5.221
 6672SOL     OW20914   1.265   0.812   5.916
 6672SOL    HW120915   1.284   0.869   5.995
 6672SOL    HW220916   1.254   0.869   5.835
 6673SOL     OW20917   4.554   4.851   1.549
 6673SOL    HW120918   4.577   4.850   1.647
 6673SOL    HW220919   4.633   4.819   1.496
 6674SOL     OW20920   1.013   6.135   4.671
 6674SOL    HW120921   0.937   6.075   4.646
 6674SOL    HW220922   1.072   6.149   4.592
 6675SOL     OW20923   6.251   5.167   0.290
 6675SOL    HW120924   6.210   5.150   0.201
 6675SOL    HW220925   6.261   5.081   0.339
 6676SOL     OW20926   0.650   2.244   5.782
 6676SOL    HW120927   0.743   2.226   5.815
 6676SOL    HW220928   0.592   2.165   5.800
 6677SOL     OW20929   0.630   3.166   0.451
 6677SOL    HW120930   0.536   3.135   0.470
 6677SOL    HW220931   0.669   3.108   0.379
 6678SOL     OW20932   0.775   2.890   5.779
 6678SOL    HW120933   0.749   2.807   5.730
 6678SOL    HW220934   0.875   2.891   5.792
 6679SOL     OW20935   1.636   2.611   4.819
 6679SOL    HW120936   1.684   2.554   4.753
 6679SOL    HW220937   1.685   2.609   4.906
 6680SOL     OW20938   3.374   6.618   6.397
 6680SOL    HW120939   3.417   6.644   6.310
 6680SOL    HW220940   3.439   6.634   6.472
 6681SOL     OW20941   5.059   5.408   0.779
 6681SOL    HW120942   5.094   5.368   0.694
 6681SOL    HW220943   5.072   5.507   0.777
 6682SOL     OW20944   0.730   5.263   1.927
 6682SOL    HW120945   0.659   5.202   1.893
 6682SOL    HW220946   0.764   5.229   2.015
 6683SOL     OW20947   5.043   1.985   4.622
 6683SOL    HW120948   4.970   2.026   4.676
 6683SOL    HW220949   5.017   1.985   4.525
 6684SOL     OW20950   1.561   7.006   2.582
 6684SOL    HW120951   1.652   6.998   2.543
 6684SOL    HW220952   1.527   6.915   2.608
 6685SOL     OW20953   4.938   3.236   6.407
 6685SOL    HW120954   4.932   3.158   6.469
 6685SOL    HW220955   4.959   3.319   6.458
 6686SOL     OW20956   6.315   3.773   3.027
 6686SOL    HW120957   6.310   3.705   2.953
 6686SOL    HW220958   6.260   3.853   3.002
 6687SOL     OW20959   1.030   1.469   1.028
 6687SOL    HW120960   0.993   1.542   1.085
 6687SOL    HW220961   1.091   1.508   0.958
 6688SOL     OW20962   0.913   4.270   2.741
 6688SOL    HW120963   0.925   4.338   2.669
 6688SOL    HW220964   0.858   4.194   2.707
 6689SOL     OW20965   4.666   4.540   0.089
 6689SOL    HW120966   4.754   4.530   0.135
 6689SOL    HW220967   4.640   4.636   0.086
 6690SOL     OW20968   2.221   2.899   0.501
 6690SOL    HW120969   2.169   2.904   0.586
 6690SOL    HW220970   2.319   2.905   0.521
 6691SOL     OW20971   2.712   5.038   1.443
 6691SOL    HW120972   2.691   4.940   1.437
 6691SOL    HW220973   2.807   5.050   1.473
 6692SOL     OW20974   3.437   4.207   5.265
 6692SOL    HW120975   3.530   4.209   5.299
 6692SOL    HW220976   3.387   4.288   5.295
 6693SOL     OW20977   4.280   3.464   5.345
 6693SOL    HW120978   4.251   3.558   5.366
 6693SOL    HW220979   4.380   3.458   5.350
 6694SOL     OW20980   4.083   6.040   1.008
 6694SOL    HW120981   4.086   6.120   0.947
 6694SOL    HW220982   4.016   5.975   0.973
 6695SOL     OW20983   1.173   1.396   6.559
 6695SOL    HW120984   1.232   1.316   6.572
 6695SOL    HW220985   1.227   1.472   6.524
 6696SOL     OW20986   1.977   3.134   1.869
 6696SOL    HW120987   1.909   3.098   1.806
 6696SOL    HW220988   1.988   3.232   1.855
 6697SOL     OW20989   4.643   1.347   3.112
 6697SOL    HW120990   4.666   1.360   3.208
 6697SOL    HW220991   4.570   1.279   3.103
 6698SOL     OW20992   3.850   3.593   0.325
 6698SOL    HW120993   3.753   3.616   0.320
 6698SOL    HW220994   3.864   3.499   0.294
 6699SOL     OW20995   1.601   4.325   0.059
 6699SOL    HW120996   1.515   4.290   0.096
 6699SOL    HW220997   1.645   4.253   0.005
 6700SOL     OW20998   0.073   5.795   0.803
 6700SOL    HW120999   0.079   5.890   0.772
 6700SOL    HW221000   7.008   5.779   0.847
 6701SOL     OW21001   0.340   1.780   0.807
 6701SOL    HW121002   0.392   1.701   0.777
 6701SOL    HW221003   0.272   1.804   0.737
 6702SOL     OW21004   2.549   1.580   1.562
 6702SOL    HW121005   2.475   1.564   1.496
 6702SOL    HW221006   2.617   1.641   1.522
 6703SOL     OW21007   6.821   1.276   6.820
 6703SOL    HW121008   6.791   1.208   6.753
 6703SOL    HW221009   6.884   1.233   6.885
 6704SOL     OW21010   5.034   2.056   2.409
 6704SOL    HW121011   4.974   2.099   2.477
 6704SOL    HW221012   5.102   2.122   2.378
 6705SOL     OW21013   5.662   1.984   0.334
 6705SOL    HW121014   5.683   1.980   0.432
 6705SOL    HW221015   5.746   1.996   0.282
 6706SOL     OW21016   0.730   4.330   6.363
 6706SOL    HW121017   0.715   4.231   6.363
 6706SOL    HW221018   0.813   4.351   6.310
 6707SOL     OW21019   0.891   5.628   3.141
 6707SOL    HW121020   0.930   5.707   3.188
 6707SOL    HW221021   0.955   5.595   3.072
 6708SOL     OW21022   1.935   6.005   2.134
 6708SOL    HW121023   1.987   5.962   2.208
 6708SOL    HW221024   1.855   6.051   2.172
 6709SOL     OW21025   4.575   1.391   2.324
 6709SOL    HW121026   4.597   1.317   2.388
 6709SOL    HW221027   4.486   1.430   2.347
 6710SOL     OW21028   3.128   2.324   0.211
 6710SOL    HW121029   3.078   2.409   0.194
 6710SOL    HW221030   3.217   2.344   0.251
 6711SOL     OW21031   3.736   4.170   0.169
 6711SOL    HW121032   3.730   4.076   0.135
 6711SOL    HW221033   3.772   4.230   0.097
 6712SOL     OW21034   3.779   6.159   6.912
 6712SOL    HW121035   3.872   6.196   6.915
 6712SOL    HW221036   3.744   6.165   6.819
 6713SOL     OW21037   2.017   2.626   1.525
 6713SOL    HW121038   1.973   2.541   1.498
 6713SOL    HW221039   1.954   2.681   1.580
 6714SOL     OW21040   5.995   0.648   4.519
 6714SOL    HW121041   5.966   0.553   4.512
 6714SOL    HW221042   5.926   0.700   4.570
 6715SOL     OW21043   0.450   1.086   0.689
 6715SOL    HW121044   0.476   1.047   0.778
 6715SOL    HW221045   0.500   1.039   0.617
 6716SOL     OW21046   1.927   5.651   1.386
 6716SOL    HW121047   1.868   5.666   1.306
 6716SOL    HW221048   1.974   5.563   1.376
 6717SOL     OW21049   4.092   2.073   6.749
 6717SOL    HW121050   4.010   2.077   6.807
 6717SOL    HW221051   4.140   2.160   6.753
 6718SOL     OW21052   3.276   0.744   0.887
 6718SOL    HW121053   3.177   0.747   0.903
 6718SOL    HW221054   3.311   0.654   0.913
 6719SOL     OW21055   6.402   6.544   5.272
 6719SOL    HW121056   6.430   6.456   5.311
 6719SOL    HW221057   6.353   6.528   5.186
 6720SOL     OW21058   1.721   5.076   1.300
 6720SOL    HW121059   1.744   5.158   1.353
 6720SOL    HW221060   1.709   5.101   1.204
 6721SOL     OW21061   5.280   6.309   3.806
 6721SOL    HW121062   5.330   6.312   3.893
 6721SOL    HW221063   5.220   6.229   3.805
 6722SOL     OW21064   4.330   3.024   6.547
 6722SOL    HW121065   4.408   2.965   6.570
 6722SOL    HW221066   4.337   3.109   6.599
 6723SOL     OW21067   4.198   6.602   2.790
 6723SOL    HW121068   4.173   6.627   2.697
 6723SOL    HW221069   4.126   6.630   2.853
 6724SOL     OW21070   3.468   5.242   5.034
 6724SOL    HW121071   3.560   5.263   5.067
 6724SOL    HW221072   3.428   5.170   5.090
 6725SOL     OW21073   0.240   4.837   2.584
 6725SOL    HW121074   0.154   4.816   2.631
 6725SOL    HW221075   0.262   4.934   2.597
 6726SOL     OW21076   2.535   2.149   3.527
 6726SOL    HW121077   2.583   2.232   3.555
 6726SOL    HW221078   2.500   2.160   3.434
 6727SOL     OW21079   3.656   3.461   6.672
 6727SOL    HW121080   3.619   3.523   6.741
 6727SOL    HW221081   3.625   3.368   6.689
 6728SOL     OW21082   4.194   1.650   3.752
 6728SOL    HW121083   4.244   1.651   3.839
 6728SOL    HW221084   4.149   1.738   3.739
 6729SOL     OW21085   5.816   0.727   2.671
 6729SOL    HW121086   5.822   0.802   2.737
 6729SOL    HW221087   5.749   0.750   2.600
 6730SOL     OW21088   2.415   0.896   0.114
 6730SOL    HW121089   2.407   0.808   0.067
 6730SOL    HW221090   2.512   0.917   0.130
 6731SOL     OW21091   2.576   4.811   1.756
 6731SOL    HW121092   2.582   4.809   1.856
 6731SOL    HW221093   2.585   4.906   1.724
 6732SOL     OW21094   2.756   5.346   0.846
 6732SOL    HW121095   2.710   5.414   0.902
 6732SOL    HW221096   2.780   5.267   0.904
 6733SOL     OW21097   5.238   6.109   5.231
 6733SOL    HW121098   5.330   6.125   5.267
 6733SOL    HW221099   5.196   6.196   5.207
 6734SOL     OW21100   2.476   3.648   5.419
 6734SOL    HW121101   2.478   3.556   5.379
 6734SOL    HW221102   2.474   3.641   5.518
 6735SOL     OW21103   0.151   5.224   6.080
 6735SOL    HW121104   0.170   5.304   6.137
 6735SOL    HW221105   0.072   5.175   6.116
 6736SOL     OW21106   2.021   3.403   2.186
 6736SOL    HW121107   2.017   3.304   2.173
 6736SOL    HW221108   2.080   3.443   2.115
 6737SOL     OW21109   2.691   0.662   1.470
 6737SOL    HW121110   2.651   0.707   1.390
 6737SOL    HW221111   2.709   0.731   1.541
 6738SOL     OW21112   3.209   1.055   2.505
 6738SOL    HW121113   3.125   1.100   2.473
 6738SOL    HW221114   3.241   1.101   2.588
 6739SOL     OW21115   3.760   6.667   4.573
 6739SOL    HW121116   3.782   6.746   4.631
 6739SOL    HW221117   3.662   6.668   4.551
 6740SOL     OW21118   0.211   2.053   4.544
 6740SOL    HW121119   0.207   2.094   4.635
 6740SOL    HW221120   0.117   2.037   4.511
 6741SOL     OW21121   6.286   6.894   6.347
 6741SOL    HW121122   6.287   6.978   6.400
 6741SOL    HW221123   6.375   6.849   6.353
 6742SOL     OW21124   6.241   5.643   6.116
 6742SOL    HW121125   6.208   5.694   6.195
 6742SOL    HW221126   6.169   5.582   6.083
 6743SOL     OW21127   4.609   2.857   1.074
 6743SOL    HW121128   4.626   2.954   1.054
 6743SOL    HW221129   4.515   2.835   1.050
 6744SOL     OW21130   4.672   4.794   5.620
 6744SOL    HW121131   4.629   4.711   5.584
 6744SOL    HW221132   4.767   4.775   5.645
 6745SOL     OW21133   0.594   4.337   3.753
 6745SOL    HW121134   0.513   4.278   3.752
 6745SOL    HW221135   0.633   4.337   3.845
 6746SOL     OW21136   0.143   1.455   0.722
 6746SOL    HW121137   0.110   1.455   0.627
 6746SOL    HW221138   0.203   1.376   0.736
 6747SOL     OW21139   5.372   6.076   5.636
 6747SOL    HW121140   5.433   6.153   5.657
 6747SOL    HW221141   5.324   6.048   5.720
 6748SOL     OW21142   0.617   6.851   2.014
 6748SOL    HW121143   0.641   6.924   1.950
 6748SOL    HW221144   0.681   6.852   2.091
 6749SOL     OW21145   4.081   6.305   0.929
 6749SOL    HW121146   4.119   6.390   0.965
 6749SOL    HW221147   3.991   6.322   0.889
 6750SOL     OW21148   2.673   3.180   5.314
 6750SOL    HW121149   2.699   3.110   5.380
 6750SOL    HW221150   2.594   3.148   5.261
 6751SOL     OW21151   3.161   1.979   5.438
 6751SOL    HW121152   3.104   2.046   5.389
 6751SOL    HW221153   3.102   1.919   5.493
 6752SOL     OW21154   6.172   1.569   0.305
 6752SOL    HW121155   6.247   1.565   0.371
 6752SOL    HW221156   6.185   1.647   0.244
 6753SOL     OW21157   4.947   2.084   6.649
 6753SOL    HW121158   4.873   2.133   6.695
 6753SOL    HW221159   5.008   2.044   6.718
 6754SOL     OW21160   5.759   0.847   0.024
 6754SOL    HW121161   5.676   0.856   6.992
 6754SOL    HW221162   5.742   0.882   0.116
 6755SOL     OW21163   4.677   2.102   3.699
 6755SOL    HW121164   4.670   2.193   3.740
 6755SOL    HW221165   4.587   2.061   3.693
 6756SOL     OW21166   5.350   4.365   4.583
 6756SOL    HW121167   5.367   4.302   4.507
 6756SOL    HW221168   5.260   4.345   4.624
 6757SOL     OW21169   5.927   5.604   1.951
 6757SOL    HW121170   5.882   5.659   1.880
 6757SOL    HW221171   5.989   5.663   2.004
 6758SOL     OW21172   5.035   2.407   2.223
 6758SOL    HW121173   4.991   2.400   2.134
 6758SOL    HW221174   5.135   2.409   2.210
 6759SOL     OW21175   6.929   4.368   3.469
 6759SOL    HW121176   7.011   4.423   3.482
 6759SOL    HW221177   6.849   4.421   3.497
 6760SOL     OW21178   6.572   3.670   4.875
 6760SOL    HW121179   6.590   3.741   4.807
 6760SOL    HW221180   6.483   3.629   4.856
 6761SOL     OW21181   5.045   3.521   6.110
 6761SOL    HW121182   4.966   3.509   6.170
 6761SOL    HW221183   5.087   3.610   6.127
 6762SOL     OW21184   5.722   4.735   4.431
 6762SOL    HW121185   5.793   4.804   4.446
 6762SOL    HW221186   5.691   4.739   4.336
 6763SOL     OW21187   5.834   6.619   6.060
 6763SOL    HW121188   5.829   6.597   5.963
 6763SOL    HW221189   5.889   6.701   6.074
 6764SOL     OW21190   2.439   4.144   6.475
 6764SOL    HW121191   2.506   4.104   6.537
 6764SOL    HW221192   2.363   4.080   6.462
 6765SOL     OW21193   5.831   4.975   3.002
 6765SOL    HW121194   5.757   4.907   2.995
 6765SOL    HW221195   5.795   5.065   2.979
 6766SOL     OW21196   1.462   0.737   5.663
 6766SOL    HW121197   1.534   0.807   5.662
 6766SOL    HW221198   1.374   0.780   5.645
 6767SOL     OW21199   0.409   2.597   6.652
 6767SOL    HW121200   0.333   2.557   6.703
 6767SOL    HW221201   0.483   2.530   6.645
 6768SOL     OW21202   0.171   0.512   5.410
 6768SOL    HW121203   0.090   0.525   5.469
 6768SOL    HW221204   0.148   0.450   5.336
 6769SOL     OW21205   1.841   3.318   6.172
 6769SOL    HW121206   1.916   3.372   6.212
 6769SOL    HW221207   1.876   3.264   6.095
 6770SOL     OW21208   0.545   1.570   3.318
 6770SOL    HW121209   0.489   1.653   3.317
 6770SOL    HW221210   0.556   1.539   3.412
 6771SOL     OW21211   4.282   1.647   2.771
 6771SOL    HW121212   4.270   1.586   2.693
 6771SOL    HW221213   4.305   1.593   2.853
 6772SOL     OW21214   0.348   0.713   1.885
 6772SOL    HW121215   0.295   0.635   1.850
 6772SOL    HW221216   0.393   0.688   1.970
 6773SOL     OW21217   1.071   6.747   1.089
 6773SOL    HW121218   1.020   6.739   1.003
 6773SOL    HW221219   1.163   6.711   1.076
 6774SOL     OW21220   2.619   2.400   5.828
 6774SOL    HW121221   2.536   2.437   5.871
 6774SOL    HW221222   2.683   2.373   5.899
 6775SOL     OW21223   0.657   2.451   4.539
 6775SOL    HW121224   0.691   2.358   4.523
 6775SOL    HW221225   0.669   2.505   4.455
 6776SOL     OW21226   3.722   3.456   3.248
 6776SOL    HW121227   3.727   3.521   3.323
 6776SOL    HW221228   3.811   3.411   3.236
 6777SOL     OW21229   6.564   6.178   6.528
 6777SOL    HW121230   6.487   6.149   6.470
 6777SOL    HW221231   6.647   6.182   6.474
 6778SOL     OW21232   5.617   5.928   1.998
 6778SOL    HW121233   5.702   5.980   1.985
 6778SOL    HW221234   5.638   5.830   1.999
 6779SOL     OW21235   5.105   3.918   6.352
 6779SOL    HW121236   5.129   3.995   6.411
 6779SOL    HW221237   5.188   3.876   6.317
 6780SOL     OW21238   3.864   2.154   2.548
 6780SOL    HW121239   3.870   2.186   2.454
 6780SOL    HW221240   3.943   2.097   2.570
 6781SOL     OW21241   6.900   1.811   3.069
 6781SOL    HW121242   6.819   1.753   3.056
 6781SOL    HW221243   6.930   1.805   3.164
 6782SOL     OW21244   0.127   1.961   3.166
 6782SOL    HW121245   0.078   1.992   3.247
 6782SOL    HW221246   0.138   2.037   3.102
 6783SOL     OW21247   0.519   5.424   5.989
 6783SOL    HW121248   0.465   5.357   5.938
 6783SOL    HW221249   0.536   5.391   6.081
 6784SOL     OW21250   2.234   3.896   1.607
 6784SOL    HW121251   2.280   3.942   1.683
 6784SOL    HW221252   2.301   3.874   1.537
 6785SOL     OW21253   5.643   5.096   4.409
 6785SOL    HW121254   5.665   5.187   4.374
 6785SOL    HW221255   5.589   5.046   4.342
 6786SOL     OW21256   5.510   1.819   5.908
 6786SOL    HW121257   5.538   1.877   5.831
 6786SOL    HW221258   5.532   1.724   5.888
 6787SOL     OW21259   3.027   1.914   0.105
 6787SOL    HW121260   2.956   1.871   0.049
 6787SOL    HW221261   2.987   1.991   0.156
 6788SOL     OW21262   0.344   4.256   2.229
 6788SOL    HW121263   0.319   4.177   2.285
 6788SOL    HW221264   0.405   4.227   2.156
 6789SOL     OW21265   5.242   4.577   3.214
 6789SOL    HW121266   5.158   4.534   3.248
 6789SOL    HW221267   5.239   4.583   3.114
 6790SOL     OW21268   1.000   4.711   6.497
 6790SOL    HW121269   0.970   4.723   6.592
 6790SOL    HW221270   1.081   4.768   6.480
 6791SOL     OW21271   2.538   0.045   2.945
 6791SOL    HW121272   2.553   0.109   2.870
 6791SOL    HW221273   2.474   6.997   2.916
 6792SOL     OW21274   4.112   0.284   5.581
 6792SOL    HW121275   4.106   0.341   5.499
 6792SOL    HW221276   4.207   0.280   5.612
 6793SOL     OW21277   2.062   3.518   5.949
 6793SOL    HW121278   2.104   3.439   5.904
 6793SOL    HW221279   2.071   3.509   6.048
 6794SOL     OW21280   5.958   2.521   5.202
 6794SOL    HW121281   6.052   2.508   5.169
 6794SOL    HW221282   5.959   2.532   5.301
 6795SOL     OW21283   1.170   0.733   1.537
 6795SOL    HW121284   1.155   0.725   1.636
 6795SOL    HW221285   1.181   0.642   1.498
 6796SOL     OW21286   6.377   1.871   2.452
 6796SOL    HW121287   6.353   1.778   2.426
 6796SOL    HW221288   6.451   1.869   2.520
 6797SOL     OW21289   0.660   3.253   1.593
 6797SOL    HW121290   0.570   3.258   1.638
 6797SOL    HW221291   0.655   3.295   1.503
 6798SOL     OW21292   5.447   0.561   1.856
 6798SOL    HW121293   5.363   0.615   1.846
 6798SOL    HW221294   5.525   0.622   1.864
 6799SOL     OW21295   6.306   0.216   3.602
 6799SOL    HW121296   6.322   0.175   3.512
 6799SOL    HW221297   6.308   0.146   3.672
 6800SOL     OW21298   6.460   3.286   1.582
 6800SOL    HW121299   6.457   3.214   1.652
 6800SOL    HW221300   6.552   3.289   1.542
 6801SOL     OW21301   0.706   6.453   6.851
 6801SOL    HW121302   0.786   6.397   6.833
 6801SOL    HW221303   0.729   6.549   6.837
 6802SOL     OW21304   3.063   5.018   1.698
 6802SOL    HW121305   2.989   4.961   1.734
 6802SOL    HW221306   3.099   5.075   1.772
 6803SOL     OW21307   5.370   5.178   6.192
 6803SOL    HW121308   5.461   5.168   6.151
 6803SOL    HW221309   5.321   5.091   6.186
 6804SOL     OW21310   3.666   5.180   2.689
 6804SOL    HW121311   3.748   5.208   2.638
 6804SOL    HW221312   3.657   5.237   2.770
 6805SOL     OW21313   0.109   4.139   4.420
 6805SOL    HW121314   0.192   4.097   4.456
 6805SOL    HW221315   0.131   4.226   4.377
 6806SOL     OW21316   6.204   2.703   1.639
 6806SOL    HW121317   6.169   2.717   1.546
 6806SOL    HW221318   6.132   2.724   1.705
 6807SOL     OW21319   3.036   3.918   2.057
 6807SOL    HW121320   3.053   3.984   1.984
 6807SOL    HW221321   3.029   3.826   2.018
 6808SOL     OW21322   3.517   0.874   4.120
 6808SOL    HW121323   3.505   0.814   4.041
 6808SOL    HW221324   3.438   0.935   4.128
 6809SOL     OW21325   6.264   3.048   6.427
 6809SOL    HW121326   6.315   3.134   6.421
 6809SOL    HW221327   6.189   3.049   6.360
 6810SOL     OW21328   2.861   0.870   4.653
 6810SOL    HW121329   2.843   0.897   4.559
 6810SOL    HW221330   2.895   0.776   4.655
 6811SOL     OW21331   6.292   1.288   0.170
 6811SOL    HW121332   6.294   1.356   0.097
 6811SOL    HW221333   6.210   1.232   0.162
 6812SOL     OW21334   3.667   4.221   5.419
 6812SOL    HW121335   3.668   4.265   5.509
 6812SOL    HW221336   3.749   4.247   5.368
 6813SOL     OW21337   0.090   3.266   2.390
 6813SOL    HW121338   0.168   3.322   2.361
 6813SOL    HW221339   0.053   3.302   2.476
 6814SOL     OW21340   5.573   0.721   0.256
 6814SOL    HW121341   5.638   0.644   0.257
 6814SOL    HW221342   5.558   0.753   0.349
 6815SOL     OW21343   1.094   5.065   6.179
 6815SOL    HW121344   1.050   5.154   6.192
 6815SOL    HW221345   1.055   4.999   6.242
 6816SOL     OW21346   6.967   0.230   3.590
 6816SOL    HW121347   6.900   0.252   3.519
 6816SOL    HW221348   7.015   0.313   3.618
 6817SOL     OW21349   4.050   2.314   1.471
 6817SOL    HW121350   4.094   2.404   1.477
 6817SOL    HW221351   3.989   2.302   1.549
 6818SOL     OW21352   1.407   6.571   5.533
 6818SOL    HW121353   1.463   6.508   5.479
 6818SOL    HW221354   1.347   6.519   5.594
 6819SOL     OW21355   4.606   4.538   1.987
 6819SOL    HW121356   4.524   4.585   2.018
 6819SOL    HW221357   4.588   4.440   1.980
 6820SOL     OW21358   2.858   5.439   1.741
 6820SOL    HW121359   2.796   5.398   1.675
 6820SOL    HW221360   2.806   5.472   1.820
 6821SOL     OW21361   3.737   2.816   5.445
 6821SOL    HW121362   3.667   2.785   5.381
 6821SOL    HW221363   3.814   2.752   5.445
 6822SOL     OW21364   5.978   3.308   5.577
 6822SOL    HW121365   5.942   3.401   5.576
 6822SOL    HW221366   5.904   3.244   5.595
 6823SOL     OW21367   6.850   2.656   5.538
 6823SOL    HW121368   6.862   2.729   5.605
 6823SOL    HW221369   6.803   2.579   5.581
 6824SOL     OW21370   0.710   0.022   5.442
 6824SOL    HW121371   0.685   0.111   5.403
 6824SOL    HW221372   0.725   6.979   5.368
 6825SOL     OW21373   4.469   4.475   0.656
 6825SOL    HW121374   4.390   4.499   0.599
 6825SOL    HW221375   4.552   4.517   0.617
 6826SOL     OW21376   6.431   6.650   3.656
 6826SOL    HW121377   6.465   6.677   3.566
 6826SOL    HW221378   6.423   6.550   3.660
 6827SOL     OW21379   4.991   5.776   4.959
 6827SOL    HW121380   5.012   5.763   5.056
 6827SOL    HW221381   4.899   5.816   4.951
 6828SOL     OW21382   3.240   2.012   2.285
 6828SOL    HW121383   3.147   2.047   2.276
 6828SOL    HW221384   3.296   2.050   2.211
 6829SOL     OW21385   3.889   0.256   2.857
 6829SOL    HW121386   3.843   0.219   2.938
 6829SOL    HW221387   3.885   0.356   2.860
 6830SOL     OW21388   4.818   5.061   3.033
 6830SOL    HW121389   4.748   5.005   3.077
 6830SOL    HW221390   4.840   5.023   2.943
 6831SOL     OW21391   1.472   2.147   6.125
 6831SOL    HW121392   1.442   2.156   6.220
 6831SOL    HW221393   1.415   2.078   6.080
 6832SOL     OW21394   2.284   2.338   6.187
 6832SOL    HW121395   2.304   2.358   6.283
 6832SOL    HW221396   2.358   2.285   6.147
 6833SOL     OW21397   3.943   5.512   6.018
 6833SOL    HW121398   3.984   5.529   6.108
 6833SOL    HW221399   3.883   5.433   6.023
 6834SOL     OW21400   6.657   6.612   6.691
 6834SOL    HW121401   6.632   6.516   6.704
 6834SOL    HW221402   6.576   6.666   6.671
 6835SOL     OW21403   2.457   1.044   4.779
 6835SOL    HW121404   2.401   0.985   4.720
 6835SOL    HW221405   2.447   1.014   4.874
 6836SOL     OW21406   1.675   4.620   6.489
 6836SOL    HW121407   1.751   4.607   6.553
 6836SOL    HW221408   1.660   4.535   6.437
 6837SOL     OW21409   6.569   0.719   2.435
 6837SOL    HW121410   6.509   0.701   2.357
 6837SOL    HW221411   6.648   0.772   2.405
 6838SOL     OW21412   2.950   4.146   5.304
 6838SOL    HW121413   3.033   4.091   5.302
 6838SOL    HW221414   2.876   4.094   5.346
 6839SOL     OW21415   6.387   3.269   4.727
 6839SOL    HW121416   6.298   3.241   4.761
 6839SOL    HW221417   6.459   3.229   4.784
 6840SOL     OW21418   2.770   6.543   4.992
 6840SOL    HW121419   2.707   6.494   4.931
 6840SOL    HW221420   2.862   6.504   4.982
 6841SOL     OW21421   5.230   6.403   1.249
 6841SOL    HW121422   5.312   6.459   1.258
 6841SOL    HW221423   5.222   6.369   1.155
 6842SOL     OW21424   0.281   3.447   4.609
 6842SOL    HW121425   0.334   3.362   4.612
 6842SOL    HW221426   0.342   3.524   4.588
 6843SOL     OW21427   3.946   2.390   1.755
 6843SOL    HW121428   3.995   2.320   1.807
 6843SOL    HW221429   3.849   2.385   1.777
 6844SOL     OW21430   3.738   5.146   4.488
 6844SOL    HW121431   3.641   5.149   4.464
 6844SOL    HW221432   3.754   5.073   4.554
 6845SOL     OW21433   4.205   4.372   0.799
 6845SOL    HW121434   4.300   4.386   0.829
 6845SOL    HW221435   4.158   4.460   0.796
 6846SOL     OW21436   3.309   3.067   2.862
 6846SOL    HW121437   3.302   3.163   2.886
 6846SOL    HW221438   3.251   3.047   2.783
 6847SOL     OW21439   6.172   3.611   1.933
 6847SOL    HW121440   6.079   3.642   1.911
 6847SOL    HW221441   6.202   3.654   2.018
 6848SOL     OW21442   6.919   6.571   3.162
 6848SOL    HW121443   6.829   6.555   3.203
 6848SOL    HW221444   6.990   6.535   3.223
 6849SOL     OW21445   3.452   6.744   3.997
 6849SOL    HW121446   3.468   6.699   4.085
 6849SOL    HW221447   3.516   6.820   3.986
 6850SOL     OW21448   5.540   3.171   1.439
 6850SOL    HW121449   5.478   3.119   1.380
 6850SOL    HW221450   5.488   3.210   1.516
 6851SOL     OW21451   2.079   5.677   5.648
 6851SOL    HW121452   2.110   5.630   5.565
 6851SOL    HW221453   2.012   5.747   5.624
 6852SOL     OW21454   0.167   4.452   2.132
 6852SOL    HW121455   0.227   4.382   2.170
 6852SOL    HW221456   0.108   4.487   2.205
 6853SOL     OW21457   6.619   3.731   5.870
 6853SOL    HW121458   6.552   3.676   5.921
 6853SOL    HW221459   6.635   3.690   5.781
 6854SOL     OW21460   6.962   1.922   6.583
 6854SOL    HW121461   0.016   1.957   6.529
 6854SOL    HW221462   6.882   1.913   6.525
 6855SOL     OW21463   3.558   5.938   1.457
 6855SOL    HW121464   3.479   5.908   1.510
 6855SOL    HW221465   3.614   5.999   1.513
 6856SOL     OW21466   6.615   4.260   5.457
 6856SOL    HW121467   6.661   4.307   5.532
 6856SOL    HW221468   6.615   4.162   5.475
 6857SOL     OW21469   4.617   1.697   5.734
 6857SOL    HW121470   4.713   1.723   5.740
 6857SOL    HW221471   4.560   1.775   5.759
 6858SOL     OW21472   3.822   3.076   5.157
 6858SOL    HW121473   3.783   3.142   5.222
 6858SOL    HW221474   3.913   3.107   5.129
 6859SOL     OW21475   3.514   0.183   0.667
 6859SOL    HW121476   3.479   0.176   0.760
 6859SOL    HW221477   3.600   0.133   0.659
 6860SOL     OW21478   4.937   4.519   0.178
 6860SOL    HW121479   4.952   4.456   0.254
 6860SOL    HW221480   5.021   4.526   0.124
 6861SOL     OW21481   6.126   4.744   0.511
 6861SOL    HW121482   6.184   4.743   0.593
 6861SOL    HW221483   6.161   4.677   0.445
 6862SOL     OW21484   3.666   5.835   3.824
 6862SOL    HW121485   3.575   5.811   3.858
 6862SOL    HW221486   3.724   5.860   3.902
 6863SOL     OW21487   6.986   3.082   4.017
 6863SOL    HW121488   6.935   3.004   3.979
 6863SOL    HW221489   6.924   3.142   4.066
 6864SOL     OW21490   4.507   5.911   5.256
 6864SOL    HW121491   4.531   5.835   5.196
 6864SOL    HW221492   4.443   5.879   5.326
 6865SOL     OW21493   6.457   3.618   4.081
 6865SOL    HW121494   6.374   3.575   4.044
 6865SOL    HW221495   6.474   3.584   4.173
 6866SOL     OW21496   0.587   3.619   2.345
 6866SOL    HW121497   0.643   3.613   2.263
 6866SOL    HW221498   0.645   3.615   2.426
 6867SOL     OW21499   2.181   4.088   2.410
 6867SOL    HW121500   2.094   4.125   2.378
 6867SOL    HW221501   2.166   4.035   2.493
 6868SOL     OW21502   2.298   5.312   5.315
 6868SOL    HW121503   2.328   5.380   5.249
 6868SOL    HW221504   2.214   5.268   5.282
 6869SOL     OW21505   5.945   3.813   5.714
 6869SOL    HW121506   5.899   3.897   5.687
 6869SOL    HW221507   5.921   3.789   5.807
 6870SOL     OW21508   5.004   4.287   2.720
 6870SOL    HW121509   4.905   4.278   2.732
 6870SOL    HW221510   5.040   4.203   2.680
 6871SOL     OW21511   5.203   6.849   2.008
 6871SOL    HW121512   5.302   6.862   2.013
 6871SOL    HW221513   5.176   6.769   2.062
 6872SOL     OW21514   2.787   3.315   6.489
 6872SOL    HW121515   2.763   3.412   6.497
 6872SOL    HW221516   2.886   3.305   6.497
 6873SOL     OW21517   4.897   4.648   5.933
 6873SOL    HW121518   4.805   4.629   5.897
 6873SOL    HW221519   4.961   4.581   5.895
 6874SOL     OW21520   1.041   2.562   5.763
 6874SOL    HW121521   1.059   2.649   5.716
 6874SOL    HW221522   1.088   2.489   5.714
 6875SOL     OW21523   2.921   2.253   4.022
 6875SOL    HW121524   2.929   2.288   3.929
 6875SOL    HW221525   2.960   2.161   4.026
 6876SOL     OW21526   3.394   5.740   6.291
 6876SOL    HW121527   3.312   5.720   6.343
 6876SOL    HW221528   3.421   5.835   6.305
 6877SOL     OW21529   2.625   4.443   6.659
 6877SOL    HW121530   2.555   4.462   6.728
 6877SOL    HW221531   2.655   4.529   6.617
 6878SOL     OW21532   1.286   1.570   5.146
 6878SOL    HW121533   1.357   1.599   5.082
 6878SOL    HW221534   1.288   1.471   5.156
 6879SOL     OW21535   0.867   1.713   6.090
 6879SOL    HW121536   0.827   1.684   6.002
 6879SOL    HW221537   0.794   1.723   6.158
 6880SOL     OW21538   1.880   4.470   4.612
 6880SOL    HW121539   1.852   4.532   4.685
 6880SOL    HW221540   1.972   4.434   4.631
 6881SOL     OW21541   6.351   4.384   1.464
 6881SOL    HW121542   6.429   4.440   1.436
 6881SOL    HW221543   6.291   4.438   1.523
 6882SOL     OW21544   1.975   6.992   5.408
 6882SOL    HW121545   2.040   0.035   5.445
 6882SOL    HW221546   2.018   6.901   5.406
 6883SOL     OW21547   3.418   5.671   1.768
 6883SOL    HW121548   3.485   5.637   1.833
 6883SOL    HW221549   3.432   5.628   1.679
 6884SOL     OW21550   2.813   4.727   3.042
 6884SOL    HW121551   2.865   4.730   2.957
 6884SOL    HW221552   2.735   4.665   3.031
 6885SOL     OW21553   3.170   5.340   4.361
 6885SOL    HW121554   3.214   5.399   4.293
 6885SOL    HW221555   3.171   5.246   4.328
 6886SOL     OW21556   5.803   2.248   2.834
 6886SOL    HW121557   5.791   2.310   2.756
 6886SOL    HW221558   5.719   2.247   2.889
 6887SOL     OW21559   5.994   0.409   4.896
 6887SOL    HW121560   6.078   0.363   4.865
 6887SOL    HW221561   5.921   0.341   4.903
 6888SOL     OW21562   5.795   6.046   4.396
 6888SOL    HW121563   5.815   5.965   4.452
 6888SOL    HW221564   5.733   6.021   4.322
 6889SOL     OW21565   1.593   4.227   5.761
 6889SOL    HW121566   1.650   4.191   5.687
 6889SOL    HW221567   1.621   4.320   5.782
 6890SOL     OW21568   2.279   0.534   0.728
 6890SOL    HW121569   2.269   0.587   0.643
 6890SOL    HW221570   2.376   0.520   0.747
 6891SOL     OW21571   3.528   4.953   3.910
 6891SOL    HW121572   3.595   4.899   3.961
 6891SOL    HW221573   3.570   4.988   3.826
 6892SOL     OW21574   4.298   0.603   4.002
 6892SOL    HW121575   4.236   0.567   4.071
 6892SOL    HW221576   4.272   0.696   3.978
 6893SOL     OW21577   5.357   6.577   2.126
 6893SOL    HW121578   5.401   6.662   2.098
 6893SOL    HW221579   5.325   6.586   2.221
 6894SOL     OW21580   6.212   4.582   6.316
 6894SOL    HW121581   6.187   4.647   6.387
 6894SOL    HW221582   6.291   4.529   6.346
 6895SOL     OW21583   4.145   5.845   6.309
 6895SOL    HW121584   4.050   5.852   6.279
 6895SOL    HW221585   4.198   5.794   6.242
 6896SOL     OW21586   4.585   0.396   2.981
 6896SOL    HW121587   4.614   0.474   2.926
 6896SOL    HW221588   4.522   0.428   3.052
 6897SOL     OW21589   3.331   2.106   0.470
 6897SOL    HW121590   3.281   2.037   0.418
 6897SOL    HW221591   3.349   2.185   0.412
 6898SOL     OW21592   4.204   1.882   2.391
 6898SOL    HW121593   4.274   1.880   2.462
 6898SOL    HW221594   4.235   1.937   2.314
 6899SOL     OW21595   5.255   6.047   0.237
 6899SOL    HW121596   5.193   6.026   0.162
 6899SOL    HW221597   5.348   6.054   0.202
 6900SOL     OW21598   4.012   1.217   5.555
 6900SOL    HW121599   3.952   1.258   5.624
 6900SOL    HW221600   3.988   1.253   5.464
 6901SOL     OW21601   1.488   0.647   0.089
 6901SOL    HW121602   1.547   0.703   0.147
 6901SOL    HW221603   1.428   0.591   0.147
 6902SOL     OW21604   6.665   5.473   0.888
 6902SOL    HW121605   6.742   5.536   0.875
 6902SOL    HW221606   6.609   5.472   0.805
 6903SOL     OW21607   4.550   3.567   1.245
 6903SOL    HW121608   4.579   3.569   1.149
 6903SOL    HW221609   4.531   3.661   1.276
 6904SOL     OW21610   0.453   1.795   2.973
 6904SOL    HW121611   0.378   1.766   2.915
 6904SOL    HW221612   0.539   1.757   2.939
 6905SOL     OW21613   4.626   5.528   0.894
 6905SOL    HW121614   4.682   5.611   0.895
 6905SOL    HW221615   4.533   5.552   0.922
 6906SOL     OW21616   4.615   6.934   3.545
 6906SOL    HW121617   4.619   6.881   3.629
 6906SOL    HW221618   4.543   7.003   3.552
 6907SOL     OW21619   3.537   1.957   1.552
 6907SOL    HW121620   3.608   2.026   1.567
 6907SOL    HW221621   3.577   1.878   1.505
 6908SOL     OW21622   0.811   6.766   6.463
 6908SOL    HW121623   0.786   6.683   6.513
 6908SOL    HW221624   0.800   6.846   6.523
 6909SOL     OW21625   4.507   3.485   6.779
 6909SOL    HW121626   4.571   3.526   6.715
 6909SOL    HW221627   4.422   3.461   6.732
 6910SOL     OW21628   6.928   1.406   2.175
 6910SOL    HW121629   6.930   1.466   2.254
 6910SOL    HW221630   6.836   1.367   2.165
 6911SOL     OW21631   4.154   0.792   4.983
 6911SOL    HW121632   4.131   0.831   4.893
 6911SOL    HW221633   4.093   0.715   5.002
 6912SOL     OW21634   5.005   5.434   1.062
 6912SOL    HW121635   4.908   5.425   1.087
 6912SOL    HW221636   5.012   5.456   0.965
 6913SOL     OW21637   5.671   5.358   5.201
 6913SOL    HW121638   5.598   5.337   5.266
 6913SOL    HW221639   5.634   5.414   5.126
 6914SOL     OW21640   5.898   5.173   0.607
 6914SOL    HW121641   5.814   5.223   0.585
 6914SOL    HW221642   5.963   5.184   0.532
 6915SOL     OW21643   0.750   5.532   1.020
 6915SOL    HW121644   0.819   5.564   1.085
 6915SOL    HW221645   0.733   5.603   0.952
 6916SOL     OW21646   6.281   1.234   6.892
 6916SOL    HW121647   6.274   1.134   6.895
 6916SOL    HW221648   6.303   1.263   6.799
 6917SOL     OW21649   4.560   6.649   6.259
 6917SOL    HW121650   4.465   6.652   6.229
 6917SOL    HW221651   4.576   6.721   6.327
 6918SOL     OW21652   1.924   2.911   3.383
 6918SOL    HW121653   1.951   2.874   3.472
 6918SOL    HW221654   1.953   3.006   3.376
 6919SOL     OW21655   1.875   6.441   3.545
 6919SOL    HW121656   1.929   6.419   3.463
 6919SOL    HW221657   1.789   6.483   3.517
 6920SOL     OW21658   5.224   5.991   4.982
 6920SOL    HW121659   5.199   5.895   4.970
 6920SOL    HW221660   5.221   6.014   5.079
 6921SOL     OW21661   0.454   0.172   2.888
 6921SOL    HW121662   0.525   0.191   2.955
 6921SOL    HW221663   0.468   0.229   2.807
 6922SOL     OW21664   2.054   6.017   0.546
 6922SOL    HW121665   2.122   6.000   0.475
 6922SOL    HW221666   2.018   6.110   0.535
 6923SOL     OW21667   4.579   6.952   4.134
 6923SOL    HW121668   4.638   6.983   4.059
 6923SOL    HW221669   4.561   6.854   4.124
 6924SOL     OW21670   0.190   5.799   1.163
 6924SOL    HW121671   0.290   5.803   1.155
 6924SOL    HW221672   0.157   5.713   1.124
 6925SOL     OW21673   5.563   6.398   2.139
 6925SOL    HW121674   5.602   6.414   2.230
 6925SOL    HW221675   5.484   6.459   2.126
 6926SOL     OW21676   2.900   3.571   4.982
 6926SOL    HW121677   2.881   3.499   5.049
 6926SOL    HW221678   2.892   3.661   5.026
 6927SOL     OW21679   4.272   3.779   5.997
 6927SOL    HW121680   4.347   3.716   6.014
 6927SOL    HW221681   4.303   3.873   6.009
 6928SOL     OW21682   5.964   0.370   6.444
 6928SOL    HW121683   5.954   0.305   6.519
 6928SOL    HW221684   6.040   0.433   6.465
 6929SOL     OW21685   3.162   5.007   0.439
 6929SOL    HW121686   3.074   4.994   0.394
 6929SOL    HW221687   3.153   4.987   0.537
 6930SOL     OW21688   1.006   6.244   3.145
 6930SOL    HW121689   0.920   6.251   3.093
 6930SOL    HW221690   1.003   6.307   3.222
 6931SOL     OW21691   1.707   1.356   1.473
 6931SOL    HW121692   1.732   1.453   1.476
 6931SOL    HW221693   1.635   1.338   1.539
 6932SOL     OW21694   2.702   3.024   0.827
 6932SOL    HW121695   2.682   2.936   0.783
 6932SOL    HW221696   2.628   3.088   0.808
 6933SOL     OW21697   3.775   6.777   6.424
 6933SOL    HW121698   3.780   6.867   6.380
 6933SOL    HW221699   3.865   6.753   6.460
 6934SOL     OW21700   5.519   3.665   6.291
 6934SOL    HW121701   5.611   3.625   6.289
 6934SOL    HW221702   5.452   3.592   6.304
 6935SOL     OW21703   4.382   5.295   3.233
 6935SOL    HW121704   4.395   5.394   3.237
 6935SOL    HW221705   4.415   5.261   3.145
 6936SOL     OW21706   1.253   4.412   0.842
 6936SOL    HW121707   1.213   4.431   0.932
 6936SOL    HW221708   1.263   4.314   0.830
 6937SOL     OW21709   4.719   0.069   5.587
 6937SOL    HW121710   4.698   0.029   5.498
 6937SOL    HW221711   4.811   0.109   5.585
 6938SOL     OW21712   4.615   2.272   5.193
 6938SOL    HW121713   4.671   2.190   5.203
 6938SOL    HW221714   4.659   2.349   5.239
 6939SOL     OW21715   1.325   4.170   2.557
 6939SOL    HW121716   1.334   4.259   2.601
 6939SOL    HW221717   1.232   4.159   2.521
 6940SOL     OW21718   4.426   0.693   5.035
 6940SOL    HW121719   4.430   0.610   4.980
 6940SOL    HW221720   4.344   0.744   5.012
 6941SOL     OW21721   3.901   3.100   3.253
 6941SOL    HW121722   3.854   3.082   3.340
 6941SOL    HW221723   3.840   3.079   3.177
 6942SOL     OW21724   6.651   1.712   0.168
 6942SOL    HW121725   6.653   1.781   0.240
 6942SOL    HW221726   6.585   1.740   0.098
 6943SOL     OW21727   5.121   6.298   6.368
 6943SOL    HW121728   5.169   6.228   6.420
 6943SOL    HW221729   5.024   6.274   6.362
 6944SOL     OW21730   1.760   6.399   6.101
 6944SOL    HW121731   1.743   6.442   6.013
 6944SOL    HW221732   1.856   6.408   6.126
 6945SOL     OW21733   5.376   3.104   6.025
 6945SOL    HW121734   5.457   3.142   5.982
 6945SOL    HW221735   5.328   3.045   5.960
 6946SOL     OW21736   5.999   4.294   3.299
 6946SOL    HW121737   5.918   4.317   3.246
 6946SOL    HW221738   6.015   4.364   3.368
 6947SOL     OW21739   3.569   6.628   2.815
 6947SOL    HW121740   3.592   6.686   2.737
 6947SOL    HW221741   3.581   6.680   2.900
 6948SOL     OW21742   4.348   1.782   5.394
 6948SOL    HW121743   4.270   1.838   5.368
 6948SOL    HW221744   4.373   1.722   5.318
 6949SOL     OW21745   5.309   0.372   2.632
 6949SOL    HW121746   5.369   0.414   2.700
 6949SOL    HW221747   5.225   0.341   2.676
 6950SOL     OW21748   1.874   0.923   3.348
 6950SOL    HW121749   1.829   0.860   3.411
 6950SOL    HW221750   1.841   1.016   3.362
 6951SOL     OW21751   6.027   5.272   5.776
 6951SOL    HW121752   6.119   5.309   5.788
 6951SOL    HW221753   6.013   5.195   5.838
 6952SOL     OW21754   0.277   4.980   4.395
 6952SOL    HW121755   0.204   5.046   4.412
 6952SOL    HW221756   0.245   4.888   4.417
 6953SOL     OW21757   5.141   1.405   5.111
 6953SOL    HW121758   5.230   1.437   5.142
 6953SOL    HW221759   5.154   1.339   5.036
 6954SOL     OW21760   1.012   4.350   3.140
 6954SOL    HW121761   0.939   4.298   3.186
 6954SOL    HW221762   1.036   4.430   3.196
 6955SOL     OW21763   6.684   6.005   2.020
 6955SOL    HW121764   6.718   6.069   1.952
 6955SOL    HW221765   6.653   5.921   1.974
 6956SOL     OW21766   3.364   4.897   1.804
 6956SOL    HW121767   3.389   4.808   1.843
 6956SOL    HW221768   3.297   4.941   1.863
 6957SOL     OW21769   0.576   4.637   0.435
 6957SOL    HW121770   0.594   4.557   0.379
 6957SOL    HW221771   0.662   4.671   0.474
 6958SOL     OW21772   2.543   4.112   6.163
 6958SOL    HW121773   2.526   4.108   6.261
 6958SOL    HW221774   2.456   4.103   6.114
 6959SOL     OW21775   3.013   1.017   4.105
 6959SOL    HW121776   2.980   0.954   4.174
 6959SOL    HW221777   2.941   1.033   4.037
 6960SOL     OW21778   0.295   5.095   6.886
 6960SOL    HW121779   0.238   5.123   6.808
 6960SOL    HW221780   0.236   5.066   6.961
 6961SOL     OW21781   0.264   1.277   2.712
 6961SOL    HW121782   0.330   1.352   2.712
 6961SOL    HW221783   0.284   1.216   2.636
 6962SOL     OW21784   4.029   3.921   0.550
 6962SOL    HW121785   4.006   3.923   0.647
 6962SOL    HW221786   4.089   3.842   0.532
 6963SOL     OW21787   7.015   5.578   1.561
 6963SOL    HW121788   0.017   5.645   1.491
 6963SOL    HW221789   0.067   5.568   1.626
 6964SOL     OW21790   4.104   6.193   5.009
 6964SOL    HW121791   4.180   6.157   5.063
 6964SOL    HW221792   4.051   6.257   5.064
 6965SOL     OW21793   6.569   2.597   5.838
 6965SOL    HW121794   6.501   2.625   5.906
 6965SOL    HW221795   6.568   2.498   5.828
 6966SOL     OW21796   4.747   2.788   4.038
 6966SOL    HW121797   4.697   2.717   3.987
 6966SOL    HW221798   4.737   2.772   4.136
 6967SOL     OW21799   2.358   0.750   6.349
 6967SOL    HW121800   2.398   0.734   6.258
 6967SOL    HW221801   2.388   0.838   6.384
 6968SOL     OW21802   5.084   6.701   2.256
 6968SOL    HW121803   5.026   6.780   2.275
 6968SOL    HW221804   5.104   6.653   2.341
 6969SOL     OW21805   3.296   2.088   0.911
 6969SOL    HW121806   3.246   2.149   0.849
 6969SOL    HW221807   3.342   2.142   0.981
 6970SOL     OW21808   5.271   4.325   0.446
 6970SOL    HW121809   5.312   4.416   0.454
 6970SOL    HW221810   5.284   4.291   0.353
 6971SOL     OW21811   5.263   0.776   1.985
 6971SOL    HW121812   5.169   0.754   2.010
 6971SOL    HW221813   5.311   0.813   2.064
 6972SOL     OW21814   6.238   4.878   4.341
 6972SOL    HW121815   6.235   4.812   4.416
 6972SOL    HW221816   6.268   4.832   4.257
 6973SOL     OW21817   2.167   5.090   3.117
 6973SOL    HW121818   2.185   5.085   3.215
 6973SOL    HW221819   2.213   5.015   3.070
 6974SOL     OW21820   3.452   4.192   4.583
 6974SOL    HW121821   3.400   4.183   4.498
 6974SOL    HW221822   3.390   4.189   4.661
 6975SOL     OW21823   3.459   1.195   5.821
 6975SOL    HW121824   3.440   1.118   5.881
 6975SOL    HW221825   3.481   1.276   5.876
 6976SOL     OW21826   2.404   4.926   6.283
 6976SOL    HW121827   2.462   4.980   6.344
 6976SOL    HW221828   2.332   4.985   6.246
 6977SOL     OW21829   4.033   2.154   2.787
 6977SOL    HW121830   3.952   2.206   2.761
 6977SOL    HW221831   4.088   2.134   2.706
 6978SOL     OW21832   6.398   0.282   2.799
 6978SOL    HW121833   6.443   0.229   2.871
 6978SOL    HW221834   6.392   0.227   2.716
 6979SOL     OW21835   0.444   4.477   2.934
 6979SOL    HW121836   0.458   4.406   3.003
 6979SOL    HW221837   0.533   4.508   2.900
 6980SOL     OW21838   3.419   1.001   4.592
 6980SOL    HW121839   3.330   0.962   4.569
 6980SOL    HW221840   3.413   1.101   4.587
 6981SOL     OW21841   2.499   5.233   6.816
 6981SOL    HW121842   2.505   5.241   6.716
 6981SOL    HW221843   2.591   5.236   6.855
 6982SOL     OW21844   0.376   6.970   4.664
 6982SOL    HW121845   0.365   6.873   4.688
 6982SOL    HW221846   0.459   6.982   4.609
 6983SOL     OW21847   6.715   0.798   4.024
 6983SOL    HW121848   6.763   0.792   3.937
 6983SOL    HW221849   6.762   0.864   4.083
 6984SOL     OW21850   1.804   1.228   6.399
 6984SOL    HW121851   1.755   1.315   6.401
 6984SOL    HW221852   1.775   1.176   6.319
 6985SOL     OW21853   5.397   5.674   1.745
 6985SOL    HW121854   5.336   5.653   1.821
 6985SOL    HW221855   5.343   5.706   1.667
 6986SOL     OW21856   2.229   6.894   5.037
 6986SOL    HW121857   2.232   6.871   4.940
 6986SOL    HW221858   2.135   6.915   5.064
 6987SOL     OW21859   0.462   3.406   6.182
 6987SOL    HW121860   0.495   3.437   6.271
 6987SOL    HW221861   0.477   3.308   6.172
 6988SOL     OW21862   5.473   0.863   4.125
 6988SOL    HW121863   5.455   0.898   4.033
 6988SOL    HW221864   5.499   0.939   4.185
 6989SOL     OW21865   1.623   2.308   3.914
 6989SOL    HW121866   1.533   2.294   3.954
 6989SOL    HW221867   1.694   2.290   3.983
 6990SOL     OW21868   3.788   3.390   0.554
 6990SOL    HW121869   3.755   3.458   0.619
 6990SOL    HW221870   3.876   3.420   0.516
 6991SOL     OW21871   4.059   4.549   5.407
 6991SOL    HW121872   4.006   4.613   5.464
 6991SOL    HW221873   4.088   4.471   5.462
 6992SOL     OW21874   5.381   6.312   4.599
 6992SOL    HW121875   5.345   6.280   4.687
 6992SOL    HW221876   5.480   6.295   4.595
 6993SOL     OW21877   0.402   0.263   3.334
 6993SOL    HW121878   0.484   0.265   3.277
 6993SOL    HW221879   0.364   0.170   3.334
 6994SOL     OW21880   1.486   2.780   6.433
 6994SOL    HW121881   1.389   2.756   6.439
 6994SOL    HW221882   1.540   2.697   6.419
 6995SOL     OW21883   6.929   5.813   3.166
 6995SOL    HW121884   6.990   5.890   3.146
 6995SOL    HW221885   6.903   5.817   3.263
 6996SOL     OW21886   2.735   0.047   5.703
 6996SOL    HW121887   2.722   0.137   5.745
 6996SOL    HW221888   2.647   0.002   5.692
 6997SOL     OW21889   4.975   0.179   5.016
 6997SOL    HW121890   5.041   0.253   5.001
 6997SOL    HW221891   4.977   0.117   4.938
 6998SOL     OW21892   0.964   2.690   3.131
 6998SOL    HW121893   0.890   2.701   3.065
 6998SOL    HW221894   1.048   2.666   3.082
 6999SOL     OW21895   3.500   1.890   6.005
 6999SOL    HW121896   3.450   1.896   6.092
 6999SOL    HW221897   3.597   1.908   6.022
 7000SOL     OW21898   0.541   6.385   2.291
 7000SOL    HW121899   0.535   6.417   2.197
 7000SOL    HW221900   0.451   6.393   2.335
 7001SOL     OW21901   2.723   2.898   5.761
 7001SOL    HW121902   2.720   2.927   5.856
 7001SOL    HW221903   2.811   2.854   5.743
 7002SOL     OW21904   1.349   4.864   3.181
 7002SOL    HW121905   1.430   4.897   3.230
 7002SOL    HW221906   1.305   4.791   3.233
 7003SOL     OW21907   2.490   6.172   0.683
 7003SOL    HW121908   2.495   6.075   0.707
 7003SOL    HW221909   2.580   6.213   0.692
 7004SOL     OW21910   1.236   4.141   0.831
 7004SOL    HW121911   1.244   4.073   0.758
 7004SOL    HW221912   1.163   4.115   0.894
 7005SOL     OW21913   5.143   6.295   5.643
 7005SOL    HW121914   5.065   6.326   5.697
 7005SOL    HW221915   5.217   6.266   5.704
 7006SOL     OW21916   4.327   4.747   4.785
 7006SOL    HW121917   4.313   4.677   4.854
 7006SOL    HW221918   4.334   4.704   4.695
 7007SOL     OW21919   4.875   4.897   2.834
 7007SOL    HW121920   4.850   4.803   2.811
 7007SOL    HW221921   4.827   4.960   2.773
 7008SOL     OW21922   0.854   5.205   3.812
 7008SOL    HW121923   0.840   5.134   3.881
 7008SOL    HW221924   0.923   5.174   3.746
 7009SOL     OW21925   0.717   4.735   2.505
 7009SOL    HW121926   0.735   4.724   2.407
 7009SOL    HW221927   0.620   4.716   2.523
 7010SOL     OW21928   4.058   5.283   6.323
 7010SOL    HW121929   3.966   5.244   6.309
 7010SOL    HW221930   4.066   5.368   6.271
 7011SOL     OW21931   2.778   0.975   5.117
 7011SOL    HW121932   2.812   1.023   5.198
 7011SOL    HW221933   2.807   1.024   5.034
 7012SOL     OW21934   1.101   0.873   2.242
 7012SOL    HW121935   1.006   0.872   2.213
 7012SOL    HW221936   1.158   0.911   2.169
 7013SOL     OW21937   0.786   0.616   2.353
 7013SOL    HW121938   0.820   0.643   2.444
 7013SOL    HW221939   0.802   0.690   2.288
 7014SOL     OW21940   2.094   4.573   1.529
 7014SOL    HW121941   2.166   4.507   1.510
 7014SOL    HW221942   2.127   4.638   1.598
 7015SOL     OW21943   5.132   2.857   2.288
 7015SOL    HW121944   5.042   2.886   2.321
 7015SOL    HW221945   5.202   2.888   2.352
 7016SOL     OW21946   3.601   5.214   1.385
 7016SOL    HW121947   3.563   5.284   1.325
 7016SOL    HW221948   3.565   5.125   1.360
 7017SOL     OW21949   3.442   1.138   3.761
 7017SOL    HW121950   3.452   1.085   3.846
 7017SOL    HW221951   3.381   1.089   3.699
 7018SOL     OW21952   0.467   5.117   4.498
 7018SOL    HW121953   0.415   5.056   4.439
 7018SOL    HW221954   0.436   5.211   4.484
 7019SOL     OW21955   2.156   6.112   6.996
 7019SOL    HW121956   2.149   6.028   0.026
 7019SOL    HW221957   2.105   6.102   6.910
 7020SOL     OW21958   6.278   6.410   6.430
 7020SOL    HW121959   6.303   6.492   6.481
 7020SOL    HW221960   6.198   6.428   6.374
 7021SOL     OW21961   2.716   1.414   5.890
 7021SOL    HW121962   2.785   1.473   5.850
 7021SOL    HW221963   2.644   1.469   5.931
 7022SOL     OW21964   5.042   4.867   0.268
 7022SOL    HW121965   5.051   4.958   0.230
 7022SOL    HW221966   4.992   4.872   0.355
 7023SOL     OW21967   6.039   3.843   2.400
 7023SOL    HW121968   5.990   3.872   2.482
 7023SOL    HW221969   6.001   3.757   2.367
 7024SOL     OW21970   0.488   6.097   0.453
 7024SOL    HW121971   0.453   6.007   0.476
 7024SOL    HW221972   0.416   6.149   0.406
 7025SOL     OW21973   2.440   1.091   6.022
 7025SOL    HW121974   2.416   1.108   5.926
 7025SOL    HW221975   2.361   1.052   6.069
 7026SOL     OW21976   4.342   2.157   0.798
 7026SOL    HW121977   4.417   2.163   0.864
 7026SOL    HW221978   4.313   2.250   0.773
 7027SOL     OW21979   4.408   6.720   4.197
 7027SOL    HW121980   4.464   6.644   4.231
 7027SOL    HW221981   4.344   6.748   4.269
 7028SOL     OW21982   3.767   0.530   4.368
 7028SOL    HW121983   3.690   0.475   4.399
 7028SOL    HW221984   3.758   0.623   4.405
 7029SOL     OW21985   3.783   0.504   5.852
 7029SOL    HW121986   3.847   0.578   5.871
 7029SOL    HW221987   3.767   0.451   5.936
 7030SOL     OW21988   1.793   3.734   4.584
 7030SOL    HW121989   1.760   3.783   4.665
 7030SOL    HW221990   1.789   3.794   4.504
 7031SOL     OW21991   2.584   5.798   4.086
 7031SOL    HW121992   2.632   5.825   4.003
 7031SOL    HW221993   2.512   5.865   4.106
 7032SOL     OW21994   6.112   1.411   2.088
 7032SOL    HW121995   6.201   1.392   2.130
 7032SOL    HW221996   6.073   1.494   2.127
 7033SOL     OW21997   6.781   0.687   3.752
 7033SOL    HW121998   6.799   0.601   3.801
 7033SOL    HW221999   6.683   0.697   3.740
 7034SOL     OW22000   5.923   6.551   2.843
 7034SOL    HW122001   5.912   6.646   2.813
 7034SOL    HW222002   6.020   6.531   2.856
 7035SOL     OW22003   6.508   5.412   1.531
 7035SOL    HW122004   6.568   5.462   1.593
 7035SOL    HW222005   6.412   5.436   1.549
 7036SOL     OW22006   6.616   4.696   1.905
 7036SOL    HW122007   6.685   4.663   1.970
 7036SOL    HW222008   6.653   4.691   1.812
 7037SOL     OW22009   1.229   6.384   6.590
 7037SOL    HW122010   1.324   6.355   6.597
 7037SOL    HW222011   1.180   6.324   6.527
 7038SOL     OW22012   0.947   4.292   4.317
 7038SOL    HW122013   0.947   4.216   4.382
 7038SOL    HW222014   0.998   4.369   4.356
 7039SOL     OW22015   4.174   1.453   0.067
 7039SOL    HW122016   4.128   1.376   0.111
 7039SOL    HW222017   4.118   1.485   7.014
 7040SOL     OW22018   4.621   2.492   6.188
 7040SOL    HW122019   4.582   2.402   6.169
 7040SOL    HW222020   4.582   2.528   6.273
 7041SOL     OW22021   2.228   2.444   2.395
 7041SOL    HW122022   2.178   2.390   2.326
 7041SOL    HW222023   2.264   2.527   2.353
 7042SOL     OW22024   2.400   0.187   6.669
 7042SOL    HW122025   2.442   0.143   6.590
 7042SOL    HW222026   2.328   0.127   6.706
 7043SOL     OW22027   1.794   1.869   2.863
 7043SOL    HW122028   1.753   1.957   2.840
 7043SOL    HW222029   1.811   1.817   2.779
 7044SOL     OW22030   4.622   5.695   2.697
 7044SOL    HW122031   4.587   5.788   2.684
 7044SOL    HW222032   4.721   5.698   2.713
 7045SOL     OW22033   5.351   5.692   0.938
 7045SOL    HW122034   5.343   5.612   0.997
 7045SOL    HW222035   5.263   5.711   0.895
 7046SOL     OW22036   3.221   0.567   5.094
 7046SOL    HW122037   3.285   0.638   5.066
 7046SOL    HW222038   3.138   0.609   5.131
 7047SOL     OW22039   1.641   0.607   4.325
 7047SOL    HW122040   1.549   0.587   4.357
 7047SOL    HW222041   1.695   0.523   4.323
 7048SOL     OW22042   6.803   6.554   0.016
 7048SOL    HW122043   6.715   6.568   0.062
 7048SOL    HW222044   6.822   6.456   0.010
 7049SOL     OW22045   2.620   1.391   0.918
 7049SOL    HW122046   2.538   1.448   0.928
 7049SOL    HW222047   2.697   1.448   0.891
 7050SOL     OW22048   3.937   4.013   4.632
 7050SOL    HW122049   3.971   3.972   4.548
 7050SOL    HW222050   3.869   4.083   4.610
 7051SOL     OW22051   6.652   6.524   1.860
 7051SOL    HW122052   6.665   6.433   1.820
 7051SOL    HW222053   6.737   6.553   1.904
 7052SOL     OW22054   0.124   2.343   3.167
 7052SOL    HW122055   0.086   2.264   3.118
 7052SOL    HW222056   0.062   2.421   3.157
 7053SOL     OW22057   0.623   4.841   6.749
 7053SOL    HW122058   0.563   4.829   6.670
 7053SOL    HW222059   0.575   4.891   6.821
 7054SOL     OW22060   0.117   6.740   1.825
 7054SOL    HW122061   0.114   6.643   1.798
 7054SOL    HW222062   0.033   6.785   1.796
 7055SOL     OW22063   3.775   0.192   4.807
 7055SOL    HW122064   3.703   0.153   4.864
 7055SOL    HW222065   3.864   0.172   4.847
 7056SOL     OW22066   5.388   5.120   4.009
 7056SOL    HW122067   5.390   5.220   4.012
 7056SOL    HW222068   5.337   5.085   4.087
 7057SOL     OW22069   0.209   5.835   3.331
 7057SOL    HW122070   0.276   5.781   3.279
 7057SOL    HW222071   0.251   5.865   3.416
 7058SOL     OW22072   0.915   5.748   5.535
 7058SOL    HW122073   0.998   5.698   5.509
 7058SOL    HW222074   0.849   5.745   5.460
 7059SOL     OW22075   1.341   0.521   2.255
 7059SOL    HW122076   1.250   0.564   2.256
 7059SOL    HW222077   1.356   0.474   2.342
 7060SOL     OW22078   3.224   6.710   1.287
 7060SOL    HW122079   3.150   6.692   1.222
 7060SOL    HW222080   3.279   6.627   1.298
 7061SOL     OW22081   0.813   0.978   2.531
 7061SOL    HW122082   0.841   0.989   2.435
 7061SOL    HW222083   0.718   0.946   2.535
 7062SOL     OW22084   5.495   2.183   4.676
 7062SOL    HW122085   5.574   2.130   4.644
 7062SOL    HW222086   5.417   2.165   4.616
 7063SOL     OW22087   3.796   6.443   1.150
 7063SOL    HW122088   3.731   6.503   1.198
 7063SOL    HW222089   3.823   6.368   1.210
 7064SOL     OW22090   3.767   2.600   0.401
 7064SOL    HW122091   3.689   2.563   0.351
 7064SOL    HW222092   3.770   2.699   0.389
 7065SOL     OW22093   4.278   3.455   1.274
 7065SOL    HW122094   4.359   3.504   1.240
 7065SOL    HW222095   4.300   3.409   1.360
 7066SOL     OW22096   3.655   6.592   0.566
 7066SOL    HW122097   3.633   6.602   0.469
 7066SOL    HW222098   3.683   6.498   0.584
 7067SOL     OW22099   0.123   4.211   5.231
 7067SOL    HW122100   0.200   4.273   5.247
 7067SOL    HW222101   0.038   4.256   5.257
 7068SOL     OW22102   1.756   0.719   3.511
 7068SOL    HW122103   1.792   0.700   3.602
 7068SOL    HW222104   1.761   0.637   3.454
 7069SOL     OW22105   1.187   4.809   4.837
 7069SOL    HW122106   1.269   4.826   4.783
 7069SOL    HW222107   1.210   4.805   4.934
 7070SOL     OW22108   6.054   5.076   4.299
 7070SOL    HW122109   5.978   5.064   4.363
 7070SOL    HW222110   6.114   4.996   4.303
 7071SOL     OW22111   1.423   6.526   5.855
 7071SOL    HW122112   1.514   6.494   5.826
 7071SOL    HW222113   1.354   6.459   5.828
 7072SOL     OW22114   0.358   6.357   6.577
 7072SOL    HW122115   0.422   6.323   6.508
 7072SOL    HW222116   0.406   6.419   6.639
 7073SOL     OW22117   0.932   0.455   6.133
 7073SOL    HW122118   0.940   0.383   6.201
 7073SOL    HW222119   0.925   0.414   6.042
 7074SOL     OW22120   3.386   1.916   1.308
 7074SOL    HW122121   3.391   1.816   1.308
 7074SOL    HW222122   3.393   1.950   1.402
 7075SOL     OW22123   1.749   6.185   3.041
 7075SOL    HW122124   1.765   6.250   3.116
 7075SOL    HW222125   1.757   6.092   3.076
 7076SOL     OW22126   2.520   2.549   6.744
 7076SOL    HW122127   2.556   2.518   6.656
 7076SOL    HW222128   2.549   2.642   6.762
 7077SOL     OW22129   2.353   5.635   5.628
 7077SOL    HW122130   2.261   5.662   5.597
 7077SOL    HW222131   2.371   5.541   5.600
 7078SOL     OW22132   6.064   1.121   3.265
 7078SOL    HW122133   6.026   1.112   3.357
 7078SOL    HW222134   6.157   1.157   3.271
 7079SOL     OW22135   5.900   6.337   6.087
 7079SOL    HW122136   5.895   6.437   6.085
 7079SOL    HW222137   5.980   6.309   6.140
 7080SOL     OW22138   4.384   1.079   4.001
 7080SOL    HW122139   4.448   1.118   4.067
 7080SOL    HW222140   4.436   1.032   3.929
 7081SOL     OW22141   3.818   1.095   4.718
 7081SOL    HW122142   3.759   1.018   4.745
 7081SOL    HW222143   3.895   1.101   4.782
 7082SOL     OW22144   5.187   0.675   5.888
 7082SOL    HW122145   5.244   0.699   5.968
 7082SOL    HW222146   5.119   0.607   5.915
 7083SOL     OW22147   3.665   0.204   6.484
 7083SOL    HW122148   3.654   0.272   6.411
 7083SOL    HW222149   3.758   0.207   6.520
 7084SOL     OW22150   6.766   6.431   5.854
 7084SOL    HW122151   6.765   6.434   5.755
 7084SOL    HW222152   6.835   6.365   5.885
 7085SOL     OW22153   2.505   2.424   1.630
 7085SOL    HW122154   2.452   2.425   1.715
 7085SOL    HW222155   2.602   2.422   1.651
 7086SOL     OW22156   6.241   0.106   6.454
 7086SOL    HW122157   6.301   0.173   6.499
 7086SOL    HW222158   6.170   0.154   6.402
 7087SOL     OW22159   1.085   3.564   4.037
 7087SOL    HW122160   0.991   3.539   4.060
 7087SOL    HW222161   1.148   3.495   4.074
 7088SOL     OW22162   5.822   2.937   5.420
 7088SOL    HW122163   5.905   2.993   5.411
 7088SOL    HW222164   5.771   2.940   5.334
 7089SOL     OW22165   2.783   1.416   0.599
 7089SOL    HW122166   2.860   1.433   0.537
 7089SOL    HW222167   2.719   1.493   0.593
 7090SOL     OW22168   2.455   2.461   5.157
 7090SOL    HW122169   2.532   2.418   5.109
 7090SOL    HW222170   2.432   2.547   5.113
 7091SOL     OW22171   6.947   6.018   6.851
 7091SOL    HW122172   7.014   6.088   6.828
 7091SOL    HW222173   6.892   5.996   6.770
 7092SOL     OW22174   3.413   3.740   1.063
 7092SOL    HW122175   3.362   3.779   0.986
 7092SOL    HW222176   3.355   3.675   1.113
 7093SOL     OW22177   3.239   3.788   4.727
 7093SOL    HW122178   3.186   3.873   4.731
 7093SOL    HW222179   3.242   3.755   4.633
 7094SOL     OW22180   0.978   0.472   5.603
 7094SOL    HW122181   0.932   0.470   5.692
 7094SOL    HW222182   0.921   0.426   5.535
 7095SOL     OW22183   0.501   3.222   6.758
 7095SOL    HW122184   0.429   3.161   6.725
 7095SOL    HW222185   0.560   3.249   6.681
 7096SOL     OW22186   4.589   1.969   3.005
 7096SOL    HW122187   4.523   2.036   2.970
 7096SOL    HW222188   4.669   2.017   3.041
 7097SOL     OW22189   0.394   0.689   1.530
 7097SOL    HW122190   0.373   0.660   1.436
 7097SOL    HW222191   0.438   0.613   1.578
 7098SOL     OW22192   1.860   6.715   5.780
 7098SOL    HW122193   1.813   6.774   5.714
 7098SOL    HW222194   1.880   6.768   5.862
 7099SOL     OW22195   0.261   1.082   6.305
 7099SOL    HW122196   0.205   1.076   6.387
 7099SOL    HW222197   0.326   1.006   6.302
 7100SOL     OW22198   6.093   2.995   1.428
 7100SOL    HW122199   6.149   2.921   1.391
 7100SOL    HW222200   6.009   3.003   1.374
 7101SOL     OW22201   2.741   0.605   5.197
 7101SOL    HW122202   2.760   0.668   5.273
 7101SOL    HW222203   2.801   0.628   5.120
 7102SOL     OW22204   4.321   1.873   0.741
 7102SOL    HW122205   4.285   1.863   0.649
 7102SOL    HW222206   4.319   1.970   0.767
 7103SOL     OW22207   3.679   6.750   6.849
 7103SOL    HW122208   3.746   6.711   6.786
 7103SOL    HW222209   3.645   6.678   6.910
 7104SOL     OW22210   0.957   2.421   2.959
 7104SOL    HW122211   0.913   2.506   2.931
 7104SOL    HW222212   1.008   2.382   2.882
 7105SOL     OW22213   3.459   3.752   5.053
 7105SOL    HW122214   3.400   3.758   5.133
 7105SOL    HW222215   3.437   3.826   4.990
 7106SOL     OW22216   3.169   2.719   5.262
 7106SOL    HW122217   3.218   2.804   5.278
 7106SOL    HW222218   3.235   2.644   5.255
 7107SOL     OW22219   2.904   1.855   0.405
 7107SOL    HW122220   2.920   1.943   0.360
 7107SOL    HW222221   2.811   1.852   0.441
 7108SOL     OW22222   5.199   0.155   1.510
 7108SOL    HW122223   5.210   0.254   1.505
 7108SOL    HW222224   5.226   0.122   1.600
 7109SOL     OW22225   3.763   7.019   6.334
 7109SOL    HW122226   3.842   0.047   6.301
 7109SOL    HW222227   3.722   0.044   6.412
 7110SOL     OW22228   4.679   5.167   3.335
 7110SOL    HW122229   4.676   5.208   3.244
 7110SOL    HW222230   4.614   5.214   3.395
 7111SOL     OW22231   2.009   3.039   4.223
 7111SOL    HW122232   2.025   3.088   4.137
 7111SOL    HW222233   2.007   3.104   4.299
 7112SOL     OW22234   0.964   6.401   3.387
 7112SOL    HW122235   0.916   6.359   3.464
 7112SOL    HW222236   1.010   6.484   3.417
 7113SOL     OW22237   4.099   3.251   3.968
 7113SOL    HW122238   4.097   3.344   4.004
 7113SOL    HW222239   4.069   3.187   4.038
 7114SOL     OW22240   3.922   0.986   1.230
 7114SOL    HW122241   3.870   0.999   1.145
 7114SOL    HW222242   3.975   1.068   1.250
 7115SOL     OW22243   4.703   1.291   1.117
 7115SOL    HW122244   4.720   1.384   1.085
 7115SOL    HW222245   4.770   1.266   1.187
 7116SOL     OW22246   5.436   4.400   2.994
 7116SOL    HW122247   5.413   4.491   2.960
 7116SOL    HW222248   5.510   4.407   3.061
 7117SOL     OW22249   6.238   6.820   1.695
 7117SOL    HW122250   6.329   6.778   1.695
 7117SOL    HW222251   6.208   6.834   1.600
 7118SOL     OW22252   6.342   2.886   0.810
 7118SOL    HW122253   6.326   2.867   0.907
 7118SOL    HW222254   6.278   2.956   0.778
 7119SOL     OW22255   6.938   1.770   3.331
 7119SOL    HW122256   6.957   1.839   3.402
 7119SOL    HW222257   7.022   1.719   3.312
 7120SOL     OW22258   5.263   1.394   3.377
 7120SOL    HW122259   5.245   1.298   3.398
 7120SOL    HW222260   5.177   1.440   3.355
 7121SOL     OW22261   3.283   6.590   3.419
 7121SOL    HW122262   3.377   6.605   3.388
 7121SOL    HW222263   3.222   6.585   3.340
 7122SOL     OW22264   6.141   0.814   6.739
 7122SOL    HW122265   6.158   0.897   6.686
 7122SOL    HW222266   6.048   0.782   6.723
 7123SOL     OW22267   2.677   5.195   1.179
 7123SOL    HW122268   2.649   5.139   1.256
 7123SOL    HW222269   2.613   5.182   1.103
 7124SOL     OW22270   0.299   4.791   0.710
 7124SOL    HW122271   0.230   4.736   0.759
 7124SOL    HW222272   0.390   4.752   0.725
 7125SOL     OW22273   6.037   6.478   2.435
 7125SOL    HW122274   5.969   6.543   2.400
 7125SOL    HW222275   6.086   6.437   2.358
 7126SOL     OW22276   1.214   4.513   0.600
 7126SOL    HW122277   1.239   4.487   0.694
 7126SOL    HW222278   1.134   4.460   0.572
 7127SOL     OW22279   3.927   6.577   4.370
 7127SOL    HW122280   3.934   6.483   4.404
 7127SOL    HW222281   3.880   6.634   4.438
 7128SOL     OW22282   3.232   3.938   1.313
 7128SOL    HW122283   3.143   3.910   1.350
 7128SOL    HW222284   3.280   3.858   1.278
 7129SOL     OW22285   2.451   6.872   1.588
 7129SOL    HW122286   2.540   6.831   1.607
 7129SOL    HW222287   2.428   6.937   1.661
 7130SOL     OW22288   2.031   4.319   3.158
 7130SOL    HW122289   2.055   4.405   3.203
 7130SOL    HW222290   2.113   4.277   3.120
 7131SOL     OW22291   2.615   0.857   2.851
 7131SOL    HW122292   2.649   0.818   2.936
 7131SOL    HW222293   2.528   0.903   2.867
 7132SOL     OW22294   3.391   4.154   3.575
 7132SOL    HW122295   3.368   4.245   3.541
 7132SOL    HW222296   3.370   4.149   3.673
 7133SOL     OW22297   5.287   5.110   2.799
 7133SOL    HW122298   5.378   5.087   2.766
 7133SOL    HW222299   5.246   5.028   2.840
 7134SOL     OW22300   5.750   4.462   4.440
 7134SOL    HW122301   5.836   4.453   4.389
 7134SOL    HW222302   5.718   4.557   4.435
 7135SOL     OW22303   0.945   1.922   4.864
 7135SOL    HW122304   0.896   1.916   4.777
 7135SOL    HW222305   1.025   1.981   4.853
 7136SOL     OW22306   1.916   1.342   0.206
 7136SOL    HW122307   1.837   1.291   0.175
 7136SOL    HW222308   1.990   1.279   0.228
 7137SOL     OW22309   4.363   0.561   4.692
 7137SOL    HW122310   4.327   0.529   4.605
 7137SOL    HW222311   4.392   0.656   4.683
 7138SOL     OW22312   2.245   4.241   0.793
 7138SOL    HW122313   2.335   4.227   0.751
 7138SOL    HW222314   2.189   4.160   0.780
 7139SOL     OW22315   3.703   2.690   1.459
 7139SOL    HW122316   3.739   2.609   1.506
 7139SOL    HW222317   3.700   2.673   1.361
 7140SOL     OW22318   5.889   3.870   5.371
 7140SOL    HW122319   5.841   3.923   5.441
 7140SOL    HW222320   5.986   3.866   5.392
 7141SOL     OW22321   2.806   0.016   0.242
 7141SOL    HW122322   2.850   7.023   0.153
 7141SOL    HW222323   2.854   6.987   0.312
 7142SOL     OW22324   4.083   5.876   4.429
 7142SOL    HW122325   4.080   5.842   4.334
 7142SOL    HW222326   4.169   5.924   4.443
 7143SOL     OW22327   1.730   4.124   5.529
 7143SOL    HW122328   1.674   4.042   5.544
 7143SOL    HW222329   1.711   4.162   5.439
 7144SOL     OW22330   0.589   2.436   3.658
 7144SOL    HW122331   0.661   2.506   3.652
 7144SOL    HW222332   0.590   2.397   3.750
 7145SOL     OW22333   4.660   6.949   6.893
 7145SOL    HW122334   4.728   6.953   6.819
 7145SOL    HW222335   4.672   0.005   6.953
 7146SOL     OW22336   3.527   5.207   0.204
 7146SOL    HW122337   3.495   5.112   0.204
 7146SOL    HW222338   3.449   5.268   0.189
 7147SOL     OW22339   0.412   0.407   3.619
 7147SOL    HW122340   0.399   0.344   3.542
 7147SOL    HW222341   0.506   0.401   3.652
 7148SOL     OW22342   0.943   0.853   1.832
 7148SOL    HW122343   0.946   0.940   1.784
 7148SOL    HW222344   1.034   0.811   1.831
 7149SOL     OW22345   6.565   1.759   3.259
 7149SOL    HW122346   6.638   1.711   3.308
 7149SOL    HW222347   6.512   1.813   3.324
 7150SOL     OW22348   6.437   3.112   0.208
 7150SOL    HW122349   6.418   3.048   0.283
 7150SOL    HW222350   6.383   3.196   0.222
 7151SOL     OW22351   2.610   6.016   1.776
 7151SOL    HW122352   2.555   5.954   1.720
 7151SOL    HW222353   2.552   6.063   1.842
 7152SOL     OW22354   1.382   2.789   3.760
 7152SOL    HW122355   1.408   2.824   3.851
 7152SOL    HW222356   1.455   2.809   3.695
 7153SOL     OW22357   3.904   1.542   3.767
 7153SOL    HW122358   4.002   1.562   3.755
 7153SOL    HW222359   3.880   1.555   3.863
 7154SOL     OW22360   4.693   5.372   3.953
 7154SOL    HW122361   4.610   5.324   3.923
 7154SOL    HW222362   4.690   5.466   3.921
 7155SOL     OW22363   2.668   0.278   0.959
 7155SOL    HW122364   2.629   0.189   0.980
 7155SOL    HW222365   2.618   0.349   1.007
 7156SOL     OW22366   0.410   5.743   4.531
 7156SOL    HW122367   0.455   5.654   4.525
 7156SOL    HW222368   0.328   5.744   4.473
 7157SOL     OW22369   4.653   4.616   0.894
 7157SOL    HW122370   4.744   4.591   0.859
 7157SOL    HW222371   4.654   4.611   0.994
 7158SOL     OW22372   6.664   6.448   3.395
 7158SOL    HW122373   6.581   6.392   3.394
 7158SOL    HW222374   6.638   6.545   3.391
 7159SOL     OW22375   1.061   5.414   0.354
 7159SOL    HW122376   1.060   5.370   0.264
 7159SOL    HW222377   1.095   5.507   0.346
 7160SOL     OW22378   5.803   0.161   1.911
 7160SOL    HW122379   5.895   0.134   1.883
 7160SOL    HW222380   5.780   0.249   1.870
 7161SOL     OW22381   3.714   3.215   4.000
 7161SOL    HW122382   3.704   3.126   3.957
 7161SOL    HW222383   3.624   3.253   4.022
 7162SOL     OW22384   3.636   4.897   3.588
 7162SOL    HW122385   3.693   4.974   3.560
 7162SOL    HW222386   3.579   4.867   3.511
 7163SOL     OW22387   2.474   0.252   3.161
 7163SOL    HW122388   2.559   0.219   3.202
 7163SOL    HW222389   2.494   0.323   3.094
 7164SOL     OW22390   2.142   1.119   2.909
 7164SOL    HW122391   2.130   1.211   2.946
 7164SOL    HW222392   2.062   1.095   2.854
 7165SOL     OW22393   5.159   1.138   1.030
 7165SOL    HW122394   5.113   1.207   0.974
 7165SOL    HW222395   5.139   1.154   1.126
 7166SOL     OW22396   5.115   4.697   1.094
 7166SOL    HW122397   5.105   4.636   1.172
 7166SOL    HW222398   5.210   4.725   1.085
 7167SOL     OW22399   4.861   3.148   4.953
 7167SOL    HW122400   4.861   3.130   4.854
 7167SOL    HW222401   4.825   3.068   5.001
 7168SOL     OW22402   1.065   0.493   3.836
 7168SOL    HW122403   1.089   0.520   3.743
 7168SOL    HW222404   0.974   0.529   3.859
 7169SOL     OW22405   1.283   2.541   5.125
 7169SOL    HW122406   1.323   2.490   5.201
 7169SOL    HW222407   1.351   2.605   5.089
 7170SOL     OW22408   6.558   4.786   4.425
 7170SOL    HW122409   6.655   4.768   4.442
 7170SOL    HW222410   6.509   4.699   4.419
 7171SOL     OW22411   4.280   3.189   5.300
 7171SOL    HW122412   4.371   3.148   5.312
 7171SOL    HW222413   4.282   3.283   5.334
 7172SOL     OW22414   1.121   0.305   0.530
 7172SOL    HW122415   1.171   0.227   0.493
 7172SOL    HW222416   1.166   0.336   0.614
 7173SOL     OW22417   6.933   6.081   5.625
 7173SOL    HW122418   6.901   6.032   5.706
 7173SOL    HW222419   7.016   6.131   5.647
 7174SOL     OW22420   2.062   5.182   0.345
 7174SOL    HW122421   2.023   5.167   0.254
 7174SOL    HW222422   2.086   5.278   0.355
 7175SOL     OW22423   6.619   3.936   6.306
 7175SOL    HW122424   6.680   3.892   6.373
 7175SOL    HW222425   6.595   3.870   6.234
 7176SOL     OW22426   5.729   4.155   1.254
 7176SOL    HW122427   5.741   4.082   1.321
 7176SOL    HW222428   5.743   4.243   1.298
 7177SOL     OW22429   0.582   5.648   2.256
 7177SOL    HW122430   0.626   5.560   2.239
 7177SOL    HW222431   0.650   5.713   2.290
 7178SOL     OW22432   0.481   2.474   5.716
 7178SOL    HW122433   0.526   2.390   5.747
 7178SOL    HW222434   0.550   2.546   5.702
 7179SOL     OW22435   2.898   3.895   5.872
 7179SOL    HW122436   2.947   3.905   5.959
 7179SOL    HW222437   2.899   3.982   5.823
 7180SOL     OW22438   0.332   5.825   1.950
 7180SOL    HW122439   0.235   5.821   1.925
 7180SOL    HW222440   0.343   5.874   2.036
 7181SOL     OW22441   5.262   0.369   1.268
 7181SOL    HW122442   5.250   0.383   1.366
 7181SOL    HW222443   5.216   0.442   1.217
 7182SOL     OW22444   2.734   4.266   5.582
 7182SOL    HW122445   2.763   4.290   5.489
 7182SOL    HW222446   2.654   4.206   5.578
 7183SOL     OW22447   1.098   5.561   2.625
 7183SOL    HW122448   1.169   5.556   2.554
 7183SOL    HW222449   1.016   5.512   2.593
 7184SOL     OW22450   2.180   6.588   4.159
 7184SOL    HW122451   2.173   6.496   4.197
 7184SOL    HW222452   2.089   6.621   4.133
 7185SOL     OW22453   4.696   2.485   6.901
 7185SOL    HW122454   4.760   2.545   6.947
 7185SOL    HW222455   4.736   2.393   6.893
 7186SOL     OW22456   0.606   6.104   5.217
 7186SOL    HW122457   0.685   6.150   5.177
 7186SOL    HW222458   0.528   6.111   5.155
 7187SOL     OW22459   2.079   4.127   1.518
 7187SOL    HW122460   2.134   4.201   1.555
 7187SOL    HW222461   2.113   4.039   1.552
 7188SOL     OW22462   4.953   1.617   1.849
 7188SOL    HW122463   4.893   1.568   1.913
 7188SOL    HW222464   5.048   1.609   1.879
 7189SOL     OW22465   6.703   1.264   5.025
 7189SOL    HW122466   6.756   1.333   4.976
 7189SOL    HW222467   6.605   1.279   5.009
 7190SOL     OW22468   4.859   4.453   3.585
 7190SOL    HW122469   4.927   4.523   3.565
 7190SOL    HW222470   4.866   4.425   3.680
 7191SOL     OW22471   1.762   3.541   1.885
 7191SOL    HW122472   1.850   3.495   1.870
 7191SOL    HW222473   1.721   3.565   1.797
 7192SOL     OW22474   2.660   4.672   5.834
 7192SOL    HW122475   2.713   4.705   5.756
 7192SOL    HW222476   2.580   4.730   5.847
 7193SOL     OW22477   4.133   2.239   3.747
 7193SOL    HW122478   4.178   2.290   3.673
 7193SOL    HW222479   4.056   2.187   3.709
 7194SOL     OW22480   2.596   1.602   2.127
 7194SOL    HW122481   2.556   1.521   2.083
 7194SOL    HW222482   2.672   1.636   2.073
 7195SOL     OW22483   1.173   5.626   1.015
 7195SOL    HW122484   1.180   5.558   0.942
 7195SOL    HW222485   1.124   5.586   1.093
 7196SOL     OW22486   2.965   3.303   2.427
 7196SOL    HW122487   2.982   3.401   2.429
 7196SOL    HW222488   2.971   3.266   2.520
 7197SOL     OW22489   6.513   1.903   6.104
 7197SOL    HW122490   6.588   1.969   6.113
 7197SOL    HW222491   6.503   1.877   6.008
 7198SOL     OW22492   0.922   6.314   6.768
 7198SOL    HW122493   0.945   6.236   6.827
 7198SOL    HW222494   0.890   6.280   6.679
 7199SOL     OW22495   6.132   6.698   2.613
 7199SOL    HW122496   6.080   6.629   2.562
 7199SOL    HW222497   6.191   6.748   2.550
 7200SOL     OW22498   1.698   1.264   1.099
 7200SOL    HW122499   1.792   1.294   1.116
 7200SOL    HW222500   1.636   1.341   1.111
 7201SOL     OW22501   1.968   4.316   3.995
 7201SOL    HW122502   1.990   4.219   3.988
 7201SOL    HW222503   1.993   4.350   4.085
 7202SOL     OW22504   4.080   0.744   6.590
 7202SOL    HW122505   4.077   0.763   6.688
 7202SOL    HW222506   3.989   0.718   6.558
 7203SOL     OW22507   5.173   0.984   0.106
 7203SOL    HW122508   5.104   1.008   0.038
 7203SOL    HW222509   5.218   1.067   0.138
 7204SOL     OW22510   6.062   1.908   3.099
 7204SOL    HW122511   6.045   1.906   3.198
 7204SOL    HW222512   5.976   1.927   3.052
 7205SOL     OW22513   2.074   4.826   2.309
 7205SOL    HW122514   2.123   4.779   2.382
 7205SOL    HW222515   1.995   4.772   2.282
 7206SOL     OW22516   6.332   1.015   1.651
 7206SOL    HW122517   6.392   1.088   1.619
 7206SOL    HW222518   6.385   0.947   1.701
 7207SOL     OW22519   3.701   6.941   1.716
 7207SOL    HW122520   3.734   0.009   1.693
 7207SOL    HW222521   3.758   6.902   1.787
 7208SOL     OW22522   3.202   0.209   5.532
 7208SOL    HW122523   3.181   0.111   5.536
 7208SOL    HW222524   3.292   0.225   5.572
 7209SOL     OW22525   3.861   3.478   4.650
 7209SOL    HW122526   3.944   3.496   4.702
 7209SOL    HW222527   3.781   3.503   4.706
 7210SOL     OW22528   4.625   1.483   4.129
 7210SOL    HW122529   4.701   1.452   4.072
 7210SOL    HW222530   4.660   1.521   4.214
 7211SOL     OW22531   1.540   5.274   3.311
 7211SOL    HW122532   1.476   5.339   3.353
 7211SOL    HW222533   1.555   5.299   3.215
 7212SOL     OW22534   6.081   6.323   4.089
 7212SOL    HW122535   5.997   6.336   4.035
 7212SOL    HW222536   6.069   6.366   4.179
 7213SOL     OW22537   5.719   1.112   5.428
 7213SOL    HW122538   5.680   1.035   5.378
 7213SOL    HW222539   5.796   1.150   5.378
 7214SOL     OW22540   1.820   5.232   4.770
 7214SOL    HW122541   1.789   5.271   4.684
 7214SOL    HW222542   1.899   5.173   4.754
 7215SOL     OW22543   1.244   3.748   4.037
 7215SOL    HW122544   1.184   3.670   4.015
 7215SOL    HW222545   1.195   3.833   4.020
 7216SOL     OW22546   2.623   0.486   1.136
 7216SOL    HW122547   2.534   0.528   1.115
 7216SOL    HW222548   2.693   0.556   1.141
 7217SOL     OW22549   1.237   3.219   2.286
 7217SOL    HW122550   1.180   3.222   2.368
 7217SOL    HW222551   1.183   3.185   2.209
 7218SOL     OW22552   5.124   2.817   5.649
 7218SOL    HW122553   5.162   2.776   5.566
 7218SOL    HW222554   5.031   2.848   5.632
 7219SOL     OW22555   3.786   1.034   2.368
 7219SOL    HW122556   3.741   1.083   2.294
 7219SOL    HW222557   3.863   0.981   2.332
 7220SOL     OW22558   6.773   0.936   2.634
 7220SOL    HW122559   6.735   0.860   2.687
 7220SOL    HW222560   6.872   0.939   2.646
 7221SOL     OW22561   5.481   5.313   6.436
 7221SOL    HW122562   5.415   5.271   6.374
 7221SOL    HW222563   5.529   5.241   6.487
 7222SOL     OW22564   0.457   6.070   1.290
 7222SOL    HW122565   0.359   6.091   1.291
 7222SOL    HW222566   0.472   5.981   1.248
 7223SOL     OW22567   3.615   0.880   5.400
 7223SOL    HW122568   3.537   0.838   5.354
 7223SOL    HW222569   3.583   0.930   5.481
 7224SOL     OW22570   5.184   6.924   4.501
 7224SOL    HW122571   5.088   6.900   4.519
 7224SOL    HW222572   5.244   6.863   4.554
 7225SOL     OW22573   2.290   6.378   6.800
 7225SOL    HW122574   2.191   6.369   6.797
 7225SOL    HW222575   2.329   6.296   6.842
 7226SOL     OW22576   6.873   6.528   0.802
 7226SOL    HW122577   6.823   6.614   0.802
 7226SOL    HW222578   6.968   6.545   0.777
 7227SOL     OW22579   6.839   2.330   6.893
 7227SOL    HW122580   6.920   2.387   6.910
 7227SOL    HW222581   6.783   2.325   6.975
 7228SOL     OW22582   1.266   0.612   2.834
 7228SOL    HW122583   1.307   0.702   2.827
 7228SOL    HW222584   1.280   0.575   2.926
 7229SOL     OW22585   0.704   0.382   3.755
 7229SOL    HW122586   0.770   0.313   3.725
 7229SOL    HW222587   0.751   0.462   3.790
 7230SOL     OW22588   5.258   3.986   3.253
 7230SOL    HW122589   5.299   4.035   3.177
 7230SOL    HW222590   5.221   4.051   3.319
 7231SOL     OW22591   5.687   0.862   6.494
 7231SOL    HW122592   5.680   0.954   6.454
 7231SOL    HW222593   5.597   0.833   6.525
 7232SOL     OW22594   3.929   4.598   1.338
 7232SOL    HW122595   3.971   4.688   1.324
 7232SOL    HW222596   4.000   4.528   1.336
 7233SOL     OW22597   6.631   2.071   6.390
 7233SOL    HW122598   6.535   2.086   6.415
 7233SOL    HW222599   6.645   1.974   6.368
 7234SOL     OW22600   6.090   1.868   1.849
 7234SOL    HW122601   6.026   1.840   1.921
 7234SOL    HW222602   6.134   1.787   1.810
 7235SOL     OW22603   5.780   4.013   5.592
 7235SOL    HW122604   5.820   4.101   5.564
 7235SOL    HW222605   5.688   4.005   5.555
 7236SOL     OW22606   3.181   0.422   3.087
 7236SOL    HW122607   3.212   0.491   3.152
 7236SOL    HW222608   3.191   0.457   2.994
 7237SOL     OW22609   5.874   6.038   5.874
 7237SOL    HW122610   5.820   6.054   5.957
 7237SOL    HW222611   5.813   6.035   5.795
 7238SOL     OW22612   1.468   1.471   1.091
 7238SOL    HW122613   1.478   1.507   1.184
 7238SOL    HW222614   1.497   1.539   1.025
 7239SOL     OW22615   3.960   1.564   1.625
 7239SOL    HW122616   4.022   1.557   1.547
 7239SOL    HW222617   4.013   1.564   1.710
 7240SOL     OW22618   2.570   4.645   0.279
 7240SOL    HW122619   2.581   4.714   0.350
 7240SOL    HW222620   2.654   4.637   0.226
 7241SOL     OW22621   3.736   0.099   5.148
 7241SOL    HW122622   3.781   0.182   5.182
 7241SOL    HW222623   3.647   0.123   5.108
 7242SOL     OW22624   5.050   4.859   6.986
 7242SOL    HW122625   5.056   4.852   0.062
 7242SOL    HW222626   5.051   4.767   6.947
 7243SOL     OW22627   0.512   5.460   0.241
 7243SOL    HW122628   0.441   5.430   0.304
 7243SOL    HW222629   0.513   5.560   0.238
 7244SOL     OW22630   6.150   0.892   1.234
 7244SOL    HW122631   6.183   0.958   1.167
 7244SOL    HW222632   6.210   0.892   1.314
 7245SOL     OW22633   0.430   1.916   3.598
 7245SOL    HW122634   0.485   1.977   3.541
 7245SOL    HW222635   0.387   1.846   3.541
 7246SOL     OW22636   0.301   6.272   5.959
 7246SOL    HW122637   0.348   6.265   5.871
 7246SOL    HW222638   0.205   6.292   5.945
 7247SOL     OW22639   3.337   5.572   2.684
 7247SOL    HW122640   3.397   5.644   2.719
 7247SOL    HW222641   3.377   5.534   2.600
 7248SOL     OW22642   3.536   0.555   4.699
 7248SOL    HW122643   3.442   0.521   4.703
 7248SOL    HW222644   3.572   0.564   4.791
 7249SOL     OW22645   6.109   5.827   6.728
 7249SOL    HW122646   6.184   5.799   6.668
 7249SOL    HW222647   6.140   5.900   6.789
 7250SOL     OW22648   2.895   4.310   6.581
 7250SOL    HW122649   2.890   4.239   6.510
 7250SOL    HW222650   2.804   4.325   6.619
 7251SOL     OW22651   5.944   0.254   5.191
 7251SOL    HW122652   5.892   0.233   5.109
 7251SOL    HW222653   5.911   0.340   5.230
 7252SOL     OW22654   3.729   3.773   4.863
 7252SOL    HW122655   3.801   3.843   4.867
 7252SOL    HW222656   3.649   3.810   4.816
 7253SOL     OW22657   5.401   6.209   1.442
 7253SOL    HW122658   5.369   6.132   1.386
 7253SOL    HW222659   5.338   6.223   1.519
 7254SOL     OW22660   4.955   6.041   5.310
 7254SOL    HW122661   4.996   5.950   5.299
 7254SOL    HW222662   5.027   6.110   5.310
 7255SOL     OW22663   3.745   3.779   2.429
 7255SOL    HW122664   3.698   3.850   2.375
 7255SOL    HW222665   3.831   3.817   2.465
 7256SOL     OW22666   4.458   4.921   4.269
 7256SOL    HW122667   4.365   4.896   4.296
 7256SOL    HW222668   4.454   4.986   4.193
 7257SOL     OW22669   5.930   4.012   2.954
 7257SOL    HW122670   5.851   3.959   2.986
 7257SOL    HW222671   5.909   4.109   2.962
 7258SOL     OW22672   3.793   6.894   4.712
 7258SOL    HW122673   3.802   6.948   4.627
 7258SOL    HW222674   3.863   6.923   4.777
 7259SOL     OW22675   2.636   5.441   5.706
 7259SOL    HW122676   2.589   5.414   5.622
 7259SOL    HW222677   2.568   5.467   5.775
 7260SOL     OW22678   3.751   2.131   1.674
 7260SOL    HW122679   3.829   2.076   1.702
 7260SOL    HW222680   3.723   2.191   1.749
 7261SOL     OW22681   1.469   4.035   2.387
 7261SOL    HW122682   1.449   4.077   2.475
 7261SOL    HW222683   1.497   4.106   2.322
 7262SOL     OW22684   6.190   2.036   5.282
 7262SOL    HW122685   6.168   2.121   5.234
 7262SOL    HW222686   6.130   1.964   5.249
 7263SOL     OW22687   4.083   6.143   2.041
 7263SOL    HW122688   4.150   6.089   1.991
 7263SOL    HW222689   4.076   6.234   2.001
 7264SOL     OW22690   1.148   6.661   5.446
 7264SOL    HW122691   1.114   6.711   5.366
 7264SOL    HW222692   1.223   6.600   5.418
 7265SOL     OW22693   4.261   4.586   5.955
 7265SOL    HW122694   4.213   4.639   5.886
 7265SOL    HW222695   4.224   4.608   6.045
 7266SOL     OW22696   5.859   1.542   1.912
 7266SOL    HW122697   5.917   1.547   1.993
 7266SOL    HW222698   5.770   1.503   1.936
 7267SOL     OW22699   0.210   3.770   4.408
 7267SOL    HW122700   0.213   3.754   4.310
 7267SOL    HW222701   0.139   3.837   4.429
 7268SOL     OW22702   3.151   7.017   1.279
 7268SOL    HW122703   3.160   6.966   1.364
 7268SOL    HW222704   3.203   6.971   1.207
 7269SOL     OW22705   1.261   6.794   1.481
 7269SOL    HW122706   1.188   6.726   1.484
 7269SOL    HW222707   1.234   6.870   1.422
 7270SOL     OW22708   3.249   1.526   2.626
 7270SOL    HW122709   3.160   1.555   2.662
 7270SOL    HW222710   3.306   1.607   2.608
 7271SOL     OW22711   6.228   3.847   3.513
 7271SOL    HW122712   6.314   3.889   3.482
 7271SOL    HW222713   6.211   3.763   3.462
 7272SOL     OW22714   5.594   2.324   1.221
 7272SOL    HW122715   5.587   2.234   1.177
 7272SOL    HW222716   5.630   2.390   1.155
 7273SOL     OW22717   5.708   5.536   6.811
 7273SOL    HW122718   5.616   5.561   6.840
 7273SOL    HW222719   5.727   5.577   6.722
 7274SOL     OW22720   6.841   4.826   5.288
 7274SOL    HW122721   6.839   4.900   5.355
 7274SOL    HW222722   6.932   4.819   5.248
 7275SOL     OW22723   5.804   0.112   1.126
 7275SOL    HW122724   5.838   0.199   1.089
 7275SOL    HW222725   5.735   0.131   1.196
 7276SOL     OW22726   3.140   1.835   3.789
 7276SOL    HW122727   3.045   1.815   3.767
 7276SOL    HW222728   3.151   1.934   3.803
 7277SOL     OW22729   5.643   1.261   4.637
 7277SOL    HW122730   5.694   1.286   4.554
 7277SOL    HW222731   5.607   1.344   4.679
 7278SOL     OW22732   2.600   1.419   3.138
 7278SOL    HW122733   2.679   1.457   3.089
 7278SOL    HW222734   2.523   1.410   3.074
 7279SOL     OW22735   4.463   4.155   0.977
 7279SOL    HW122736   4.525   4.086   0.941
 7279SOL    HW222737   4.369   4.134   0.949
 7280SOL     OW22738   6.055   2.285   5.529
 7280SOL    HW122739   6.071   2.383   5.539
 7280SOL    HW222740   6.143   2.237   5.524
 7281SOL     OW22741   4.356   4.996   1.858
 7281SOL    HW122742   4.312   4.906   1.845
 7281SOL    HW222743   4.354   5.019   1.955
 7282SOL     OW22744   6.026   4.036   2.166
 7282SOL    HW122745   6.055   3.965   2.231
 7282SOL    HW222746   5.927   4.049   2.172
 7283SOL     OW22747   4.360   5.113   2.991
 7283SOL    HW122748   4.413   5.034   2.961
 7283SOL    HW222749   4.283   5.082   3.047
 7284SOL     OW22750   0.162   2.032   2.730
 7284SOL    HW122751   0.235   2.099   2.743
 7284SOL    HW222752   0.197   1.952   2.682
 7285SOL     OW22753   4.759   3.199   1.615
 7285SOL    HW122754   4.803   3.114   1.587
 7285SOL    HW222755   4.706   3.183   1.699
 7286SOL     OW22756   0.361   1.485   3.023
 7286SOL    HW122757   0.358   1.536   2.936
 7286SOL    HW222758   0.455   1.483   3.057
 7287SOL     OW22759   2.200   2.290   3.196
 7287SOL    HW122760   2.164   2.378   3.226
 7287SOL    HW222761   2.256   2.302   3.114
 7288SOL     OW22762   2.420   1.814   2.693
 7288SOL    HW122763   2.482   1.872   2.641
 7288SOL    HW222764   2.424   1.839   2.790
 7289SOL     OW22765   6.356   1.557   1.206
 7289SOL    HW122766   6.434   1.524   1.151
 7289SOL    HW222767   6.384   1.638   1.258
 7290SOL     OW22768   3.588   0.876   5.057
 7290SOL    HW122769   3.667   0.865   5.117
 7290SOL    HW222770   3.566   0.973   5.049
 7291SOL     OW22771   3.071   1.412   0.670
 7291SOL    HW122772   3.169   1.409   0.653
 7291SOL    HW222773   3.036   1.319   0.683
 7292SOL     OW22774   2.592   0.480   2.360
 7292SOL    HW122775   2.660   0.465   2.432
 7292SOL    HW222776   2.626   0.443   2.274
 7293SOL     OW22777   6.945   1.554   4.043
 7293SOL    HW122778   6.964   1.652   4.038
 7293SOL    HW222779   7.020   1.508   4.090
 7294SOL     OW22780   3.619   6.375   2.495
 7294SOL    HW122781   3.632   6.459   2.441
 7294SOL    HW222782   3.522   6.366   2.518
 7295SOL     OW22783   6.191   5.179   1.964
 7295SOL    HW122784   6.199   5.093   1.912
 7295SOL    HW222785   6.098   5.188   1.999
 7296SOL     OW22786   4.769   5.024   2.126
 7296SOL    HW122787   4.807   4.997   2.215
 7296SOL    HW222788   4.745   5.121   2.129
 7297SOL     OW22789   4.185   6.966   1.352
 7297SOL    HW122790   4.282   6.944   1.362
 7297SOL    HW222791   4.167   6.996   1.258
 7298SOL     OW22792   4.084   4.978   0.019
 7298SOL    HW122793   4.094   5.055   0.081
 7298SOL    HW222794   4.090   4.892   0.070
 7299SOL     OW22795   1.069   2.570   6.180
 7299SOL    HW122796   0.971   2.585   6.188
 7299SOL    HW222797   1.088   2.471   6.177
 7300SOL     OW22798   0.225   4.765   2.302
 7300SOL    HW122799   0.146   4.704   2.306
 7300SOL    HW222800   0.243   4.803   2.392
 7301SOL     OW22801   4.774   1.938   5.513
 7301SOL    HW122802   4.738   1.847   5.492
 7301SOL    HW222803   4.796   1.986   5.429
 7302SOL     OW22804   5.632   1.922   6.143
 7302SOL    HW122805   5.590   1.936   6.053
 7302SOL    HW222806   5.642   1.824   6.161
 7303SOL     OW22807   2.553   1.807   1.902
 7303SOL    HW122808   2.533   1.882   1.965
 7303SOL    HW222809   2.644   1.770   1.922
 7304SOL     OW22810   2.725   5.772   1.123
 7304SOL    HW122811   2.769   5.814   1.042
 7304SOL    HW222812   2.701   5.844   1.188
 7305SOL     OW22813   6.370   1.207   0.450
 7305SOL    HW122814   6.385   1.204   0.352
 7305SOL    HW222815   6.355   1.302   0.479
 7306SOL     OW22816   0.516   2.672   1.420
 7306SOL    HW122817   0.433   2.718   1.452
 7306SOL    HW222818   0.492   2.588   1.373
 7307SOL     OW22819   2.144   0.559   0.958
 7307SOL    HW122820   2.050   0.593   0.959
 7307SOL    HW222821   2.175   0.548   0.863
 7308SOL     OW22822   4.613   1.066   2.697
 7308SOL    HW122823   4.665   0.985   2.668
 7308SOL    HW222824   4.614   1.072   2.797
 7309SOL     OW22825   2.677   5.015   3.405
 7309SOL    HW122826   2.688   5.031   3.307
 7309SOL    HW222827   2.757   5.049   3.453
 7310SOL     OW22828   2.222   3.104   5.834
 7310SOL    HW122829   2.284   3.056   5.896
 7310SOL    HW222830   2.137   3.126   5.882
 7311SOL     OW22831   0.150   6.019   6.456
 7311SOL    HW122832   0.132   5.944   6.392
 7311SOL    HW222833   0.249   6.033   6.463
 7312SOL     OW22834   6.759   2.116   3.761
 7312SOL    HW122835   6.735   2.164   3.845
 7312SOL    HW222836   6.855   2.134   3.738
 7313SOL     OW22837   2.634   0.780   2.461
 7313SOL    HW122838   2.627   0.763   2.363
 7313SOL    HW222839   2.559   0.838   2.490
 7314SOL     OW22840   0.367   4.332   6.280
 7314SOL    HW122841   0.374   4.233   6.267
 7314SOL    HW222842   0.370   4.377   6.191
 7315SOL     OW22843   1.928   5.078   2.364
 7315SOL    HW122844   1.979   4.993   2.348
 7315SOL    HW222845   1.831   5.061   2.350
 7316SOL     OW22846   3.251   2.337   1.371
 7316SOL    HW122847   3.245   2.404   1.297
 7316SOL    HW222848   3.333   2.282   1.360
 7317SOL     OW22849   3.593   1.970   0.421
 7317SOL    HW122850   3.651   1.994   0.499
 7317SOL    HW222851   3.498   1.995   0.441
 7318SOL     OW22852   5.114   5.880   0.871
 7318SOL    HW122853   5.174   5.959   0.863
 7318SOL    HW222854   5.091   5.865   0.967
 7319SOL     OW22855   5.778   5.633   6.573
 7319SOL    HW122856   5.820   5.722   6.557
 7319SOL    HW222857   5.693   5.626   6.521
 7320SOL     OW22858   0.357   2.190   1.350
 7320SOL    HW122859   0.436   2.145   1.308
 7320SOL    HW222860   0.327   2.137   1.430
 7321SOL     OW22861   1.335   1.084   0.025
 7321SOL    HW122862   1.334   1.126   0.116
 7321SOL    HW222863   1.417   1.027   0.015
 7322SOL     OW22864   1.382   2.959   2.943
 7322SOL    HW122865   1.463   2.972   2.887
 7322SOL    HW222866   1.376   2.864   2.973
 7323SOL     OW22867   0.913   2.990   0.877
 7323SOL    HW122868   0.859   2.931   0.937
 7323SOL    HW222869   0.911   3.083   0.914
 7324SOL     OW22870   5.619   4.379   3.784
 7324SOL    HW122871   5.523   4.372   3.814
 7324SOL    HW222872   5.635   4.469   3.744
 7325SOL     OW22873   4.357   0.953   5.860
 7325SOL    HW122874   4.358   0.983   5.955
 7325SOL    HW222875   4.283   0.998   5.811
 7326SOL     OW22876   3.753   0.757   0.549
 7326SOL    HW122877   3.790   0.717   0.633
 7326SOL    HW222878   3.703   0.841   0.572
 7327SOL     OW22879   1.261   4.304   3.350
 7327SOL    HW122880   1.198   4.230   3.373
 7327SOL    HW222881   1.338   4.302   3.413
 7328SOL     OW22882   4.520   5.096   4.567
 7328SOL    HW122883   4.512   5.185   4.613
 7328SOL    HW222884   4.610   5.089   4.525
 7329SOL     OW22885   3.253   3.600   1.250
 7329SOL    HW122886   3.180   3.639   1.307
 7329SOL    HW222887   3.215   3.524   1.197
 7330SOL     OW22888   2.547   3.303   1.736
 7330SOL    HW122889   2.588   3.355   1.660
 7330SOL    HW222890   2.555   3.356   1.820
 7331SOL     OW22891   5.542   2.755   2.232
 7331SOL    HW122892   5.464   2.695   2.253
 7331SOL    HW222893   5.553   2.821   2.306
 7332SOL     OW22894   3.517   5.825   5.963
 7332SOL    HW122895   3.548   5.903   6.018
 7332SOL    HW222896   3.419   5.812   5.975
 7333SOL     OW22897   0.948   0.945   0.696
 7333SOL    HW122898   0.897   0.893   0.764
 7333SOL    HW222899   0.913   1.039   0.692
 7334SOL     OW22900   2.819   6.684   4.431
 7334SOL    HW122901   2.896   6.747   4.431
 7334SOL    HW222902   2.833   6.615   4.503
 7335SOL     OW22903   6.684   3.190   1.873
 7335SOL    HW122904   6.584   3.189   1.874
 7335SOL    HW222905   6.719   3.168   1.964
 7336SOL     OW22906   2.188   6.694   2.012
 7336SOL    HW122907   2.125   6.701   1.935
 7336SOL    HW222908   2.243   6.777   2.019
 7337SOL     OW22909   2.580   1.696   3.408
 7337SOL    HW122910   2.585   1.600   3.380
 7337SOL    HW222911   2.603   1.703   3.505
 7338SOL     OW22912   5.115   3.174   1.490
 7338SOL    HW122913   5.064   3.145   1.408
 7338SOL    HW222914   5.164   3.259   1.470
 7339SOL     OW22915   0.008   5.667   4.659
 7339SOL    HW122916   0.058   5.703   4.738
 7339SOL    HW222917   0.018   5.730   4.582
 7340SOL     OW22918   2.668   0.014   0.755
 7340SOL    HW122919   2.584   0.054   0.718
 7340SOL    HW222920   2.669   0.025   0.855
 7341SOL     OW22921   6.269   5.366   4.436
 7341SOL    HW122922   6.321   5.436   4.388
 7341SOL    HW222923   6.188   5.407   4.478
 7342SOL     OW22924   1.262   5.156   1.284
 7342SOL    HW122925   1.249   5.250   1.255
 7342SOL    HW222926   1.329   5.111   1.225
 7343SOL     OW22927   5.207   3.016   2.810
 7343SOL    HW122928   5.230   2.967   2.894
 7343SOL    HW222929   5.188   3.111   2.830
 7344SOL     OW22930   2.384   1.155   0.192
 7344SOL    HW122931   2.377   1.073   0.136
 7344SOL    HW222932   2.472   1.200   0.174
 7345SOL     OW22933   3.663   5.445   0.287
 7345SOL    HW122934   3.633   5.525   0.340
 7345SOL    HW222935   3.582   5.394   0.256
 7346SOL     OW22936   3.963   4.723   1.720
 7346SOL    HW122937   4.058   4.701   1.698
 7346SOL    HW222938   3.954   4.734   1.819
 7347SOL     OW22939   6.022   2.974   2.776
 7347SOL    HW122940   6.087   2.898   2.781
 7347SOL    HW222941   6.010   3.002   2.681
 7348SOL     OW22942   0.810   2.190   4.589
 7348SOL    HW122943   0.773   2.133   4.662
 7348SOL    HW222944   0.855   2.270   4.629
 7349SOL     OW22945   3.886   1.553   0.336
 7349SOL    HW122946   3.984   1.552   0.360
 7349SOL    HW222947   3.875   1.588   0.244
 7350SOL     OW22948   2.327   0.946   2.819
 7350SOL    HW122949   2.259   1.014   2.844
 7350SOL    HW222950   2.338   0.881   2.894
 7351SOL     OW22951   4.009   4.375   6.892
 7351SOL    HW122952   3.992   4.277   6.900
 7351SOL    HW222953   4.104   4.395   6.915
 7352SOL     OW22954   6.789   1.323   3.304
 7352SOL    HW122955   6.780   1.292   3.210
 7352SOL    HW222956   6.728   1.270   3.363
 7353SOL     OW22957   4.938   2.505   4.879
 7353SOL    HW122958   4.933   2.459   4.967
 7353SOL    HW222959   4.948   2.437   4.806
 7354SOL     OW22960   6.167   3.897   5.461
 7354SOL    HW122961   6.183   3.966   5.532
 7354SOL    HW222962   6.231   3.821   5.473
 7355SOL     OW22963   1.338   4.618   2.090
 7355SOL    HW122964   1.375   4.617   1.998
 7355SOL    HW222965   1.239   4.610   2.087
 7356SOL     OW22966   5.800   1.873   5.671
 7356SOL    HW122967   5.830   1.856   5.765
 7356SOL    HW222968   5.701   1.861   5.664
 7357SOL     OW22969   6.597   1.505   0.449
 7357SOL    HW122970   6.507   1.515   0.491
 7357SOL    HW222971   6.635   1.415   0.471
 7358SOL     OW22972   3.055   0.596   3.876
 7358SOL    HW122973   3.133   0.588   3.814
 7358SOL    HW222974   2.985   0.654   3.835
 7359SOL     OW22975   3.603   3.130   3.047
 7359SOL    HW122976   3.616   3.118   2.948
 7359SOL    HW222977   3.535   3.063   3.079
 7360SOL     OW22978   0.141   2.565   6.060
 7360SOL    HW122979   0.202   2.637   6.093
 7360SOL    HW222980   0.074   2.605   5.997
 7361SOL     OW22981   5.335   6.797   2.411
 7361SOL    HW122982   5.280   6.809   2.494
 7361SOL    HW222983   5.339   6.700   2.388
 7362SOL     OW22984   1.704   6.459   5.839
 7362SOL    HW122985   1.689   6.381   5.779
 7362SOL    HW222986   1.773   6.520   5.799
 7363SOL     OW22987   5.009   2.553   6.517
 7363SOL    HW122988   5.044   2.462   6.537
 7363SOL    HW222989   5.050   2.619   6.581
 7364SOL     OW22990   5.537   0.847   1.519
 7364SOL    HW122991   5.461   0.816   1.461
 7364SOL    HW222992   5.534   0.946   1.527
 7365SOL     OW22993   3.239   0.778   2.163
 7365SOL    HW122994   3.221   0.716   2.087
 7365SOL    HW222995   3.231   0.872   2.131
 7366SOL     OW22996   0.866   5.600   0.499
 7366SOL    HW122997   0.850   5.518   0.556
 7366SOL    HW222998   0.945   5.649   0.534
 7367SOL     OW22999   4.852   3.671   6.997
 7367SOL    HW123000   4.932   3.722   6.964
 7367SOL    HW223001   4.771   3.701   6.947
 7368SOL     OW23002   3.491   3.838   3.747
 7368SOL    HW123003   3.489   3.932   3.779
 7368SOL    HW223004   3.556   3.830   3.671
 7369SOL     OW23005   4.251   2.302   6.935
 7369SOL    HW123006   4.192   2.358   6.876
 7369SOL    HW223007   4.301   2.362   6.997
 7370SOL     OW23008   2.109   6.154   1.396
 7370SOL    HW123009   2.104   6.172   1.495
 7370SOL    HW223010   2.060   6.069   1.376
 7371SOL     OW23011   2.621   5.059   4.569
 7371SOL    HW123012   2.564   5.093   4.644
 7371SOL    HW223013   2.701   5.118   4.558
 7372SOL     OW23014   3.251   6.895   6.148
 7372SOL    HW123015   3.218   6.905   6.242
 7372SOL    HW223016   3.343   6.856   6.149
 7373SOL     OW23017   3.658   0.569   1.182
 7373SOL    HW123018   3.658   0.572   1.282
 7373SOL    HW223019   3.597   0.640   1.147
 7374SOL     OW23020   1.588   3.241   6.138
 7374SOL    HW123021   1.515   3.283   6.191
 7374SOL    HW223022   1.677   3.273   6.170
 7375SOL     OW23023   0.678   0.220   3.076
 7375SOL    HW123024   0.730   0.140   3.048
 7375SOL    HW223025   0.740   0.286   3.119
 7376SOL     OW23026   2.946   4.142   5.743
 7376SOL    HW123027   2.994   4.077   5.684
 7376SOL    HW223028   2.861   4.172   5.698
 7377SOL     OW23029   4.652   4.512   1.187
 7377SOL    HW123030   4.730   4.529   1.246
 7377SOL    HW223031   4.568   4.540   1.234
 7378SOL     OW23032   6.483   1.576   5.391
 7378SOL    HW123033   6.389   1.563   5.359
 7378SOL    HW223034   6.541   1.501   5.357
 7379SOL     OW23035   3.362   1.635   1.784
 7379SOL    HW123036   3.363   1.665   1.689
 7379SOL    HW223037   3.451   1.655   1.827
 7380SOL     OW23038   6.757   3.100   5.437
 7380SOL    HW123039   6.675   3.129   5.387
 7380SOL    HW223040   6.730   3.051   5.520
 7381SOL     OW23041   5.586   2.353   0.342
 7381SOL    HW123042   5.519   2.415   0.302
 7381SOL    HW223043   5.655   2.329   0.273
 7382SOL     OW23044   0.487   6.302   3.539
 7382SOL    HW123045   0.495   6.282   3.442
 7382SOL    HW223046   0.519   6.224   3.593
 7383SOL     OW23047   6.958   6.216   3.343
 7383SOL    HW123048   0.006   6.150   3.322
 7383SOL    HW223049   6.915   6.247   3.258
 7384SOL     OW23050   5.887   1.317   2.488
 7384SOL    HW123051   5.792   1.287   2.485
 7384SOL    HW223052   5.944   1.247   2.531
 7385SOL     OW23053   5.040   6.885   1.771
 7385SOL    HW123054   4.951   6.920   1.745
 7385SOL    HW223055   5.031   6.791   1.804
 7386SOL     OW23056   0.297   2.341   5.952
 7386SOL    HW123057   0.318   2.408   5.881
 7386SOL    HW223058   0.229   2.378   6.014
 7387SOL     OW23059   3.976   5.792   3.469
 7387SOL    HW123060   3.929   5.879   3.480
 7387SOL    HW223061   3.910   5.721   3.444
 7388SOL     OW23062   6.463   4.944   4.020
 7388SOL    HW123063   6.388   4.889   4.057
 7388SOL    HW223064   6.538   4.883   3.995
 7389SOL     OW23065   1.255   4.084   5.906
 7389SOL    HW123066   1.344   4.106   5.947
 7389SOL    HW223067   1.256   3.990   5.873
 7390SOL     OW23068   2.131   6.744   5.445
 7390SOL    HW123069   2.135   6.661   5.389
 7390SOL    HW223070   2.129   6.719   5.542
 7391SOL     OW23071   6.761   3.219   0.318
 7391SOL    HW123072   6.861   3.224   0.322
 7391SOL    HW223073   6.733   3.196   0.225
 7392SOL     OW23074   2.390   4.546   3.169
 7392SOL    HW123075   2.427   4.601   3.244
 7392SOL    HW223076   2.356   4.459   3.205
 7393SOL     OW23077   0.419   3.651   1.540
 7393SOL    HW123078   0.442   3.723   1.606
 7393SOL    HW223079   0.349   3.684   1.477
 7394SOL     OW23080   2.671   3.466   6.199
 7394SOL    HW123081   2.597   3.523   6.165
 7394SOL    HW223082   2.719   3.514   6.272
 7395SOL     OW23083   1.645   6.281   0.434
 7395SOL    HW123084   1.662   6.187   0.404
 7395SOL    HW223085   1.620   6.281   0.531
 7396SOL     OW23086   0.792   0.138   0.264
 7396SOL    HW123087   0.698   0.168   0.253
 7396SOL    HW223088   0.811   0.121   0.361
 7397SOL     OW23089   6.244   5.572   4.823
 7397SOL    HW123090   6.158   5.522   4.833
 7397SOL    HW223091   6.312   5.514   4.779
 7398SOL     OW23092   4.122   5.410   3.264
 7398SOL    HW123093   4.192   5.353   3.221
 7398SOL    HW223094   4.114   5.497   3.214
 7399SOL     OW23095   4.880   4.001   5.011
 7399SOL    HW123096   4.803   4.058   4.982
 7399SOL    HW223097   4.949   3.999   4.938
 7400SOL     OW23098   1.924   5.091   6.609
 7400SOL    HW123099   1.946   5.174   6.661
 7400SOL    HW223100   1.993   5.021   6.628
 7401SOL     OW23101   6.266   1.931   4.490
 7401SOL    HW123102   6.316   1.873   4.426
 7401SOL    HW223103   6.300   1.915   4.583
 7402SOL     OW23104   2.503   0.115   3.563
 7402SOL    HW123105   2.511   0.024   3.605
 7402SOL    HW223106   2.561   0.119   3.482
 7403SOL     OW23107   1.772   3.219   1.498
 7403SOL    HW123108   1.788   3.144   1.562
 7403SOL    HW223109   1.680   3.213   1.460
 7404SOL     OW23110   1.287   1.229   2.363
 7404SOL    HW123111   1.324   1.302   2.422
 7404SOL    HW223112   1.359   1.163   2.343
 7405SOL     OW23113   2.628   4.853   6.111
 7405SOL    HW123114   2.548   4.894   6.155
 7405SOL    HW223115   2.640   4.760   6.144
 7406SOL     OW23116   0.237   5.123   1.755
 7406SOL    HW123117   0.220   5.086   1.663
 7406SOL    HW223118   0.164   5.093   1.817
 7407SOL     OW23119   1.958   0.168   6.317
 7407SOL    HW123120   2.001   0.179   6.406
 7407SOL    HW223121   1.940   0.071   6.300
 7408SOL     OW23122   0.908   3.936   5.646
 7408SOL    HW123123   0.851   3.992   5.586
 7408SOL    HW223124   1.002   3.938   5.615
 7409SOL     OW23125   2.995   5.376   5.827
 7409SOL    HW123126   3.051   5.338   5.753
 7409SOL    HW223127   2.926   5.437   5.789
 7410SOL     OW23128   6.211   5.058   0.881
 7410SOL    HW123129   6.256   5.031   0.966
 7410SOL    HW223130   6.123   5.011   0.874
 7411SOL     OW23131   4.783   5.831   5.749
 7411SOL    HW123132   4.831   5.745   5.729
 7411SOL    HW223133   4.838   5.908   5.716
 7412SOL     OW23134   0.947   2.146   0.096
 7412SOL    HW123135   0.924   2.086   0.172
 7412SOL    HW223136   0.977   2.235   0.132
 7413SOL     OW23137   6.589   3.327   4.932
 7413SOL    HW123138   6.655   3.268   4.979
 7413SOL    HW223139   6.637   3.384   4.865
 7414SOL     OW23140   6.594   5.770   2.984
 7414SOL    HW123141   6.649   5.691   2.955
 7414SOL    HW223142   6.557   5.751   3.075
 7415SOL     OW23143   1.983   2.486   2.910
 7415SOL    HW123144   2.073   2.492   2.868
 7415SOL    HW223145   1.932   2.570   2.892
 7416SOL     OW23146   4.641   6.384   3.985
 7416SOL    HW123147   4.675   6.384   3.891
 7416SOL    HW223148   4.659   6.472   4.027
 7417SOL     OW23149   0.622   6.248   0.642
 7417SOL    HW123150   0.568   6.200   0.572
 7417SOL    HW223151   0.661   6.331   0.602
 7418SOL     OW23152   1.734   3.461   0.476
 7418SOL    HW123153   1.697   3.368   0.483
 7418SOL    HW223154   1.686   3.511   0.404
 7419SOL     OW23155   6.381   1.291   4.998
 7419SOL    HW123156   6.374   1.369   4.937
 7419SOL    HW223157   6.318   1.219   4.968
 7420SOL     OW23158   6.981   5.267   1.951
 7420SOL    HW123159   6.999   5.171   1.933
 7420SOL    HW223160   6.957   5.280   2.047
 7421SOL     OW23161   4.113   3.075   1.130
 7421SOL    HW123162   4.103   3.078   1.230
 7421SOL    HW223163   4.033   3.030   1.090
 7422SOL     OW23164   0.764   3.230   1.046
 7422SOL    HW123165   0.676   3.253   1.003
 7422SOL    HW223166   0.748   3.194   1.138
 7423SOL     OW23167   1.901   5.844   6.974
 7423SOL    HW123168   1.865   5.897   6.897
 7423SOL    HW223169   1.893   5.896   0.035
 7424SOL     OW23170   6.114   1.639   4.094
 7424SOL    HW123171   6.177   1.636   4.017
 7424SOL    HW223172   6.025   1.604   4.066
 7425SOL     OW23173   4.038   5.955   5.767
 7425SOL    HW123174   3.979   5.884   5.728
 7425SOL    HW223175   4.115   5.971   5.705
 7426SOL     OW23176   1.150   0.921   6.798
 7426SOL    HW123177   1.123   0.996   6.857
 7426SOL    HW223178   1.109   0.933   6.707
 7427SOL     OW23179   4.473   5.216   3.890
 7427SOL    HW123180   4.374   5.217   3.871
 7427SOL    HW223181   4.522   5.199   3.805
 7428SOL     OW23182   3.358   2.170   6.103
 7428SOL    HW123183   3.439   2.188   6.047
 7428SOL    HW223184   3.344   2.246   6.166
 7429SOL     OW23185   6.357   0.054   3.360
 7429SOL    HW123186   6.285   0.013   3.416
 7429SOL    HW223187   6.316   0.122   3.298
 7430SOL     OW23188   6.925   4.113   5.022
 7430SOL    HW123189   6.916   4.013   5.016
 7430SOL    HW223190   6.932   4.141   5.117
 7431SOL     OW23191   0.770   4.484   2.187
 7431SOL    HW123192   0.683   4.451   2.224
 7431SOL    HW223193   0.779   4.456   2.092
 7432SOL     OW23194   0.841   6.279   5.182
 7432SOL    HW123195   0.861   6.376   5.178
 7432SOL    HW223196   0.876   6.241   5.268
 7433SOL     OW23197   6.076   5.857   0.960
 7433SOL    HW123198   6.157   5.813   0.998
 7433SOL    HW223199   6.088   5.956   0.963
 7434SOL     OW23200   4.497   1.110   6.511
 7434SOL    HW123201   4.567   1.126   6.441
 7434SOL    HW223202   4.527   1.149   6.597
 7435SOL     OW23203   2.197   6.327   0.163
 7435SOL    HW123204   2.119   6.382   0.193
 7435SOL    HW223205   2.165   6.251   0.107
 7436SOL     OW23206   5.264   2.615   0.560
 7436SOL    HW123207   5.238   2.532   0.511
 7436SOL    HW223208   5.355   2.605   0.599
 7437SOL     OW23209   0.368   6.024   5.664
 7437SOL    HW123210   0.307   5.976   5.728
 7437SOL    HW223211   0.333   6.117   5.649
 7438SOL     OW23212   6.190   4.232   2.076
 7438SOL    HW123213   6.248   4.257   2.154
 7438SOL    HW223214   6.139   4.149   2.097
 7439SOL     OW23215   1.355   6.407   3.512
 7439SOL    HW123216   1.315   6.455   3.434
 7439SOL    HW223217   1.283   6.368   3.569
 7440SOL     OW23218   1.197   2.123   3.826
 7440SOL    HW123219   1.257   2.166   3.758
 7440SOL    HW223220   1.202   2.024   3.815
 7441SOL     OW23221   5.096   6.980   4.083
 7441SOL    HW123222   5.183   6.971   4.131
 7441SOL    HW223223   5.076   0.054   4.068
 7442SOL     OW23224   1.786   1.266   6.820
 7442SOL    HW123225   1.868   1.241   6.871
 7442SOL    HW223226   1.710   1.280   6.884
 7443SOL     OW23227   0.194   0.788   0.722
 7443SOL    HW123228   0.104   0.746   0.721
 7443SOL    HW223229   0.255   0.736   0.662
 7444SOL     OW23230   0.239   2.533   6.384
 7444SOL    HW123231   0.322   2.528   6.441
 7444SOL    HW223232   0.262   2.571   6.295
 7445SOL     OW23233   5.482   2.516   1.876
 7445SOL    HW123234   5.445   2.604   1.846
 7445SOL    HW223235   5.407   2.457   1.908
 7446SOL     OW23236   6.866   2.922   1.310
 7446SOL    HW123237   6.864   2.904   1.409
 7446SOL    HW223238   6.902   2.841   1.263
 7447SOL     OW23239   1.028   4.472   5.788
 7447SOL    HW123240   0.950   4.505   5.734
 7447SOL    HW223241   1.039   4.373   5.774
 7448SOL     OW23242   6.964   6.701   6.055
 7448SOL    HW123243   0.038   6.719   6.064
 7448SOL    HW223244   6.946   6.652   5.969
 7449SOL     OW23245   4.905   2.185   2.604
 7449SOL    HW123246   4.930   2.197   2.700
 7449SOL    HW223247   4.898   2.274   2.560
 7450SOL     OW23248   3.420   0.905   2.772
 7450SOL    HW123249   3.488   0.885   2.700
 7450SOL    HW223250   3.331   0.871   2.743
 7451SOL     OW23251   1.718   0.722   3.786
 7451SOL    HW123252   1.702   0.787   3.861
 7451SOL    HW223253   1.694   0.630   3.817
 7452SOL     OW23254   1.851   6.653   5.220
 7452SOL    HW123255   1.807   6.644   5.131
 7452SOL    HW223256   1.948   6.631   5.212
 7453SOL     OW23257   6.330   6.038   4.894
 7453SOL    HW123258   6.423   6.052   4.858
 7453SOL    HW223259   6.319   5.942   4.921
 7454SOL     OW23260   0.595   3.722   0.968
 7454SOL    HW123261   0.522   3.749   1.031
 7454SOL    HW223262   0.578   3.761   0.878
 7455SOL     OW23263   4.789   2.129   0.141
 7455SOL    HW123264   4.804   2.189   0.221
 7455SOL    HW223265   4.692   2.109   0.133
 7456SOL     OW23266   2.185   3.317   4.779
 7456SOL    HW123267   2.163   3.241   4.840
 7456SOL    HW223268   2.168   3.404   4.826
 7457SOL     OW23269   5.589   1.100   5.906
 7457SOL    HW123270   5.676   1.108   5.955
 7457SOL    HW223271   5.599   1.135   5.813
 7458SOL     OW23272   2.685   1.204   0.433
 7458SOL    HW123273   2.666   1.264   0.511
 7458SOL    HW223274   2.661   1.252   0.348
 7459SOL     OW23275   4.411   0.872   4.640
 7459SOL    HW123276   4.475   0.943   4.671
 7459SOL    HW223277   4.434   0.844   4.547
 7460SOL     OW23278   0.545   4.667   0.071
 7460SOL    HW123279   0.533   4.604   0.148
 7460SOL    HW223280   0.514   4.758   0.098
 7461SOL     OW23281   4.860   1.240   4.212
 7461SOL    HW123282   4.949   1.237   4.257
 7461SOL    HW223283   4.867   1.299   4.131
 7462SOL     OW23284   2.366   1.701   2.241
 7462SOL    HW123285   2.451   1.671   2.198
 7462SOL    HW223286   2.304   1.736   2.171
 7463SOL     OW23287   3.773   3.648   2.953
 7463SOL    HW123288   3.790   3.598   3.038
 7463SOL    HW223289   3.803   3.592   2.875
 7464SOL     OW23290   5.465   6.074   0.619
 7464SOL    HW123291   5.564   6.083   0.634
 7464SOL    HW223292   5.425   6.021   0.693
 7465SOL     OW23293   2.932   0.584   1.706
 7465SOL    HW123294   3.018   0.534   1.689
 7465SOL    HW223295   2.858   0.519   1.722
 7466SOL     OW23296   0.920   0.400   6.954
 7466SOL    HW123297   0.893   0.427   6.862
 7466SOL    HW223298   0.952   0.306   6.954
 7467SOL     OW23299   6.825   1.385   1.171
 7467SOL    HW123300   6.785   1.410   1.259
 7467SOL    HW223301   6.826   1.286   1.161
 7468SOL     OW23302   6.628   3.443   3.029
 7468SOL    HW123303   6.616   3.350   2.996
 7468SOL    HW223304   6.566   3.460   3.105
 7469SOL     OW23305   0.480   1.347   2.060
 7469SOL    HW123306   0.559   1.307   2.013
 7469SOL    HW223307   0.484   1.447   2.052
 7470SOL     OW23308   6.661   2.624   2.325
 7470SOL    HW123309   6.679   2.713   2.368
 7470SOL    HW223310   6.739   2.600   2.266
 7471SOL     OW23311   6.317   6.203   5.894
 7471SOL    HW123312   6.394   6.222   5.833
 7471SOL    HW223313   6.231   6.224   5.847
 7472SOL     OW23314   3.245   6.558   2.890
 7472SOL    HW123315   3.265   6.475   2.942
 7472SOL    HW223316   3.331   6.601   2.862
 7473SOL     OW23317   6.753   3.490   4.803
 7473SOL    HW123318   6.705   3.569   4.839
 7473SOL    HW223319   6.832   3.470   4.860
 7474SOL     OW23320   3.718   1.220   3.198
 7474SOL    HW123321   3.807   1.178   3.215
 7474SOL    HW223322   3.653   1.190   3.269
 7475SOL     OW23323   4.172   1.579   0.330
 7475SOL    HW123324   4.242   1.580   0.401
 7475SOL    HW223325   4.201   1.521   0.255
 7476SOL     OW23326   4.066   6.666   4.855
 7476SOL    HW123327   4.095   6.751   4.900
 7476SOL    HW223328   3.975   6.641   4.886
 7477SOL     OW23329   4.631   2.219   3.987
 7477SOL    HW123330   4.557   2.197   4.051
 7477SOL    HW223331   4.690   2.140   3.977
 7478SOL     OW23332   1.656   5.161   1.038
 7478SOL    HW123333   1.568   5.208   1.045
 7478SOL    HW223334   1.658   5.105   0.956
 7479SOL     OW23335   4.794   0.702   6.594
 7479SOL    HW123336   4.826   0.724   6.502
 7479SOL    HW223337   4.736   0.621   6.591
 7480SOL     OW23338   6.832   5.178   1.276
 7480SOL    HW123339   6.829   5.078   1.282
 7480SOL    HW223340   6.908   5.206   1.217
 7481SOL     OW23341   5.985   5.397   0.767
 7481SOL    HW123342   5.932   5.321   0.729
 7481SOL    HW223343   6.058   5.362   0.824
 7482SOL     OW23344   5.246   0.819   4.299
 7482SOL    HW123345   5.202   0.906   4.276
 7482SOL    HW223346   5.344   0.826   4.282
 7483SOL     OW23347   3.505   0.728   6.238
 7483SOL    HW123348   3.493   0.827   6.230
 7483SOL    HW223349   3.592   0.708   6.283
 7484SOL     OW23350   1.968   0.040   2.261
 7484SOL    HW123351   2.051   0.095   2.253
 7484SOL    HW223352   1.887   0.100   2.256
 7485SOL     OW23353   2.055   6.736   6.670
 7485SOL    HW123354   1.986   6.803   6.640
 7485SOL    HW223355   2.016   6.678   6.742
 7486SOL     OW23356   2.383   6.912   5.458
 7486SOL    HW123357   2.456   6.906   5.390
 7486SOL    HW223358   2.301   6.865   5.423
 7487SOL     OW23359   3.846   5.989   3.638
 7487SOL    HW123360   3.754   5.949   3.639
 7487SOL    HW223361   3.841   6.083   3.670
 7488SOL     OW23362   3.463   0.952   5.929
 7488SOL    HW123363   3.426   0.867   5.891
 7488SOL    HW223364   3.465   0.946   6.029
 7489SOL     OW23365   5.474   3.638   3.319
 7489SOL    HW123366   5.562   3.599   3.295
 7489SOL    HW223367   5.479   3.738   3.315
 7490SOL     OW23368   5.793   1.328   1.646
 7490SOL    HW123369   5.811   1.288   1.736
 7490SOL    HW223370   5.700   1.305   1.617
 7491SOL     OW23371   6.604   5.754   6.394
 7491SOL    HW123372   6.587   5.784   6.488
 7491SOL    HW223373   6.669   5.677   6.395
 7492SOL     OW23374   1.548   2.881   4.315
 7492SOL    HW123375   1.584   2.898   4.406
 7492SOL    HW223376   1.576   2.790   4.284
 7493SOL     OW23377   5.064   3.737   6.819
 7493SOL    HW123378   5.035   3.704   6.729
 7493SOL    HW223379   5.135   3.677   6.855
 7494SOL     OW23380   5.570   1.126   1.598
 7494SOL    HW123381   5.473   1.136   1.577
 7494SOL    HW223382   5.624   1.128   1.514
 7495SOL     OW23383   0.891   1.843   1.770
 7495SOL    HW123384   0.988   1.858   1.748
 7495SOL    HW223385   0.869   1.892   1.854
 7496SOL     OW23386   0.784   4.900   5.943
 7496SOL    HW123387   0.706   4.961   5.954
 7496SOL    HW223388   0.753   4.805   5.943
 7497SOL     OW23389   1.859   4.472   1.653
 7497SOL    HW123390   1.939   4.507   1.605
 7497SOL    HW223391   1.784   4.537   1.643
 7498SOL     OW23392   3.715   1.821   4.317
 7498SOL    HW123393   3.758   1.840   4.229
 7498SOL    HW223394   3.779   1.770   4.375
 7499SOL     OW23395   5.061   5.830   4.235
 7499SOL    HW123396   4.976   5.805   4.281
 7499SOL    HW223397   5.060   5.796   4.141
 7500SOL     OW23398   5.168   4.454   1.253
 7500SOL    HW123399   5.107   4.411   1.320
 7500SOL    HW223400   5.260   4.461   1.292
 7501SOL     OW23401   0.259   4.029   4.138
 7501SOL    HW123402   0.336   4.043   4.200
 7501SOL    HW223403   0.226   3.935   4.147
 7502SOL     OW23404   1.629   1.477   4.821
 7502SOL    HW123405   1.653   1.394   4.870
 7502SOL    HW223406   1.657   1.557   4.875
 7503SOL     OW23407   2.644   1.899   6.419
 7503SOL    HW123408   2.578   1.836   6.461
 7503SOL    HW223409   2.662   1.975   6.480
 7504SOL     OW23410   4.085   6.403   3.292
 7504SOL    HW123411   4.079   6.419   3.193
 7504SOL    HW223412   4.148   6.328   3.310
 7505SOL     OW23413   1.585   2.028   4.821
 7505SOL    HW123414   1.529   2.069   4.892
 7505SOL    HW223415   1.671   1.997   4.861
 7506SOL     OW23416   3.330   1.591   3.334
 7506SOL    HW123417   3.312   1.605   3.236
 7506SOL    HW223418   3.254   1.628   3.387
 7507SOL     OW23419   1.191   5.962   6.019
 7507SOL    HW123420   1.179   5.882   5.959
 7507SOL    HW223421   1.199   5.931   6.114
 7508SOL     OW23422   5.406   0.315   3.517
 7508SOL    HW123423   5.413   0.341   3.614
 7508SOL    HW223424   5.426   0.394   3.459
 7509SOL     OW23425   4.548   4.048   5.899
 7509SOL    HW123426   4.458   4.027   5.938
 7509SOL    HW223427   4.537   4.073   5.803
 7510SOL     OW23428   3.301   4.134   4.794
 7510SOL    HW123429   3.271   4.167   4.883
 7510SOL    HW223430   3.231   4.073   4.755
 7511SOL     OW23431   1.077   0.623   2.315
 7511SOL    HW123432   1.050   0.604   2.410
 7511SOL    HW223433   1.107   0.718   2.308
 7512SOL     OW23434   1.817   2.715   1.705
 7512SOL    HW123435   1.815   2.639   1.770
 7512SOL    HW223436   1.740   2.706   1.642
 7513SOL     OW23437   1.174   2.426   6.990
 7513SOL    HW123438   1.190   2.333   0.002
 7513SOL    HW223439   1.082   2.431   6.951
 7514SOL     OW23440   2.602   5.715   3.062
 7514SOL    HW123441   2.589   5.621   3.094
 7514SOL    HW223442   2.625   5.713   2.964
 7515SOL     OW23443   5.816   5.926   2.339
 7515SOL    HW123444   5.776   5.855   2.282
 7515SOL    HW223445   5.873   5.986   2.283
 7516SOL     OW23446   0.346   1.179   2.967
 7516SOL    HW123447   0.305   1.209   2.882
 7516SOL    HW223448   0.303   1.226   3.044
 7517SOL     OW23449   0.733   3.983   1.722
 7517SOL    HW123450   0.640   3.959   1.694
 7517SOL    HW223451   0.799   3.932   1.667
 7518SOL     OW23452   5.007   5.404   3.486
 7518SOL    HW123453   4.946   5.345   3.538
 7518SOL    HW223454   5.094   5.413   3.535
 7519SOL     OW23455   2.639   6.270   3.835
 7519SOL    HW123456   2.570   6.258   3.763
 7519SOL    HW223457   2.722   6.309   3.795
 7520SOL     OW23458   1.819   6.091   4.050
 7520SOL    HW123459   1.754   6.142   3.993
 7520SOL    HW223460   1.801   5.993   4.042
 7521SOL     OW23461   4.578   4.188   5.526
 7521SOL    HW123462   4.673   4.215   5.542
 7521SOL    HW223463   4.558   4.194   5.428
 7522SOL     OW23464   1.698   0.771   1.332
 7522SOL    HW123465   1.631   0.733   1.395
 7522SOL    HW223466   1.658   0.848   1.283
 7523SOL     OW23467   5.910   0.139   6.639
 7523SOL    HW123468   5.846   0.133   6.562
 7523SOL    HW223469   5.868   0.099   6.720
 7524SOL     OW23470   0.246   1.550   4.797
 7524SOL    HW123471   0.210   1.566   4.890
 7524SOL    HW223472   0.237   1.634   4.744
 7525SOL     OW23473   1.343   0.235   0.953
 7525SOL    HW123474   1.282   0.205   0.879
 7525SOL    HW223475   1.351   0.335   0.951
 7526SOL     OW23476   3.692   2.877   5.000
 7526SOL    HW123477   3.630   2.822   5.057
 7526SOL    HW223478   3.759   2.922   5.059
 7527SOL     OW23479   5.395   5.072   3.322
 7527SOL    HW123480   5.347   5.067   3.409
 7527SOL    HW223481   5.431   4.982   3.298
 7528SOL     OW23482   6.552   3.398   6.502
 7528SOL    HW123483   6.614   3.323   6.476
 7528SOL    HW223484   6.547   3.404   6.601
 7529SOL     OW23485   3.091   1.200   6.012
 7529SOL    HW123486   3.053   1.190   5.920
 7529SOL    HW223487   3.108   1.296   6.031
 7530SOL     OW23488   0.760   3.813   2.758
 7530SOL    HW123489   0.814   3.822   2.842
 7530SOL    HW223490   0.768   3.897   2.705
 7531SOL     OW23491   3.926   2.129   3.564
 7531SOL    HW123492   3.835   2.137   3.522
 7531SOL    HW223493   3.949   2.032   3.575
 7532SOL     OW23494   5.176   5.267   2.599
 7532SOL    HW123495   5.121   5.209   2.539
 7532SOL    HW223496   5.215   5.211   2.672
 7533SOL     OW23497   3.897   0.887   4.064
 7533SOL    HW123498   3.842   0.938   4.130
 7533SOL    HW223499   3.991   0.918   4.067
 7534SOL     OW23500   5.136   6.419   4.972
 7534SOL    HW123501   5.192   6.502   4.961
 7534SOL    HW223502   5.103   6.414   5.066
 7535SOL     OW23503   3.099   3.070   6.203
 7535SOL    HW123504   3.037   3.148   6.202
 7535SOL    HW223505   3.124   3.046   6.109
 7536SOL     OW23506   4.123   6.236   3.660
 7536SOL    HW123507   4.104   6.150   3.708
 7536SOL    HW223508   4.165   6.301   3.724
 7537SOL     OW23509   1.963   4.919   5.933
 7537SOL    HW123510   1.871   4.879   5.924
 7537SOL    HW223511   2.006   4.921   5.843
 7538SOL     OW23512   2.950   3.515   2.660
 7538SOL    HW123513   2.908   3.548   2.745
 7538SOL    HW223514   2.936   3.416   2.653
 7539SOL     OW23515   2.141   2.719   4.603
 7539SOL    HW123516   2.140   2.686   4.509
 7539SOL    HW223517   2.047   2.723   4.638
 7540SOL     OW23518   2.048   1.268   6.972
 7540SOL    HW123519   2.006   1.299   0.034
 7540SOL    HW223520   2.075   1.347   6.917
 7541SOL     OW23521   6.565   2.310   5.764
 7541SOL    HW123522   6.468   2.327   5.746
 7541SOL    HW223523   6.590   2.219   5.733
 7542SOL     OW23524   1.503   6.547   6.485
 7542SOL    HW123525   1.412   6.577   6.454
 7542SOL    HW223526   1.502   6.448   6.499
 7543SOL     OW23527   4.007   2.852   0.197
 7543SOL    HW123528   4.097   2.837   0.237
 7543SOL    HW223529   4.001   2.803   0.110
 7544SOL     OW23530   2.168   2.175   2.462
 7544SOL    HW123531   2.239   2.106   2.447
 7544SOL    HW223532   2.209   2.266   2.456
 7545SOL     OW23533   5.367   6.211   4.317
 7545SOL    HW123534   5.442   6.145   4.309
 7545SOL    HW223535   5.366   6.250   4.409
 7546SOL     OW23536   5.008   1.110   6.698
 7546SOL    HW123537   4.957   1.196   6.699
 7546SOL    HW223538   5.015   1.075   6.792
 7547SOL     OW23539   3.505   0.500   0.182
 7547SOL    HW123540   3.446   0.427   0.148
 7547SOL    HW223541   3.590   0.502   0.130
 7548SOL     OW23542   1.669   2.428   1.474
 7548SOL    HW123543   1.646   2.520   1.507
 7548SOL    HW223544   1.750   2.395   1.521
 7549SOL     OW23545   5.579   2.352   2.170
 7549SOL    HW123546   5.646   2.425   2.155
 7549SOL    HW223547   5.545   2.319   2.082
 7550SOL     OW23548   1.906   5.578   1.665
 7550SOL    HW123549   1.907   5.614   1.572
 7550SOL    HW223550   1.823   5.608   1.712
 7551SOL     OW23551   4.935   3.462   6.541
 7551SOL    HW123552   4.838   3.486   6.538
 7551SOL    HW223553   4.990   3.545   6.538
 7552SOL     OW23554   3.427   5.282   3.730
 7552SOL    HW123555   3.330   5.259   3.730
 7552SOL    HW223556   3.452   5.323   3.643
 7553SOL     OW23557   4.297   5.205   6.013
 7553SOL    HW123558   4.390   5.174   6.031
 7553SOL    HW223559   4.298   5.303   5.990
 7554SOL     OW23560   6.762   0.779   1.081
 7554SOL    HW123561   6.831   0.769   1.153
 7554SOL    HW223562   6.681   0.825   1.119
 7555SOL     OW23563   1.311   5.841   5.487
 7555SOL    HW123564   1.282   5.912   5.424
 7555SOL    HW223565   1.263   5.755   5.466
 7556SOL     OW23566   0.815   2.990   5.360
 7556SOL    HW123567   0.903   3.001   5.405
 7556SOL    HW223568   0.828   2.942   5.273
 7557SOL     OW23569   4.550   3.757   0.154
 7557SOL    HW123570   4.602   3.840   0.174
 7557SOL    HW223571   4.613   3.683   0.131
 7558SOL     OW23572   1.517   3.389   3.362
 7558SOL    HW123573   1.550   3.393   3.268
 7558SOL    HW223574   1.593   3.365   3.422
 7559SOL     OW23575   0.613   4.043   1.071
 7559SOL    HW123576   0.539   4.107   1.091
 7559SOL    HW223577   0.579   3.950   1.073
 7560SOL     OW23578   4.805   6.948   0.321
 7560SOL    HW123579   4.876   6.996   0.269
 7560SOL    HW223580   4.802   6.852   0.292
 7561SOL     OW23581   0.279   3.035   0.695
 7561SOL    HW123582   0.368   3.071   0.726
 7561SOL    HW223583   0.230   3.107   0.646
 7562SOL     OW23584   5.717   5.934   5.251
 7562SOL    HW123585   5.690   5.838   5.238
 7562SOL    HW223586   5.796   5.939   5.311
 7563SOL     OW23587   2.483   0.557   2.096
 7563SOL    HW123588   2.456   0.579   2.189
 7563SOL    HW223589   2.410   0.583   2.033
 7564SOL     OW23590   5.053   5.716   3.983
 7564SOL    HW123591   5.079   5.619   3.988
 7564SOL    HW223592   5.078   5.752   3.893
 7565SOL     OW23593   4.888   4.535   0.781
 7565SOL    HW123594   4.870   4.443   0.815
 7565SOL    HW223595   4.943   4.530   0.698
 7566SOL     OW23596   1.283   5.634   3.990
 7566SOL    HW123597   1.277   5.573   3.912
 7566SOL    HW223598   1.287   5.729   3.959
 7567SOL     OW23599   2.849   4.429   0.489
 7567SOL    HW123600   2.837   4.330   0.489
 7567SOL    HW223601   2.798   4.469   0.565
 7568SOL     OW23602   4.969   4.798   3.299
 7568SOL    HW123603   4.949   4.732   3.228
 7568SOL    HW223604   5.036   4.865   3.266
 7569SOL     OW23605   4.515   0.250   0.926
 7569SOL    HW123606   4.521   0.164   0.978
 7569SOL    HW223607   4.566   0.321   0.974
 7570SOL     OW23608   6.337   5.160   3.946
 7570SOL    HW123609   6.244   5.139   3.916
 7570SOL    HW223610   6.386   5.075   3.965
 7571SOL     OW23611   5.176   4.722   2.279
 7571SOL    HW123612   5.127   4.651   2.330
 7571SOL    HW223613   5.248   4.680   2.224
 7572SOL     OW23614   2.477   1.713   5.060
 7572SOL    HW123615   2.417   1.638   5.030
 7572SOL    HW223616   2.542   1.678   5.127
 7573SOL     OW23617   2.351   5.597   3.929
 7573SOL    HW123618   2.407   5.560   4.004
 7573SOL    HW223619   2.366   5.695   3.922
 7574SOL     OW23620   5.029   6.585   2.953
 7574SOL    HW123621   5.117   6.623   2.924
 7574SOL    HW223622   5.045   6.516   3.024
 7575SOL     OW23623   3.566   2.029   4.715
 7575SOL    HW123624   3.625   2.088   4.660
 7575SOL    HW223625   3.581   1.934   4.690
 7576SOL     OW23626   6.331   2.648   0.474
 7576SOL    HW123627   6.327   2.550   0.496
 7576SOL    HW223628   6.426   2.677   0.468
 7577SOL     OW23629   5.799   0.210   4.972
 7577SOL    HW123630   5.786   0.192   4.875
 7577SOL    HW223631   5.711   0.227   5.016
 7578SOL     OW23632   2.065   5.113   4.490
 7578SOL    HW123633   1.995   5.157   4.434
 7578SOL    HW223634   2.109   5.041   4.437
 7579SOL     OW23635   3.754   1.653   2.762
 7579SOL    HW123636   3.704   1.696   2.838
 7579SOL    HW223637   3.843   1.696   2.752
 7580SOL     OW23638   1.948   3.875   2.695
 7580SOL    HW123639   2.029   3.859   2.639
 7580SOL    HW223640   1.870   3.824   2.659
 7581SOL     OW23641   6.106   0.638   1.130
 7581SOL    HW123642   6.084   0.732   1.156
 7581SOL    HW223643   6.183   0.605   1.185
 7582SOL     OW23644   3.369   1.278   0.965
 7582SOL    HW123645   3.327   1.188   0.954
 7582SOL    HW223646   3.344   1.316   1.054
 7583SOL     OW23647   6.347   3.259   2.418
 7583SOL    HW123648   6.340   3.284   2.321
 7583SOL    HW223649   6.415   3.316   2.462
 7584SOL     OW23650   2.441   0.222   1.295
 7584SOL    HW123651   2.436   0.122   1.294
 7584SOL    HW223652   2.391   0.259   1.217
 7585SOL     OW23653   1.644   4.709   6.210
 7585SOL    HW123654   1.696   4.635   6.168
 7585SOL    HW223655   1.670   4.717   6.307
 7586SOL     OW23656   2.751   1.043   2.334
 7586SOL    HW123657   2.655   1.037   2.307
 7586SOL    HW223658   2.809   1.007   2.262
 7587SOL     OW23659   1.226   1.328   5.809
 7587SOL    HW123660   1.220   1.253   5.744
 7587SOL    HW223661   1.307   1.383   5.789
 7588SOL     OW23662   0.460   4.215   1.967
 7588SOL    HW123663   0.381   4.158   1.946
 7588SOL    HW223664   0.459   4.296   1.908
 7589SOL     OW23665   5.670   5.773   0.894
 7589SOL    HW123666   5.652   5.842   0.824
 7589SOL    HW223667   5.752   5.798   0.946
 7590SOL     OW23668   1.817   0.699   5.879
 7590SOL    HW123669   1.817   0.776   5.815
 7590SOL    HW223670   1.739   0.709   5.942
 7591SOL     OW23671   6.552   4.651   0.517
 7591SOL    HW123672   6.642   4.664   0.557
 7591SOL    HW223673   6.553   4.680   0.421
 7592SOL     OW23674   5.392   5.892   0.407
 7592SOL    HW123675   5.336   5.938   0.337
 7592SOL    HW223676   5.437   5.961   0.464
 7593SOL     OW23677   5.931   2.062   6.486
 7593SOL    HW123678   5.848   2.114   6.464
 7593SOL    HW223679   6.007   2.097   6.431
 7594SOL     OW23680   0.997   6.129   3.898
 7594SOL    HW123681   0.911   6.138   3.948
 7594SOL    HW223682   1.067   6.091   3.959
 7595SOL     OW23683   6.014   2.787   6.829
 7595SOL    HW123684   5.958   2.722   6.880
 7595SOL    HW223685   6.075   2.834   6.892
 7596SOL     OW23686   5.518   4.073   2.009
 7596SOL    HW123687   5.470   4.105   2.091
 7596SOL    HW223688   5.483   4.120   1.929
 7597SOL     OW23689   3.577   5.269   1.688
 7597SOL    HW123690   3.583   5.268   1.588
 7597SOL    HW223691   3.668   5.254   1.726
 7598SOL     OW23692   6.785   1.198   3.807
 7598SOL    HW123693   6.815   1.112   3.766
 7598SOL    HW223694   6.864   1.256   3.825
 7599SOL     OW23695   6.429   2.128   2.501
 7599SOL    HW123696   6.401   2.039   2.465
 7599SOL    HW223697   6.529   2.134   2.502
 7600SOL     OW23698   2.152   1.785   1.443
 7600SOL    HW123699   2.196   1.873   1.455
 7600SOL    HW223700   2.083   1.772   1.514
 7601SOL     OW23701   1.830   6.575   4.759
 7601SOL    HW123702   1.834   6.668   4.721
 7601SOL    HW223703   1.824   6.509   4.684
 7602SOL     OW23704   0.747   3.612   4.740
 7602SOL    HW123705   0.834   3.564   4.736
 7602SOL    HW223706   0.675   3.550   4.770
 7603SOL     OW23707   0.860   6.712   1.278
 7603SOL    HW123708   0.946   6.733   1.232
 7603SOL    HW223709   0.815   6.797   1.305
 7604SOL     OW23710   4.938   6.045   5.683
 7604SOL    HW123711   5.017   5.987   5.703
 7604SOL    HW223712   4.963   6.113   5.615
 7605SOL     OW23713   6.320   4.778   6.693
 7605SOL    HW123714   6.295   4.694   6.740
 7605SOL    HW223715   6.260   4.791   6.613
 7606SOL     OW23716   6.157   2.144   2.705
 7606SOL    HW123717   6.155   2.167   2.608
 7606SOL    HW223718   6.232   2.081   2.723
 7607SOL     OW23719   4.645   0.242   6.672
 7607SOL    HW123720   4.598   0.253   6.760
 7607SOL    HW223721   4.620   0.155   6.631
 7608SOL     OW23722   3.231   3.552   3.546
 7608SOL    HW123723   3.225   3.627   3.613
 7608SOL    HW223724   3.295   3.576   3.474
 7609SOL     OW23725   1.414   3.378   4.325
 7609SOL    HW123726   1.500   3.418   4.356
 7609SOL    HW223727   1.413   3.280   4.346
 7610SOL     OW23728   5.439   0.245   1.141
 7610SOL    HW123729   5.467   0.154   1.173
 7610SOL    HW223730   5.371   0.282   1.203
 7611SOL     OW23731   1.693   2.065   0.184
 7611SOL    HW123732   1.773   2.006   0.196
 7611SOL    HW223733   1.655   2.052   0.092
 7612SOL     OW23734   3.557   2.073   3.032
 7612SOL    HW123735   3.522   2.009   3.100
 7612SOL    HW223736   3.657   2.077   3.038
 7613SOL     OW23737   4.947   0.900   2.191
 7613SOL    HW123738   4.900   0.828   2.140
 7613SOL    HW223739   4.913   0.990   2.161
 7614SOL     OW23740   4.114   1.972   0.560
 7614SOL    HW123741   4.106   1.922   0.473
 7614SOL    HW223742   4.100   2.070   0.543
 7615SOL     OW23743   3.613   4.965   5.839
 7615SOL    HW123744   3.585   5.046   5.891
 7615SOL    HW223745   3.537   4.933   5.783
 7616SOL     OW23746   6.591   3.689   3.658
 7616SOL    HW123747   6.585   3.589   3.654
 7616SOL    HW223748   6.502   3.728   3.679
 7617SOL     OW23749   3.017   5.311   2.903
 7617SOL    HW123750   3.050   5.278   2.991
 7617SOL    HW223751   3.012   5.411   2.905
 7618SOL     OW23752   1.794   2.645   7.008
 7618SOL    HW123753   1.885   2.604   7.004
 7618SOL    HW223754   1.739   2.613   6.932
 7619SOL     OW23755   5.235   3.718   5.682
 7619SOL    HW123756   5.263   3.667   5.763
 7619SOL    HW223757   5.142   3.751   5.693
 7620SOL     OW23758   3.503   6.791   1.824
 7620SOL    HW123759   3.523   6.693   1.821
 7620SOL    HW223760   3.585   6.843   1.799
 7621SOL     OW23761   2.426   0.577   1.706
 7621SOL    HW123762   2.346   0.530   1.670
 7621SOL    HW223763   2.508   0.522   1.689
 7622SOL     OW23764   4.094   2.462   0.128
 7622SOL    HW123765   4.181   2.450   0.176
 7622SOL    HW223766   4.023   2.484   0.195
 7623SOL     OW23767   4.557   0.614   5.803
 7623SOL    HW123768   4.605   0.547   5.860
 7623SOL    HW223769   4.465   0.580   5.782
 7624SOL     OW23770   0.384   1.180   3.674
 7624SOL    HW123771   0.383   1.080   3.682
 7624SOL    HW223772   0.405   1.220   3.763
 7625SOL     OW23773   4.750   0.512   1.531
 7625SOL    HW123774   4.718   0.417   1.532
 7625SOL    HW223775   4.817   0.525   1.604
 7626SOL     OW23776   1.965   5.761   4.713
 7626SOL    HW123777   1.911   5.844   4.729
 7626SOL    HW223778   2.030   5.777   4.638
 7627SOL     OW23779   6.958   2.392   1.119
 7627SOL    HW123780   6.885   2.422   1.057
 7627SOL    HW223781   7.005   2.313   1.080
 7628SOL     OW23782   2.955   1.998   0.814
 7628SOL    HW123783   2.886   1.935   0.848
 7628SOL    HW223784   3.039   1.948   0.792
 7629SOL     OW23785   0.108   6.042   3.190
 7629SOL    HW123786   0.182   6.098   3.154
 7629SOL    HW223787   0.145   5.956   3.225
 7630SOL     OW23788   6.172   0.938   2.897
 7630SOL    HW123789   6.074   0.936   2.877
 7630SOL    HW223790   6.221   0.883   2.828
 7631SOL     OW23791   0.384   2.568   3.433
 7631SOL    HW123792   0.469   2.612   3.402
 7631SOL    HW223793   0.392   2.546   3.530
 7632SOL     OW23794   4.598   1.642   0.176
 7632SOL    HW123795   4.589   1.679   0.268
 7632SOL    HW223796   4.648   1.556   0.179
 7633SOL     OW23797   5.577   3.824   6.702
 7633SOL    HW123798   5.578   3.741   6.647
 7633SOL    HW223799   5.531   3.897   6.652
 7634SOL     OW23800   1.483   1.400   1.933
 7634SOL    HW123801   1.544   1.360   2.001
 7634SOL    HW223802   1.499   1.498   1.927
 7635SOL     OW23803   3.026   4.430   5.612
 7635SOL    HW123804   3.054   4.345   5.657
 7635SOL    HW223805   2.977   4.407   5.527
 7636SOL     OW23806   0.568   0.071   4.155
 7636SOL    HW123807   0.639   0.002   4.158
 7636SOL    HW223808   0.565   0.113   4.064
 7637SOL     OW23809   2.159   5.998   4.234
 7637SOL    HW123810   2.077   6.045   4.270
 7637SOL    HW223811   2.227   5.992   4.307
 7638SOL     OW23812   5.185   5.230   2.038
 7638SOL    HW123813   5.191   5.141   2.084
 7638SOL    HW223814   5.130   5.221   1.955
 7639SOL     OW23815   0.795   1.914   5.114
 7639SOL    HW123816   0.855   1.888   5.038
 7639SOL    HW223817   0.821   2.006   5.146
 7640SOL     OW23818   2.297   1.606   0.041
 7640SOL    HW123819   2.380   1.662   0.044
 7640SOL    HW223820   2.258   1.600   0.133
 7641SOL     OW23821   5.420   3.652   2.078
 7641SOL    HW123822   5.389   3.654   1.983
 7641SOL    HW223823   5.345   3.676   2.138
 7642SOL     OW23824   2.470   2.233   2.436
 7642SOL    HW123825   2.510   2.143   2.453
 7642SOL    HW223826   2.488   2.260   2.341
 7643SOL     OW23827   4.969   2.934   3.599
 7643SOL    HW123828   5.045   2.953   3.537
 7643SOL    HW223829   4.948   3.015   3.654
 7644SOL     OW23830   6.800   3.189   2.668
 7644SOL    HW123831   6.709   3.217   2.637
 7644SOL    HW223832   6.794   3.154   2.762
 7645SOL     OW23833   4.322   3.766   6.574
 7645SOL    HW123834   4.346   3.701   6.502
 7645SOL    HW223835   4.344   3.859   6.544
 7646SOL     OW23836   2.240   1.991   1.681
 7646SOL    HW123837   2.309   2.056   1.712
 7646SOL    HW223838   2.268   1.898   1.704
 7647SOL     OW23839   2.662   4.013   1.697
 7647SOL    HW123840   2.760   3.993   1.698
 7647SOL    HW223841   2.618   3.957   1.626
 7648SOL     OW23842   4.088   0.983   3.704
 7648SOL    HW123843   4.013   0.920   3.725
 7648SOL    HW223844   4.054   1.055   3.644
 7649SOL     OW23845   3.096   0.785   1.807
 7649SOL    HW123846   3.032   0.738   1.747
 7649SOL    HW223847   3.179   0.808   1.757
 7650SOL     OW23848   6.276   4.263   2.365
 7650SOL    HW123849   6.326   4.349   2.358
 7650SOL    HW223850   6.237   4.255   2.457
 7651SOL     OW23851   3.625   1.251   6.617
 7651SOL    HW123852   3.564   1.179   6.584
 7651SOL    HW223853   3.588   1.340   6.592
 7652SOL     OW23854   0.869   3.876   2.225
 7652SOL    HW123855   0.887   3.842   2.317
 7652SOL    HW223856   0.954   3.874   2.172
 7653SOL     OW23857   2.858   2.166   1.480
 7653SOL    HW123858   2.900   2.230   1.544
 7653SOL    HW223859   2.927   2.135   1.414
 7654SOL     OW23860   5.134   3.807   3.662
 7654SOL    HW123861   5.095   3.816   3.754
 7654SOL    HW223862   5.067   3.838   3.594
 7655SOL     OW23863   4.196   6.338   5.322
 7655SOL    HW123864   4.232   6.246   5.302
 7655SOL    HW223865   4.271   6.398   5.348
 7656SOL     OW23866   0.683   6.472   5.576
 7656SOL    HW123867   0.646   6.379   5.574
 7656SOL    HW223868   0.779   6.470   5.550
 7657SOL     OW23869   3.628   1.267   3.525
 7657SOL    HW123870   3.594   1.230   3.612
 7657SOL    HW223871   3.551   1.289   3.465
 7658SOL     OW23872   4.035   0.597   5.638
 7658SOL    HW123873   3.993   0.674   5.687
 7658SOL    HW223874   4.048   0.623   5.542
 7659SOL     OW23875   5.581   0.066   0.763
 7659SOL    HW123876   5.490   0.033   0.789
 7659SOL    HW223877   5.590   0.067   0.664
 7660SOL     OW23878   5.740   4.979   4.130
 7660SOL    HW123879   5.836   4.985   4.156
 7660SOL    HW223880   5.709   5.068   4.096
 7661SOL     OW23881   6.731   2.605   3.698
 7661SOL    HW123882   6.741   2.675   3.627
 7661SOL    HW223883   6.654   2.546   3.676
 7662SOL     OW23884   0.051   4.998   1.923
 7662SOL    HW123885   0.137   4.996   1.973
 7662SOL    HW223886   7.013   4.928   1.960
 7663SOL     OW23887   0.155   5.234   6.671
 7663SOL    HW123888   0.066   5.277   6.683
 7663SOL    HW223889   0.147   5.157   6.607
 7664SOL     OW23890   2.477   5.187   3.533
 7664SOL    HW123891   2.567   5.147   3.522
 7664SOL    HW223892   2.476   5.247   3.613
 7665SOL     OW23893   3.225   6.541   5.078
 7665SOL    HW123894   3.265   6.501   5.160
 7665SOL    HW223895   3.280   6.620   5.050
 7666SOL     OW23896   1.224   0.968   1.417
 7666SOL    HW123897   1.243   0.955   1.319
 7666SOL    HW223898   1.190   0.882   1.456
 7667SOL     OW23899   4.114   6.553   6.761
 7667SOL    HW123900   4.143   6.603   6.679
 7667SOL    HW223901   4.157   6.595   6.842
 7668SOL     OW23902   3.488   4.064   1.457
 7668SOL    HW123903   3.535   4.031   1.374
 7668SOL    HW223904   3.392   4.038   1.452
 7669SOL     OW23905   4.770   6.716   4.325
 7669SOL    HW123906   4.783   6.815   4.333
 7669SOL    HW223907   4.828   6.669   4.392
 7670SOL     OW23908   1.645   5.273   0.710
 7670SOL    HW123909   1.611   5.334   0.782
 7670SOL    HW223910   1.656   5.181   0.747
 7671SOL     OW23911   6.165   2.819   4.309
 7671SOL    HW123912   6.080   2.815   4.361
 7671SOL    HW223913   6.226   2.887   4.349
 7672SOL     OW23914   5.564   0.809   3.030
 7672SOL    HW123915   5.628   0.733   3.021
 7672SOL    HW223916   5.474   0.774   3.058
 7673SOL     OW23917   0.913   4.626   1.057
 7673SOL    HW123918   0.842   4.650   0.990
 7673SOL    HW223919   0.869   4.598   1.143
 7674SOL     OW23920   5.843   1.668   4.826
 7674SOL    HW123921   5.893   1.710   4.750
 7674SOL    HW223922   5.855   1.724   4.908
 7675SOL     OW23923   4.552   6.907   3.057
 7675SOL    HW123924   4.523   6.902   3.153
 7675SOL    HW223925   4.652   6.912   3.053
 7676SOL     OW23926   1.853   0.473   0.895
 7676SOL    HW123927   1.896   0.493   0.806
 7676SOL    HW223928   1.849   0.374   0.908
 7677SOL     OW23929   1.659   2.928   2.517
 7677SOL    HW123930   1.573   2.977   2.500
 7677SOL    HW223931   1.713   2.925   2.433
 7678SOL     OW23932   6.340   6.550   0.604
 7678SOL    HW123933   6.353   6.523   0.699
 7678SOL    HW223934   6.290   6.479   0.555
 7679SOL     OW23935   0.855   5.288   5.390
 7679SOL    HW123936   0.914   5.259   5.314
 7679SOL    HW223937   0.901   5.266   5.476
 7680SOL     OW23938   3.785   2.888   0.374
 7680SOL    HW123939   3.806   2.979   0.409
 7680SOL    HW223940   3.849   2.865   0.300
 7681SOL     OW23941   2.955   1.519   0.161
 7681SOL    HW123942   2.953   1.557   0.254
 7681SOL    HW223943   3.022   1.570   0.106
 7682SOL     OW23944   3.002   6.981   1.723
 7682SOL    HW123945   3.074   6.912   1.728
 7682SOL    HW223946   3.043   0.049   1.729
 7683SOL     OW23947   5.047   1.835   3.215
 7683SOL    HW123948   5.057   1.791   3.126
 7683SOL    HW223949   5.129   1.819   3.270
 7684SOL     OW23950   4.429   1.903   5.768
 7684SOL    HW123951   4.366   1.963   5.718
 7684SOL    HW223952   4.376   1.840   5.824
 7685SOL     OW23953   3.263   2.916   0.677
 7685SOL    HW123954   3.295   2.953   0.589
 7685SOL    HW223955   3.163   2.916   0.678
 7686SOL     OW23956   3.937   6.607   3.714
 7686SOL    HW123957   3.885   6.591   3.631
 7686SOL    HW223958   3.981   6.697   3.709
 7687SOL     OW23959   5.532   4.971   5.631
 7687SOL    HW123960   5.527   5.032   5.552
 7687SOL    HW223961   5.625   4.936   5.641
 7688SOL     OW23962   0.603   6.175   4.423
 7688SOL    HW123963   0.642   6.240   4.488
 7688SOL    HW223964   0.525   6.128   4.465
 7689SOL     OW23965   4.484   6.161   4.682
 7689SOL    HW123966   4.457   6.138   4.775
 7689SOL    HW223967   4.530   6.250   4.681
 7690SOL     OW23968   0.022   4.803   3.595
 7690SOL    HW123969   6.981   4.789   3.670
 7690SOL    HW223970   0.031   4.901   3.577
 7691SOL     OW23971   5.145   3.313   4.889
 7691SOL    HW123972   5.090   3.343   4.967
 7691SOL    HW223973   5.130   3.215   4.873
 7692SOL     OW23974   1.761   6.708   1.904
 7692SOL    HW123975   1.697   6.740   1.974
 7692SOL    HW223976   1.821   6.639   1.943
 7693SOL     OW23977   4.625   1.566   6.313
 7693SOL    HW123978   4.689   1.563   6.236
 7693SOL    HW223979   4.677   1.578   6.398
 7694SOL     OW23980   6.925   5.238   4.653
 7694SOL    HW123981   6.832   5.266   4.628
 7694SOL    HW223982   6.944   5.265   4.747
 7695SOL     OW23983   4.131   0.043   0.754
 7695SOL    HW123984   4.032   0.031   0.762
 7695SOL    HW223985   4.156   0.137   0.777
 7696SOL     OW23986   0.215   2.916   5.749
 7696SOL    HW123987   0.120   2.947   5.762
 7696SOL    HW223988   0.277   2.994   5.763
 7697SOL     OW23989   3.170   1.875   2.527
 7697SOL    HW123990   3.120   1.955   2.561
 7697SOL    HW223991   3.210   1.897   2.437
 7698SOL     OW23992   6.805   3.139   5.988
 7698SOL    HW123993   6.888   3.100   5.948
 7698SOL    HW223994   6.823   3.165   6.083
 7699SOL     OW23995   2.375   4.912   6.857
 7699SOL    HW123996   2.425   4.854   6.792
 7699SOL    HW223997   2.425   4.997   6.870
 7700SOL     OW23998   4.920   6.542   4.541
 7700SOL    HW123999   5.011   6.500   4.534
 7700SOL    HW224000   4.852   6.480   4.502
 7701SOL     OW24001   6.883   2.155   4.227
 7701SOL    HW124002   6.973   2.119   4.248
 7701SOL    HW224003   6.815   2.081   4.235
 7702SOL     OW24004   3.145   6.656   5.691
 7702SOL    HW124005   3.098   6.590   5.632
 7702SOL    HW224006   3.121   6.638   5.787
 7703SOL     OW24007   0.834   1.079   5.787
 7703SOL    HW124008   0.837   1.022   5.868
 7703SOL    HW224009   0.886   1.163   5.804
 7704SOL     OW24010   4.321   4.359   6.726
 7704SOL    HW124011   4.372   4.432   6.680
 7704SOL    HW224012   4.313   4.380   6.823
 7705SOL     OW24013   3.719   5.283   5.131
 7705SOL    HW124014   3.798   5.324   5.085
 7705SOL    HW224015   3.750   5.230   5.210
 7706SOL     OW24016   0.196   0.863   4.749
 7706SOL    HW124017   0.160   0.942   4.799
 7706SOL    HW224018   0.216   0.789   4.813
 7707SOL     OW24019   0.130   4.910   6.220
 7707SOL    HW124020   0.075   4.993   6.215
 7707SOL    HW224021   0.074   4.833   6.250
 7708SOL     OW24022   4.393   6.440   4.620
 7708SOL    HW124023   4.312   6.417   4.674
 7708SOL    HW224024   4.394   6.384   4.537
 7709SOL     OW24025   4.259   2.140   2.067
 7709SOL    HW124026   4.164   2.111   2.077
 7709SOL    HW224027   4.274   2.223   2.122
 7710SOL     OW24028   2.046   0.955   0.385
 7710SOL    HW124029   2.078   0.865   0.356
 7710SOL    HW224030   2.109   0.993   0.453
 7711SOL     OW24031   5.485   6.835   5.292
 7711SOL    HW124032   5.546   6.760   5.318
 7711SOL    HW224033   5.391   6.801   5.286
 7712SOL     OW24034   5.410   5.172   1.178
 7712SOL    HW124035   5.502   5.178   1.138
 7712SOL    HW224036   5.342   5.184   1.106
 7713SOL     OW24037   1.436   4.156   6.337
 7713SOL    HW124038   1.466   4.075   6.387
 7713SOL    HW224039   1.365   4.203   6.389
 7714SOL     OW24040   5.807   4.272   3.958
 7714SOL    HW124041   5.774   4.184   3.994
 7714SOL    HW224042   5.738   4.311   3.898
 7715SOL     OW24043   4.757   1.054   1.363
 7715SOL    HW124044   4.792   0.986   1.298
 7715SOL    HW224045   4.657   1.050   1.365
 7716SOL     OW24046   4.510   2.154   3.321
 7716SOL    HW124047   4.462   2.196   3.243
 7716SOL    HW224048   4.452   2.083   3.360
 7717SOL     OW24049   2.884   1.645   5.522
 7717SOL    HW124050   2.876   1.689   5.433
 7717SOL    HW224051   2.837   1.557   5.520
 7718SOL     OW24052   2.818   6.659   4.106
 7718SOL    HW124053   2.799   6.754   4.080
 7718SOL    HW224054   2.821   6.651   4.206
 7719SOL     OW24055   6.795   2.164   4.617
 7719SOL    HW124056   6.875   2.214   4.584
 7719SOL    HW224057   6.713   2.197   4.570
 7720SOL     OW24058   5.854   5.955   1.698
 7720SOL    HW124059   5.867   5.950   1.797
 7720SOL    HW224060   5.861   5.863   1.658
 7721SOL     OW24061   1.926   4.450   2.252
 7721SOL    HW124062   1.876   4.465   2.167
 7721SOL    HW224063   1.935   4.351   2.267
 7722SOL     OW24064   6.996   5.404   3.787
 7722SOL    HW124065   6.923   5.410   3.854
 7722SOL    HW224066   6.971   5.458   3.706
 7723SOL     OW24067   6.491   3.211   0.506
 7723SOL    HW124068   6.437   3.127   0.503
 7723SOL    HW224069   6.576   3.198   0.455
 7724SOL     OW24070   1.194   4.293   1.311
 7724SOL    HW124071   1.148   4.350   1.243
 7724SOL    HW224072   1.293   4.310   1.307
 7725SOL     OW24073   5.837   2.955   4.295
 7725SOL    HW124074   5.891   3.020   4.347
 7725SOL    HW224075   5.740   2.966   4.318
 7726SOL     OW24076   0.252   4.540   3.105
 7726SOL    HW124077   0.335   4.539   3.048
 7726SOL    HW224078   0.272   4.497   3.193
 7727SOL     OW24079   6.400   2.261   2.237
 7727SOL    HW124080   6.435   2.315   2.161
 7727SOL    HW224081   6.472   2.201   2.271
 7728SOL     OW24082   1.988   2.807   3.151
 7728SOL    HW124083   1.971   2.830   3.247
 7728SOL    HW224084   2.080   2.771   3.142
 7729SOL     OW24085   4.855   2.324   0.326
 7729SOL    HW124086   4.844   2.318   0.425
 7729SOL    HW224087   4.795   2.395   0.290
 7730SOL     OW24088   5.393   0.728   2.575
 7730SOL    HW124089   5.484   0.743   2.537
 7730SOL    HW224090   5.384   0.632   2.602
 7731SOL     OW24091   5.925   1.068   6.757
 7731SOL    HW124092   5.897   0.973   6.772
 7731SOL    HW224093   5.945   1.111   6.845
 7732SOL     OW24094   4.142   5.570   0.614
 7732SOL    HW124095   4.215   5.591   0.549
 7732SOL    HW224096   4.153   5.476   0.648
 7733SOL     OW24097   3.684   0.167   2.261
 7733SOL    HW124098   3.724   0.170   2.169
 7733SOL    HW224099   3.735   0.228   2.322
 7734SOL     OW24100   1.872   2.526   3.169
 7734SOL    HW124101   1.903   2.473   3.089
 7734SOL    HW224102   1.891   2.623   3.154
 7735SOL     OW24103   4.553   4.387   0.275
 7735SOL    HW124104   4.611   4.417   0.199
 7735SOL    HW224105   4.583   4.431   0.359
 7736SOL     OW24106   6.560   4.988   6.776
 7736SOL    HW124107   6.593   4.909   6.827
 7736SOL    HW224108   6.500   4.958   6.702
 7737SOL     OW24109   4.685   1.482   0.516
 7737SOL    HW124110   4.772   1.529   0.502
 7737SOL    HW224111   4.674   1.461   0.613
 7738SOL     OW24112   3.290   5.340   0.090
 7738SOL    HW124113   3.310   5.279   0.013
 7738SOL    HW224114   3.297   5.435   0.059
 7739SOL     OW24115   6.044   2.434   0.859
 7739SOL    HW124116   6.063   2.371   0.783
 7739SOL    HW224117   5.971   2.497   0.832
 7740SOL     OW24118   0.796   6.970   3.379
 7740SOL    HW124119   0.709   6.974   3.428
 7740SOL    HW224120   0.813   6.876   3.349
 7741SOL     OW24121   2.503   5.382   4.421
 7741SOL    HW124122   2.441   5.334   4.483
 7741SOL    HW224123   2.574   5.428   4.475
 7742SOL     OW24124   6.582   1.824   3.791
 7742SOL    HW124125   6.654   1.881   3.751
 7742SOL    HW224126   6.593   1.729   3.762
 7743SOL     OW24127   4.375   2.418   3.931
 7743SOL    HW124128   4.297   2.359   3.950
 7743SOL    HW224129   4.388   2.426   3.832
 7744SOL     OW24130   6.552   0.534   4.074
 7744SOL    HW124131   6.553   0.629   4.044
 7744SOL    HW224132   6.459   0.508   4.101
 7745SOL     OW24133   4.410   3.465   6.122
 7745SOL    HW124134   4.326   3.431   6.163
 7745SOL    HW224135   4.432   3.412   6.040
 7746SOL     OW24136   1.350   0.706   0.722
 7746SOL    HW124137   1.255   0.708   0.755
 7746SOL    HW224138   1.390   0.797   0.735
 7747SOL     OW24139   4.915   6.121   0.880
 7747SOL    HW124140   4.995   6.175   0.853
 7747SOL    HW224141   4.882   6.152   0.969
 7748SOL     OW24142   2.897   4.409   6.869
 7748SOL    HW124143   2.880   4.315   6.897
 7748SOL    HW224144   2.848   4.429   6.784
 7749SOL     OW24145   5.266   3.028   5.781
 7749SOL    HW124146   5.207   3.099   5.819
 7749SOL    HW224147   5.211   2.948   5.758
 7750SOL     OW24148   6.293   5.537   2.318
 7750SOL    HW124149   6.304   5.578   2.409
 7750SOL    HW224150   6.243   5.451   2.327
 7751SOL     OW24151   0.902   2.919   2.283
 7751SOL    HW124152   0.925   2.829   2.319
 7751SOL    HW224153   0.841   2.966   2.347
 7752SOL     OW24154   4.480   1.830   3.733
 7752SOL    HW124155   4.440   1.909   3.779
 7752SOL    HW224156   4.421   1.801   3.657
 7753SOL     OW24157   2.964   1.593   4.560
 7753SOL    HW124158   3.006   1.659   4.498
 7753SOL    HW224159   2.931   1.641   4.642
 7754SOL     OW24160   4.646   6.448   2.017
 7754SOL    HW124161   4.686   6.477   1.930
 7754SOL    HW224162   4.552   6.483   2.023
 7755SOL     OW24163   0.092   4.648   5.755
 7755SOL    HW124164   0.014   4.706   5.731
 7755SOL    HW224165   0.080   4.557   5.715
 7756SOL     OW24166   2.604   5.087   1.795
 7756SOL    HW124167   2.616   5.127   1.886
 7756SOL    HW224168   2.611   5.158   1.725
 7757SOL     OW24169   6.989   4.155   2.269
 7757SOL    HW124170   7.013   4.182   2.176
 7757SOL    HW224171   0.009   4.068   2.291
 7758SOL     OW24172   1.456   1.702   4.991
 7758SOL    HW124173   1.535   1.657   5.032
 7758SOL    HW224174   1.486   1.766   4.920
 7759SOL     OW24175   2.467   2.520   0.098
 7759SOL    HW124176   2.533   2.574   0.150
 7759SOL    HW224177   2.381   2.514   0.150
 7760SOL     OW24178   4.036   2.701   6.975
 7760SOL    HW124179   4.099   2.635   7.016
 7760SOL    HW224180   4.088   2.767   6.922
 7761SOL     OW24181   5.090   5.449   3.972
 7761SOL    HW124182   5.029   5.378   4.007
 7761SOL    HW224183   5.178   5.409   3.948
 7762SOL     OW24184   6.066   1.809   2.538
 7762SOL    HW124185   6.025   1.868   2.608
 7762SOL    HW224186   6.099   1.864   2.462
 7763SOL     OW24187   2.521   0.109   4.270
 7763SOL    HW124188   2.601   0.077   4.320
 7763SOL    HW224189   2.540   0.198   4.228
 7764SOL     OW24190   2.530   4.061   5.553
 7764SOL    HW124191   2.498   3.988   5.493
 7764SOL    HW224192   2.536   4.027   5.647
 7765SOL     OW24193   6.211   3.121   5.675
 7765SOL    HW124194   6.250   3.168   5.754
 7765SOL    HW224195   6.150   3.183   5.626
 7766SOL     OW24196   5.579   4.145   6.140
 7766SOL    HW124197   5.627   4.090   6.208
 7766SOL    HW224198   5.549   4.088   6.064
 7767SOL     OW24199   3.517   0.069   3.924
 7767SOL    HW124200   3.452   0.061   3.849
 7767SOL    HW224201   3.503   0.157   3.971
 7768SOL     OW24202   4.793   4.933   3.454
 7768SOL    HW124203   4.850   4.891   3.384
 7768SOL    HW224204   4.745   5.012   3.416
 7769SOL     OW24205   3.647   3.265   5.318
 7769SOL    HW124206   3.551   3.246   5.298
 7769SOL    HW224207   3.663   3.363   5.314
 7770SOL     OW24208   2.101   3.267   4.349
 7770SOL    HW124209   2.174   3.234   4.409
 7770SOL    HW224210   2.032   3.315   4.403
 7771SOL     OW24211   2.387   2.979   6.007
 7771SOL    HW124212   2.400   3.010   6.101
 7771SOL    HW224213   2.469   2.933   5.975
 7772SOL     OW24214   5.243   6.590   1.773
 7772SOL    HW124215   5.343   6.592   1.768
 7772SOL    HW224216   5.211   6.668   1.827
 7773SOL     OW24217   3.190   6.002   6.754
 7773SOL    HW124218   3.170   6.010   6.852
 7773SOL    HW224219   3.287   6.017   6.738
 7774SOL     OW24220   4.837   1.615   2.245
 7774SOL    HW124221   4.758   1.668   2.213
 7774SOL    HW224222   4.817   1.576   2.335
 7775SOL     OW24223   2.238   1.498   0.294
 7775SOL    HW124224   2.254   1.549   0.378
 7775SOL    HW224225   2.217   1.402   0.316
 7776SOL     OW24226   1.460   1.438   4.626
 7776SOL    HW124227   1.528   1.452   4.698
 7776SOL    HW224228   1.458   1.518   4.566
 7777SOL     OW24229   6.390   5.468   4.226
 7777SOL    HW124230   6.480   5.427   4.208
 7777SOL    HW224231   6.318   5.407   4.193
 7778SOL     OW24232   7.020   4.823   2.807
 7778SOL    HW124233   0.006   4.750   2.875
 7778SOL    HW224234   6.949   4.799   2.741
 7779SOL     OW24235   4.295   5.952   2.156
 7779SOL    HW124236   4.224   5.883   2.164
 7779SOL    HW224237   4.385   5.908   2.156
 7780SOL     OW24238   6.185   6.554   4.889
 7780SOL    HW124239   6.121   6.565   4.965
 7780SOL    HW224240   6.184   6.459   4.859
 7781SOL     OW24241   1.325   2.579   1.034
 7781SOL    HW124242   1.264   2.651   1.065
 7781SOL    HW224243   1.362   2.603   0.944
 7782SOL     OW24244   6.176   2.644   3.950
 7782SOL    HW124245   6.171   2.742   3.971
 7782SOL    HW224246   6.233   2.599   4.019
 7783SOL     OW24247   1.489   6.674   5.066
 7783SOL    HW124248   1.519   6.761   5.106
 7783SOL    HW224249   1.566   6.612   5.060
 7784SOL     OW24250   1.909   2.334   1.566
 7784SOL    HW124251   1.924   2.275   1.486
 7784SOL    HW224252   1.977   2.313   1.636
 7785SOL     OW24253   0.251   7.007   3.324
 7785SOL    HW124254   0.263   6.908   3.331
 7785SOL    HW224255   0.252   0.011   3.228
 7786SOL     OW24256   3.872   1.344   5.323
 7786SOL    HW124257   3.785   1.371   5.363
 7786SOL    HW224258   3.857   1.293   5.239
 7787SOL     OW24259   2.483   2.677   1.922
 7787SOL    HW124260   2.447   2.681   2.015
 7787SOL    HW224261   2.537   2.594   1.911
 7788SOL     OW24262   6.781   4.281   1.395
 7788SOL    HW124263   6.712   4.281   1.322
 7788SOL    HW224264   6.737   4.263   1.483
 7789SOL     OW24265   2.991   1.853   5.934
 7789SOL    HW124266   3.020   1.944   5.904
 7789SOL    HW224267   3.064   1.787   5.916
 7790SOL     OW24268   4.431   4.467   1.712
 7790SOL    HW124269   4.526   4.497   1.717
 7790SOL    HW224270   4.423   4.374   1.748
 7791SOL     OW24271   2.269   5.029   2.250
 7791SOL    HW124272   2.192   4.973   2.221
 7791SOL    HW224273   2.294   5.005   2.344
 7792SOL     OW24274   0.594   1.839   2.364
 7792SOL    HW124275   0.623   1.746   2.385
 7792SOL    HW224276   0.572   1.886   2.450
 7793SOL     OW24277   4.925   0.733   6.830
 7793SOL    HW124278   4.871   0.722   6.746
 7793SOL    HW224279   5.017   0.763   6.806
 7794SOL     OW24280   0.786   6.709   3.238
 7794SOL    HW124281   0.876   6.669   3.221
 7794SOL    HW224282   0.726   6.638   3.275
 7795SOL     OW24283   2.889   5.563   0.137
 7795SOL    HW124284   2.805   5.510   0.119
 7795SOL    HW224285   2.945   5.514   0.203
 7796SOL     OW24286   3.359   3.767   0.021
 7796SOL    HW124287   3.343   3.765   0.120
 7796SOL    HW224288   3.274   3.792   6.997
 7797SOL     OW24289   0.528   6.131   3.041
 7797SOL    HW124290   0.505   6.047   2.991
 7797SOL    HW224291   0.620   6.161   3.016
 7798SOL     OW24292   1.106   3.319   0.586
 7798SOL    HW124293   1.010   3.291   0.584
 7798SOL    HW224294   1.134   3.339   0.680
 7799SOL     OW24295   2.518   6.237   3.262
 7799SOL    HW124296   2.484   6.143   3.269
 7799SOL    HW224297   2.471   6.295   3.328
 7800SOL     OW24298   0.290   6.355   2.392
 7800SOL    HW124299   0.215   6.409   2.353
 7800SOL    HW224300   0.266   6.258   2.390
 7801SOL     OW24301   1.739   1.930   1.719
 7801SOL    HW124302   1.736   1.946   1.818
 7801SOL    HW224303   1.690   2.003   1.672
 7802SOL     OW24304   6.560   3.769   4.588
 7802SOL    HW124305   6.660   3.761   4.589
 7802SOL    HW224306   6.524   3.713   4.513
 7803SOL     OW24307   3.334   2.733   5.577
 7803SOL    HW124308   3.270   2.670   5.621
 7803SOL    HW224309   3.350   2.704   5.483
 7804SOL     OW24310   3.501   1.881   5.048
 7804SOL    HW124311   3.466   1.971   5.021
 7804SOL    HW224312   3.487   1.816   4.974
 7805SOL     OW24313   4.726   3.388   0.534
 7805SOL    HW124314   4.700   3.436   0.450
 7805SOL    HW224315   4.732   3.290   0.515
 7806SOL     OW24316   6.366   1.468   5.747
 7806SOL    HW124317   6.416   1.388   5.713
 7806SOL    HW224318   6.426   1.547   5.749
 7807SOL     OW24319   1.555   4.523   5.925
 7807SOL    HW124320   1.562   4.620   5.900
 7807SOL    HW224321   1.463   4.490   5.906
 7808SOL     OW24322   6.002   3.768   2.853
 7808SOL    HW124323   5.912   3.734   2.824
 7808SOL    HW224324   5.990   3.848   2.913
 7809SOL     OW24325   4.870   5.325   2.487
 7809SOL    HW124326   4.894   5.408   2.436
 7809SOL    HW224327   4.772   5.309   2.480
 7810SOL     OW24328   3.535   6.513   5.980
 7810SOL    HW124329   3.534   6.418   5.948
 7810SOL    HW224330   3.614   6.527   6.039
 7811SOL     OW24331   1.768   6.524   2.987
 7811SOL    HW124332   1.766   6.477   3.075
 7811SOL    HW224333   1.843   6.488   2.932
 7812SOL     OW24334   3.323   1.962   6.255
 7812SOL    HW124335   3.224   1.951   6.256
 7812SOL    HW224336   3.347   2.038   6.194
 7813SOL     OW24337   5.746   0.279   0.473
 7813SOL    HW124338   5.680   0.221   0.424
 7813SOL    HW224339   5.704   0.366   0.495
 7814SOL     OW24340   6.600   2.635   1.904
 7814SOL    HW124341   6.522   2.607   1.848
 7814SOL    HW224342   6.665   2.685   1.848
 7815SOL     OW24343   5.524   4.085   5.484
 7815SOL    HW124344   5.448   4.047   5.537
 7815SOL    HW224345   5.519   4.185   5.486
 7816SOL     OW24346   0.765   1.114   5.514
 7816SOL    HW124347   0.672   1.150   5.521
 7816SOL    HW224348   0.796   1.084   5.605
 7817SOL     OW24349   3.271   2.870   6.891
 7817SOL    HW124350   3.357   2.917   6.911
 7817SOL    HW224351   3.275   2.834   6.798
 7818SOL     OW24352   5.637   0.417   4.296
 7818SOL    HW124353   5.672   0.469   4.374
 7818SOL    HW224354   5.602   0.480   4.227
 7819SOL     OW24355   1.134   3.359   4.431
 7819SOL    HW124356   1.093   3.449   4.415
 7819SOL    HW224357   1.229   3.360   4.399
 7820SOL     OW24358   1.163   6.848   5.754
 7820SOL    HW124359   1.166   6.752   5.781
 7820SOL    HW224360   1.135   6.854   5.659
 7821SOL     OW24361   4.774   6.679   0.243
 7821SOL    HW124362   4.830   6.603   0.211
 7821SOL    HW224363   4.689   6.683   0.190
 7822SOL     OW24364   0.418   1.379   5.109
 7822SOL    HW124365   0.500   1.335   5.073
 7822SOL    HW224366   0.365   1.417   5.034
 7823SOL     OW24367   2.483   3.386   5.342
 7823SOL    HW124368   2.411   3.319   5.359
 7823SOL    HW224369   2.571   3.339   5.337
 7824SOL     OW24370   5.342   3.293   3.043
 7824SOL    HW124371   5.308   3.344   3.122
 7824SOL    HW224372   5.440   3.311   3.032
 7825SOL     OW24373   3.671   3.515   2.376
 7825SOL    HW124374   3.678   3.466   2.288
 7825SOL    HW224375   3.708   3.607   2.366
 7826SOL     OW24376   6.359   0.062   1.443
 7826SOL    HW124377   6.327   0.100   1.357
 7826SOL    HW224378   6.302   7.007   1.468
 7827SOL     OW24379   4.926   3.881   0.420
 7827SOL    HW124380   4.987   3.932   0.360
 7827SOL    HW224381   4.893   3.799   0.374
 7828SOL     OW24382   0.716   5.813   0.594
 7828SOL    HW124383   0.744   5.726   0.553
 7828SOL    HW224384   0.616   5.819   0.592
 7829SOL     OW24385   3.983   3.138   2.472
 7829SOL    HW124386   4.013   3.064   2.532
 7829SOL    HW224387   4.029   3.223   2.499
 7830SOL     OW24388   5.923   3.083   6.896
 7830SOL    HW124389   5.960   2.997   6.862
 7830SOL    HW224390   5.985   3.158   6.874
 7831SOL     OW24391   1.568   2.571   6.767
 7831SOL    HW124392   1.579   2.542   6.672
 7831SOL    HW224393   1.602   2.500   6.828
 7832SOL     OW24394   2.530   2.555   5.595
 7832SOL    HW124395   2.584   2.523   5.673
 7832SOL    HW224396   2.482   2.639   5.620
 7833SOL     OW24397   1.524   6.957   0.647
 7833SOL    HW124398   1.427   6.937   0.662
 7833SOL    HW224399   1.541   0.030   0.666
 7834SOL     OW24400   0.140   0.217   1.569
 7834SOL    HW124401   0.132   0.250   1.475
 7834SOL    HW224402   0.109   0.288   1.632
 7835SOL     OW24403   2.109   2.621   5.001
 7835SOL    HW124404   2.046   2.546   5.023
 7835SOL    HW224405   2.075   2.706   5.042
 7836SOL     OW24406   2.286   0.439   6.910
 7836SOL    HW124407   2.350   0.375   6.953
 7836SOL    HW224408   2.195   0.397   6.906
 7837SOL     OW24409   6.003   0.295   3.540
 7837SOL    HW124410   6.098   0.264   3.543
 7837SOL    HW224411   6.000   0.394   3.528
 7838SOL     OW24412   3.619   6.750   3.632
 7838SOL    HW124413   3.638   6.729   3.728
 7838SOL    HW224414   3.568   6.836   3.626
 7839SOL     OW24415   6.669   5.090   4.402
 7839SOL    HW124416   6.702   5.017   4.342
 7839SOL    HW224417   6.570   5.101   4.390
 7840SOL     OW24418   5.166   3.293   5.917
 7840SOL    HW124419   5.235   3.270   5.986
 7840SOL    HW224420   5.084   3.329   5.962
 7841SOL     OW24421   1.133   1.700   6.439
 7841SOL    HW124422   1.210   1.640   6.416
 7841SOL    HW224423   1.055   1.644   6.466
 7842SOL     OW24424   2.924   1.433   2.530
 7842SOL    HW124425   2.956   1.512   2.478
 7842SOL    HW224426   2.942   1.350   2.477
 7843SOL     OW24427   6.058   3.743   1.290
 7843SOL    HW124428   6.118   3.667   1.314
 7843SOL    HW224429   6.016   3.780   1.372
 7844SOL     OW24430   4.283   1.442   4.330
 7844SOL    HW124431   4.284   1.526   4.385
 7844SOL    HW224432   4.248   1.463   4.239
 7845SOL     OW24433   0.847   0.936   3.944
 7845SOL    HW124434   0.938   0.917   3.907
 7845SOL    HW224435   0.817   1.026   3.912
 7846SOL     OW24436   4.007   0.354   2.093
 7846SOL    HW124437   4.012   0.307   2.181
 7846SOL    HW224438   3.935   0.424   2.097
 7847SOL     OW24439   6.786   0.646   0.208
 7847SOL    HW124440   6.836   0.692   0.134
 7847SOL    HW224441   6.723   0.711   0.251
 7848SOL     OW24442   4.889   4.343   0.458
 7848SOL    HW124443   4.907   4.286   0.537
 7848SOL    HW224444   4.927   4.299   0.376
 7849SOL     OW24445   5.639   4.365   5.421
 7849SOL    HW124446   5.673   4.336   5.332
 7849SOL    HW224447   5.711   4.416   5.469
 7850SOL     OW24448   0.888   0.811   4.292
 7850SOL    HW124449   0.914   0.897   4.337
 7850SOL    HW224450   0.792   0.792   4.309
 7851SOL     OW24451   5.164   6.740   0.345
 7851SOL    HW124452   5.180   6.832   0.382
 7851SOL    HW224453   5.085   6.700   0.390
 7852SOL     OW24454   2.397   6.271   6.183
 7852SOL    HW124455   2.414   6.229   6.094
 7852SOL    HW224456   2.377   6.200   6.251
 7853SOL     OW24457   2.455   2.855   0.640
 7853SOL    HW124458   2.471   2.757   0.635
 7853SOL    HW224459   2.436   2.882   0.735
 7854SOL     OW24460   3.687   4.081   2.603
 7854SOL    HW124461   3.783   4.060   2.617
 7854SOL    HW224462   3.645   4.108   2.689
 7855SOL     OW24463   3.634   6.900   5.652
 7855SOL    HW124464   3.579   6.959   5.711
 7855SOL    HW224465   3.596   6.808   5.651
 7856SOL     OW24466   4.854   3.243   6.134
 7856SOL    HW124467   4.769   3.192   6.148
 7856SOL    HW224468   4.910   3.238   6.217
 7857SOL     OW24469   0.368   1.857   4.847
 7857SOL    HW124470   0.314   1.931   4.807
 7857SOL    HW224471   0.439   1.828   4.782
 7858SOL     OW24472   6.348   4.371   3.496
 7858SOL    HW124473   6.345   4.294   3.559
 7858SOL    HW224474   6.443   4.397   3.479
 7859SOL     OW24475   0.914   5.679   6.559
 7859SOL    HW124476   1.011   5.657   6.560
 7859SOL    HW224477   0.892   5.728   6.474
 7860SOL     OW24478   3.368   0.396   2.143
 7860SOL    HW124479   3.316   0.472   2.105
 7860SOL    HW224480   3.356   0.394   2.243
 7861SOL     OW24481   5.641   3.923   0.497
 7861SOL    HW124482   5.691   3.908   0.412
 7861SOL    HW224483   5.667   3.853   0.564
 7862SOL     OW24484   3.109   4.669   1.712
 7862SOL    HW124485   3.128   4.762   1.744
 7862SOL    HW224486   3.046   4.624   1.775
 7863SOL     OW24487   6.892   6.228   2.043
 7863SOL    HW124488   6.810   6.222   2.100
 7863SOL    HW224489   6.959   6.288   2.085
 7864SOL     OW24490   0.770   5.180   4.431
 7864SOL    HW124491   0.799   5.095   4.386
 7864SOL    HW224492   0.671   5.191   4.419
 7865SOL     OW24493   2.774   0.444   2.586
 7865SOL    HW124494   2.822   0.511   2.529
 7865SOL    HW224495   2.696   0.488   2.631
 7866SOL     OW24496   2.499   2.556   4.149
 7866SOL    HW124497   2.475   2.618   4.224
 7866SOL    HW224498   2.573   2.495   4.179
 7867SOL     OW24499   5.661   4.841   2.449
 7867SOL    HW124500   5.578   4.896   2.443
 7867SOL    HW224501   5.722   4.881   2.518
 7868SOL     OW24502   5.731   0.262   0.887
 7868SOL    HW124503   5.676   0.338   0.921
 7868SOL    HW224504   5.674   0.180   0.878
 7869SOL     OW24505   0.453   2.962   2.155
 7869SOL    HW124506   0.450   3.062   2.160
 7869SOL    HW224507   0.364   2.928   2.125
 7870SOL     OW24508   0.040   6.467   3.472
 7870SOL    HW124509   0.085   6.483   3.384
 7870SOL    HW224510   7.006   6.385   3.466
 7871SOL     OW24511   5.124   3.315   3.847
 7871SOL    HW124512   5.202   3.362   3.805
 7871SOL    HW224513   5.153   3.224   3.878
 7872SOL     OW24514   6.534   2.963   3.777
 7872SOL    HW124515   6.625   2.976   3.815
 7872SOL    HW224516   6.542   2.934   3.681
 7873SOL     OW24517   6.889   5.173   5.253
 7873SOL    HW124518   6.858   5.112   5.326
 7873SOL    HW224519   6.847   5.146   5.166
 7874SOL     OW24520   6.055   0.510   0.228
 7874SOL    HW124521   6.060   0.593   0.171
 7874SOL    HW224522   6.092   0.530   0.319
 7875SOL     OW24523   4.407   3.208   6.710
 7875SOL    HW124524   4.341   3.258   6.765
 7875SOL    HW224525   4.499   3.223   6.746
 7876SOL     OW24526   6.766   0.001   4.154
 7876SOL    HW124527   6.788   0.066   4.082
 7876SOL    HW224528   6.713   6.949   4.116
 7877SOL     OW24529   6.785   2.272   1.965
 7877SOL    HW124530   6.723   2.241   2.037
 7877SOL    HW224531   6.877   2.237   1.983
 7878SOL     OW24532   4.612   4.063   1.722
 7878SOL    HW124533   4.541   4.132   1.717
 7878SOL    HW224534   4.667   4.076   1.804
 7879SOL     OW24535   5.488   0.623   4.881
 7879SOL    HW124536   5.565   0.653   4.938
 7879SOL    HW224537   5.403   0.634   4.932
 7880SOL     OW24538   0.996   6.645   6.271
 7880SOL    HW124539   0.996   6.710   6.195
 7880SOL    HW224540   0.931   6.674   6.341
 7881SOL     OW24541   0.558   5.027   3.815
 7881SOL    HW124542   0.536   4.960   3.886
 7881SOL    HW224543   0.578   5.115   3.857
 7882SOL     OW24544   0.448   4.022   2.495
 7882SOL    HW124545   0.390   3.940   2.503
 7882SOL    HW224546   0.508   4.012   2.416
 7883SOL     OW24547   3.409   1.281   4.566
 7883SOL    HW124548   3.405   1.276   4.666
 7883SOL    HW224549   3.333   1.337   4.532
 7884SOL     OW24550   0.884   3.340   4.555
 7884SOL    HW124551   0.969   3.325   4.506
 7884SOL    HW224552   0.901   3.398   4.635
 7885SOL     OW24553   6.069   5.170   3.871
 7885SOL    HW124554   6.051   5.099   3.803
 7885SOL    HW224555   6.088   5.257   3.824
 7886SOL     OW24556   4.951   3.384   3.656
 7886SOL    HW124557   5.004   3.411   3.576
 7886SOL    HW224558   5.013   3.357   3.730
 7887SOL     OW24559   2.438   3.263   0.572
 7887SOL    HW124560   2.340   3.272   0.556
 7887SOL    HW224561   2.485   3.241   0.487
 7888SOL     OW24562   6.406   2.182   4.373
 7888SOL    HW124563   6.375   2.110   4.436
 7888SOL    HW224564   6.492   2.221   4.408
 7889SOL     OW24565   5.775   5.332   0.189
 7889SOL    HW124566   5.835   5.322   0.269
 7889SOL    HW224567   5.827   5.313   0.106
 7890SOL     OW24568   1.581   3.492   4.093
 7890SOL    HW124569   1.574   3.445   4.004
 7890SOL    HW224570   1.496   3.540   4.112
 7891SOL     OW24571   6.973   1.835   4.026
 7891SOL    HW124572   0.001   1.910   3.986
 7891SOL    HW224573   6.970   1.845   4.126
 7892SOL     OW24574   0.227   1.752   5.776
 7892SOL    HW124575   0.311   1.728   5.728
 7892SOL    HW224576   0.151   1.751   5.711
 7893SOL     OW24577   6.328   6.981   0.519
 7893SOL    HW124578   6.264   7.020   0.452
 7893SOL    HW224579   6.357   0.029   0.582
 7894SOL     OW24580   3.445   1.730   6.363
 7894SOL    HW124581   3.414   1.656   6.304
 7894SOL    HW224582   3.387   1.810   6.348
 7895SOL     OW24583   5.036   6.600   3.373
 7895SOL    HW124584   4.947   6.647   3.381
 7895SOL    HW224585   5.064   6.567   3.463
 7896SOL     OW24586   3.004   2.752   1.124
 7896SOL    HW124587   3.068   2.796   1.062
 7896SOL    HW224588   2.994   2.656   1.100
 7897SOL     OW24589   3.361   3.375   0.271
 7897SOL    HW124590   3.419   3.311   0.221
 7897SOL    HW224591   3.323   3.330   0.352
 7898SOL     OW24592   6.131   6.933   3.462
 7898SOL    HW124593   6.161   6.845   3.425
 7898SOL    HW224594   6.070   6.917   3.539
 7899SOL     OW24595   6.187   5.090   3.414
 7899SOL    HW124596   6.190   5.016   3.348
 7899SOL    HW224597   6.111   5.151   3.393
 7900SOL     OW24598   0.681   4.543   1.642
 7900SOL    HW124599   0.708   4.628   1.686
 7900SOL    HW224600   0.757   4.509   1.585
 7901SOL     OW24601   6.739   1.240   6.487
 7901SOL    HW124602   6.684   1.191   6.553
 7901SOL    HW224603   6.699   1.230   6.396
 7902SOL     OW24604   0.930   6.581   2.367
 7902SOL    HW124605   1.018   6.628   2.377
 7902SOL    HW224606   0.861   6.628   2.422
 7903SOL     OW24607   2.939   2.130   4.943
 7903SOL    HW124608   3.008   2.195   4.973
 7903SOL    HW224609   2.854   2.179   4.922
 7904SOL     OW24610   5.123   1.116   2.088
 7904SOL    HW124611   5.110   1.017   2.098
 7904SOL    HW224612   5.221   1.136   2.085
 7905SOL     OW24613   5.915   0.951   1.373
 7905SOL    HW124614   6.009   0.941   1.340
 7905SOL    HW224615   5.858   0.878   1.334
 7906SOL     OW24616   1.943   5.591   0.632
 7906SOL    HW124617   1.975   5.540   0.712
 7906SOL    HW224618   1.903   5.528   0.565
 7907SOL     OW24619   6.525   0.125   2.958
 7907SOL    HW124620   6.466   0.158   3.031
 7907SOL    HW224621   6.618   0.115   2.992
 7908SOL     OW24622   0.931   0.294   6.634
 7908SOL    HW124623   0.964   0.228   6.700
 7908SOL    HW224624   0.840   0.326   6.660
 7909SOL     OW24625   6.371   4.566   2.055
 7909SOL    HW124626   6.430   4.597   1.980
 7909SOL    HW224627   6.276   4.585   2.032
 7910SOL     OW24628   1.150   3.557   0.455
 7910SOL    HW124629   1.223   3.561   0.386
 7910SOL    HW224630   1.140   3.462   0.487
 7911SOL     OW24631   0.516   4.201   0.117
 7911SOL    HW124632   0.458   4.270   0.160
 7911SOL    HW224633   0.545   4.234   0.027
 7912SOL     OW24634   5.962   5.580   0.556
 7912SOL    HW124635   5.865   5.558   0.549
 7912SOL    HW224636   5.998   5.542   0.642
 7913SOL     OW24637   0.777   4.304   1.264
 7913SOL    HW124638   0.752   4.216   1.304
 7913SOL    HW224639   0.722   4.376   1.305
 7914SOL     OW24640   6.847   6.020   4.766
 7914SOL    HW124641   6.891   6.080   4.834
 7914SOL    HW224642   6.841   5.927   4.802
 7915SOL     OW24643   3.878   5.958   2.613
 7915SOL    HW124644   3.901   5.913   2.699
 7915SOL    HW224645   3.831   5.893   2.553
 7916SOL     OW24646   1.629   0.169   4.701
 7916SOL    HW124647   1.562   0.195   4.771
 7916SOL    HW224648   1.581   0.132   4.621
 7917SOL     OW24649   4.361   3.569   0.789
 7917SOL    HW124650   4.300   3.506   0.837
 7917SOL    HW224651   4.360   3.658   0.834
 7918SOL     OW24652   1.986   2.118   4.671
 7918SOL    HW124653   1.920   2.135   4.598
 7918SOL    HW224654   2.002   2.019   4.679
 7919SOL     OW24655   2.241   5.941   3.981
 7919SOL    HW124656   2.200   5.992   4.057
 7919SOL    HW224657   2.338   5.962   3.976
 7920SOL     OW24658   5.350   0.425   0.959
 7920SOL    HW124659   5.390   0.345   1.003
 7920SOL    HW224660   5.415   0.462   0.892
 7921SOL     OW24661   5.423   2.000   1.328
 7921SOL    HW124662   5.359   2.076   1.338
 7921SOL    HW224663   5.409   1.934   1.402
 7922SOL     OW24664   1.430   5.620   1.025
 7922SOL    HW124665   1.468   5.668   1.105
 7922SOL    HW224666   1.331   5.634   1.022
 7923SOL     OW24667   5.054   1.277   0.337
 7923SOL    HW124668   5.084   1.275   0.432
 7923SOL    HW224669   4.985   1.206   0.323
 7924SOL     OW24670   6.126   6.178   0.912
 7924SOL    HW124671   6.139   6.127   0.827
 7924SOL    HW224672   6.029   6.196   0.926
 7925SOL     OW24673   1.561   6.324   6.890
 7925SOL    HW124674   1.560   6.346   6.987
 7925SOL    HW224675   1.585   6.228   6.878
 7926SOL     OW24676   4.526   5.433   0.131
 7926SOL    HW124677   4.601   5.367   0.142
 7926SOL    HW224678   4.564   5.524   0.113
 7927SOL     OW24679   4.372   0.346   3.201
 7927SOL    HW124680   4.398   0.321   3.295
 7927SOL    HW224681   4.276   0.322   3.186
 7928SOL     OW24682   0.000   2.032   3.406
 7928SOL    HW124683   6.953   2.101   3.391
 7928SOL    HW224684   0.080   2.073   3.450
 7929SOL     OW24685   3.998   4.355   6.318
 7929SOL    HW124686   4.091   4.367   6.284
 7929SOL    HW224687   3.997   4.366   6.417
 7930SOL     OW24688   4.388   6.239   5.601
 7930SOL    HW124689   4.465   6.253   5.539
 7930SOL    HW224690   4.358   6.144   5.596
 7931SOL     OW24691   3.519   2.281   0.846
 7931SOL    HW124692   3.617   2.303   0.847
 7931SOL    HW224693   3.506   2.185   0.872
 7932SOL     OW24694   1.683   4.742   2.611
 7932SOL    HW124695   1.753   4.683   2.574
 7932SOL    HW224696   1.700   4.837   2.582
 7933SOL     OW24697   0.586   1.180   6.681
 7933SOL    HW124698   0.628   1.136   6.602
 7933SOL    HW224699   0.615   1.134   6.765
 7934SOL     OW24700   0.898   4.914   1.421
 7934SOL    HW124701   0.813   4.966   1.428
 7934SOL    HW224702   0.976   4.977   1.434
 7935SOL     OW24703   5.185   3.077   3.937
 7935SOL    HW124704   5.133   3.024   4.003
 7935SOL    HW224705   5.220   3.017   3.865
 7936SOL     OW24706   3.575   6.146   3.812
 7936SOL    HW124707   3.663   6.191   3.826
 7936SOL    HW224708   3.558   6.082   3.887
 7937SOL     OW24709   3.777   0.924   6.945
 7937SOL    HW124710   3.694   0.969   6.913
 7937SOL    HW224711   3.844   0.920   6.871
 7938SOL     OW24712   3.454   6.908   4.378
 7938SOL    HW124713   3.420   6.973   4.310
 7938SOL    HW224714   3.532   6.858   4.342
 7939SOL     OW24715   0.579   1.557   4.161
 7939SOL    HW124716   0.599   1.636   4.103
 7939SOL    HW224717   0.606   1.577   4.256
 7940SOL     OW24718   5.097   1.191   2.872
 7940SOL    HW124719   5.027   1.227   2.934
 7940SOL    HW224720   5.113   1.257   2.799
 7941SOL     OW24721   3.472   6.996   1.527
 7941SOL    HW124722   3.555   6.950   1.559
 7941SOL    HW224723   3.400   6.928   1.512
 7942SOL     OW24724   1.094   4.892   1.199
 7942SOL    HW124725   1.021   4.901   1.268
 7942SOL    HW224726   1.138   4.803   1.208
 7943SOL     OW24727   1.575   5.895   6.135
 7943SOL    HW124728   1.617   5.804   6.128
 7943SOL    HW224729   1.476   5.885   6.150
 7944SOL     OW24730   1.458   2.290   1.012
 7944SOL    HW124731   1.437   2.387   1.021
 7944SOL    HW224732   1.490   2.255   1.100
 7945SOL     OW24733   6.118   4.320   2.869
 7945SOL    HW124734   6.172   4.287   2.946
 7945SOL    HW224735   6.021   4.325   2.895
 7946SOL     OW24736   3.415   1.574   6.102
 7946SOL    HW124737   3.360   1.613   6.028
 7946SOL    HW224738   3.496   1.530   6.064
 7947SOL     OW24739   0.637   3.837   6.068
 7947SOL    HW124740   0.549   3.861   6.110
 7947SOL    HW224741   0.622   3.803   5.975
 7948SOL     OW24742   1.489   4.549   2.535
 7948SOL    HW124743   1.461   4.499   2.617
 7948SOL    HW224744   1.560   4.615   2.560
 7949SOL     OW24745   3.982   6.589   6.194
 7949SOL    HW124746   3.993   6.668   6.133
 7949SOL    HW224747   4.052   6.521   6.174
 7950SOL     OW24748   5.748   4.611   5.566
 7950SOL    HW124749   5.663   4.646   5.528
 7950SOL    HW224750   5.741   4.607   5.666
 7951SOL     OW24751   3.361   6.297   2.635
 7951SOL    HW124752   3.288   6.229   2.631
 7951SOL    HW224753   3.342   6.369   2.568
 7952SOL     OW24754   5.860   3.710   6.698
 7952SOL    HW124755   5.766   3.725   6.728
 7952SOL    HW224756   5.898   3.794   6.659
 7953SOL     OW24757   3.119   1.064   1.004
 7953SOL    HW124758   3.171   1.045   1.087
 7953SOL    HW224759   3.171   1.031   0.924
 7954SOL     OW24760   3.780   3.473   6.418
 7954SOL    HW124761   3.803   3.571   6.415
 7954SOL    HW224762   3.756   3.448   6.512
 7955SOL     OW24763   1.600   1.390   6.996
 7955SOL    HW124764   1.597   1.342   0.060
 7955SOL    HW224765   1.521   1.452   6.990
 7956SOL     OW24766   6.375   6.042   0.112
 7956SOL    HW124767   6.396   5.947   0.132
 7956SOL    HW224768   6.334   6.085   0.193
 7957SOL     OW24769   4.559   0.861   5.699
 7957SOL    HW124770   4.500   0.894   5.773
 7957SOL    HW224771   4.577   0.764   5.712
 7958SOL     OW24772   5.808   2.690   6.964
 7958SOL    HW124773   5.730   2.724   6.912
 7958SOL    HW224774   5.814   2.591   6.954
 7959SOL     OW24775   5.535   1.489   6.054
 7959SOL    HW124776   5.561   1.517   5.962
 7959SOL    HW224777   5.567   1.558   6.120
 7960SOL     OW24778   0.285   0.899   5.970
 7960SOL    HW124779   0.253   0.857   5.885
 7960SOL    HW224780   0.318   0.991   5.952
 7961SOL     OW24781   6.889   6.531   0.373
 7961SOL    HW124782   6.792   6.515   0.388
 7961SOL    HW224783   6.913   6.624   0.400
 7962SOL     OW24784   5.655   6.829   5.755
 7962SOL    HW124785   5.606   6.840   5.841
 7962SOL    HW224786   5.728   6.898   5.750
 7963SOL     OW24787   0.330   6.176   4.177
 7963SOL    HW124788   0.292   6.111   4.242
 7963SOL    HW224789   0.334   6.267   4.218
 7964SOL     OW24790   6.913   4.438   1.745
 7964SOL    HW124791   6.867   4.515   1.701
 7964SOL    HW224792   7.011   4.458   1.752
 7965SOL     OW24793   3.137   2.575   6.440
 7965SOL    HW124794   3.223   2.624   6.426
 7965SOL    HW224795   3.067   2.612   6.379
 7966SOL     OW24796   4.955   3.712   4.828
 7966SOL    HW124797   4.926   3.634   4.773
 7966SOL    HW224798   4.901   3.716   4.912
 7967SOL     OW24799   1.532   4.641   1.866
 7967SOL    HW124800   1.473   4.660   1.788
 7967SOL    HW224801   1.534   4.542   1.883
 7968SOL     OW24802   0.334   2.746   4.821
 7968SOL    HW124803   0.374   2.713   4.735
 7968SOL    HW224804   0.382   2.704   4.898
 7969SOL     OW24805   4.539   4.832   0.047
 7969SOL    HW124806   4.484   4.910   0.020
 7969SOL    HW224807   4.567   4.842   0.143
 7970SOL     OW24808   5.971   2.977   2.504
 7970SOL    HW124809   5.978   3.077   2.510
 7970SOL    HW224810   5.971   2.950   2.408
 7971SOL     OW24811   3.154   1.179   0.369
 7971SOL    HW124812   3.168   1.091   0.322
 7971SOL    HW224813   3.099   1.165   0.451
 7972SOL     OW24814   3.883   3.959   3.416
 7972SOL    HW124815   3.795   3.938   3.374
 7972SOL    HW224816   3.944   3.880   3.408
 7973SOL     OW24817   6.215   3.808   2.149
 7973SOL    HW124818   6.207   3.736   2.218
 7973SOL    HW224819   6.307   3.847   2.152
 7974SOL     OW24820   6.697   2.360   6.323
 7974SOL    HW124821   6.650   2.273   6.337
 7974SOL    HW224822   6.658   2.430   6.383
 7975SOL     OW24823   5.774   0.778   1.208
 7975SOL    HW124824   5.778   0.689   1.254
 7975SOL    HW224825   5.682   0.816   1.216
 7976SOL     OW24826   0.841   0.241   0.551
 7976SOL    HW124827   0.798   0.289   0.628
 7976SOL    HW224828   0.935   0.273   0.541
 7977SOL     OW24829   5.683   5.256   3.379
 7977SOL    HW124830   5.662   5.300   3.292
 7977SOL    HW224831   5.608   5.274   3.444
 7978SOL     OW24832   0.263   4.286   1.710
 7978SOL    HW124833   0.241   4.247   1.621
 7978SOL    HW224834   0.346   4.341   1.703
 7979SOL     OW24835   1.836   2.434   4.442
 7979SOL    HW124836   1.779   2.354   4.422
 7979SOL    HW224837   1.778   2.514   4.454
 7980SOL     OW24838   4.063   5.429   0.068
 7980SOL    HW124839   4.144   5.468   0.113
 7980SOL    HW224840   4.059   5.462   6.997
 7981SOL     OW24841   1.729   4.774   3.035
 7981SOL    HW124842   1.827   4.778   3.018
 7981SOL    HW224843   1.699   4.859   3.079
 7982SOL     OW24844   6.299   2.126   5.509
 7982SOL    HW124845   6.249   2.080   5.436
 7982SOL    HW224846   6.255   2.106   5.597
 7983SOL     OW24847   4.923   1.405   1.590
 7983SOL    HW124848   4.830   1.414   1.625
 7983SOL    HW224849   4.985   1.460   1.647
 7984SOL     OW24850   1.015   1.952   3.051
 7984SOL    HW124851   0.969   1.893   3.118
 7984SOL    HW224852   0.948   1.987   2.986
 7985SOL     OW24853   2.692   2.663   5.367
 7985SOL    HW124854   2.623   2.734   5.352
 7985SOL    HW224855   2.660   2.601   5.439
 7986SOL     OW24856   2.924   1.133   3.855
 7986SOL    HW124857   2.824   1.139   3.849
 7986SOL    HW224858   2.959   1.218   3.896
 7987SOL     OW24859   1.426   3.359   0.114
 7987SOL    HW124860   1.436   3.268   0.074
 7987SOL    HW224861   1.370   3.353   0.196
 7988SOL     OW24862   0.031   1.690   1.058
 7988SOL    HW124863   0.007   1.617   0.995
 7988SOL    HW224864   6.995   1.687   1.138
 7989SOL     OW24865   0.134   4.447   0.569
 7989SOL    HW124866   0.151   4.495   0.655
 7989SOL    HW224867   0.061   4.493   0.518
 7990SOL     OW24868   3.995   5.510   5.584
 7990SOL    HW124869   4.051   5.587   5.615
 7990SOL    HW224870   3.973   5.452   5.662
 7991SOL     OW24871   6.067   1.315   4.903
 7991SOL    HW124872   6.129   1.393   4.902
 7991SOL    HW224873   6.119   1.230   4.901
 7992SOL     OW24874   2.667   0.017   6.939
 7992SOL    HW124875   2.627   0.100   6.900
 7992SOL    HW224876   2.600   6.994   6.997
 7993SOL     OW24877   6.759   5.894   1.299
 7993SOL    HW124878   6.695   5.970   1.302
 7993SOL    HW224879   6.708   5.808   1.290
 7994SOL     OW24880   5.514   0.416   3.791
 7994SOL    HW124881   5.599   0.371   3.818
 7994SOL    HW224882   5.442   0.392   3.856
 7995SOL     OW24883   0.301   4.601   1.496
 7995SOL    HW124884   0.264   4.670   1.434
 7995SOL    HW224885   0.363   4.645   1.562
 7996SOL     OW24886   3.247   0.743   3.140
 7996SOL    HW124887   3.333   0.755   3.091
 7996SOL    HW224888   3.171   0.750   3.075
 7997SOL     OW24889   1.384   1.573   6.478
 7997SOL    HW124890   1.436   1.640   6.531
 7997SOL    HW224891   1.444   1.497   6.452
 7998SOL     OW24892   2.711   1.182   0.760
 7998SOL    HW124893   2.778   1.247   0.724
 7998SOL    HW224894   2.650   1.230   0.822
 7999SOL     OW24895   0.772   0.468   4.543
 7999SOL    HW124896   0.855   0.412   4.541
 7999SOL    HW224897   0.776   0.533   4.619
 8000SOL     OW24898   4.590   5.441   6.808
 8000SOL    HW124899   4.556   5.443   6.902
 8000SOL    HW224900   4.590   5.347   6.773
 8001SOL     OW24901   4.472   6.602   1.578
 8001SOL    HW124902   4.477   6.504   1.597
 8001SOL    HW224903   4.380   6.635   1.602
 8002SOL     OW24904   0.812   0.455   5.178
 8002SOL    HW124905   0.797   0.439   5.080
 8002SOL    HW224906   0.750   0.397   5.230
 8003SOL     OW24907   1.920   5.558   2.334
 8003SOL    HW124908   1.936   5.566   2.235
 8003SOL    HW224909   1.966   5.477   2.369
 8004SOL     OW24910   1.308   3.255   3.552
 8004SOL    HW124911   1.365   3.302   3.484
 8004SOL    HW224912   1.233   3.209   3.506
 8005SOL     OW24913   2.327   0.277   3.395
 8005SOL    HW124914   2.374   0.270   3.307
 8005SOL    HW224915   2.375   0.220   3.462
 8006SOL     OW24916   3.784   4.844   5.295
 8006SOL    HW124917   3.770   4.745   5.298
 8006SOL    HW224918   3.791   4.874   5.200
 8007SOL     OW24919   6.198   0.468   6.521
 8007SOL    HW124920   6.287   0.438   6.486
 8007SOL    HW224921   6.191   0.445   6.618
 8008SOL     OW24922   5.696   6.705   6.982
 8008SOL    HW124923   5.725   6.790   0.004
 8008SOL    HW224924   5.625   6.726   6.915
 8009SOL     OW24925   5.007   1.898   6.446
 8009SOL    HW124926   4.912   1.865   6.445
 8009SOL    HW224927   5.020   1.960   6.523
 8010SOL     OW24928   2.581   1.903   5.484
 8010SOL    HW124929   2.654   1.970   5.473
 8010SOL    HW224930   2.531   1.894   5.397
 8011SOL     OW24931   4.399   1.640   2.062
 8011SOL    HW124932   4.355   1.552   2.080
 8011SOL    HW224933   4.482   1.648   2.118
 8012SOL     OW24934   0.041   1.417   5.332
 8012SOL    HW124935   7.010   1.495   5.362
 8012SOL    HW224936   7.004   1.341   5.308
 8013SOL     OW24937   3.420   2.114   2.583
 8013SOL    HW124938   3.438   2.127   2.486
 8013SOL    HW224939   3.507   2.116   2.633
 8014SOL     OW24940   2.163   1.528   2.352
 8014SOL    HW124941   2.192   1.481   2.435
 8014SOL    HW224942   2.243   1.570   2.307
 8015SOL     OW24943   3.485   0.045   5.792
 8015SOL    HW124944   3.413   0.095   5.744
 8015SOL    HW224945   3.489   0.075   5.887
 8016SOL     OW24946   3.590   1.758   4.710
 8016SOL    HW124947   3.607   1.698   4.632
 8016SOL    HW224948   3.536   1.709   4.779
 8017SOL     OW24949   6.156   6.016   1.245
 8017SOL    HW124950   6.077   6.004   1.305
 8017SOL    HW224951   6.187   5.926   1.213
 8018SOL     OW24952   4.215   1.836   6.713
 8018SOL    HW124953   4.179   1.929   6.715
 8018SOL    HW224954   4.308   1.837   6.676
 8019SOL     OW24955   2.356   3.668   1.121
 8019SOL    HW124956   2.289   3.681   1.049
 8019SOL    HW224957   2.448   3.665   1.081
 8020SOL     OW24958   0.017   0.944   5.417
 8020SOL    HW124959   0.113   0.933   5.392
 8020SOL    HW224960   6.995   0.855   5.415
 8021SOL     OW24961   1.617   2.172   1.601
 8021SOL    HW124962   1.576   2.264   1.604
 8021SOL    HW224963   1.666   2.160   1.515
 8022SOL     OW24964   5.071   1.769   2.502
 8022SOL    HW124965   5.045   1.865   2.489
 8022SOL    HW224966   5.151   1.748   2.446
 8023SOL     OW24967   4.880   5.900   2.396
 8023SOL    HW124968   4.895   5.974   2.331
 8023SOL    HW224969   4.790   5.912   2.440
 8024SOL     OW24970   2.178   1.052   6.894
 8024SOL    HW124971   2.150   0.984   6.962
 8024SOL    HW224972   2.155   1.143   6.926
 8025SOL     OW24973   1.236   5.890   1.625
 8025SOL    HW124974   1.256   5.938   1.711
 8025SOL    HW224975   1.137   5.889   1.610
 8026SOL     OW24976   0.955   5.383   6.542
 8026SOL    HW124977   0.898   5.321   6.597
 8026SOL    HW224978   1.037   5.408   6.593
 8027SOL     OW24979   3.423   0.101   6.650
 8027SOL    HW124980   3.511   0.116   6.605
 8027SOL    HW224981   3.379   0.020   6.611
 8028SOL     OW24982   3.072   5.397   5.354
 8028SOL    HW124983   3.140   5.418   5.283
 8028SOL    HW224984   3.118   5.386   5.442
 8029SOL     OW24985   6.985   6.737   0.189
 8029SOL    HW124986   6.936   6.788   0.260
 8029SOL    HW224987   6.936   6.653   0.168
 8030SOL     OW24988   0.952   3.869   0.928
 8030SOL    HW124989   0.984   3.792   0.874
 8030SOL    HW224990   0.899   3.835   1.007
 8031SOL     OW24991   0.335   0.723   3.433
 8031SOL    HW124992   0.333   0.692   3.528
 8031SOL    HW224993   0.335   0.823   3.431
 8032SOL     OW24994   5.999   3.024   0.954
 8032SOL    HW124995   6.071   2.990   1.015
 8032SOL    HW224996   6.039   3.074   0.878
 8033SOL     OW24997   5.159   3.407   0.634
 8033SOL    HW124998   5.153   3.458   0.548
 8033SOL    HW224999   5.137   3.467   0.711
 8034SOL     OW25000   6.481   0.142   5.736
 8034SOL    HW125001   6.429   0.213   5.689
 8034SOL    HW225002   6.453   0.052   5.702
 8035SOL     OW25003   5.739   1.808   2.580
 8035SOL    HW125004   5.779   1.896   2.604
 8035SOL    HW225005   5.779   1.775   2.494
 8036SOL     OW25006   5.955   2.490   3.408
 8036SOL    HW125007   6.049   2.500   3.375
 8036SOL    HW225008   5.906   2.424   3.351
 8037SOL     OW25009   1.276   2.043   5.795
 8037SOL    HW125010   1.334   2.022   5.716
 8037SOL    HW225011   1.254   2.140   5.795
 8038SOL     OW25012   6.871   4.906   2.407
 8038SOL    HW125013   6.925   4.983   2.441
 8038SOL    HW225014   6.834   4.854   2.484
 8039SOL     OW25015   1.315   2.624   5.648
 8039SOL    HW125016   1.252   2.547   5.635
 8039SOL    HW225017   1.318   2.679   5.564
 8040SOL     OW25018   2.277   5.214   6.364
 8040SOL    HW125019   2.187   5.226   6.407
 8040SOL    HW225020   2.264   5.182   6.270
 8041SOL     OW25021   3.876   1.385   3.528
 8041SOL    HW125022   3.786   1.345   3.508
 8041SOL    HW225023   3.872   1.432   3.616
 8042SOL     OW25024   4.140   4.306   5.549
 8042SOL    HW125025   4.065   4.279   5.608
 8042SOL    HW225026   4.173   4.226   5.498
 8043SOL     OW25027   5.468   5.566   6.544
 8043SOL    HW125028   5.379   5.597   6.510
 8043SOL    HW225029   5.481   5.469   6.520
 8044SOL     OW25030   2.563   3.810   1.515
 8044SOL    HW125031   2.501   3.834   1.440
 8044SOL    HW225032   2.539   3.720   1.551
 8045SOL     OW25033   0.395   2.019   3.118
 8045SOL    HW125034   0.313   1.999   3.172
 8045SOL    HW225035   0.416   1.941   3.059
 8046SOL     OW25036   6.880   4.859   2.132
 8046SOL    HW125037   6.907   4.888   2.224
 8046SOL    HW225038   6.847   4.765   2.134
 8047SOL     OW25039   3.642   6.314   6.714
 8047SOL    HW125040   3.662   6.314   6.616
 8047SOL    HW225041   3.628   6.408   6.746
 8048SOL     OW25042   3.556   2.630   6.239
 8048SOL    HW125043   3.595   2.540   6.217
 8048SOL    HW225044   3.629   2.699   6.237
 8049SOL     OW25045   1.338   1.517   6.984
 8049SOL    HW125046   1.321   1.610   6.952
 8049SOL    HW225047   1.308   1.508   0.055
 8050SOL     OW25048   0.289   4.826   5.740
 8050SOL    HW125049   0.204   4.773   5.740
 8050SOL    HW225050   0.283   4.896   5.669
 8051SOL     OW25051   3.948   6.107   3.346
 8051SOL    HW125052   4.030   6.122   3.403
 8051SOL    HW225053   3.976   6.071   3.257
 8052SOL     OW25054   2.548   2.552   2.504
 8052SOL    HW125055   2.637   2.572   2.464
 8052SOL    HW225056   2.535   2.453   2.509
 8053SOL     OW25057   1.867   2.869   6.665
 8053SOL    HW125058   1.896   2.780   6.630
 8053SOL    HW225059   1.779   2.894   6.623
 8054SOL     OW25060   4.617   3.402   5.352
 8054SOL    HW125061   4.626   3.475   5.285
 8054SOL    HW225062   4.609   3.441   5.444
 8055SOL     OW25063   6.200   0.394   6.857
 8055SOL    HW125064   6.251   0.455   6.918
 8055SOL    HW225065   6.106   0.425   6.849
 8056SOL     OW25066   2.133   1.439   5.037
 8056SOL    HW125067   2.096   1.354   4.999
 8056SOL    HW225068   2.187   1.485   4.967
 8057SOL     OW25069   2.803   2.075   2.007
 8057SOL    HW125070   2.862   2.015   1.954
 8057SOL    HW225071   2.855   2.152   2.042
 8058SOL     OW25072   3.562   6.360   2.818
 8058SOL    HW125073   3.478   6.336   2.769
 8058SOL    HW225074   3.575   6.459   2.817
 8059SOL     OW25075   2.387   3.039   6.265
 8059SOL    HW125076   2.430   3.105   6.327
 8059SOL    HW225077   2.344   2.966   6.319
 8060SOL     OW25078   6.067   0.339   5.587
 8060SOL    HW125079   6.023   0.256   5.554
 8060SOL    HW225080   6.000   0.414   5.588
 8061SOL     OW25081   0.173   0.611   2.388
 8061SOL    HW125082   0.267   0.601   2.354
 8061SOL    HW225083   0.162   0.556   2.471
 8062SOL     OW25084   4.397   5.535   5.734
 8062SOL    HW125085   4.358   5.518   5.643
 8062SOL    HW225086   4.487   5.492   5.740
 8063SOL     OW25087   3.594   5.337   2.927
 8063SOL    HW125088   3.517   5.278   2.949
 8063SOL    HW225089   3.561   5.432   2.919
 8064SOL     OW25090   6.193   1.720   0.932
 8064SOL    HW125091   6.114   1.757   0.980
 8064SOL    HW225092   6.246   1.662   0.994
 8065SOL     OW25093   4.075   5.557   6.257
 8065SOL    HW125094   4.012   5.598   6.324
 8065SOL    HW225095   4.169   5.568   6.289
 8066SOL     OW25096   0.278   0.103   5.604
 8066SOL    HW125097   0.282   0.005   5.585
 8066SOL    HW225098   0.182   0.134   5.601
 8067SOL     OW25099   5.446   2.800   4.147
 8067SOL    HW125100   5.467   2.771   4.054
 8067SOL    HW225101   5.392   2.729   4.193
 8068SOL     OW25102   6.093   4.414   1.528
 8068SOL    HW125103   6.135   4.327   1.503
 8068SOL    HW225104   6.055   4.409   1.620
 8069SOL     OW25105   2.449   5.386   2.781
 8069SOL    HW125106   2.469   5.306   2.725
 8069SOL    HW225107   2.367   5.370   2.835
 8070SOL     OW25108   4.711   4.795   0.319
 8070SOL    HW125109   4.691   4.865   0.386
 8070SOL    HW225110   4.806   4.764   0.329
 8071SOL     OW25111   2.688   6.742   5.620
 8071SOL    HW125112   2.741   6.790   5.551
 8071SOL    HW225113   2.605   6.795   5.642
 8072SOL     OW25114   1.177   2.389   5.559
 8072SOL    HW125115   1.131   2.301   5.545
 8072SOL    HW225116   1.233   2.411   5.479
 8073SOL     OW25117   3.692   0.480   6.994
 8073SOL    HW125118   3.682   0.383   6.973
 8073SOL    HW225119   3.665   0.534   6.914
 8074SOL     OW25120   1.304   0.943   6.436
 8074SOL    HW125121   1.300   1.008   6.512
 8074SOL    HW225122   1.395   0.946   6.395
 8075SOL     OW25123   0.166   6.884   0.857
 8075SOL    HW125124   0.205   6.961   0.909
 8075SOL    HW225125   0.233   6.810   0.853
 8076SOL     OW25126   6.701   5.842   0.528
 8076SOL    HW125127   6.787   5.800   0.556
 8076SOL    HW225128   6.709   5.942   0.535
 8077SOL     OW25129   4.556   4.845   0.810
 8077SOL    HW125130   4.573   4.751   0.841
 8077SOL    HW225131   4.516   4.897   0.886
 8078SOL     OW25132   0.755   0.294   2.496
 8078SOL    HW125133   0.795   0.341   2.417
 8078SOL    HW225134   0.824   0.284   2.568
 8079SOL     OW25135   1.047   2.186   5.445
 8079SOL    HW125136   0.955   2.163   5.477
 8079SOL    HW225137   1.077   2.117   5.380
 8080SOL     OW25138   1.502   2.986   3.302
 8080SOL    HW125139   1.552   2.900   3.292
 8080SOL    HW225140   1.407   2.973   3.274
 8081SOL     OW25141   6.502   6.131   4.550
 8081SOL    HW125142   6.432   6.144   4.480
 8081SOL    HW225143   6.587   6.098   4.507
 8082SOL     OW25144   3.848   1.741   2.201
 8082SOL    HW125145   3.837   1.644   2.223
 8082SOL    HW225146   3.846   1.795   2.286
 8083SOL     OW25147   5.793   2.793   4.791
 8083SOL    HW125148   5.884   2.816   4.825
 8083SOL    HW225149   5.725   2.815   4.862
 8084SOL     OW25150   3.500   1.590   5.714
 8084SOL    HW125151   3.434   1.531   5.669
 8084SOL    HW225152   3.465   1.683   5.718
 8085SOL     OW25153   1.525   6.091   4.507
 8085SOL    HW125154   1.516   6.190   4.496
 8085SOL    HW225155   1.456   6.046   4.451
 8086SOL     OW25156   0.032   0.871   2.234
 8086SOL    HW125157   0.102   0.852   2.303
 8086SOL    HW225158   6.976   0.913   2.277
 8087SOL     OW25159   1.445   0.964   0.782
 8087SOL    HW125160   1.370   1.027   0.766
 8087SOL    HW225161   1.441   0.930   0.876
 8088SOL     OW25162   6.342   0.245   4.614
 8088SOL    HW125163   6.426   0.255   4.668
 8088SOL    HW225164   6.321   0.148   4.602
 8089SOL     OW25165   5.522   2.963   6.242
 8089SOL    HW125166   5.436   2.913   6.251
 8089SOL    HW225167   5.552   2.961   6.147
 8090SOL     OW25168   4.086   1.895   5.267
 8090SOL    HW125169   4.100   1.905   5.169
 8090SOL    HW225170   4.011   1.955   5.297
 8091SOL     OW25171   1.870   4.862   4.294
 8091SOL    HW125172   1.841   4.925   4.366
 8091SOL    HW225173   1.851   4.903   4.204
 8092SOL     OW25174   4.814   1.927   5.876
 8092SOL    HW125175   4.860   1.854   5.824
 8092SOL    HW225176   4.882   1.990   5.912
 8093SOL     OW25177   3.987   6.357   2.415
 8093SOL    HW125178   3.993   6.258   2.403
 8093SOL    HW225179   4.065   6.390   2.468
 8094SOL     OW25180   1.667   4.061   3.747
 8094SOL    HW125181   1.713   4.150   3.745
 8094SOL    HW225182   1.734   3.990   3.767
 8095SOL     OW25183   1.455   4.844   5.580
 8095SOL    HW125184   1.401   4.914   5.626
 8095SOL    HW225185   1.441   4.756   5.625
 8096SOL     OW25186   0.718   5.734   1.658
 8096SOL    HW125187   0.689   5.647   1.698
 8096SOL    HW225188   0.663   5.808   1.697
 8097SOL     OW25189   3.765   5.893   5.172
 8097SOL    HW125190   3.767   5.837   5.254
 8097SOL    HW225191   3.753   5.835   5.092
 8098SOL     OW25192   1.571   5.721   5.109
 8098SOL    HW125193   1.478   5.684   5.111
 8098SOL    HW225194   1.583   5.778   5.028
 8099SOL     OW25195   2.327   5.667   3.237
 8099SOL    HW125196   2.311   5.568   3.236
 8099SOL    HW225197   2.426   5.684   3.234
 8100SOL     OW25198   0.099   0.179   0.039
 8100SOL    HW125199   0.101   0.270   0.080
 8100SOL    HW225200   0.120   0.187   6.965
 8101SOL     OW25201   2.056   6.176   1.941
 8101SOL    HW125202   2.026   6.093   1.987
 8101SOL    HW225203   2.143   6.206   1.980
 8102SOL     OW25204   1.492   3.339   5.114
 8102SOL    HW125205   1.482   3.270   5.186
 8102SOL    HW225206   1.574   3.322   5.061
 8103SOL     OW25207   3.188   1.411   1.861
 8103SOL    HW125208   3.207   1.426   1.958
 8103SOL    HW225209   3.237   1.478   1.806
 8104SOL     OW25210   2.050   6.543   0.237
 8104SOL    HW125211   2.074   6.638   0.216
 8104SOL    HW225212   2.046   6.530   0.336
 8105SOL     OW25213   0.193   0.886   2.878
 8105SOL    HW125214   0.121   0.924   2.936
 8105SOL    HW225215   0.276   0.871   2.932
 8106SOL     OW25216   2.600   6.506   5.504
 8106SOL    HW125217   2.660   6.500   5.424
 8106SOL    HW225218   2.603   6.599   5.541
 8107SOL     OW25219   1.923   6.137   6.094
 8107SOL    HW125220   1.831   6.121   6.057
 8107SOL    HW225221   1.926   6.227   6.136
 8108SOL     OW25222   0.323   1.565   6.496
 8108SOL    HW125223   0.349   1.479   6.542
 8108SOL    HW225224   0.254   1.545   6.426
 8109SOL     OW25225   6.541   2.700   0.709
 8109SOL    HW125226   6.464   2.763   0.720
 8109SOL    HW225227   6.510   2.607   0.724
 8110SOL     OW25228   4.004   5.212   0.995
 8110SOL    HW125229   4.087   5.207   0.939
 8110SOL    HW225230   3.927   5.242   0.937
 8111SOL     OW25231   6.106   1.683   2.844
 8111SOL    HW125232   6.143   1.774   2.823
 8111SOL    HW225233   6.100   1.672   2.943
 8112SOL     OW25234   1.083   3.432   5.430
 8112SOL    HW125235   1.122   3.505   5.374
 8112SOL    HW225236   1.109   3.343   5.392
 8113SOL     OW25237   5.496   3.361   6.884
 8113SOL    HW125238   5.497   3.262   6.875
 8113SOL    HW225239   5.589   3.394   6.901
 8114SOL     OW25240   2.042   4.183   1.265
 8114SOL    HW125241   2.047   4.167   1.364
 8114SOL    HW225242   2.135   4.187   1.228
 8115SOL     OW25243   2.199   1.354   6.599
 8115SOL    HW125244   2.156   1.263   6.598
 8115SOL    HW225245   2.131   1.423   6.571
 8116SOL     OW25246   3.367   4.140   1.176
 8116SOL    HW125247   3.448   4.082   1.188
 8116SOL    HW225248   3.285   4.089   1.205
 8117SOL     OW25249   2.918   6.909   2.868
 8117SOL    HW125250   2.960   6.999   2.855
 8117SOL    HW225251   2.890   6.873   2.779
 8118SOL     OW25252   6.654   2.899   0.424
 8118SOL    HW125253   6.680   2.807   0.395
 8118SOL    HW225254   6.735   2.948   0.455
 8119SOL     OW25255   5.934   6.156   6.416
 8119SOL    HW125256   5.997   6.208   6.474
 8119SOL    HW225257   5.979   6.134   6.330
 8120SOL     OW25258   2.669   6.247   1.272
 8120SOL    HW125259   2.659   6.190   1.191
 8120SOL    HW225260   2.579   6.259   1.315
 8121SOL     OW25261   1.250   3.082   2.723
 8121SOL    HW125262   1.276   3.047   2.813
 8121SOL    HW225263   1.260   3.181   2.721
 8122SOL     OW25264   0.516   4.480   2.289
 8122SOL    HW125265   0.501   4.550   2.358
 8122SOL    HW225266   0.458   4.401   2.309
 8123SOL     OW25267   6.949   1.957   5.935
 8123SOL    HW125268   6.994   1.992   5.852
 8123SOL    HW225269   7.011   1.966   6.012
 8124SOL     OW25270   5.435   4.619   4.603
 8124SOL    HW125271   5.397   4.527   4.593
 8124SOL    HW225272   5.534   4.614   4.602
 8125SOL     OW25273   1.350   6.123   2.675
 8125SOL    HW125274   1.432   6.163   2.716
 8125SOL    HW225275   1.276   6.122   2.742
 8126SOL     OW25276   3.939   4.832   4.066
 8126SOL    HW125277   3.956   4.919   4.019
 8126SOL    HW225278   4.025   4.783   4.079
 8127SOL     OW25279   3.586   2.910   6.909
 8127SOL    HW125280   3.642   2.827   6.902
 8127SOL    HW225281   3.633   2.977   6.966
 8128SOL     OW25282   3.618   2.800   2.020
 8128SOL    HW125283   3.556   2.755   2.085
 8128SOL    HW225284   3.620   2.749   1.934
 8129SOL     OW25285   1.142   2.774   1.120
 8129SOL    HW125286   1.079   2.698   1.109
 8129SOL    HW225287   1.114   2.850   1.061
 8130SOL     OW25288   1.205   5.147   6.893
 8130SOL    HW125289   1.238   5.205   6.967
 8130SOL    HW225290   1.189   5.203   6.812
 8131SOL     OW25291   1.998   3.520   0.470
 8131SOL    HW125292   2.002   3.598   0.533
 8131SOL    HW225293   1.905   3.482   0.471
 8132SOL     OW25294   0.007   6.918   4.909
 8132SOL    HW125295   6.958   6.850   4.902
 8132SOL    HW225296   0.013   6.970   4.823
 8133SOL     OW25297   3.406   5.223   0.913
 8133SOL    HW125298   3.402   5.142   0.856
 8133SOL    HW225299   3.314   5.262   0.922
 8134SOL     OW25300   5.927   1.155   5.231
 8134SOL    HW125301   5.990   1.079   5.245
 8134SOL    HW225302   5.889   1.150   5.139
 8135SOL     OW25303   2.168   0.038   1.546
 8135SOL    HW125304   2.263   0.024   1.577
 8135SOL    HW225305   2.159   0.006   1.452
 8136SOL     OW25306   4.533   4.925   2.483
 8136SOL    HW125307   4.448   4.940   2.533
 8136SOL    HW225308   4.512   4.901   2.388
 8137SOL     OW25309   3.918   1.734   4.464
 8137SOL    HW125310   3.937   1.783   4.548
 8137SOL    HW225311   3.922   1.635   4.481
 8138SOL     OW25312   4.469   1.088   1.362
 8138SOL    HW125313   4.387   1.043   1.327
 8138SOL    HW225314   4.445   1.179   1.396
 8139SOL     OW25315   1.007   2.315   3.193
 8139SOL    HW125316   0.933   2.347   3.252
 8139SOL    HW225317   0.996   2.354   3.102
 8140SOL     OW25318   3.594   0.721   3.671
 8140SOL    HW125319   3.640   0.642   3.711
 8140SOL    HW225320   3.663   0.790   3.648
 8141SOL     OW25321   4.499   4.955   4.827
 8141SOL    HW125322   4.505   5.025   4.756
 8141SOL    HW225323   4.413   4.905   4.819
 8142SOL     OW25324   5.963   5.735   0.338
 8142SOL    HW125325   5.887   5.686   0.295
 8142SOL    HW225326   5.962   5.719   0.436
 8143SOL     OW25327   6.433   4.046   4.969
 8143SOL    HW125328   6.411   4.019   4.875
 8143SOL    HW225329   6.359   4.020   5.030
 8144SOL     OW25330   5.712   6.534   6.619
 8144SOL    HW125331   5.688   6.438   6.611
 8144SOL    HW225332   5.784   6.546   6.688
 8145SOL     OW25333   5.967   6.120   2.198
 8145SOL    HW125334   5.945   6.217   2.210
 8145SOL    HW225335   6.064   6.111   2.174
 8146SOL     OW25336   3.040   1.415   4.940
 8146SOL    HW125337   3.075   1.504   4.914
 8146SOL    HW225338   3.097   1.376   5.013
 8147SOL     OW25339   4.674   1.674   3.834
 8147SOL    HW125340   4.685   1.666   3.735
 8147SOL    HW225341   4.594   1.730   3.854
 8148SOL     OW25342   5.481   3.770   3.564
 8148SOL    HW125343   5.559   3.734   3.615
 8148SOL    HW225344   5.437   3.695   3.513
 8149SOL     OW25345   4.049   5.129   3.383
 8149SOL    HW125346   4.019   5.049   3.435
 8149SOL    HW225347   4.007   5.212   3.422
 8150SOL     OW25348   0.605   5.537   6.919
 8150SOL    HW125349   0.544   5.606   6.957
 8150SOL    HW225350   0.565   5.446   6.931
 8151SOL     OW25351   1.069   1.696   5.278
 8151SOL    HW125352   1.126   1.634   5.224
 8151SOL    HW225353   1.031   1.646   5.356
 8152SOL     OW25354   1.567   0.767   2.916
 8152SOL    HW125355   1.473   0.798   2.903
 8152SOL    HW225356   1.628   0.846   2.917
 8153SOL     OW25357   2.043   6.322   0.812
 8153SOL    HW125358   2.036   6.226   0.838
 8153SOL    HW225359   2.037   6.379   0.894
 8154SOL     OW25360   2.170   6.508   3.875
 8154SOL    HW125361   2.175   6.527   3.973
 8154SOL    HW225362   2.106   6.573   3.832
 8155SOL     OW25363   2.863   3.502   3.554
 8155SOL    HW125364   2.824   3.491   3.645
 8155SOL    HW225365   2.914   3.588   3.549
 8156SOL     OW25366   6.470   0.225   6.014
 8156SOL    HW125367   6.488   0.254   5.919
 8156SOL    HW225368   6.399   0.284   6.053
 8157SOL     OW25369   6.361   3.625   6.523
 8157SOL    HW125370   6.371   3.723   6.537
 8157SOL    HW225371   6.451   3.582   6.521
 8158SOL     OW25372   1.449   5.197   2.112
 8158SOL    HW125373   1.417   5.288   2.085
 8158SOL    HW225374   1.457   5.193   2.211
 8159SOL     OW25375   1.751   6.126   2.269
 8159SOL    HW125376   1.783   6.176   2.350
 8159SOL    HW225377   1.680   6.060   2.296
 8160SOL     OW25378   4.515   2.334   1.641
 8160SOL    HW125379   4.577   2.357   1.716
 8160SOL    HW225380   4.485   2.239   1.650
 8161SOL     OW25381   5.308   1.493   0.870
 8161SOL    HW125382   5.302   1.409   0.815
 8161SOL    HW225383   5.285   1.473   0.965
 8162SOL     OW25384   6.125   0.491   1.852
 8162SOL    HW125385   6.099   0.526   1.942
 8162SOL    HW225386   6.184   0.410   1.863
 8163SOL     OW25387   2.084   4.072   5.167
 8163SOL    HW125388   2.172   4.026   5.156
 8163SOL    HW225389   2.099   4.167   5.193
 8164SOL     OW25390   4.360   2.400   2.221
 8164SOL    HW125391   4.288   2.462   2.253
 8164SOL    HW225392   4.411   2.443   2.147
 8165SOL     OW25393   2.337   4.940   1.478
 8165SOL    HW125394   2.299   4.848   1.479
 8165SOL    HW225395   2.287   4.997   1.544
 8166SOL     OW25396   2.902   6.709   1.905
 8166SOL    HW125397   2.942   6.742   1.819
 8166SOL    HW225398   2.903   6.784   1.972
 8167SOL     OW25399   6.177   2.556   3.697
 8167SOL    HW125400   6.184   2.596   3.788
 8167SOL    HW225401   6.165   2.457   3.705
 8168SOL     OW25402   3.101   1.421   2.990
 8168SOL    HW125403   3.022   1.420   3.051
 8168SOL    HW225404   3.166   1.489   3.021
 8169SOL     OW25405   4.514   3.375   6.368
 8169SOL    HW125406   4.437   3.396   6.427
 8169SOL    HW225407   4.506   3.425   6.282
 8170SOL     OW25408   0.656   5.415   3.713
 8170SOL    HW125409   0.729   5.365   3.759
 8170SOL    HW225410   0.631   5.366   3.629
 8171SOL     OW25411   0.527   1.957   5.777
 8171SOL    HW125412   0.444   1.969   5.831
 8171SOL    HW225413   0.564   1.865   5.792
 8172SOL     OW25414   7.003   6.424   1.014
 8172SOL    HW125415   6.969   6.472   0.933
 8172SOL    HW225416   0.060   6.370   0.990
 8173SOL     OW25417   4.268   2.597   6.703
 8173SOL    HW125418   4.216   2.677   6.673
 8173SOL    HW225419   4.210   2.539   6.760
 8174SOL     OW25420   5.906   0.423   2.357
 8174SOL    HW125421   5.983   0.409   2.420
 8174SOL    HW225422   5.833   0.358   2.380
 8175SOL     OW25423   0.947   3.270   6.244
 8175SOL    HW125424   0.914   3.228   6.159
 8175SOL    HW225425   1.000   3.352   6.222
 8176SOL     OW25426   2.748   5.750   2.268
 8176SOL    HW125427   2.831   5.698   2.283
 8176SOL    HW225428   2.764   5.820   2.198
 8177SOL     OW25429   0.505   6.534   5.383
 8177SOL    HW125430   0.414   6.519   5.422
 8177SOL    HW225431   0.572   6.542   5.456
 8178SOL     OW25432   2.222   6.696   6.442
 8178SOL    HW125433   2.170   6.708   6.526
 8178SOL    HW225434   2.313   6.735   6.453
 8179SOL     OW25435   3.230   1.442   0.340
 8179SOL    HW125436   3.290   1.449   0.261
 8179SOL    HW225437   3.202   1.347   0.354
 8180SOL     OW25438   5.908   5.904   5.435
 8180SOL    HW125439   5.979   5.859   5.490
 8180SOL    HW225440   5.927   6.002   5.432
 8181SOL     OW25441   2.470   2.557   2.791
 8181SOL    HW125442   2.553   2.504   2.811
 8181SOL    HW225443   2.469   2.581   2.694
 8182SOL     OW25444   3.806   3.063   5.480
 8182SOL    HW125445   3.797   2.964   5.469
 8182SOL    HW225446   3.785   3.108   5.393
 8183SOL     OW25447   1.243   3.377   4.756
 8183SOL    HW125448   1.235   3.430   4.841
 8183SOL    HW225449   1.191   3.423   4.684
 8184SOL     OW25450   6.043   6.264   5.823
 8184SOL    HW125451   6.009   6.358   5.818
 8184SOL    HW225452   5.973   6.205   5.862
 8185SOL     OW25453   2.177   1.702   2.698
 8185SOL    HW125454   2.215   1.639   2.766
 8185SOL    HW225455   2.251   1.739   2.642
 8186SOL     OW25456   3.819   5.244   6.022
 8186SOL    HW125457   3.737   5.198   5.987
 8186SOL    HW225458   3.826   5.226   6.120
 8187SOL     OW25459   1.106   1.975   5.291
 8187SOL    HW125460   1.197   1.984   5.252
 8187SOL    HW225461   1.074   1.881   5.281
 8188SOL     OW25462   5.589   3.637   2.924
 8188SOL    HW125463   5.623   3.656   2.832
 8188SOL    HW225464   5.663   3.600   2.980
 8189SOL     OW25465   6.018   4.326   2.297
 8189SOL    HW125466   5.970   4.312   2.210
 8189SOL    HW225467   6.110   4.288   2.291
 8190SOL     OW25468   4.885   3.693   3.033
 8190SOL    HW125469   4.804   3.676   3.090
 8190SOL    HW225470   4.885   3.788   3.002
 8191SOL     OW25471   0.712   5.227   3.213
 8191SOL    HW125472   0.711   5.254   3.117
 8191SOL    HW225473   0.694   5.129   3.219
 8192SOL     OW25474   1.602   4.393   1.469
 8192SOL    HW125475   1.661   4.329   1.517
 8192SOL    HW225476   1.571   4.353   1.383
 8193SOL     OW25477   4.152   0.415   5.981
 8193SOL    HW125478   4.084   0.450   6.045
 8193SOL    HW225479   4.173   0.486   5.913
 8194SOL     OW25480   1.113   0.268   0.816
 8194SOL    HW125481   1.077   0.201   0.881
 8194SOL    HW225482   1.042   0.336   0.796
 8195SOL     OW25483   6.549   0.088   0.832
 8195SOL    HW125484   6.603   0.110   0.751
 8195SOL    HW225485   6.477   0.155   0.844
 8196SOL     OW25486   2.401   0.257   6.189
 8196SOL    HW125487   2.403   0.307   6.275
 8196SOL    HW225488   2.351   0.310   6.121
 8197SOL     OW25489   0.798   6.974   6.670
 8197SOL    HW125490   0.894   6.975   6.697
 8197SOL    HW225491   0.750   0.026   6.716
 8198SOL     OW25492   3.649   6.101   2.791
 8198SOL    HW125493   3.644   6.199   2.811
 8198SOL    HW225494   3.724   6.085   2.727
 8199SOL     OW25495   6.067   3.492   0.420
 8199SOL    HW125496   6.084   3.538   0.507
 8199SOL    HW225497   5.994   3.425   0.432
 8200SOL     OW25498   5.186   3.498   1.369
 8200SOL    HW125499   5.234   3.442   1.301
 8200SOL    HW225500   5.092   3.513   1.338
 8201SOL     OW25501   6.177   0.789   4.105
 8201SOL    HW125502   6.168   0.690   4.096
 8201SOL    HW225503   6.255   0.821   4.052
 8202SOL     OW25504   1.621   4.416   3.287
 8202SOL    HW125505   1.635   4.344   3.221
 8202SOL    HW225506   1.612   4.504   3.240
 8203SOL     OW25507   5.761   3.394   1.011
 8203SOL    HW125508   5.767   3.307   0.961
 8203SOL    HW225509   5.732   3.375   1.105
 8204SOL     OW25510   3.436   0.186   0.944
 8204SOL    HW125511   3.498   0.119   0.984
 8204SOL    HW225512   3.349   0.185   0.994
 8205SOL     OW25513   6.223   5.296   3.212
 8205SOL    HW125514   6.132   5.271   3.242
 8205SOL    HW225515   6.276   5.331   3.290
 8206SOL     OW25516   4.593   1.920   4.221
 8206SOL    HW125517   4.643   1.952   4.141
 8206SOL    HW225518   4.513   1.978   4.236
 8207SOL     OW25519   2.970   6.289   6.840
 8207SOL    HW125520   3.055   6.271   6.792
 8207SOL    HW225521   2.921   6.365   6.796
 8208SOL     OW25522   1.220   4.712   6.238
 8208SOL    HW125523   1.144   4.699   6.174
 8208SOL    HW225524   1.289   4.770   6.195
 8209SOL     OW25525   0.257   6.560   5.476
 8209SOL    HW125526   0.240   6.496   5.551
 8209SOL    HW225527   0.174   6.572   5.422
 8210SOL     OW25528   2.487   2.026   0.027
 8210SOL    HW125529   2.409   2.082   7.022
 8210SOL    HW225530   2.508   1.959   6.979
 8211SOL     OW25531   2.976   3.266   4.512
 8211SOL    HW125532   3.033   3.184   4.514
 8211SOL    HW225533   2.949   3.290   4.606
 8212SOL     OW25534   3.687   6.817   0.720
 8212SOL    HW125535   3.698   6.733   0.667
 8212SOL    HW225536   3.590   6.844   0.719
 8213SOL     OW25537   4.201   4.140   1.705
 8213SOL    HW125538   4.151   4.223   1.683
 8213SOL    HW225539   4.291   4.164   1.742
 8214SOL     OW25540   3.888   5.232   4.272
 8214SOL    HW125541   3.820   5.246   4.201
 8214SOL    HW225542   3.845   5.190   4.352
 8215SOL     OW25543   3.480   6.200   6.928
 8215SOL    HW125544   3.448   6.181   6.835
 8215SOL    HW225545   3.577   6.179   6.935
 8216SOL     OW25546   5.906   4.789   1.892
 8216SOL    HW125547   5.888   4.845   1.972
 8216SOL    HW225548   5.888   4.693   1.914
 8217SOL     OW25549   2.720   6.211   4.090
 8217SOL    HW125550   2.639   6.230   4.145
 8217SOL    HW225551   2.724   6.274   4.013
 8218SOL     OW25552   3.039   6.891   4.941
 8218SOL    HW125553   2.957   6.872   4.995
 8218SOL    HW225554   3.026   6.975   4.889
 8219SOL     OW25555   3.914   2.827   1.251
 8219SOL    HW125556   3.905   2.876   1.338
 8219SOL    HW225557   3.934   2.731   1.270
 8220SOL     OW25558   3.952   3.942   4.376
 8220SOL    HW125559   3.984   3.953   4.282
 8220SOL    HW225560   3.860   3.902   4.376
 8221SOL     OW25561   5.407   4.136   3.088
 8221SOL    HW125562   5.417   4.218   3.032
 8221SOL    HW225563   5.495   4.114   3.131
 8222SOL     OW25564   6.898   2.997   0.543
 8222SOL    HW125565   6.954   3.016   0.463
 8222SOL    HW225566   6.957   2.971   0.620
 8223SOL     OW25567   1.774   6.237   5.639
 8223SOL    HW125568   1.778   6.147   5.595
 8223SOL    HW225569   1.850   6.294   5.606
 8224SOL     OW25570   5.353   1.596   0.464
 8224SOL    HW125571   5.440   1.611   0.417
 8224SOL    HW225572   5.284   1.659   0.428
 8225SOL     OW25573   5.379   1.919   0.276
 8225SOL    HW125574   5.318   1.873   0.340
 8225SOL    HW225575   5.454   1.962   0.326
 8226SOL     OW25576   4.205   0.573   0.499
 8226SOL    HW125577   4.162   0.591   0.587
 8226SOL    HW225578   4.245   0.658   0.463
 8227SOL     OW25579   4.428   2.450   2.903
 8227SOL    HW125580   4.524   2.470   2.925
 8227SOL    HW225581   4.371   2.472   2.982
 8228SOL     OW25582   2.201   6.873   4.766
 8228SOL    HW125583   2.287   6.914   4.736
 8228SOL    HW225584   2.124   6.925   4.728
 8229SOL     OW25585   4.694   4.533   0.477
 8229SOL    HW125586   4.731   4.622   0.504
 8229SOL    HW225587   4.768   4.466   0.472
 8230SOL     OW25588   5.504   0.640   6.539
 8230SOL    HW125589   5.489   0.609   6.633
 8230SOL    HW225590   5.562   0.574   6.491
 8231SOL     OW25591   2.687   2.126   2.834
 8231SOL    HW125592   2.763   2.074   2.794
 8231SOL    HW225593   2.690   2.118   2.934
 8232SOL     OW25594   3.545   5.663   3.363
 8232SOL    HW125595   3.633   5.621   3.340
 8232SOL    HW225596   3.560   5.738   3.428
 8233SOL     OW25597   0.591   1.377   6.088
 8233SOL    HW125598   0.691   1.369   6.082
 8233SOL    HW225599   0.558   1.317   6.161
 8234SOL     OW25600   0.679   1.974   0.676
 8234SOL    HW125601   0.617   2.004   0.603
 8234SOL    HW225602   0.628   1.965   0.761
 8235SOL     OW25603   0.688   6.871   1.415
 8235SOL    HW125604   0.673   6.824   1.501
 8235SOL    HW225605   0.746   6.951   1.430
 8236SOL     OW25606   0.900   6.678   1.740
 8236SOL    HW125607   0.915   6.657   1.836
 8236SOL    HW225608   0.811   6.724   1.729
 8237SOL     OW25609   4.261   5.203   6.477
 8237SOL    HW125610   4.173   5.229   6.438
 8237SOL    HW225611   4.329   5.193   6.403
 8238SOL     OW25612   0.294   4.715   0.397
 8238SOL    HW125613   0.289   4.762   0.485
 8238SOL    HW225614   0.390   4.696   0.374
 8239SOL     OW25615   1.555   1.614   5.522
 8239SOL    HW125616   1.643   1.635   5.565
 8239SOL    HW225617   1.562   1.528   5.472
 8240SOL     OW25618   3.169   3.651   4.946
 8240SOL    HW125619   3.181   3.707   4.864
 8240SOL    HW225620   3.072   3.646   4.968
 8241SOL     OW25621   2.135   4.327   5.284
 8241SOL    HW125622   2.191   4.258   5.330
 8241SOL    HW225623   2.071   4.368   5.349
 8242SOL     OW25624   0.795   3.270   3.094
 8242SOL    HW125625   0.871   3.335   3.108
 8242SOL    HW225626   0.832   3.178   3.085
 8243SOL     OW25627   1.959   5.654   4.059
 8243SOL    HW125628   2.012   5.693   3.984
 8243SOL    HW225629   2.008   5.668   4.145
 8244SOL     OW25630   6.715   1.395   4.011
 8244SOL    HW125631   6.804   1.438   4.025
 8244SOL    HW225632   6.728   1.298   3.992
 8245SOL     OW25633   5.331   2.162   2.918
 8245SOL    HW125634   5.344   2.219   2.837
 8245SOL    HW225635   5.419   2.128   2.950
 8246SOL     OW25636   1.542   4.855   6.549
 8246SOL    HW125637   1.589   4.770   6.525
 8246SOL    HW225638   1.452   4.834   6.587
 8247SOL     OW25639   3.042   5.872   2.953
 8247SOL    HW125640   2.952   5.884   2.994
 8247SOL    HW225641   3.059   5.947   2.888
 8248SOL     OW25642   6.727   5.502   2.932
 8248SOL    HW125643   6.729   5.433   3.005
 8248SOL    HW225644   6.722   5.455   2.843
 8249SOL     OW25645   3.187   1.303   6.754
 8249SOL    HW125646   3.203   1.361   6.834
 8249SOL    HW225647   3.153   1.360   6.678
 8250SOL     OW25648   0.988   1.810   0.125
 8250SOL    HW125649   0.901   1.820   0.077
 8250SOL    HW225650   0.978   1.742   0.199
 8251SOL     OW25651   1.086   2.898   5.257
 8251SOL    HW125652   1.006   2.900   5.197
 8251SOL    HW225653   1.167   2.927   5.206
 8252SOL     OW25654   1.179   2.344   6.571
 8252SOL    HW125655   1.222   2.264   6.612
 8252SOL    HW225656   1.082   2.347   6.599
 8253SOL     OW25657   4.159   5.859   0.348
 8253SOL    HW125658   4.179   5.843   0.251
 8253SOL    HW225659   4.209   5.793   0.404
 8254SOL     OW25660   5.471   5.626   6.815
 8254SOL    HW125661   5.480   5.641   6.717
 8254SOL    HW225662   5.376   5.602   6.836
 8255SOL     OW25663   2.357   1.027   5.734
 8255SOL    HW125664   2.268   0.982   5.732
 8255SOL    HW225665   2.429   0.959   5.717
 8256SOL     OW25666   1.605   4.818   5.139
 8256SOL    HW125667   1.564   4.776   5.221
 8256SOL    HW225668   1.591   4.917   5.142
 8257SOL     OW25669   5.062   3.994   2.676
 8257SOL    HW125670   5.091   3.958   2.765
 8257SOL    HW225671   5.115   3.951   2.603
 8258SOL     OW25672   0.014   3.076   2.205
 8258SOL    HW125673   0.068   2.997   2.232
 8258SOL    HW225674   0.052   3.159   2.246
 8259SOL     OW25675   5.499   1.694   3.733
 8259SOL    HW125676   5.448   1.687   3.647
 8259SOL    HW225677   5.491   1.786   3.769
 8260SOL     OW25678   3.924   2.284   0.995
 8260SOL    HW125679   4.000   2.222   0.972
 8260SOL    HW225680   3.912   2.287   1.094
 8261SOL     OW25681   5.387   1.207   2.539
 8261SOL    HW125682   5.314   1.271   2.514
 8261SOL    HW225683   5.348   1.129   2.587
 8262SOL     OW25684   5.645   3.476   1.625
 8262SOL    HW125685   5.632   3.493   1.527
 8262SOL    HW225686   5.569   3.421   1.659
 8263SOL     OW25687   6.133   2.111   5.742
 8263SOL    HW125688   6.052   2.090   5.687
 8263SOL    HW225689   6.115   2.192   5.797
 8264SOL     OW25690   3.270   0.126   2.804
 8264SOL    HW125691   3.195   0.118   2.871
 8264SOL    HW225692   3.357   0.136   2.852
 8265SOL     OW25693   4.468   6.421   0.727
 8265SOL    HW125694   4.552   6.431   0.673
 8265SOL    HW225695   4.389   6.418   0.666
 8266SOL     OW25696   3.281   0.959   3.650
 8266SOL    HW125697   3.205   0.941   3.712
 8266SOL    HW225698   3.245   0.982   3.559
 8267SOL     OW25699   1.952   3.453   2.440
 8267SOL    HW125700   1.890   3.379   2.466
 8267SOL    HW225701   1.981   3.441   2.345
 8268SOL     OW25702   3.173   4.703   6.615
 8268SOL    HW125703   3.112   4.774   6.579
 8268SOL    HW225704   3.156   4.617   6.567
 8269SOL     OW25705   6.227   2.988   4.561
 8269SOL    HW125706   6.187   2.956   4.647
 8269SOL    HW225707   6.312   2.937   4.543
 8270SOL     OW25708   3.879   6.692   6.683
 8270SOL    HW125709   3.951   6.624   6.694
 8270SOL    HW225710   3.912   6.767   6.626
 8271SOL     OW25711   3.601   6.341   6.423
 8271SOL    HW125712   3.675   6.276   6.404
 8271SOL    HW225713   3.609   6.419   6.361
 8272SOL     OW25714   0.971   0.397   2.120
 8272SOL    HW125715   0.959   0.484   2.168
 8272SOL    HW225716   1.028   0.336   2.174
 8273SOL     OW25717   4.170   0.860   0.425
 8273SOL    HW125718   4.084   0.848   0.375
 8273SOL    HW225719   4.150   0.881   0.521
 8274SOL     OW25720   5.282   6.447   5.434
 8274SOL    HW125721   5.237   6.412   5.516
 8274SOL    HW225722   5.350   6.381   5.402
 8275SOL     OW25723   5.347   0.417   4.004
 8275SOL    HW125724   5.276   0.466   4.054
 8275SOL    HW225725   5.396   0.357   4.066
 8276SOL     OW25726   6.570   2.138   6.926
 8276SOL    HW125727   6.639   2.109   6.860
 8276SOL    HW225728   6.612   2.197   6.995
 8277SOL     OW25729   1.296   0.277   0.017
 8277SOL    HW125730   1.214   0.264   6.985
 8277SOL    HW225731   1.352   0.194   0.013
 8278SOL     OW25732   2.498   1.682   1.016
 8278SOL    HW125733   2.555   1.623   1.075
 8278SOL    HW225734   2.450   1.748   1.073
 8279SOL     OW25735   3.550   6.079   5.402
 8279SOL    HW125736   3.551   5.983   5.432
 8279SOL    HW225737   3.532   6.139   5.480
 8280SOL     OW25738   5.510   4.253   0.048
 8280SOL    HW125739   5.548   4.163   0.028
 8280SOL    HW225740   5.577   4.323   0.024
 8281SOL     OW25741   2.670   5.377   0.113
 8281SOL    HW125742   2.713   5.332   0.191
 8281SOL    HW225743   2.586   5.423   0.142
 8282SOL     OW25744   2.962   2.836   1.602
 8282SOL    HW125745   2.894   2.783   1.652
 8282SOL    HW225746   3.041   2.853   1.660
 8283SOL     OW25747   0.386   6.785   3.943
 8283SOL    HW125748   0.347   6.814   4.030
 8283SOL    HW225749   0.469   6.731   3.960
 8284SOL     OW25750   3.461   1.607   2.127
 8284SOL    HW125751   3.377   1.553   2.125
 8284SOL    HW225752   3.446   1.694   2.080
 8285SOL     OW25753   2.120   4.451   6.923
 8285SOL    HW125754   2.183   4.512   6.875
 8285SOL    HW225755   2.071   4.394   6.857
 8286SOL     OW25756   5.241   2.462   5.150
 8286SOL    HW125757   5.201   2.536   5.095
 8286SOL    HW225758   5.170   2.421   5.207
 8287SOL     OW25759   1.700   6.911   4.031
 8287SOL    HW125760   1.664   7.002   4.013
 8287SOL    HW225761   1.697   6.893   4.130
 8288SOL     OW25762   2.094   0.347   2.696
 8288SOL    HW125763   2.025   0.275   2.699
 8288SOL    HW225764   2.049   0.436   2.688
 8289SOL     OW25765   5.963   1.240   6.348
 8289SOL    HW125766   5.916   1.168   6.400
 8289SOL    HW225767   6.049   1.263   6.394
 8290SOL     OW25768   4.596   2.880   1.715
 8290SOL    HW125769   4.510   2.867   1.763
 8290SOL    HW225770   4.631   2.972   1.734
 8291SOL     OW25771   4.256   5.880   6.567
 8291SOL    HW125772   4.187   5.900   6.636
 8291SOL    HW225773   4.213   5.881   6.476
 8292SOL     OW25774   0.533   3.455   4.855
 8292SOL    HW125775   0.497   3.362   4.863
 8292SOL    HW225776   0.587   3.477   4.936
 8293SOL     OW25777   3.137   5.294   3.645
 8293SOL    HW125778   3.039   5.300   3.627
 8293SOL    HW225779   3.185   5.274   3.559
 8294SOL     OW25780   4.550   3.744   5.838
 8294SOL    HW125781   4.550   3.745   5.938
 8294SOL    HW225782   4.567   3.837   5.804
 8295SOL     OW25783   5.126   4.977   2.204
 8295SOL    HW125784   5.091   5.022   2.287
 8295SOL    HW225785   5.159   4.886   2.227
 8296SOL     OW25786   4.012   0.011   2.084
 8296SOL    HW125787   4.074   0.044   2.013
 8296SOL    HW225788   3.979   0.089   2.138
 8297SOL     OW25789   5.219   4.532   3.754
 8297SOL    HW125790   5.132   4.495   3.722
 8297SOL    HW225791   5.260   4.589   3.682
 8298SOL     OW25792   0.137   6.784   6.996
 8298SOL    HW125793   0.161   6.740   6.909
 8298SOL    HW225794   0.105   6.715   0.037
 8299SOL     OW25795   0.939   3.420   0.946
 8299SOL    HW125796   0.874   3.366   0.999
 8299SOL    HW225797   0.944   3.385   0.853
 8300SOL     OW25798   6.025   5.006   3.679
 8300SOL    HW125799   5.946   5.047   3.633
 8300SOL    HW225800   6.092   4.977   3.611
 8301SOL     OW25801   5.585   6.897   0.532
 8301SOL    HW125802   5.557   6.843   0.453
 8301SOL    HW225803   5.564   6.846   0.616
 8302SOL     OW25804   3.823   0.105   5.515
 8302SOL    HW125805   3.841   0.171   5.588
 8302SOL    HW225806   3.731   0.119   5.478
 8303SOL     OW25807   0.422   5.270   2.666
 8303SOL    HW125808   0.508   5.274   2.717
 8303SOL    HW225809   0.363   5.200   2.705
 8304SOL     OW25810   5.741   4.734   3.435
 8304SOL    HW125811   5.840   4.720   3.434
 8304SOL    HW225812   5.721   4.831   3.421
 8305SOL     OW25813   5.573   6.524   5.087
 8305SOL    HW125814   5.617   6.565   5.007
 8305SOL    HW225815   5.585   6.425   5.085
 8306SOL     OW25816   0.012   1.676   2.864
 8306SOL    HW125817   7.016   1.750   2.929
 8306SOL    HW225818   6.965   1.605   2.873
 8307SOL     OW25819   1.562   3.243   2.621
 8307SOL    HW125820   1.515   3.181   2.558
 8307SOL    HW225821   1.515   3.331   2.623
 8308SOL     OW25822   1.029   5.119   1.016
 8308SOL    HW125823   1.091   5.103   0.939
 8308SOL    HW225824   1.028   5.038   1.074
 8309SOL     OW25825   6.823   4.742   4.484
 8309SOL    HW125826   6.807   4.821   4.543
 8309SOL    HW225827   6.877   4.674   4.534
 8310SOL     OW25828   1.764   0.218   0.941
 8310SOL    HW125829   1.730   0.185   0.852
 8310SOL    HW225830   1.711   0.176   1.014
 8311SOL     OW25831   5.546   5.438   3.138
 8311SOL    HW125832   5.548   5.491   3.053
 8311SOL    HW225833   5.463   5.461   3.189
 8312SOL     OW25834   5.838   1.533   0.440
 8312SOL    HW125835   5.883   1.443   0.439
 8312SOL    HW225836   5.868   1.584   0.520
 8313SOL     OW25837   5.685   2.587   5.819
 8313SOL    HW125838   5.705   2.653   5.746
 8313SOL    HW225839   5.758   2.519   5.823
 8314SOL     OW25840   4.725   5.894   4.084
 8314SOL    HW125841   4.628   5.918   4.073
 8314SOL    HW225842   4.736   5.840   4.167
 8315SOL     OW25843   3.319   3.449   4.839
 8315SOL    HW125844   3.241   3.393   4.809
 8315SOL    HW225845   3.287   3.529   4.889
 8316SOL     OW25846   2.295   2.201   5.834
 8316SOL    HW125847   2.337   2.289   5.859
 8316SOL    HW225848   2.356   2.152   5.772
 8317SOL     OW25849   0.955   2.232   3.743
 8317SOL    HW125850   0.977   2.327   3.723
 8317SOL    HW225851   1.032   2.189   3.791
 8318SOL     OW25852   4.642   0.162   6.333
 8318SOL    HW125853   4.665   0.258   6.320
 8318SOL    HW225854   4.586   0.130   6.257
 8319SOL     OW25855   2.372   5.638   6.494
 8319SOL    HW125856   2.347   5.583   6.414
 8319SOL    HW225857   2.319   5.608   6.573
 8320SOL     OW25858   3.289   3.306   5.065
 8320SOL    HW125859   3.333   3.325   4.978
 8320SOL    HW225860   3.202   3.259   5.049
 8321SOL     OW25861   0.046   6.976   0.618
 8321SOL    HW125862   0.078   6.932   0.702
 8321SOL    HW225863   0.122   6.982   0.552
 8322SOL     OW25864   0.689   6.387   0.086
 8322SOL    HW125865   0.687   6.414   7.013
 8322SOL    HW225866   0.667   6.466   0.143
 8323SOL     OW25867   5.552   4.418   0.646
 8323SOL    HW125868   5.548   4.329   0.600
 8323SOL    HW225869   5.471   4.471   0.621
 8324SOL     OW25870   4.818   6.078   6.998
 8324SOL    HW125871   4.822   6.172   6.964
 8324SOL    HW225872   4.753   6.025   6.944
 8325SOL     OW25873   1.365   6.455   6.122
 8325SOL    HW125874   1.386   6.500   6.036
 8325SOL    HW225875   1.439   6.392   6.146
 8326SOL     OW25876   1.351   2.947   6.208
 8326SOL    HW125877   1.401   2.860   6.217
 8326SOL    HW225878   1.340   2.989   6.298
 8327SOL     OW25879   1.599   5.852   4.870
 8327SOL    HW125880   1.676   5.916   4.868
 8327SOL    HW225881   1.611   5.783   4.798
 8328SOL     OW25882   0.726   6.100   7.006
 8328SOL    HW125883   0.654   6.057   6.952
 8328SOL    HW225884   0.701   6.195   0.002
 8329SOL     OW25885   1.695   3.299   4.925
 8329SOL    HW125886   1.783   3.276   4.967
 8329SOL    HW225887   1.702   3.387   4.878
 8330SOL     OW25888   3.322   1.142   6.925
 8330SOL    HW125889   3.250   1.128   6.993
 8330SOL    HW225890   3.281   1.173   6.839
 8331SOL     OW25891   1.633   2.816   5.959
 8331SOL    HW125892   1.650   2.719   5.979
 8331SOL    HW225893   1.540   2.826   5.923
 8332SOL     OW25894   6.324   4.533   1.701
 8332SOL    HW125895   6.423   4.524   1.692
 8332SOL    HW225896   6.297   4.628   1.683
 8333SOL     OW25897   1.809   4.148   0.259
 8333SOL    HW125898   1.778   4.141   0.164
 8333SOL    HW225899   1.858   4.234   0.272
 8334SOL     OW25900   2.829   2.312   5.987
 8334SOL    HW125901   2.928   2.314   5.976
 8334SOL    HW225902   2.803   2.231   6.040
 8335SOL     OW25903   5.379   4.715   6.235
 8335SOL    HW125904   5.306   4.783   6.239
 8335SOL    HW225905   5.439   4.725   6.314
 8336SOL     OW25906   1.056   4.118   3.449
 8336SOL    HW125907   1.028   4.200   3.499
 8336SOL    HW225908   0.988   4.046   3.463
 8337SOL     OW25909   0.391   1.334   4.244
 8337SOL    HW125910   0.440   1.249   4.224
 8337SOL    HW225911   0.436   1.410   4.196
 8338SOL     OW25912   3.200   5.302   1.186
 8338SOL    HW125913   3.246   5.320   1.273
 8338SOL    HW225914   3.102   5.318   1.197
 8339SOL     OW25915   5.894   0.580   1.431
 8339SOL    HW125916   5.830   0.634   1.485
 8339SOL    HW225917   5.987   0.596   1.464
 8340SOL     OW25918   5.733   2.094   6.887
 8340SOL    HW125919   5.788   2.015   6.860
 8340SOL    HW225920   5.659   2.064   6.947
 8341SOL     OW25921   3.861   1.331   1.021
 8341SOL    HW125922   3.808   1.356   1.102
 8341SOL    HW225923   3.799   1.297   0.950
 8342SOL     OW25924   4.652   0.682   0.470
 8342SOL    HW125925   4.583   0.649   0.535
 8342SOL    HW225926   4.607   0.734   0.397
 8343SOL     OW25927   5.424   4.289   3.519
 8343SOL    HW125928   5.411   4.277   3.617
 8343SOL    HW225929   5.460   4.205   3.479
 8344SOL     OW25930   0.843   5.250   6.164
 8344SOL    HW125931   0.860   5.338   6.207
 8344SOL    HW225932   0.886   5.247   6.074
 8345SOL     OW25933   5.114   0.146   3.704
 8345SOL    HW125934   5.053   0.105   3.636
 8345SOL    HW225935   5.201   0.097   3.704
 8346SOL     OW25936   5.609   3.379   4.638
 8346SOL    HW125937   5.514   3.409   4.650
 8346SOL    HW225938   5.669   3.436   4.694
 8347SOL     OW25939   2.431   1.308   6.891
 8347SOL    HW125940   2.453   1.404   6.908
 8347SOL    HW225941   2.446   1.255   6.975
 8348SOL     OW25942   3.133   6.173   2.332
 8348SOL    HW125943   3.137   6.248   2.266
 8348SOL    HW225944   3.224   6.135   2.345
 8349SOL     OW25945   6.234   6.050   2.223
 8349SOL    HW125946   6.283   5.963   2.211
 8349SOL    HW225947   6.298   6.126   2.210
 8350SOL     OW25948   2.096   0.713   6.845
 8350SOL    HW125949   2.001   0.685   6.830
 8350SOL    HW225950   2.104   0.755   6.935
 8351SOL     OW25951   0.155   3.525   3.033
 8351SOL    HW125952   0.072   3.557   2.987
 8351SOL    HW225953   0.140   3.434   3.070
 8352SOL     OW25954   2.955   5.592   0.973
 8352SOL    HW125955   2.974   5.582   1.070
 8352SOL    HW225956   2.858   5.575   0.956
 8353SOL     OW25957   1.246   4.798   1.750
 8353SOL    HW125958   1.205   4.855   1.821
 8353SOL    HW225959   1.314   4.851   1.700
 8354SOL     OW25960   3.345   0.004   3.145
 8354SOL    HW125961   3.267   6.967   3.128
 8354SOL    HW225962   3.386   0.030   3.057
 8355SOL     OW25963   2.861   6.888   6.481
 8355SOL    HW125964   2.825   6.862   6.571
 8355SOL    HW225965   2.818   6.831   6.411
 8356SOL     OW25966   1.865   5.336   0.537
 8356SOL    HW125967   1.795   5.340   0.609
 8356SOL    HW225968   1.821   5.313   0.450
 8357SOL     OW25969   4.692   6.737   5.680
 8357SOL    HW125970   4.648   6.676   5.746
 8357SOL    HW225971   4.654   6.829   5.690
 8358SOL     OW25972   1.151   1.010   5.142
 8358SOL    HW125973   1.190   0.993   5.051
 8358SOL    HW225974   1.222   0.998   5.211
 8359SOL     OW25975   3.853   2.044   5.950
 8359SOL    HW125976   3.843   2.116   6.019
 8359SOL    HW225977   3.841   2.084   5.859
 8360SOL     OW25978   4.734   0.322   1.190
 8360SOL    HW125979   4.762   0.314   1.286
 8360SOL    HW225980   4.814   0.339   1.133
 8361SOL     OW25981   3.886   1.229   6.681
 8361SOL    HW125982   3.933   1.210   6.595
 8361SOL    HW225983   3.789   1.249   6.663
 8362SOL     OW25984   0.005   4.358   1.293
 8362SOL    HW125985   7.020   4.451   1.255
 8362SOL    HW225986   6.942   4.331   1.335
 8363SOL     OW25987   1.529   2.825   1.021
 8363SOL    HW125988   1.449   2.828   1.081
 8363SOL    HW225989   1.501   2.793   0.930
 8364SOL     OW25990   0.060   3.564   4.476
 8364SOL    HW125991   0.127   3.493   4.498
 8364SOL    HW225992   0.108   3.649   4.454
 8365SOL     OW25993   1.535   2.070   2.234
 8365SOL    HW125994   1.470   2.062   2.310
 8365SOL    HW225995   1.603   2.140   2.256
 8366SOL     OW25996   5.431   4.980   2.404
 8366SOL    HW125997   5.453   5.005   2.310
 8366SOL    HW225998   5.333   4.996   2.420
 8367SOL     OW25999   2.545   5.471   4.081
 8367SOL    HW126000   2.635   5.472   4.126
 8367SOL    HW226001   2.494   5.390   4.111
 8368SOL     OW26002   6.040   6.485   6.290
 8368SOL    HW126003   6.028   6.584   6.283
 8368SOL    HW226004   5.961   6.446   6.338
 8369SOL     OW26005   2.377   6.527   1.001
 8369SOL    HW126006   2.453   6.582   0.966
 8369SOL    HW226007   2.323   6.582   1.065
 8370SOL     OW26008   2.885   4.143   6.968
 8370SOL    HW126009   2.915   4.118   0.037
 8370SOL    HW226010   2.808   4.085   6.942
 8371SOL     OW26011   1.912   4.533   5.025
 8371SOL    HW126012   1.980   4.478   4.978
 8371SOL    HW226013   1.957   4.592   5.092
 8372SOL     OW26014   1.915   6.477   1.924
 8372SOL    HW126015   1.892   6.388   1.884
 8372SOL    HW226016   1.991   6.466   1.987
 8373SOL     OW26017   6.675   1.838   4.137
 8373SOL    HW126018   6.752   1.840   4.072
 8373SOL    HW226019   6.604   1.778   4.101
 8374SOL     OW26020   6.792   1.592   4.294
 8374SOL    HW126021   6.813   1.506   4.340
 8374SOL    HW226022   6.873   1.624   4.246
 8375SOL     OW26023   3.240   0.606   4.726
 8375SOL    HW126024   3.212   0.576   4.817
 8375SOL    HW226025   3.286   0.695   4.733
 8376SOL     OW26026   1.745   1.175   3.387
 8376SOL    HW126027   1.753   1.270   3.356
 8376SOL    HW226028   1.662   1.135   3.348
 8377SOL     OW26029   5.197   5.326   0.508
 8377SOL    HW126030   5.105   5.364   0.497
 8377SOL    HW226031   5.249   5.339   0.423
 8378SOL     OW26032   5.227   5.641   4.314
 8378SOL    HW126033   5.147   5.700   4.303
 8378SOL    HW226034   5.210   5.552   4.271
 8379SOL     OW26035   5.327   1.406   1.159
 8379SOL    HW126036   5.285   1.328   1.205
 8379SOL    HW226037   5.421   1.418   1.193
 8380SOL     OW26038   6.698   5.992   0.805
 8380SOL    HW126039   6.701   5.930   0.726
 8380SOL    HW226040   6.710   6.086   0.773
 8381SOL     OW26041   0.425   1.497   2.656
 8381SOL    HW126042   0.374   1.578   2.684
 8381SOL    HW226043   0.522   1.520   2.646
 8382SOL     OW26044   2.002   0.781   0.790
 8382SOL    HW126045   2.056   0.857   0.753
 8382SOL    HW226046   1.981   0.800   0.886
 8383SOL     OW26047   3.208   6.862   6.841
 8383SOL    HW126048   3.281   6.860   6.909
 8383SOL    HW226049   3.248   6.867   6.749
 8384SOL     OW26050   0.620   2.864   2.598
 8384SOL    HW126051   0.661   2.948   2.565
 8384SOL    HW226052   0.599   2.804   2.521
 8385SOL     OW26053   4.228   2.782   1.222
 8385SOL    HW126054   4.321   2.798   1.254
 8385SOL    HW226055   4.189   2.868   1.189
 8386SOL     OW26056   2.258   5.801   2.102
 8386SOL    HW126057   2.253   5.783   2.200
 8386SOL    HW226058   2.166   5.824   2.068
 8387SOL     OW26059   1.343   1.191   2.831
 8387SOL    HW126060   1.365   1.229   2.921
 8387SOL    HW226061   1.399   1.236   2.761
 8388SOL     OW26062   4.596   6.271   1.313
 8388SOL    HW126063   4.602   6.325   1.397
 8388SOL    HW226064   4.551   6.184   1.333
 8389SOL     OW26065   0.223   2.801   3.585
 8389SOL    HW126066   0.250   2.718   3.536
 8389SOL    HW226067   0.293   2.871   3.574
 8390SOL     OW26068   2.953   0.010   5.504
 8390SOL    HW126069   2.885   0.006   5.577
 8390SOL    HW226070   3.033   6.979   5.530
 8391SOL     OW26071   5.329   6.022   1.196
 8391SOL    HW126072   5.402   5.985   1.254
 8391SOL    HW226073   5.369   6.078   1.124
 8392SOL     OW26074   6.465   6.424   5.744
 8392SOL    HW126075   6.550   6.418   5.797
 8392SOL    HW226076   6.459   6.347   5.681
 8393SOL     OW26077   6.842   5.913   2.919
 8393SOL    HW126078   6.754   5.880   2.953
 8393SOL    HW226079   6.916   5.868   2.969
 8394SOL     OW26080   0.817   1.974   2.816
 8394SOL    HW126081   0.758   1.983   2.896
 8394SOL    HW226082   0.768   1.928   2.742
 8395SOL     OW26083   0.481   6.293   5.752
 8395SOL    HW126084   0.548   6.310   5.825
 8395SOL    HW226085   0.523   6.239   5.680
 8396SOL     OW26086   4.937   3.543   1.241
 8396SOL    HW126087   4.917   3.456   1.197
 8396SOL    HW226088   4.852   3.596   1.249
 8397SOL     OW26089   1.724   5.630   3.251
 8397SOL    HW126090   1.775   5.647   3.166
 8397SOL    HW226091   1.627   5.619   3.229
 8398SOL     OW26092   4.729   2.001   0.400
 8398SOL    HW126093   4.724   2.000   0.300
 8398SOL    HW226094   4.641   1.973   0.439
 8399SOL     OW26095   5.683   5.815   0.434
 8399SOL    HW126096   5.588   5.842   0.453
 8399SOL    HW226097   5.725   5.884   0.375
 8400SOL     OW26098   6.174   0.319   4.079
 8400SOL    HW126099   6.208   0.403   4.120
 8400SOL    HW226100   6.111   0.341   4.004
 8401SOL     OW26101   3.153   4.869   6.335
 8401SOL    HW126102   3.246   4.886   6.304
 8401SOL    HW226103   3.117   4.787   6.290
 8402SOL     OW26104   4.129   1.858   0.333
 8402SOL    HW126105   4.175   1.773   0.307
 8402SOL    HW226106   4.030   1.848   0.320
 8403SOL     OW26107   1.193   1.783   4.628
 8403SOL    HW126108   1.193   1.749   4.722
 8403SOL    HW226109   1.110   1.753   4.581
 8404SOL     OW26110   4.363   4.842   5.742
 8404SOL    HW126111   4.282   4.786   5.759
 8404SOL    HW226112   4.427   4.832   5.819
 8405SOL     OW26113   0.471   3.189   4.912
 8405SOL    HW126114   0.445   3.189   4.815
 8405SOL    HW226115   0.571   3.189   4.920
 8406SOL     OW26116   5.223   3.389   1.810
 8406SOL    HW126117   5.273   3.309   1.842
 8406SOL    HW226118   5.126   3.366   1.799
 8407SOL     OW26119   5.175   4.280   2.262
 8407SOL    HW126120   5.208   4.306   2.172
 8407SOL    HW226121   5.116   4.352   2.298
 8408SOL     OW26122   4.559   2.600   4.014
 8408SOL    HW126123   4.479   2.541   4.023
 8408SOL    HW226124   4.549   2.679   4.075
 8409SOL     OW26125   0.779   2.575   4.055
 8409SOL    HW126126   0.780   2.476   4.043
 8409SOL    HW226127   0.805   2.597   4.149
 8410SOL     OW26128   3.789   6.784   2.270
 8410SOL    HW126129   3.886   6.809   2.272
 8410SOL    HW226130   3.780   6.686   2.282
 8411SOL     OW26131   2.017   2.803   3.635
 8411SOL    HW126132   1.979   2.731   3.692
 8411SOL    HW226133   2.086   2.854   3.686
 8412SOL     OW26134   6.263   2.751   2.740
 8412SOL    HW126135   6.254   2.700   2.826
 8412SOL    HW226136   6.351   2.800   2.740
 8413SOL     OW26137   2.804   4.134   0.817
 8413SOL    HW126138   2.784   4.177   0.729
 8413SOL    HW226139   2.804   4.035   0.806
 8414SOL     OW26140   4.614   6.694   2.727
 8414SOL    HW126141   4.608   6.613   2.669
 8414SOL    HW226142   4.691   6.751   2.697
 8415SOL     OW26143   6.214   3.600   2.329
 8415SOL    HW126144   6.260   3.640   2.408
 8415SOL    HW226145   6.117   3.586   2.350
 8416SOL     OW26146   5.153   3.987   2.338
 8416SOL    HW126147   5.062   3.962   2.305
 8416SOL    HW226148   5.169   4.084   2.322
 8417SOL     OW26149   2.699   6.207   5.871
 8417SOL    HW126150   2.606   6.186   5.899
 8417SOL    HW226151   2.699   6.241   5.777
 8418SOL     OW26152   5.661   6.024   2.785
 8418SOL    HW126153   5.734   6.091   2.770
 8418SOL    HW226154   5.594   6.031   2.710
 8419SOL     OW26155   4.280   0.270   3.630
 8419SOL    HW126156   4.314   0.364   3.631
 8419SOL    HW226157   4.225   0.254   3.712
 8420SOL     OW26158   3.812   1.450   6.073
 8420SOL    HW126159   3.790   1.525   6.135
 8420SOL    HW226160   3.911   1.443   6.063
 8421SOL     OW26161   2.639   6.831   1.891
 8421SOL    HW126162   2.690   6.791   1.967
 8421SOL    HW226163   2.596   6.759   1.837
 8422SOL     OW26164   3.938   0.074   1.713
 8422SOL    HW126165   3.911   0.163   1.751
 8422SOL    HW226166   4.022   0.043   1.756
 8423SOL     OW26167   2.873   4.308   1.450
 8423SOL    HW126168   2.781   4.289   1.484
 8423SOL    HW226169   2.935   4.324   1.528
 8424SOL     OW26170   3.134   2.169   2.628
 8424SOL    HW126171   3.099   2.217   2.547
 8424SOL    HW226172   3.232   2.153   2.617
 8425SOL     OW26173   5.504   5.253   0.259
 8425SOL    HW126174   5.599   5.277   0.239
 8425SOL    HW226175   5.493   5.153   0.251
 8426SOL     OW26176   3.809   3.542   2.628
 8426SOL    HW126177   3.830   3.638   2.612
 8426SOL    HW226178   3.750   3.508   2.555
 8427SOL     OW26179   2.210   3.658   6.178
 8427SOL    HW126180   2.153   3.737   6.156
 8427SOL    HW226181   2.155   3.589   6.225
 8428SOL     OW26182   5.975   4.799   2.417
 8428SOL    HW126183   5.985   4.851   2.502
 8428SOL    HW226184   6.042   4.725   2.415
 8429SOL     OW26185   1.631   6.344   2.617
 8429SOL    HW126186   1.623   6.282   2.695
 8429SOL    HW226187   1.719   6.331   2.572
 8430SOL     OW26188   4.537   4.494   3.080
 8430SOL    HW126189   4.620   4.518   3.130
 8430SOL    HW226190   4.560   4.474   2.985
 8431SOL     OW26191   3.196   4.132   0.900
 8431SOL    HW126192   3.215   4.112   0.804
 8431SOL    HW226193   3.275   4.178   0.941
 8432SOL     OW26194   4.011   6.353   6.497
 8432SOL    HW126195   4.077   6.324   6.566
 8432SOL    HW226196   3.987   6.449   6.511
 8433SOL     OW26197   0.599   1.403   5.717
 8433SOL    HW126198   0.526   1.417   5.785
 8433SOL    HW226199   0.567   1.339   5.647
 8434SOL     OW26200   5.528   6.557   5.548
 8434SOL    HW126201   5.441   6.597   5.519
 8434SOL    HW226202   5.597   6.571   5.477
 8435SOL     OW26203   4.537   2.284   1.345
 8435SOL    HW126204   4.553   2.332   1.431
 8435SOL    HW226205   4.557   2.345   1.268
 8436SOL     OW26206   3.709   4.584   1.500
 8436SOL    HW126207   3.660   4.496   1.492
 8436SOL    HW226208   3.794   4.579   1.448
 8437SOL     OW26209   0.229   0.947   1.342
 8437SOL    HW126210   0.308   1.001   1.310
 8437SOL    HW226211   0.241   0.925   1.439
 8438SOL     OW26212   2.028   6.797   1.824
 8438SOL    HW126213   1.932   6.803   1.852
 8438SOL    HW226214   2.058   6.887   1.793
 8439SOL     OW26215   6.728   6.237   1.815
 8439SOL    HW126216   6.799   6.227   1.884
 8439SOL    HW226217   6.769   6.256   1.726
 8440SOL     OW26218   0.580   1.516   3.600
 8440SOL    HW126219   0.574   1.428   3.552
 8440SOL    HW226220   0.493   1.535   3.646
 8441SOL     OW26221   4.289   5.342   0.699
 8441SOL    HW126222   4.373   5.337   0.645
 8441SOL    HW226223   4.279   5.258   0.753
 8442SOL     OW26224   2.321   4.144   0.247
 8442SOL    HW126225   2.246   4.192   0.201
 8442SOL    HW226226   2.395   4.209   0.264
 8443SOL     OW26227   1.892   1.192   2.351
 8443SOL    HW126228   1.797   1.222   2.359
 8443SOL    HW226229   1.894   1.098   2.317
 8444SOL     OW26230   3.981   7.010   3.260
 8444SOL    HW126231   3.929   0.001   3.344
 8444SOL    HW226232   4.074   6.984   3.282
 8445SOL     OW26233   3.950   4.824   1.975
 8445SOL    HW126234   3.855   4.817   2.003
 8445SOL    HW226235   3.989   4.910   2.007
 8446SOL     OW26236   6.460   4.737   3.354
 8446SOL    HW126237   6.531   4.676   3.320
 8446SOL    HW226238   6.479   4.831   3.324
 8447SOL     OW26239   4.955   3.182   1.241
 8447SOL    HW126240   4.866   3.136   1.238
 8447SOL    HW226241   5.018   3.136   1.179
 8448SOL     OW26242   0.834   2.780   6.576
 8448SOL    HW126243   0.823   2.878   6.557
 8448SOL    HW226244   0.831   2.730   6.490
 8449SOL     OW26245   1.833   2.479   5.577
 8449SOL    HW126246   1.835   2.399   5.518
 8449SOL    HW226247   1.805   2.452   5.669
 8450SOL     OW26248   2.103   5.292   2.365
 8450SOL    HW126249   2.166   5.250   2.300
 8450SOL    HW226250   2.021   5.234   2.374
 8451SOL     OW26251   3.532   3.121   0.588
 8451SOL    HW126252   3.534   3.031   0.631
 8451SOL    HW226253   3.605   3.127   0.520
 8452SOL     OW26254   6.878   6.018   1.078
 8452SOL    HW126255   6.875   5.949   1.149
 8452SOL    HW226256   6.907   6.106   1.117
 8453SOL     OW26257   0.095   4.509   6.082
 8453SOL    HW126258   0.178   4.467   6.044
 8453SOL    HW226259   0.017   4.485   6.025
 8454SOL     OW26260   1.827   6.814   4.610
 8454SOL    HW126261   1.902   6.878   4.598
 8454SOL    HW226262   1.752   6.859   4.658
 8455SOL     OW26263   5.755   1.858   1.386
 8455SOL    HW126264   5.843   1.904   1.384
 8455SOL    HW226265   5.686   1.919   1.425
 8456SOL     OW26266   5.284   5.507   2.784
 8456SOL    HW126267   5.226   5.451   2.843
 8456SOL    HW226268   5.258   5.494   2.688
 8457SOL     OW26269   0.049   6.393   6.891
 8457SOL    HW126270   6.985   6.382   6.938
 8457SOL    HW226271   0.036   6.379   6.793
 8458SOL     OW26272   0.990   1.325   1.456
 8458SOL    HW126273   1.030   1.252   1.401
 8458SOL    HW226274   0.892   1.332   1.436
 8459SOL     OW26275   2.685   5.441   2.438
 8459SOL    HW126276   2.590   5.468   2.452
 8459SOL    HW226277   2.713   5.463   2.345
 8460SOL     OW26278   4.565   0.997   0.546
 8460SOL    HW126279   4.500   1.036   0.612
 8460SOL    HW226280   4.622   1.070   0.508
 8461SOL     OW26281   5.421   4.172   2.248
 8461SOL    HW126282   5.332   4.217   2.249
 8461SOL    HW226283   5.445   4.143   2.341
 8462SOL     OW26284   2.667   5.079   0.135
 8462SOL    HW126285   2.744   5.140   0.116
 8462SOL    HW226286   2.652   5.018   0.057
 8463SOL     OW26287   6.509   1.043   0.642
 8463SOL    HW126288   6.436   1.093   0.596
 8463SOL    HW226289   6.495   0.945   0.631
 8464SOL     OW26290   0.875   3.473   6.428
 8464SOL    HW126291   0.871   3.570   6.405
 8464SOL    HW226292   0.902   3.421   6.348
 8465SOL     OW26293   4.533   3.135   1.032
 8465SOL    HW126294   4.474   3.202   1.076
 8465SOL    HW226295   4.617   3.179   1.002
 8466SOL     OW26296   6.130   1.392   5.654
 8466SOL    HW126297   6.204   1.444   5.698
 8466SOL    HW226298   6.145   1.294   5.669
 8467SOL     OW26299   3.510   0.833   1.042
 8467SOL    HW126300   3.571   0.854   0.966
 8467SOL    HW226301   3.423   0.797   1.007
 8468SOL     OW26302   6.034   3.014   0.490
 8468SOL    HW126303   6.040   2.914   0.485
 8468SOL    HW226304   6.066   3.053   0.404
 8469SOL     OW26305   4.612   3.135   6.223
 8469SOL    HW126306   4.552   3.063   6.257
 8469SOL    HW226307   4.593   3.220   6.273
 8470SOL     OW26308   1.616   4.873   1.454
 8470SOL    HW126309   1.663   4.944   1.401
 8470SOL    HW226310   1.656   4.784   1.434
 8471SOL     OW26311   3.362   2.151   4.484
 8471SOL    HW126312   3.354   2.210   4.564
 8471SOL    HW226313   3.363   2.056   4.512
 8472SOL     OW26314   5.603   1.186   5.663
 8472SOL    HW126315   5.668   1.166   5.591
 8472SOL    HW226316   5.534   1.114   5.667
 8473SOL     OW26317   4.596   4.438   6.854
 8473SOL    HW126318   4.602   4.487   6.941
 8473SOL    HW226319   4.642   4.349   6.863
 8474SOL     OW26320   3.694   4.104   2.888
 8474SOL    HW126321   3.792   4.083   2.898
 8474SOL    HW226322   3.665   4.163   2.963
 8475SOL     OW26323   0.261   2.598   2.013
 8475SOL    HW126324   0.279   2.515   2.066
 8475SOL    HW226325   0.314   2.595   1.928
 8476SOL     OW26326   6.284   0.029   2.123
 8476SOL    HW126327   6.240   0.118   2.116
 8476SOL    HW226328   6.348   0.030   2.201
 8477SOL     OW26329   5.469   6.902   1.845
 8477SOL    HW126330   5.565   6.902   1.874
 8477SOL    HW226331   5.461   6.861   1.754
 8478SOL     OW26332   6.344   0.644   6.009
 8478SOL    HW126333   6.339   0.555   6.054
 8478SOL    HW226334   6.411   0.701   6.057
 8479SOL     OW26335   0.983   2.328   0.831
 8479SOL    HW126336   0.892   2.289   0.846
 8479SOL    HW226337   1.048   2.255   0.813
 8480SOL     OW26338   4.297   3.710   0.061
 8480SOL    HW126339   4.227   3.753   0.118
 8480SOL    HW226340   4.387   3.725   0.101
 8481SOL     OW26341   4.319   1.577   3.304
 8481SOL    HW126342   4.225   1.546   3.318
 8481SOL    HW226343   4.382   1.505   3.331
 8482SOL     OW26344   4.694   0.957   0.794
 8482SOL    HW126345   4.636   0.967   0.876
 8482SOL    HW226346   4.636   0.944   0.714
 8483SOL     OW26347   3.289   5.438   3.053
 8483SOL    HW126348   3.296   5.525   3.102
 8483SOL    HW226349   3.236   5.451   2.969
 8484SOL     OW26350   5.277   5.476   4.551
 8484SOL    HW126351   5.316   5.532   4.625
 8484SOL    HW226352   5.275   5.530   4.467
 8485SOL     OW26353   3.179   2.775   0.192
 8485SOL    HW126354   3.196   2.871   0.170
 8485SOL    HW226355   3.175   2.764   0.291
 8486SOL     OW26356   0.686   1.993   3.040
 8486SOL    HW126357   0.624   2.068   3.061
 8486SOL    HW226358   0.694   1.933   3.119
 8487SOL     OW26359   5.880   1.671   5.850
 8487SOL    HW126360   5.899   1.595   5.788
 8487SOL    HW226361   5.879   1.637   5.944
 8488SOL     OW26362   4.415   4.801   1.113
 8488SOL    HW126363   4.380   4.887   1.075
 8488SOL    HW226364   4.363   4.778   1.195
 8489SOL     OW26365   5.219   1.649   1.912
 8489SOL    HW126366   5.260   1.740   1.921
 8489SOL    HW226367   5.243   1.593   1.992
 8490SOL     OW26368   3.050   0.209   6.454
 8490SOL    HW126369   3.132   0.254   6.490
 8490SOL    HW226370   2.990   0.183   6.530
 8491SOL     OW26371   3.188   5.630   1.931
 8491SOL    HW126372   3.269   5.676   1.894
 8491SOL    HW226373   3.141   5.581   1.858
 8492SOL     OW26374   6.917   6.189   4.012
 8492SOL    HW126375   6.959   6.099   4.028
 8492SOL    HW226376   6.989   6.257   4.001
 8493SOL     OW26377   4.432   1.090   6.901
 8493SOL    HW126378   4.384   1.056   6.981
 8493SOL    HW226379   4.394   1.178   6.873
 8494SOL     OW26380   6.567   4.754   2.246
 8494SOL    HW126381   6.602   4.665   2.217
 8494SOL    HW226382   6.560   4.756   2.346
 8495SOL     OW26383   6.327   5.519   0.048
 8495SOL    HW126384   6.374   5.452   0.105
 8495SOL    HW226385   6.342   5.497   6.975
 8496SOL     OW26386   5.365   3.027   2.132
 8496SOL    HW126387   5.412   3.028   2.220
 8496SOL    HW226388   5.368   2.935   2.093
 8497SOL     OW26389   6.890   0.932   3.701
 8497SOL    HW126390   6.986   0.945   3.724
 8497SOL    HW226391   6.865   0.836   3.711
 8498SOL     OW26392   4.600   0.397   3.943
 8498SOL    HW126393   4.696   0.402   3.916
 8498SOL    HW226394   4.592   0.410   4.042
 8499SOL     OW26395   6.050   6.750   6.349
 8499SOL    HW126396   6.135   6.795   6.321
 8499SOL    HW226397   6.051   6.736   6.448
 8500SOL     OW26398   0.802   0.651   4.721
 8500SOL    HW126399   0.742   0.712   4.773
 8500SOL    HW226400   0.890   0.695   4.707
 8501SOL     OW26401   0.778   2.338   6.378
 8501SOL    HW126402   0.854   2.275   6.365
 8501SOL    HW226403   0.704   2.314   6.316
 8502SOL     OW26404   0.971   3.697   0.061
 8502SOL    HW126405   0.888   3.693   0.117
 8502SOL    HW226406   1.017   3.608   0.063
 8503SOL     OW26407   6.010   1.268   4.500
 8503SOL    HW126408   6.015   1.179   4.545
 8503SOL    HW226409   6.079   1.329   4.539
 8504SOL     OW26410   1.197   6.055   1.832
 8504SOL    HW126411   1.151   6.085   1.749
 8504SOL    HW226412   1.258   6.127   1.864
 8505SOL     OW26413   5.043   3.463   3.079
 8505SOL    HW126414   4.982   3.539   3.056
 8505SOL    HW226415   5.079   3.424   2.994
 8506SOL     OW26416   2.105   0.480   6.563
 8506SOL    HW126417   2.023   0.537   6.569
 8506SOL    HW226418   2.184   0.537   6.544
 8507SOL     OW26419   3.786   6.232   5.339
 8507SOL    HW126420   3.734   6.163   5.388
 8507SOL    HW226421   3.762   6.229   5.242
 8508SOL     OW26422   3.251   1.745   6.581
 8508SOL    HW126423   3.301   1.773   6.663
 8508SOL    HW226424   3.315   1.700   6.517
 8509SOL     OW26425   5.623   2.066   2.992
 8509SOL    HW126426   5.643   2.028   3.082
 8509SOL    HW226427   5.591   2.160   3.002
 8510SOL     OW26428   6.658   2.296   4.421
 8510SOL    HW126429   6.652   2.394   4.436
 8510SOL    HW226430   6.735   2.275   4.361
 8511SOL     OW26431   5.827   2.483   2.163
 8511SOL    HW126432   5.807   2.570   2.209
 8511SOL    HW226433   5.903   2.437   2.209
 8512SOL     OW26434   2.481   6.922   5.696
 8512SOL    HW126435   2.434   6.905   5.610
 8512SOL    HW226436   2.414   6.933   5.769
 8513SOL     OW26437   5.200   6.561   6.349
 8513SOL    HW126438   5.185   6.465   6.373
 8513SOL    HW226439   5.139   6.587   6.274
 8514SOL     OW26440   2.902   6.285   3.730
 8514SOL    HW126441   2.927   6.224   3.654
 8514SOL    HW226442   2.979   6.344   3.752
 8515SOL     OW26443   5.929   1.413   0.744
 8515SOL    HW126444   5.877   1.356   0.681
 8515SOL    HW226445   5.997   1.356   0.792
 8516SOL     OW26446   6.758   2.102   2.510
 8516SOL    HW126447   6.820   2.097   2.588
 8516SOL    HW226448   6.810   2.119   2.427
 8517SOL     OW26449   1.311   3.893   0.456
 8517SOL    HW126450   1.398   3.930   0.423
 8517SOL    HW226451   1.284   3.816   0.399
 8518SOL     OW26452   3.256   5.602   0.885
 8518SOL    HW126453   3.172   5.548   0.880
 8518SOL    HW226454   3.335   5.541   0.874
 8519SOL     OW26455   1.533   4.697   2.838
 8519SOL    HW126456   1.589   4.695   2.921
 8519SOL    HW226457   1.592   4.711   2.759
 8520SOL     OW26458   2.955   0.564   0.186
 8520SOL    HW126459   2.970   0.467   0.207
 8520SOL    HW226460   2.871   0.595   0.231
 8521SOL     OW26461   1.262   6.811   6.855
 8521SOL    HW126462   1.224   6.731   6.809
 8521SOL    HW226463   1.357   6.825   6.826
 8522SOL     OW26464   1.861   6.004   4.807
 8522SOL    HW126465   1.845   6.092   4.763
 8522SOL    HW226466   1.894   6.019   4.900
 8523SOL     OW26467   1.512   0.032   7.020
 8523SOL    HW126468   1.611   0.026   0.006
 8523SOL    HW226469   1.482   7.003   6.940
 8524SOL     OW26470   1.512   2.234   5.846
 8524SOL    HW126471   1.481   2.222   5.940
 8524SOL    HW226472   1.527   2.144   5.805
 8525SOL     OW26473   5.253   2.865   3.016
 8525SOL    HW126474   5.183   2.918   3.064
 8525SOL    HW226475   5.226   2.770   3.012
 8526SOL     OW26476   2.204   3.022   2.001
 8526SOL    HW126477   2.247   2.951   1.946
 8526SOL    HW226478   2.140   3.074   1.945
 8527SOL     OW26479   4.388   0.085   4.237
 8527SOL    HW126480   4.455   0.027   4.191
 8527SOL    HW226481   4.357   0.157   4.174
 8528SOL     OW26482   5.096   2.540   0.051
 8528SOL    HW126483   5.000   2.570   0.046
 8528SOL    HW226484   5.109   2.459   7.017
 8529SOL     OW26485   0.012   4.235   0.067
 8529SOL    HW126486   0.095   4.270   0.025
 8529SOL    HW226487   0.027   4.225   0.166
 8530SOL     OW26488   1.477   3.179   5.694
 8530SOL    HW126489   1.408   3.198   5.764
 8530SOL    HW226490   1.552   3.245   5.702
 8531SOL     OW26491   4.443   4.848   2.952
 8531SOL    HW126492   4.534   4.834   2.991
 8531SOL    HW226493   4.377   4.788   2.997
 8532SOL     OW26494   1.327   4.402   5.818
 8532SOL    HW126495   1.232   4.405   5.850
 8532SOL    HW226496   1.356   4.307   5.807
 8533SOL     OW26497   3.510   0.469   5.852
 8533SOL    HW126498   3.486   0.470   5.949
 8533SOL    HW226499   3.608   0.486   5.842
 8534SOL     OW26500   1.986   2.822   2.806
 8534SOL    HW126501   2.064   2.794   2.862
 8534SOL    HW226502   1.980   2.922   2.804
 8535SOL     OW26503   6.819   2.894   3.865
 8535SOL    HW126504   6.913   2.865   3.849
 8535SOL    HW226505   6.771   2.823   3.918
 8536SOL     OW26506   6.990   1.541   4.583
 8536SOL    HW126507   0.009   1.469   4.638
 8536SOL    HW226508   6.891   1.540   4.598
 8537SOL     OW26509   6.370   0.428   2.096
 8537SOL    HW126510   6.275   0.402   2.110
 8537SOL    HW226511   6.400   0.395   2.006
 8538SOL     OW26512   5.843   1.449   4.991
 8538SOL    HW126513   5.839   1.528   4.930
 8538SOL    HW226514   5.920   1.391   4.967
 8539SOL     OW26515   6.944   2.979   2.475
 8539SOL    HW126516   6.944   2.985   2.575
 8539SOL    HW226517   6.981   3.063   2.437
 8540SOL     OW26518   4.007   0.517   0.292
 8540SOL    HW126519   4.066   0.536   0.370
 8540SOL    HW226520   3.917   0.557   0.308
 8541SOL     OW26521   3.586   6.691   5.229
 8541SOL    HW126522   3.559   6.648   5.315
 8541SOL    HW226523   3.513   6.680   5.162
 8542SOL     OW26524   1.344   4.953   6.150
 8542SOL    HW126525   1.247   4.975   6.143
 8542SOL    HW226526   1.382   4.993   6.233
 8543SOL     OW26527   1.939   2.564   6.112
 8543SOL    HW126528   1.856   2.567   6.168
 8543SOL    HW226529   1.961   2.656   6.081
 8544SOL     OW26530   5.468   4.480   5.612
 8544SOL    HW126531   5.446   4.540   5.535
 8544SOL    HW226532   5.532   4.409   5.582
 8545SOL     OW26533   2.659   0.403   6.552
 8545SOL    HW126534   2.710   0.380   6.469
 8545SOL    HW226535   2.687   0.343   6.627
 8546SOL     OW26536   5.238   0.891   2.233
 8546SOL    HW126537   5.274   0.839   2.310
 8546SOL    HW226538   5.138   0.894   2.239
 8547SOL     OW26539   5.707   6.042   5.664
 8547SOL    HW126540   5.711   5.968   5.596
 8547SOL    HW226541   5.615   6.047   5.702
 8548SOL     OW26542   0.681   3.327   5.695
 8548SOL    HW126543   0.627   3.402   5.731
 8548SOL    HW226544   0.623   3.247   5.680
 8549SOL     OW26545   2.047   6.960   4.173
 8549SOL    HW126546   2.054   0.013   4.237
 8549SOL    HW226547   2.035   6.996   4.080
 8550SOL     OW26548   6.631   4.201   6.271
 8550SOL    HW126549   6.618   4.102   6.265
 8550SOL    HW226550   6.720   4.220   6.314
 8551SOL     OW26551   1.906   0.964   5.884
 8551SOL    HW126552   1.966   1.040   5.861
 8551SOL    HW226553   1.961   0.884   5.907
 8552SOL     OW26554   3.289   1.888   2.989
 8552SOL    HW126555   3.269   1.985   2.985
 8552SOL    HW226556   3.364   1.866   2.926
 8553SOL     OW26557   4.992   4.225   0.255
 8553SOL    HW126558   5.084   4.251   0.229
 8553SOL    HW226559   4.938   4.204   0.174
 8554SOL     OW26560   2.279   1.306   0.590
 8554SOL    HW126561   2.220   1.279   0.666
 8554SOL    HW226562   2.358   1.245   0.586
 8555SOL     OW26563   3.963   1.235   4.088
 8555SOL    HW126564   3.871   1.245   4.048
 8555SOL    HW226565   3.973   1.298   4.165
 8556SOL     OW26566   1.934   5.691   0.373
 8556SOL    HW126567   2.013   5.712   0.316
 8556SOL    HW226568   1.957   5.707   0.470
 8557SOL     OW26569   6.744   0.676   6.440
 8557SOL    HW126570   6.751   0.601   6.507
 8557SOL    HW226571   6.648   0.686   6.413
 8558SOL     OW26572   3.120   6.206   4.426
 8558SOL    HW126573   3.056   6.244   4.359
 8558SOL    HW226574   3.096   6.239   4.517
 8559SOL     OW26575   1.999   4.832   2.713
 8559SOL    HW126576   2.011   4.789   2.803
 8559SOL    HW226577   2.016   4.764   2.642
 8560SOL     OW26578   2.343   4.734   0.871
 8560SOL    HW126579   2.283   4.701   0.944
 8560SOL    HW226580   2.313   4.694   0.784
 8561SOL     OW26581   4.681   0.784   2.655
 8561SOL    HW126582   4.660   0.774   2.557
 8561SOL    HW226583   4.780   0.795   2.666
 8562SOL     OW26584   5.139   1.978   6.840
 8562SOL    HW126585   5.227   2.000   6.796
 8562SOL    HW226586   5.147   1.993   6.938
 8563SOL     OW26587   2.652   5.264   2.023
 8563SOL    HW126588   2.719   5.291   2.092
 8563SOL    HW226589   2.614   5.175   2.047
 8564SOL     OW26590   4.013   0.259   0.334
 8564SOL    HW126591   4.105   0.239   0.301
 8564SOL    HW226592   4.000   0.358   0.335
 8565SOL     OW26593   1.433   4.881   0.790
 8565SOL    HW126594   1.439   4.968   0.740
 8565SOL    HW226595   1.427   4.900   0.888
 8566SOL     OW26596   3.201   1.453   2.135
 8566SOL    HW126597   3.238   1.437   2.227
 8566SOL    HW226598   3.117   1.401   2.123
 8567SOL     OW26599   1.258   3.440   1.970
 8567SOL    HW126600   1.202   3.520   1.948
 8567SOL    HW226601   1.291   3.448   2.064
 8568SOL     OW26602   5.942   0.507   6.862
 8568SOL    HW126603   5.852   0.533   6.827
 8568SOL    HW226604   5.981   0.583   6.914
 8569SOL     OW26605   3.952   2.205   6.479
 8569SOL    HW126606   3.931   2.296   6.514
 8569SOL    HW226607   4.010   2.212   6.398
 8570SOL     OW26608   2.090   2.681   2.074
 8570SOL    HW126609   2.110   2.648   1.981
 8570SOL    HW226610   2.024   2.756   2.069
 8571SOL     OW26611   1.713   1.010   2.800
 8571SOL    HW126612   1.715   1.048   2.893
 8571SOL    HW226613   1.803   1.020   2.758
 8572SOL     OW26614   2.364   4.493   5.657
 8572SOL    HW126615   2.436   4.542   5.608
 8572SOL    HW226616   2.306   4.558   5.706
 8573SOL     OW26617   3.443   6.429   0.403
 8573SOL    HW126618   3.350   6.434   0.367
 8573SOL    HW226619   3.501   6.493   0.353
 8574SOL     OW26620   5.227   0.602   4.942
 8574SOL    HW126621   5.225   0.606   4.842
 8574SOL    HW226622   5.137   0.624   4.979
 8575SOL     OW26623   3.076   6.058   3.634
 8575SOL    HW126624   3.013   5.989   3.599
 8575SOL    HW226625   3.073   6.059   3.734
 8576SOL     OW26626   1.419   4.696   3.463
 8576SOL    HW126627   1.450   4.641   3.541
 8576SOL    HW226628   1.483   4.685   3.388
 8577SOL     OW26629   1.680   1.873   0.564
 8577SOL    HW126630   1.607   1.928   0.523
 8577SOL    HW226631   1.729   1.824   0.492
 8578SOL     OW26632   0.066   6.697   6.515
 8578SOL    HW126633   0.111   6.636   6.450
 8578SOL    HW226634   6.991   6.699   6.497
 8579SOL     OW26635   2.611   6.623   2.167
 8579SOL    HW126636   2.619   6.530   2.131
 8579SOL    HW226637   2.550   6.623   2.246
 8580SOL     OW26638   1.958   0.798   1.081
 8580SOL    HW126639   1.936   0.720   1.140
 8580SOL    HW226640   2.020   0.860   1.130
 8581SOL     OW26641   3.494   4.814   1.564
 8581SOL    HW126642   3.462   4.720   1.559
 8581SOL    HW226643   3.460   4.857   1.648
 8582SOL     OW26644   3.390   4.883   5.717
 8582SOL    HW126645   3.417   4.798   5.673
 8582SOL    HW226646   3.301   4.912   5.682
 8583SOL     OW26647   4.054   0.762   2.671
 8583SOL    HW126648   3.989   0.802   2.735
 8583SOL    HW226649   4.090   0.833   2.610
 8584SOL     OW26650   6.938   1.650   5.353
 8584SOL    HW126651   6.917   1.641   5.256
 8584SOL    HW226652   6.881   1.721   5.394
 8585SOL     OW26653   5.328   2.618   2.342
 8585SOL    HW126654   5.254   2.580   2.286
 8585SOL    HW226655   5.320   2.583   2.435
 8586SOL     OW26656   6.721   5.912   0.216
 8586SOL    HW126657   6.729   6.003   0.255
 8586SOL    HW226658   6.749   5.844   0.283
 8587SOL     OW26659   0.779   1.538   6.913
 8587SOL    HW126660   0.868   1.513   6.875
 8587SOL    HW226661   0.725   1.586   6.843
 8588SOL     OW26662   3.076   1.852   6.185
 8588SOL    HW126663   3.031   1.850   6.095
 8588SOL    HW226664   3.019   1.805   6.252
 8589SOL     OW26665   6.503   2.966   6.967
 8589SOL    HW126666   6.405   2.986   6.974
 8589SOL    HW226667   6.549   3.040   6.918
 8590SOL     OW26668   1.004   0.312   4.398
 8590SOL    HW126669   0.959   0.239   4.448
 8590SOL    HW226670   1.101   0.290   4.385
 8591SOL     OW26671   6.789   4.176   6.651
 8591SOL    HW126672   6.792   4.240   6.574
 8591SOL    HW226673   6.850   4.209   6.724
 8592SOL     OW26674   0.395   1.822   5.144
 8592SOL    HW126675   0.361   1.822   5.050
 8592SOL    HW226676   0.325   1.859   5.205
 8593SOL     OW26677   4.392   1.558   6.924
 8593SOL    HW126678   4.293   1.545   6.937
 8593SOL    HW226679   4.429   1.606   7.004
 8594SOL     OW26680   6.514   2.899   6.154
 8594SOL    HW126681   6.497   2.881   6.251
 8594SOL    HW226682   6.495   2.816   6.102
 8595SOL     OW26683   6.200   6.714   3.315
 8595SOL    HW126684   6.213   6.616   3.299
 8595SOL    HW226685   6.128   6.748   3.255
 8596SOL     OW26686   1.041   1.385   4.393
 8596SOL    HW126687   1.021   1.358   4.299
 8596SOL    HW226688   1.130   1.430   4.397
 8597SOL     OW26689   5.462   3.692   6.922
 8597SOL    HW126690   5.506   3.728   6.839
 8597SOL    HW226691   5.376   3.647   6.897
 8598SOL     OW26692   6.010   6.438   4.672
 8598SOL    HW126693   6.094   6.399   4.710
 8598SOL    HW226694   5.972   6.375   4.603
 8599SOL     OW26695   6.938   3.489   4.181
 8599SOL    HW126696   6.967   3.567   4.126
 8599SOL    HW226697   6.874   3.520   4.252
 8600SOL     OW26698   4.798   1.782   0.874
 8600SOL    HW126699   4.699   1.786   0.860
 8600SOL    HW226700   4.843   1.830   0.799
 8601SOL     OW26701   0.584   5.991   4.157
 8601SOL    HW126702   0.519   6.054   4.201
 8601SOL    HW226703   0.556   5.897   4.175
 8602SOL     OW26704   2.173   6.261   4.933
 8602SOL    HW126705   2.088   6.263   4.880
 8602SOL    HW226706   2.239   6.325   4.893
 8603SOL     OW26707   0.196   0.156   0.490
 8603SOL    HW126708   0.244   0.192   0.570
 8603SOL    HW226709   0.127   0.222   0.460
 8604SOL     OW26710   0.163   4.358   6.621
 8604SOL    HW126711   0.160   4.386   6.525
 8604SOL    HW226712   0.228   4.415   6.671
 8605SOL     OW26713   6.574   4.916   4.870
 8605SOL    HW126714   6.559   4.972   4.789
 8605SOL    HW226715   6.570   4.819   4.845
 8606SOL     OW26716   1.851   2.311   0.600
 8606SOL    HW126717   1.767   2.307   0.653
 8606SOL    HW226718   1.875   2.219   0.568
 8607SOL     OW26719   2.626   4.244   1.557
 8607SOL    HW126720   2.576   4.311   1.612
 8607SOL    HW226721   2.629   4.157   1.606
 8608SOL     OW26722   1.806   5.041   2.720
 8608SOL    HW126723   1.870   4.977   2.678
 8608SOL    HW226724   1.855   5.124   2.748
 8609SOL     OW26725   4.219   1.804   4.004
 8609SOL    HW126726   4.308   1.758   3.997
 8609SOL    HW226727   4.222   1.871   4.079
 8610SOL     OW26728   6.708   6.171   3.437
 8610SOL    HW126729   6.668   6.261   3.456
 8610SOL    HW226730   6.806   6.181   3.422
 8611SOL     OW26731   3.224   1.633   5.045
 8611SOL    HW126732   3.201   1.693   4.968
 8611SOL    HW226733   3.188   1.673   5.130
 8612SOL     OW26734   3.480   3.809   4.046
 8612SOL    HW126735   3.503   3.810   3.948
 8612SOL    HW226736   3.483   3.902   4.082
 8613SOL     OW26737   3.834   2.970   2.063
 8613SOL    HW126738   3.754   2.914   2.045
 8613SOL    HW226739   3.901   2.957   1.990
 8614SOL     OW26740   1.929   1.528   2.955
 8614SOL    HW126741   1.877   1.533   2.870
 8614SOL    HW226742   1.943   1.620   2.991
 8615SOL     OW26743   4.001   1.368   4.339
 8615SOL    HW126744   4.073   1.438   4.343
 8615SOL    HW226745   4.025   1.293   4.400
 8616SOL     OW26746   5.725   4.277   3.198
 8616SOL    HW126747   5.665   4.345   3.239
 8616SOL    HW226748   5.676   4.191   3.185
 8617SOL     OW26749   2.861   0.453   3.638
 8617SOL    HW126750   2.774   0.466   3.686
 8617SOL    HW226751   2.875   0.356   3.620
 8618SOL     OW26752   5.126   4.296   0.955
 8618SOL    HW126753   5.219   4.311   0.921
 8618SOL    HW226754   5.108   4.358   1.031
 8619SOL     OW26755   4.849   5.208   0.843
 8619SOL    HW126756   4.913   5.133   0.827
 8619SOL    HW226757   4.901   5.293   0.857
 8620SOL     OW26758   2.713   0.731   4.443
 8620SOL    HW126759   2.772   0.658   4.479
 8620SOL    HW226760   2.619   0.715   4.472
 8621SOL     OW26761   5.776   3.059   1.824
 8621SOL    HW126762   5.778   3.093   1.730
 8621SOL    HW226763   5.695   3.002   1.837
 8622SOL     OW26764   6.938   5.218   2.827
 8622SOL    HW126765   6.988   5.223   2.914
 8622SOL    HW226766   6.845   5.253   2.841
 8623SOL     OW26767   1.038   3.620   4.370
 8623SOL    HW126768   0.972   3.672   4.423
 8623SOL    HW226769   1.013   3.624   4.273
 8624SOL     OW26770   3.009   3.957   4.824
 8624SOL    HW126771   3.017   4.023   4.749
 8624SOL    HW226772   2.937   3.891   4.802
 8625SOL     OW26773   4.134   2.801   5.762
 8625SOL    HW126774   4.077   2.882   5.747
 8625SOL    HW226775   4.220   2.828   5.805
 8626SOL     OW26776   3.687   3.732   0.585
 8626SOL    HW126777   3.668   3.655   0.646
 8626SOL    HW226778   3.769   3.712   0.531
 8627SOL     OW26779   2.036   0.925   1.790
 8627SOL    HW126780   2.072   0.904   1.699
 8627SOL    HW226781   1.954   0.981   1.782
 8628SOL     OW26782   0.353   6.590   1.067
 8628SOL    HW126783   0.286   6.539   1.121
 8628SOL    HW226784   0.377   6.675   1.115
 8629SOL     OW26785   0.224   6.449   5.720
 8629SOL    HW126786   0.303   6.443   5.780
 8629SOL    HW226787   0.169   6.529   5.745
 8630SOL     OW26788   4.895   3.235   2.326
 8630SOL    HW126789   4.867   3.140   2.342
 8630SOL    HW226790   4.872   3.261   2.233
 8631SOL     OW26791   2.763   6.882   6.746
 8631SOL    HW126792   2.685   6.819   6.742
 8631SOL    HW226793   2.742   6.956   6.810
 8632SOL     OW26794   5.425   5.374   5.381
 8632SOL    HW126795   5.358   5.303   5.360
 8632SOL    HW226796   5.457   5.363   5.475
 8633SOL     OW26797   5.747   4.514   5.870
 8633SOL    HW126798   5.713   4.594   5.920
 8633SOL    HW226799   5.702   4.431   5.906
 8634SOL     OW26800   4.388   2.700   0.518
 8634SOL    HW126801   4.427   2.792   0.516
 8634SOL    HW226802   4.424   2.650   0.597
 8635SOL     OW26803   5.404   2.597   6.123
 8635SOL    HW126804   5.337   2.640   6.062
 8635SOL    HW226805   5.372   2.605   6.217
 8636SOL     OW26806   4.401   0.010   2.122
 8636SOL    HW126807   4.386   6.934   2.120
 8636SOL    HW226808   4.496   0.029   2.145
 8637SOL     OW26809   1.402   2.134   6.999
 8637SOL    HW126810   1.316   2.098   6.962
 8637SOL    HW226811   1.388   2.164   0.069
 8638SOL     OW26812   4.982   2.552   4.201
 8638SOL    HW126813   5.024   2.557   4.110
 8638SOL    HW226814   4.912   2.481   4.202
 8639SOL     OW26815   3.602   3.938   0.034
 8639SOL    HW126816   3.546   3.856   0.023
 8639SOL    HW226817   3.584   3.978   0.124
 8640SOL     OW26818   2.938   3.244   0.756
 8640SOL    HW126819   2.938   3.160   0.810
 8640SOL    HW226820   2.866   3.305   0.790
 8641SOL     OW26821   4.767   5.704   2.047
 8641SOL    HW126822   4.809   5.762   1.978
 8641SOL    HW226823   4.689   5.656   2.008
 8642SOL     OW26824   0.777   5.799   3.419
 8642SOL    HW126825   0.710   5.747   3.365
 8642SOL    HW226826   0.822   5.738   3.484
 8643SOL     OW26827   3.852   6.247   1.347
 8643SOL    HW126828   3.800   6.165   1.324
 8643SOL    HW226829   3.852   6.259   1.447
 8644SOL     OW26830   6.199   2.164   6.305
 8644SOL    HW126831   6.272   2.167   6.373
 8644SOL    HW226832   6.235   2.127   6.220
 8645SOL     OW26833   5.854   4.278   2.964
 8645SOL    HW126834   5.810   4.342   2.901
 8645SOL    HW226835   5.792   4.260   3.041
 8646SOL     OW26836   6.422   1.960   5.175
 8646SOL    HW126837   6.355   1.996   5.240
 8646SOL    HW226838   6.398   1.866   5.152
 8647SOL     OW26839   2.303   5.365   1.799
 8647SOL    HW126840   2.218   5.369   1.852
 8647SOL    HW226841   2.301   5.436   1.729
 8648SOL     OW26842   5.069   5.020   0.817
 8648SOL    HW126843   5.165   5.005   0.841
 8648SOL    HW226844   5.019   4.933   0.823
 8649SOL     OW26845   5.481   0.414   0.676
 8649SOL    HW126846   5.402   0.472   0.697
 8649SOL    HW226847   5.449   0.328   0.637
 8650SOL     OW26848   2.351   6.480   4.864
 8650SOL    HW126849   2.349   6.547   4.938
 8650SOL    HW226850   2.279   6.500   4.799
 8651SOL     OW26851   3.187   1.970   1.137
 8651SOL    HW126852   3.255   1.964   1.210
 8651SOL    HW226853   3.232   1.987   1.050
 8652SOL     OW26854   1.125   2.553   3.535
 8652SOL    HW126855   1.132   2.462   3.494
 8652SOL    HW226856   1.129   2.546   3.634
 8653SOL     OW26857   6.408   1.665   6.802
 8653SOL    HW126858   6.425   1.575   6.840
 8653SOL    HW226859   6.454   1.673   6.713
 8654SOL     OW26860   0.133   4.495   1.855
 8654SOL    HW126861   0.185   4.423   1.808
 8654SOL    HW226862   0.112   4.466   1.948
 8655SOL     OW26863   0.376   0.630   4.666
 8655SOL    HW126864   0.344   0.651   4.758
 8655SOL    HW226865   0.301   0.646   4.601
 8656SOL     OW26866   4.981   0.377   1.084
 8656SOL    HW126867   5.030   0.319   1.019
 8656SOL    HW226868   5.029   0.463   1.095
 8657SOL     OW26869   4.195   1.217   3.241
 8657SOL    HW126870   4.286   1.212   3.283
 8657SOL    HW226871   4.204   1.227   3.142
 8658SOL     OW26872   6.235   4.385   0.872
 8658SOL    HW126873   6.242   4.352   0.967
 8658SOL    HW226874   6.156   4.446   0.863
 8659SOL     OW26875   3.456   1.134   2.920
 8659SOL    HW126876   3.429   1.049   2.876
 8659SOL    HW226877   3.553   1.129   2.946
 8660SOL     OW26878   6.905   3.870   1.808
 8660SOL    HW126879   6.921   3.942   1.875
 8660SOL    HW226880   6.948   3.785   1.839
 8661SOL     OW26881   6.485   3.889   2.652
 8661SOL    HW126882   6.576   3.881   2.612
 8661SOL    HW226883   6.431   3.956   2.600
 8662SOL     OW26884   2.214   4.154   2.975
 8662SOL    HW126885   2.235   4.248   2.948
 8662SOL    HW226886   2.122   4.130   2.946
 8663SOL     OW26887   4.333   5.632   2.648
 8663SOL    HW126888   4.332   5.725   2.610
 8663SOL    HW226889   4.284   5.631   2.735
 8664SOL     OW26890   3.505   5.991   3.589
 8664SOL    HW126891   3.576   5.994   3.519
 8664SOL    HW226892   3.542   6.021   3.677
 8665SOL     OW26893   5.176   3.541   6.952
 8665SOL    HW126894   5.158   3.452   6.909
 8665SOL    HW226895   5.153   3.535   0.026
 8666SOL     OW26896   4.584   6.703   2.385
 8666SOL    HW126897   4.526   6.707   2.304
 8666SOL    HW226898   4.575   6.788   2.437
 8667SOL     OW26899   4.971   2.103   3.089
 8667SOL    HW126900   5.028   2.180   3.119
 8667SOL    HW226901   4.894   2.092   3.153
 8668SOL     OW26902   5.123   2.320   4.767
 8668SOL    HW126903   5.116   2.394   4.700
 8668SOL    HW226904   5.036   2.270   4.770
 8669SOL     OW26905   6.346   6.131   6.390
 8669SOL    HW126906   6.336   6.087   6.301
 8669SOL    HW226907   6.337   6.231   6.378
 8670SOL     OW26908   6.398   4.311   6.359
 8670SOL    HW126909   6.340   4.300   6.278
 8670SOL    HW226910   6.487   4.269   6.341
 8671SOL     OW26911   0.600   2.765   2.862
 8671SOL    HW126912   0.502   2.762   2.884
 8671SOL    HW226913   0.612   2.784   2.765
 8672SOL     OW26914   0.766   0.994   2.921
 8672SOL    HW126915   0.755   1.059   2.996
 8672SOL    HW226916   0.689   1.001   2.859
 8673SOL     OW26917   0.303   1.713   1.682
 8673SOL    HW126918   0.370   1.640   1.698
 8673SOL    HW226919   0.211   1.677   1.697
 8674SOL     OW26920   0.217   3.804   3.653
 8674SOL    HW126921   0.286   3.778   3.585
 8674SOL    HW226922   0.167   3.885   3.620
 8675SOL     OW26923   3.351   2.244   5.347
 8675SOL    HW126924   3.373   2.159   5.298
 8675SOL    HW226925   3.312   2.310   5.283
 8676SOL     OW26926   5.254   1.246   0.748
 8676SOL    HW126927   5.286   1.155   0.774
 8676SOL    HW226928   5.155   1.242   0.731
 8677SOL     OW26929   2.496   6.693   6.381
 8677SOL    HW126930   2.480   6.617   6.318
 8677SOL    HW226931   2.546   6.766   6.333
 8678SOL     OW26932   1.277   1.791   0.660
 8678SOL    HW126933   1.361   1.842   0.676
 8678SOL    HW226934   1.221   1.839   0.592
 8679SOL     OW26935   1.445   1.947   5.603
 8679SOL    HW126936   1.387   1.872   5.571
 8679SOL    HW226937   1.541   1.922   5.591
 8680SOL     OW26938   6.767   1.077   0.187
 8680SOL    HW126939   6.808   0.998   0.141
 8680SOL    HW226940   6.667   1.068   0.184
 8681SOL     OW26941   5.613   6.315   1.614
 8681SOL    HW126942   5.570   6.393   1.659
 8681SOL    HW226943   5.544   6.265   1.563
 8682SOL     OW26944   1.867   0.571   1.229
 8682SOL    HW126945   1.817   0.638   1.284
 8682SOL    HW226946   1.834   0.479   1.250
 8683SOL     OW26947   1.682   4.343   4.260
 8683SOL    HW126948   1.600   4.387   4.222
 8683SOL    HW226949   1.740   4.412   4.303
 8684SOL     OW26950   1.725   4.108   4.169
 8684SOL    HW126951   1.714   4.199   4.208
 8684SOL    HW226952   1.670   4.101   4.086
 8685SOL     OW26953   4.872   2.209   4.767
 8685SOL    HW126954   4.787   2.260   4.755
 8685SOL    HW226955   4.862   2.146   4.844
 8686SOL     OW26956   1.339   5.588   3.114
 8686SOL    HW126957   1.258   5.641   3.089
 8686SOL    HW226958   1.403   5.647   3.164
 8687SOL     OW26959   4.777   4.524   6.173
 8687SOL    HW126960   4.715   4.592   6.213
 8687SOL    HW226961   4.839   4.569   6.109
 8688SOL     OW26962   0.516   3.923   5.192
 8688SOL    HW126963   0.486   3.942   5.286
 8688SOL    HW226964   0.441   3.940   5.129
 8689SOL     OW26965   3.906   3.549   6.994
 8689SOL    HW126966   3.915   3.645   7.021
 8689SOL    HW226967   3.818   3.514   0.004
 8690SOL     OW26968   1.688   2.489   2.722
 8690SOL    HW126969   1.718   2.583   2.708
 8690SOL    HW226970   1.714   2.434   2.643
 8691SOL     OW26971   3.400   2.537   5.354
 8691SOL    HW126972   3.344   2.495   5.283
 8691SOL    HW226973   3.484   2.484   5.366
 8692SOL     OW26974   4.308   1.647   5.104
 8692SOL    HW126975   4.377   1.578   5.087
 8692SOL    HW226976   4.229   1.630   5.044
 8693SOL     OW26977   6.387   6.977   6.065
 8693SOL    HW126978   6.350   6.957   6.156
 8693SOL    HW226979   6.394   0.053   6.054
 8694SOL     OW26980   5.858   3.506   5.022
 8694SOL    HW126981   5.823   3.433   4.963
 8694SOL    HW226982   5.783   3.564   5.052
 8695SOL     OW26983   3.701   4.514   6.206
 8695SOL    HW126984   3.618   4.490   6.155
 8695SOL    HW226985   3.777   4.458   6.174
 8696SOL     OW26986   2.938   5.062   5.724
 8696SOL    HW126987   2.901   5.103   5.807
 8696SOL    HW226988   2.871   5.069   5.651
 8697SOL     OW26989   1.818   3.766   5.514
 8697SOL    HW126990   1.746   3.827   5.548
 8697SOL    HW226991   1.891   3.819   5.474
 8698SOL     OW26992   5.537   5.788   5.765
 8698SOL    HW126993   5.557   5.834   5.678
 8698SOL    HW226994   5.604   5.716   5.781
 8699SOL     OW26995   1.060   2.944   6.363
 8699SOL    HW126996   1.105   2.879   6.424
 8699SOL    HW226997   0.962   2.947   6.383
 8700SOL     OW26998   1.306   0.248   3.837
 8700SOL    HW126999   1.223   0.210   3.878
 8700SOL    HW227000   1.372   0.271   3.909
 8701SOL     OW27001   0.544   2.443   0.510
 8701SOL    HW127002   0.618   2.477   0.567
 8701SOL    HW227003   0.581   2.412   0.422
 8702SOL     OW27004   4.974   5.128   1.837
 8702SOL    HW127005   4.967   5.031   1.861
 8702SOL    HW227006   5.045   5.140   1.768
 8703SOL     OW27007   2.358   5.849   1.056
 8703SOL    HW127008   2.271   5.799   1.055
 8703SOL    HW227009   2.349   5.931   1.112
 8704SOL     OW27010   0.830   0.382   4.905
 8704SOL    HW127011   0.742   0.425   4.882
 8704SOL    HW227012   0.888   0.380   4.824
 8705SOL     OW27013   4.050   2.409   6.788
 8705SOL    HW127014   4.027   2.436   6.695
 8705SOL    HW227015   3.966   2.398   6.841
 8706SOL     OW27016   4.708   3.473   6.066
 8706SOL    HW127017   4.768   3.395   6.084
 8706SOL    HW227018   4.614   3.449   6.093
 8707SOL     OW27019   1.671   1.894   5.391
 8707SOL    HW127020   1.586   1.885   5.338
 8707SOL    HW227021   1.738   1.829   5.356
 8708SOL     OW27022   5.921   2.868   0.131
 8708SOL    HW127023   5.853   2.825   0.072
 8708SOL    HW227024   5.999   2.806   0.143
 8709SOL     OW27025   6.330   6.931   5.623
 8709SOL    HW127026   6.342   6.832   5.638
 8709SOL    HW227027   6.400   6.964   5.560
 8710SOL     OW27028   2.388   1.102   3.388
 8710SOL    HW127029   2.307   1.125   3.443
 8710SOL    HW227030   2.360   1.087   3.293
 8711SOL     OW27031   1.510   1.123   1.716
 8711SOL    HW127032   1.466   1.208   1.685
 8711SOL    HW227033   1.523   1.062   1.638
 8712SOL     OW27034   1.930   4.197   5.719
 8712SOL    HW127035   1.860   4.172   5.653
 8712SOL    HW227036   2.000   4.253   5.675
 8713SOL     OW27037   0.287   3.894   1.840
 8713SOL    HW127038   0.291   3.810   1.894
 8713SOL    HW227039   0.223   3.958   1.883
 8714SOL     OW27040   0.246   5.683   6.489
 8714SOL    HW127041   0.206   5.712   6.577
 8714SOL    HW227042   0.233   5.585   6.477
 8715SOL     OW27043   2.053   3.355   1.557
 8715SOL    HW127044   2.128   3.299   1.593
 8715SOL    HW227045   1.986   3.297   1.513
 8716SOL     OW27046   6.671   6.866   2.206
 8716SOL    HW127047   6.622   6.800   2.149
 8716SOL    HW227048   6.763   6.831   2.224
 8717SOL     OW27049   2.765   3.683   0.653
 8717SOL    HW127050   2.765   3.635   0.565
 8717SOL    HW227051   2.826   3.635   0.716
 8718SOL     OW27052   2.270   4.741   6.070
 8718SOL    HW127053   2.359   4.780   6.091
 8718SOL    HW227054   2.222   4.800   6.004
 8719SOL     OW27055   3.453   0.562   5.443
 8719SOL    HW127056   3.442   0.653   5.404
 8719SOL    HW227057   3.548   0.533   5.434
 8720SOL     OW27058   6.806   5.495   4.999
 8720SOL    HW127059   6.880   5.527   5.058
 8720SOL    HW227060   6.719   5.535   5.029
 8721SOL     OW27061   0.219   0.161   6.814
 8721SOL    HW127062   0.296   0.225   6.810
 8721SOL    HW227063   0.243   0.077   6.766
 8722SOL     OW27064   3.472   0.982   1.279
 8722SOL    HW127065   3.540   0.956   1.347
 8722SOL    HW227066   3.500   0.946   1.190
 8723SOL     OW27067   4.014   0.497   2.671
 8723SOL    HW127068   4.018   0.596   2.665
 8723SOL    HW227069   4.085   0.464   2.734
 8724SOL     OW27070   4.147   0.913   4.362
 8724SOL    HW127071   4.184   0.991   4.412
 8724SOL    HW227072   4.111   0.943   4.274
 8725SOL     OW27073   0.238   6.750   3.403
 8725SOL    HW127074   0.175   6.737   3.479
 8725SOL    HW227075   0.327   6.712   3.427
 8726SOL     OW27076   0.289   0.833   0.968
 8726SOL    HW127077   0.373   0.791   1.003
 8726SOL    HW227078   0.275   0.805   0.873
 8727SOL     OW27079   4.765   6.551   6.111
 8727SOL    HW127080   4.752   6.470   6.054
 8727SOL    HW227081   4.676   6.583   6.144
 8728SOL     OW27082   6.435   6.909   4.063
 8728SOL    HW127083   6.341   6.880   4.078
 8728SOL    HW227084   6.471   6.948   4.148
 8729SOL     OW27085   4.357   6.201   6.280
 8729SOL    HW127086   4.268   6.230   6.244
 8729SOL    HW227087   4.367   6.233   6.374
 8730SOL     OW27088   4.584   5.240   1.264
 8730SOL    HW127089   4.500   5.272   1.220
 8730SOL    HW227090   4.615   5.156   1.219
 8731SOL     OW27091   0.106   1.614   3.530
 8731SOL    HW127092   0.073   1.524   3.500
 8731SOL    HW227093   0.049   1.647   3.605
 8732SOL     OW27094   6.359   6.730   0.424
 8732SOL    HW127095   6.355   6.824   0.456
 8732SOL    HW227096   6.341   6.668   0.500
 8733SOL     OW27097   6.147   5.316   2.485
 8733SOL    HW127098   6.130   5.414   2.491
 8733SOL    HW227099   6.121   5.272   2.571
 8734SOL     OW27100   6.938   3.671   2.448
 8734SOL    HW127101   6.994   3.658   2.530
 8734SOL    HW227102   6.992   3.650   2.367
 8735SOL     OW27103   6.954   3.521   5.309
 8735SOL    HW127104   6.914   3.589   5.248
 8735SOL    HW227105   0.001   3.469   5.260
 8736SOL     OW27106   1.152   5.997   4.094
 8736SOL    HW127107   1.101   5.930   4.147
 8736SOL    HW227108   1.246   5.967   4.083
 8737SOL     OW27109   1.824   6.421   6.925
 8737SOL    HW127110   1.845   6.404   7.021
 8737SOL    HW227111   1.732   6.387   6.904
 8738SOL     OW27112   1.278   2.805   3.328
 8738SOL    HW127113   1.184   2.835   3.311
 8738SOL    HW227114   1.304   2.828   3.422
 8739SOL     OW27115   5.077   4.332   5.993
 8739SOL    HW127116   5.018   4.333   6.074
 8739SOL    HW227117   5.171   4.313   6.020
 8740SOL     OW27118   2.936   0.517   4.922
 8740SOL    HW127119   2.896   0.481   4.837
 8740SOL    HW227120   2.955   0.441   4.984
 8741SOL     OW27121   1.225   0.402   2.630
 8741SOL    HW127122   1.300   0.404   2.563
 8741SOL    HW227123   1.240   0.473   2.699
 8742SOL     OW27124   2.775   1.713   2.455
 8742SOL    HW127125   2.865   1.678   2.431
 8742SOL    HW227126   2.742   1.772   2.380
 8743SOL     OW27127   0.553   2.095   1.710
 8743SOL    HW127128   0.488   2.160   1.750
 8743SOL    HW227129   0.635   2.144   1.682
 8744SOL     OW27130   3.385   4.467   5.778
 8744SOL    HW127131   3.313   4.499   5.840
 8744SOL    HW227132   3.353   4.385   5.730
 8745SOL     OW27133   5.629   0.745   6.140
 8745SOL    HW127134   5.598   0.823   6.195
 8745SOL    HW227135   5.689   0.687   6.195
 8746SOL     OW27136   4.908   5.580   5.327
 8746SOL    HW127137   4.941   5.495   5.286
 8746SOL    HW227138   4.811   5.591   5.307
 8747SOL     OW27139   0.498   0.219   2.435
 8747SOL    HW127140   0.501   0.177   2.345
 8747SOL    HW227141   0.586   0.206   2.481
 8748SOL     OW27142   6.375   1.960   3.881
 8748SOL    HW127143   6.454   1.905   3.858
 8748SOL    HW227144   6.349   1.944   3.976
 8749SOL     OW27145   2.557   1.567   4.115
 8749SOL    HW127146   2.557   1.572   4.215
 8749SOL    HW227147   2.465   1.590   4.081
 8750SOL     OW27148   3.949   3.799   0.090
 8750SOL    HW127149   4.007   3.749   0.154
 8750SOL    HW227150   3.910   3.879   0.136
 8751SOL     OW27151   2.133   6.093   0.940
 8751SOL    HW127152   2.216   6.145   0.960
 8751SOL    HW227153   2.145   6.041   0.856
 8752SOL     OW27154   6.127   2.917   5.803
 8752SOL    HW127155   6.148   2.984   5.732
 8752SOL    HW227156   6.122   2.962   5.892
 8753SOL     OW27157   2.507   2.576   0.894
 8753SOL    HW127158   2.488   2.483   0.863
 8753SOL    HW227159   2.550   2.572   0.984
 8754SOL     OW27160   1.745   4.956   6.733
 8754SOL    HW127161   1.669   4.930   6.673
 8754SOL    HW227162   1.812   5.008   6.680
 8755SOL     OW27163   0.171   2.772   1.220
 8755SOL    HW127164   0.117   2.733   1.145
 8755SOL    HW227165   0.261   2.798   1.186
 8756SOL     OW27166   1.998   2.124   1.744
 8756SOL    HW127167   2.069   2.057   1.722
 8756SOL    HW227168   1.908   2.083   1.730
 8757SOL     OW27169   5.462   5.990   5.351
 8757SOL    HW127170   5.548   5.942   5.368
 8757SOL    HW227171   5.432   6.034   5.436
 8758SOL     OW27172   3.716   5.717   4.914
 8758SOL    HW127173   3.708   5.749   4.820
 8758SOL    HW227174   3.662   5.634   4.927
 8759SOL     OW27175   5.926   0.549   0.701
 8759SOL    HW127176   5.906   0.613   0.775
 8759SOL    HW227177   5.978   0.472   0.737
 8760SOL     OW27178   2.657   2.316   4.159
 8760SOL    HW127179   2.652   2.221   4.190
 8760SOL    HW227180   2.716   2.322   4.078
 8761SOL     OW27181   5.470   1.696   2.122
 8761SOL    HW127182   5.528   1.653   2.190
 8761SOL    HW227183   5.526   1.738   2.050
 8762SOL     OW27184   2.563   5.180   3.005
 8762SOL    HW127185   2.594   5.190   2.911
 8762SOL    HW227186   2.625   5.119   3.054
 8763SOL     OW27187   0.554   0.546   6.921
 8763SOL    HW127188   0.559   0.628   6.864
 8763SOL    HW227189   0.646   0.517   6.945
 8764SOL     OW27190   2.854   5.134   5.073
 8764SOL    HW127191   2.790   5.202   5.108
 8764SOL    HW227192   2.803   5.058   5.033
 8765SOL     OW27193   4.409   6.976   4.669
 8765SOL    HW127194   4.446   6.892   4.629
 8765SOL    HW227195   4.320   6.996   4.629
 8766SOL     OW27196   4.614   6.460   5.792
 8766SOL    HW127197   4.516   6.448   5.806
 8766SOL    HW227198   4.657   6.372   5.771
 8767SOL     OW27199   2.038   1.275   4.211
 8767SOL    HW127200   2.113   1.303   4.151
 8767SOL    HW227201   2.037   1.331   4.293
 8768SOL     OW27202   6.103   1.668   6.854
 8768SOL    HW127203   6.043   1.633   6.781
 8768SOL    HW227204   6.198   1.657   6.826
 8769SOL     OW27205   6.525   6.904   0.150
 8769SOL    HW127206   6.548   6.923   0.246
 8769SOL    HW227207   6.576   6.965   0.090
 8770SOL     OW27208   5.349   3.091   0.441
 8770SOL    HW127209   5.340   3.113   0.538
 8770SOL    HW227210   5.288   3.150   0.388
 8771SOL     OW27211   0.281   3.251   0.242
 8771SOL    HW127212   0.338   3.244   0.160
 8771SOL    HW227213   0.294   3.340   0.284
 8772SOL     OW27214   6.956   6.737   4.070
 8772SOL    HW127215   6.917   6.653   4.032
 8772SOL    HW227216   6.981   6.799   3.996
 8773SOL     OW27217   6.997   0.760   4.311
 8773SOL    HW127218   6.972   0.719   4.224
 8773SOL    HW227219   0.066   0.731   4.337
 8774SOL     OW27220   1.575   1.634   0.288
 8774SOL    HW127221   1.557   1.695   0.211
 8774SOL    HW227222   1.518   1.552   0.281
 8775SOL     OW27223   5.630   2.520   4.148
 8775SOL    HW127224   5.568   2.443   4.133
 8775SOL    HW227225   5.620   2.585   4.074
 8776SOL     OW27226   4.418   2.966   0.502
 8776SOL    HW127227   4.372   2.998   0.585
 8776SOL    HW227228   4.476   3.040   0.466
 8777SOL     OW27229   6.955   2.162   3.050
 8777SOL    HW127230   6.926   2.085   3.107
 8777SOL    HW227231   6.876   2.220   3.029
 8778SOL     OW27232   3.270   4.853   6.835
 8778SOL    HW127233   3.234   4.806   6.754
 8778SOL    HW227234   3.355   4.900   6.811
 8779SOL     OW27235   4.480   4.915   3.559
 8779SOL    HW127236   4.439   4.832   3.598
 8779SOL    HW227237   4.408   4.979   3.533
 8780SOL     OW27238   6.853   4.438   4.289
 8780SOL    HW127239   6.875   4.475   4.379
 8780SOL    HW227240   6.765   4.475   4.258
 8781SOL     OW27241   3.165   0.574   1.974
 8781SOL    HW127242   3.253   0.574   1.927
 8781SOL    HW227243   3.104   0.641   1.931
 8782SOL     OW27244   4.957   2.055   0.902
 8782SOL    HW127245   5.018   2.127   0.938
 8782SOL    HW227246   5.006   2.003   0.832
 8783SOL     OW27247   5.173   3.418   4.500
 8783SOL    HW127248   5.241   3.422   4.573
 8783SOL    HW227249   5.176   3.503   4.447
 8784SOL     OW27250   5.197   0.974   1.406
 8784SOL    HW127251   5.149   0.953   1.491
 8784SOL    HW227252   5.237   0.891   1.368
 8785SOL     OW27253   0.293   5.483   5.589
 8785SOL    HW127254   0.298   5.469   5.490
 8785SOL    HW227255   0.385   5.480   5.628
 8786SOL     OW27256   4.513   1.717   3.115
 8786SOL    HW127257   4.450   1.720   3.193
 8786SOL    HW227258   4.539   1.810   3.090
 8787SOL     OW27259   3.707   6.031   1.238
 8787SOL    HW127260   3.651   5.989   1.310
 8787SOL    HW227261   3.681   5.992   1.150
 8788SOL     OW27262   1.256   6.631   3.784
 8788SOL    HW127263   1.193   6.610   3.709
 8788SOL    HW227264   1.299   6.720   3.768
 8789SOL     OW27265   0.032   2.680   6.529
 8789SOL    HW127266   6.987   2.607   6.540
 8789SOL    HW227267   0.114   2.642   6.486
 8790SOL     OW27268   4.807   3.745   5.540
 8790SOL    HW127269   4.871   3.750   5.616
 8790SOL    HW227270   4.846   3.688   5.467
 8791SOL     OW27271   3.740   5.800   4.645
 8791SOL    HW127272   3.650   5.778   4.608
 8791SOL    HW227273   3.753   5.899   4.641
 8792SOL     OW27274   4.883   4.840   1.650
 8792SOL    HW127275   4.918   4.758   1.696
 8792SOL    HW227276   4.815   4.885   1.707
 8793SOL     OW27277   0.139   5.731   4.338
 8793SOL    HW127278   0.118   5.635   4.323
 8793SOL    HW227279   0.073   5.788   4.289
 8794SOL     OW27280   6.990   1.233   2.409
 8794SOL    HW127281   0.046   1.286   2.378
 8794SOL    HW227282   6.917   1.239   2.341
 8795SOL     OW27283   1.233   5.880   0.076
 8795SOL    HW127284   1.308   5.941   0.100
 8795SOL    HW227285   1.268   5.804   0.021
 8796SOL     OW27286   6.391   3.181   3.687
 8796SOL    HW127287   6.459   3.113   3.714
 8796SOL    HW227288   6.343   3.215   3.768
 8797SOL     OW27289   4.835   6.901   3.915
 8797SOL    HW127290   4.832   6.995   3.949
 8797SOL    HW227291   4.923   6.885   3.871
 8798SOL     OW27292   3.213   0.087   5.822
 8798SOL    HW127293   3.148   0.012   5.808
 8798SOL    HW227294   3.276   0.063   5.895
 8799SOL     OW27295   0.677   4.790   1.783
 8799SOL    HW127296   0.711   4.858   1.719
 8799SOL    HW227297   0.699   4.818   1.877
 8800SOL     OW27298   0.099   5.868   5.319
 8800SOL    HW127299   0.189   5.906   5.339
 8800SOL    HW227300   0.035   5.941   5.298
 8801SOL     OW27301   5.543   3.257   5.488
 8801SOL    HW127302   5.445   3.263   5.469
 8801SOL    HW227303   5.557   3.197   5.567
 8802SOL     OW27304   1.172   6.647   6.673
 8802SOL    HW127305   1.150   6.699   6.591
 8802SOL    HW227306   1.190   6.551   6.649
 8803SOL     OW27307   6.451   6.661   6.372
 8803SOL    HW127308   6.520   6.591   6.352
 8803SOL    HW227309   6.372   6.648   6.313
 8804SOL     OW27310   1.610   6.150   2.801
 8804SOL    HW127311   1.572   6.058   2.809
 8804SOL    HW227312   1.655   6.175   2.886
 8805SOL     OW27313   5.730   5.072   3.725
 8805SOL    HW127314   5.680   4.989   3.749
 8805SOL    HW227315   5.749   5.124   3.807
 8806SOL     OW27316   1.967   0.239   1.160
 8806SOL    HW127317   1.910   0.269   1.236
 8806SOL    HW227318   1.922   0.261   1.073
 8807SOL     OW27319   4.831   2.718   1.304
 8807SOL    HW127320   4.784   2.803   1.278
 8807SOL    HW227321   4.778   2.640   1.270
 8808SOL     OW27322   1.756   2.442   0.179
 8808SOL    HW127323   1.818   2.441   0.257
 8808SOL    HW227324   1.764   2.528   0.130
 8809SOL     OW27325   0.599   3.835   3.296
 8809SOL    HW127326   0.654   3.767   3.246
 8809SOL    HW227327   0.530   3.873   3.235
 8810SOL     OW27328   0.624   1.203   5.042
 8810SOL    HW127329   0.721   1.182   5.050
 8810SOL    HW227330   0.572   1.118   5.035
 8811SOL     OW27331   4.157   5.406   2.352
 8811SOL    HW127332   4.202   5.328   2.395
 8811SOL    HW227333   4.058   5.402   2.371
 8812SOL     OW27334   4.672   1.289   6.660
 8812SOL    HW127335   4.619   1.373   6.673
 8812SOL    HW227336   4.738   1.302   6.586
 8813SOL     OW27337   2.243   4.085   3.517
 8813SOL    HW127338   2.281   4.044   3.599
 8813SOL    HW227339   2.260   4.025   3.438
 8814SOL     OW27340   5.215   0.734   5.591
 8814SOL    HW127341   5.311   0.707   5.596
 8814SOL    HW227342   5.180   0.750   5.683
 8815SOL     OW27343   5.475   0.922   0.062
 8815SOL    HW127344   5.528   0.848   0.102
 8815SOL    HW227345   5.379   0.898   0.061
 8816SOL     OW27346   1.048   5.704   4.755
 8816SOL    HW127347   1.008   5.739   4.840
 8816SOL    HW227348   1.084   5.612   4.770
 8817SOL     OW27349   1.333   2.504   3.255
 8817SOL    HW127350   1.332   2.599   3.285
 8817SOL    HW227351   1.310   2.499   3.158
 8818SOL     OW27352   1.283   0.423   5.563
 8818SOL    HW127353   1.187   0.447   5.579
 8818SOL    HW227354   1.298   0.328   5.590
 8819SOL     OW27355   5.160   4.865   6.462
 8819SOL    HW127356   5.135   4.935   6.529
 8819SOL    HW227357   5.079   4.814   6.435
 8820SOL     OW27358   3.190   0.450   5.336
 8820SOL    HW127359   3.226   0.391   5.409
 8820SOL    HW227360   3.265   0.480   5.278
 8821SOL     OW27361   6.588   4.447   6.543
 8821SOL    HW127362   6.519   4.376   6.532
 8821SOL    HW227363   6.574   4.519   6.475
 8822SOL     OW27364   6.204   0.025   4.373
 8822SOL    HW127365   6.275   0.044   4.305
 8822SOL    HW227366   6.247   0.001   4.460
 8823SOL     OW27367   3.792   1.382   2.765
 8823SOL    HW127368   3.757   1.474   2.752
 8823SOL    HW227369   3.883   1.386   2.808
 8824SOL     OW27370   1.526   0.746   2.015
 8824SOL    HW127371   1.485   0.710   2.098
 8824SOL    HW227372   1.518   0.846   2.015
 8825SOL     OW27373   0.203   5.894   0.139
 8825SOL    HW127374   0.244   5.980   0.169
 8825SOL    HW227375   0.113   5.912   0.099
 8826SOL     OW27376   1.363   3.857   1.010
 8826SOL    HW127377   1.419   3.940   1.002
 8826SOL    HW227378   1.274   3.881   1.048
 8827SOL     OW27379   4.866   0.312   2.974
 8827SOL    HW127380   4.782   0.362   2.994
 8827SOL    HW227381   4.945   0.368   2.997
 8828SOL     OW27382   3.904   2.322   6.039
 8828SOL    HW127383   3.994   2.360   6.017
 8828SOL    HW227384   3.834   2.367   5.983
 8829SOL     OW27385   6.624   1.087   1.936
 8829SOL    HW127386   6.646   1.181   1.961
 8829SOL    HW227387   6.613   1.032   2.018
 8830SOL     OW27388   2.635   0.669   3.059
 8830SOL    HW127389   2.652   0.570   3.064
 8830SOL    HW227390   2.633   0.708   3.151
 8831SOL     OW27391   0.422   2.607   1.807
 8831SOL    HW127392   0.425   2.699   1.846
 8831SOL    HW227393   0.430   2.612   1.707
 8832SOL     OW27394   5.786   0.742   4.693
 8832SOL    HW127395   5.799   0.698   4.782
 8832SOL    HW227396   5.737   0.829   4.706
 8833SOL     OW27397   4.729   2.486   1.220
 8833SOL    HW127398   4.764   2.418   1.284
 8833SOL    HW227399   4.792   2.493   1.142
 8834SOL     OW27400   5.351   4.166   5.838
 8834SOL    HW127401   5.445   4.138   5.860
 8834SOL    HW227402   5.348   4.266   5.831
 8835SOL     OW27403   0.113   0.330   6.320
 8835SOL    HW127404   0.014   0.315   6.309
 8835SOL    HW227405   0.135   0.336   6.417
 8836SOL     OW27406   4.750   2.096   1.519
 8836SOL    HW127407   4.666   2.086   1.572
 8836SOL    HW227408   4.826   2.057   1.570
 8837SOL     OW27409   4.049   6.880   0.136
 8837SOL    HW127410   4.067   6.863   0.233
 8837SOL    HW227411   4.100   6.960   0.106
 8838SOL     OW27412   1.455   3.919   3.662
 8838SOL    HW127413   1.454   3.829   3.706
 8838SOL    HW227414   1.533   3.972   3.696
 8839SOL     OW27415   4.994   5.430   2.754
 8839SOL    HW127416   4.977   5.352   2.694
 8839SOL    HW227417   5.047   5.400   2.834
 8840SOL     OW27418   0.067   0.523   1.416
 8840SOL    HW127419   0.055   0.599   1.352
 8840SOL    HW227420   0.051   0.555   1.509
 8841SOL     OW27421   3.741   0.282   0.890
 8841SOL    HW127422   3.782   0.339   0.961
 8841SOL    HW227423   3.697   0.202   0.931
 8842SOL     OW27424   4.168   3.488   4.709
 8842SOL    HW127425   4.263   3.519   4.711
 8842SOL    HW227426   4.160   3.409   4.648
 8843SOL     OW27427   2.676   6.143   6.544
 8843SOL    HW127428   2.733   6.071   6.583
 8843SOL    HW227429   2.722   6.183   6.465
 8844SOL     OW27430   3.542   2.228   6.507
 8844SOL    HW127431   3.597   2.146   6.521
 8844SOL    HW227432   3.540   2.281   6.592
 8845SOL     OW27433   6.075   3.939   1.891
 8845SOL    HW127434   5.976   3.937   1.876
 8845SOL    HW227435   6.094   3.932   1.989
 8846SOL     OW27436   5.798   4.713   5.129
 8846SOL    HW127437   5.831   4.731   5.036
 8846SOL    HW227438   5.699   4.726   5.132
 8847SOL     OW27439   2.250   1.500   3.859
 8847SOL    HW127440   2.269   1.597   3.845
 8847SOL    HW227441   2.316   1.445   3.807
 8848SOL     OW27442   4.412   1.556   0.459
 8848SOL    HW127443   4.406   1.656   0.465
 8848SOL    HW227444   4.504   1.527   0.485
 8849SOL     OW27445   3.000   5.017   4.438
 8849SOL    HW127446   3.068   5.049   4.504
 8849SOL    HW227447   3.031   5.039   4.345
 8850SOL     OW27448   3.268   0.824   1.551
 8850SOL    HW127449   3.368   0.827   1.542
 8850SOL    HW227450   3.230   0.768   1.477
 8851SOL     OW27451   6.674   5.039   2.186
 8851SOL    HW127452   6.731   4.957   2.183
 8851SOL    HW227453   6.731   5.118   2.210
 8852SOL     OW27454   4.807   2.705   4.593
 8852SOL    HW127455   4.772   2.727   4.684
 8852SOL    HW227456   4.857   2.783   4.557
 8853SOL     OW27457   4.363   1.599   5.667
 8853SOL    HW127458   4.320   1.643   5.589
 8853SOL    HW227459   4.449   1.645   5.689
 8854SOL     OW27460   1.100   2.099   6.873
 8854SOL    HW127461   1.038   2.047   6.814
 8854SOL    HW227462   1.055   2.117   6.960
 8855SOL     OW27463   6.073   5.494   0.088
 8855SOL    HW127464   6.167   5.512   0.060
 8855SOL    HW227465   6.068   5.484   0.187
 8856SOL     OW27466   5.707   1.195   4.181
 8856SOL    HW127467   5.775   1.139   4.133
 8856SOL    HW227468   5.726   1.193   4.279
 8857SOL     OW27469   0.229   2.778   5.178
 8857SOL    HW127470   0.148   2.720   5.173
 8857SOL    HW227471   0.252   2.794   5.274
 8858SOL     OW27472   6.946   3.967   6.553
 8858SOL    HW127473   6.883   4.037   6.584
 8858SOL    HW227474   6.961   3.900   6.625
 8859SOL     OW27475   3.018   5.140   5.322
 8859SOL    HW127476   3.051   5.234   5.331
 8859SOL    HW227477   2.978   5.127   5.231
 8860SOL     OW27478   1.172   2.292   1.581
 8860SOL    HW127479   1.136   2.206   1.545
 8860SOL    HW227480   1.118   2.368   1.546
 8861SOL     OW27481   2.943   3.260   0.019
 8861SOL    HW127482   2.906   3.305   6.961
 8861SOL    HW227483   2.961   3.328   0.090
 8862SOL     OW27484   6.932   2.369   4.879
 8862SOL    HW127485   6.971   2.320   4.801
 8862SOL    HW227486   7.005   2.418   4.927
 8863SOL     OW27487   2.149   5.446   4.974
 8863SOL    HW127488   2.197   5.391   4.905
 8863SOL    HW227489   2.204   5.452   5.057
 8864SOL     OW27490   0.788   2.566   6.232
 8864SOL    HW127491   0.778   2.511   6.315
 8864SOL    HW227492   0.726   2.531   6.162
 8865SOL     OW27493   2.601   2.486   6.497
 8865SOL    HW127494   2.581   2.545   6.419
 8865SOL    HW227495   2.689   2.442   6.484
 8866SOL     OW27496   3.841   6.978   4.448
 8866SOL    HW127497   3.794   6.911   4.391
 8866SOL    HW227498   3.935   6.990   4.415
 8867SOL     OW27499   0.388   3.204   3.904
 8867SOL    HW127500   0.334   3.288   3.899
 8867SOL    HW227501   0.328   3.125   3.897
 8868SOL     OW27502   4.132   3.454   0.921
 8868SOL    HW127503   4.170   3.378   0.974
 8868SOL    HW227504   4.067   3.505   0.977
 8869SOL     OW27505   5.654   2.716   3.947
 8869SOL    HW127506   5.720   2.790   3.960
 8869SOL    HW227507   5.656   2.685   3.852
 8870SOL     OW27508   4.443   1.580   1.141
 8870SOL    HW127509   4.442   1.482   1.118
 8870SOL    HW227510   4.499   1.595   1.223
 8871SOL     OW27511   1.854   1.884   4.941
 8871SOL    HW127512   1.869   1.980   4.916
 8871SOL    HW227513   1.874   1.826   4.862
 8872SOL     OW27514   1.694   3.245   3.730
 8872SOL    HW127515   1.752   3.275   3.654
 8872SOL    HW227516   1.630   3.175   3.698
 8873SOL     OW27517   0.450   5.829   4.798
 8873SOL    HW127518   0.541   5.872   4.797
 8873SOL    HW227519   0.434   5.783   4.711
 8874SOL     OW27520   2.310   1.048   0.490
 8874SOL    HW127521   2.311   1.092   0.400
 8874SOL    HW227522   2.394   0.996   0.503
 8875SOL     OW27523   1.629   2.252   4.388
 8875SOL    HW127524   1.611   2.161   4.351
 8875SOL    HW227525   1.613   2.252   4.487
 8876SOL     OW27526   1.673   6.873   4.313
 8876SOL    HW127527   1.740   6.853   4.385
 8876SOL    HW227528   1.588   6.825   4.332
 8877SOL     OW27529   2.814   6.797   5.060
 8877SOL    HW127530   2.827   6.796   5.159
 8877SOL    HW227531   2.805   6.703   5.026
 8878SOL     OW27532   6.024   4.590   6.686
 8878SOL    HW127533   6.063   4.665   6.740
 8878SOL    HW227534   6.040   4.503   6.733
 8879SOL     OW27535   4.391   5.695   4.462
 8879SOL    HW127536   4.464   5.629   4.444
 8879SOL    HW227537   4.308   5.646   4.489
 8880SOL     OW27538   0.008   5.509   5.670
 8880SOL    HW127539   6.985   5.424   5.698
 8880SOL    HW227540   0.104   5.490   5.651
 8881SOL     OW27541   6.568   0.540   1.717
 8881SOL    HW127542   6.494   0.536   1.649
 8881SOL    HW227543   6.655   0.559   1.671
 8882SOL     OW27544   5.567   1.816   6.703
 8882SOL    HW127545   5.512   1.782   6.779
 8882SOL    HW227546   5.663   1.824   6.732
 8883SOL     OW27547   6.898   1.298   5.699
 8883SOL    HW127548   6.891   1.359   5.778
 8883SOL    HW227549   6.860   1.344   5.618
 8884SOL     OW27550   6.423   0.628   5.744
 8884SOL    HW127551   6.407   0.536   5.709
 8884SOL    HW227552   6.388   0.635   5.837
 8885SOL     OW27553   5.095   3.795   1.420
 8885SOL    HW127554   5.078   3.703   1.386
 8885SOL    HW227555   5.017   3.854   1.398
 8886SOL     OW27556   3.402   6.881   0.039
 8886SOL    HW127557   3.481   6.845   7.011
 8886SOL    HW227558   3.428   6.964   0.087
 8887SOL     OW27559   2.840   0.643   1.203
 8887SOL    HW127560   2.870   0.735   1.177
 8887SOL    HW227561   2.859   0.628   1.300
 8888SOL     OW27562   2.865   1.862   2.662
 8888SOL    HW127563   2.800   1.832   2.592
 8888SOL    HW227564   2.911   1.783   2.702
 8889SOL     OW27565   4.126   0.412   5.349
 8889SOL    HW127566   4.219   0.445   5.335
 8889SOL    HW227567   4.098   0.356   5.271
 8890SOL     OW27568   0.864   4.957   4.330
 8890SOL    HW127569   0.800   4.882   4.314
 8890SOL    HW227570   0.945   4.923   4.377
 8891SOL     OW27571   3.718   2.054   6.585
 8891SOL    HW127572   3.734   2.071   6.683
 8891SOL    HW227573   3.797   2.086   6.533
 8892SOL     OW27574   0.763   5.971   2.542
 8892SOL    HW127575   0.709   6.018   2.472
 8892SOL    HW227576   0.843   5.928   2.500
 8893SOL     OW27577   0.650   1.260   1.185
 8893SOL    HW127578   0.599   1.314   1.118
 8893SOL    HW227579   0.736   1.230   1.144
 8894SOL     OW27580   4.072   3.152   6.369
 8894SOL    HW127581   4.065   3.238   6.318
 8894SOL    HW227582   4.139   3.092   6.325
 8895SOL     OW27583   0.572   6.342   2.704
 8895SOL    HW127584   0.645   6.274   2.702
 8895SOL    HW227585   0.591   6.413   2.636
 8896SOL     OW27586   1.911   3.786   5.153
 8896SOL    HW127587   1.942   3.829   5.069
 8896SOL    HW227588   1.919   3.687   5.145
 8897SOL     OW27589   1.551   2.237   1.266
 8897SOL    HW127590   1.577   2.286   1.349
 8897SOL    HW227591   1.535   2.140   1.287
 8898SOL     OW27592   5.784   4.039   4.722
 8898SOL    HW127593   5.684   4.049   4.720
 8898SOL    HW227594   5.824   4.112   4.778
 8899SOL     OW27595   2.073   4.172   0.044
 8899SOL    HW127596   2.110   4.252   7.021
 8899SOL    HW227597   1.973   4.176   0.043
 8900SOL     OW27598   5.579   2.318   3.034
 8900SOL    HW127599   5.607   2.339   3.128
 8900SOL    HW227600   5.514   2.386   3.002
 8901SOL     OW27601   1.979   6.960   2.930
 8901SOL    HW127602   1.983   6.875   2.983
 8901SOL    HW227603   2.045   0.002   2.967
 8902SOL     OW27604   1.759   5.441   5.886
 8902SOL    HW127605   1.819   5.383   5.941
 8902SOL    HW227606   1.802   5.460   5.798
 8903SOL     OW27607   1.862   1.400   3.301
 8903SOL    HW127608   1.943   1.374   3.248
 8903SOL    HW227609   1.816   1.478   3.256
 8904SOL     OW27610   1.380   6.026   3.080
 8904SOL    HW127611   1.300   6.034   3.020
 8904SOL    HW227612   1.376   6.097   3.150
 8905SOL     OW27613   2.363   4.168   5.335
 8905SOL    HW127614   2.413   4.153   5.421
 8905SOL    HW227615   2.385   4.094   5.271
 8906SOL     OW27616   0.711   5.931   5.634
 8906SOL    HW127617   0.638   5.883   5.683
 8906SOL    HW227618   0.783   5.867   5.610
 8907SOL     OW27619   3.538   2.792   5.225
 8907SOL    HW127620   3.491   2.707   5.249
 8907SOL    HW227621   3.474   2.868   5.231
 8908SOL     OW27622   0.499   2.585   1.029
 8908SOL    HW127623   0.465   2.520   1.096
 8908SOL    HW227624   0.587   2.621   1.060
 8909SOL     OW27625   2.658   0.146   6.239
 8909SOL    HW127626   2.565   0.184   6.244
 8909SOL    HW227627   2.721   0.207   6.288
 8910SOL     OW27628   3.488   3.917   6.791
 8910SOL    HW127629   3.517   3.827   6.759
 8910SOL    HW227630   3.549   3.947   6.865
 8911SOL     OW27631   3.333   2.126   3.982
 8911SOL    HW127632   3.302   2.162   4.070
 8911SOL    HW227633   3.431   2.145   3.972
 8912SOL     OW27634   4.953   3.086   5.856
 8912SOL    HW127635   4.912   3.162   5.907
 8912SOL    HW227636   4.944   3.102   5.758
 8913SOL     OW27637   4.884   3.741   0.765
 8913SOL    HW127638   4.949   3.787   0.705
 8913SOL    HW227639   4.880   3.789   0.853
 8914SOL     OW27640   4.136   2.258   4.684
 8914SOL    HW127641   4.172   2.285   4.594
 8914SOL    HW227642   4.050   2.209   4.672
 8915SOL     OW27643   1.140   5.202   1.987
 8915SOL    HW127644   1.116   5.257   2.067
 8915SOL    HW227645   1.061   5.198   1.925
 8916SOL     OW27646   6.602   3.635   2.146
 8916SOL    HW127647   6.630   3.731   2.155
 8916SOL    HW227648   6.619   3.588   2.232
 8917SOL     OW27649   6.067   5.458   6.389
 8917SOL    HW127650   5.997   5.441   6.459
 8917SOL    HW227651   6.037   5.418   6.302
 8918SOL     OW27652   4.819   5.254   6.630
 8918SOL    HW127653   4.759   5.203   6.692
 8918SOL    HW227654   4.766   5.324   6.583
 8919SOL     OW27655   2.032   4.433   0.735
 8919SOL    HW127656   1.946   4.390   0.707
 8919SOL    HW227657   2.096   4.363   0.766
 8920SOL     OW27658   6.375   5.786   5.895
 8920SOL    HW127659   6.368   5.728   5.976
 8920SOL    HW227660   6.283   5.804   5.859
 8921SOL     OW27661   1.699   7.023   3.638
 8921SOL    HW127662   1.609   6.983   3.618
 8921SOL    HW227663   1.739   0.036   3.554
 8922SOL     OW27664   6.515   4.089   7.005
 8922SOL    HW127665   6.495   4.048   0.071
 8922SOL    HW227666   6.581   4.163   7.017
 8923SOL     OW27667   2.174   4.236   5.554
 8923SOL    HW127668   2.219   4.153   5.520
 8923SOL    HW227669   2.243   4.301   5.586
 8924SOL     OW27670   2.864   5.587   5.690
 8924SOL    HW127671   2.773   5.552   5.714
 8924SOL    HW227672   2.876   5.583   5.591
 8925SOL     OW27673   6.473   6.600   1.669
 8925SOL    HW127674   6.533   6.627   1.594
 8925SOL    HW227675   6.528   6.573   1.748
 8926SOL     OW27676   5.674   1.499   0.887
 8926SOL    HW127677   5.603   1.436   0.855
 8926SOL    HW227678   5.759   1.482   0.837
 8927SOL     OW27679   2.249   1.987   5.408
 8927SOL    HW127680   2.231   2.085   5.400
 8927SOL    HW227681   2.327   1.963   5.350
 8928SOL     OW27682   0.041   0.059   5.140
 8928SOL    HW127683   0.110   0.005   5.188
 8928SOL    HW227684   0.038   0.031   5.044
 8929SOL     OW27685   6.114   3.795   3.755
 8929SOL    HW127686   6.137   3.821   3.661
 8929SOL    HW227687   6.032   3.845   3.784
 8930SOL     OW27688   0.517   5.045   4.963
 8930SOL    HW127689   0.569   4.991   4.896
 8930SOL    HW227690   0.537   5.012   5.055
 8931SOL     OW27691   5.406   1.013   0.715
 8931SOL    HW127692   5.342   0.947   0.755
 8931SOL    HW227693   5.423   0.989   0.619
 8932SOL     OW27694   6.858   0.551   6.873
 8932SOL    HW127695   6.918   0.479   6.839
 8932SOL    HW227696   6.765   0.535   6.840
 8933SOL     OW27697   1.615   6.413   5.422
 8933SOL    HW127698   1.680   6.463   5.480
 8933SOL    HW227699   1.662   6.382   5.339
 8934SOL     OW27700   4.370   6.409   2.842
 8934SOL    HW127701   4.452   6.427   2.896
 8934SOL    HW227702   4.321   6.495   2.826
 8935SOL     OW27703   5.675   2.696   2.948
 8935SOL    HW127704   5.720   2.682   2.859
 8935SOL    HW227705   5.578   2.669   2.940
 8936SOL     OW27706   1.428   4.762   2.318
 8936SOL    HW127707   1.407   4.704   2.396
 8936SOL    HW227708   1.416   4.711   2.233
 8937SOL     OW27709   5.083   6.752   4.947
 8937SOL    HW127710   5.174   6.711   4.958
 8937SOL    HW227711   5.016   6.680   4.926
 8938SOL     OW27712   5.977   0.236   1.627
 8938SOL    HW127713   6.042   0.295   1.675
 8938SOL    HW227714   5.997   0.236   1.529
 8939SOL     OW27715   6.899   3.512   3.902
 8939SOL    HW127716   6.951   3.464   3.973
 8939SOL    HW227717   6.962   3.542   3.830
 8940SOL     OW27718   6.116   2.290   0.639
 8940SOL    HW127719   6.051   2.316   0.568
 8940SOL    HW227720   6.090   2.202   0.678
 8941SOL     OW27721   4.290   2.790   1.693
 8941SOL    HW127722   4.332   2.706   1.660
 8941SOL    HW227723   4.191   2.786   1.680
 8942SOL     OW27724   5.951   4.040   4.467
 8942SOL    HW127725   5.900   4.055   4.382
 8942SOL    HW227726   5.892   3.995   4.534
 8943SOL     OW27727   4.533   4.102   0.336
 8943SOL    HW127728   4.492   4.103   0.428
 8943SOL    HW227729   4.526   4.194   0.297
 8944SOL     OW27730   5.488   5.442   5.007
 8944SOL    HW127731   5.442   5.528   4.983
 8944SOL    HW227732   5.424   5.366   4.998
 8945SOL     OW27733   5.355   4.301   3.855
 8945SOL    HW127734   5.290   4.375   3.838
 8945SOL    HW227735   5.307   4.214   3.857
 8946SOL     OW27736   4.851   0.813   5.557
 8946SOL    HW127737   4.818   0.747   5.490
 8946SOL    HW227738   4.936   0.855   5.524
 8947SOL     OW27739   2.224   5.240   6.739
 8947SOL    HW127740   2.323   5.256   6.732
 8947SOL    HW227741   2.195   5.253   6.833
 8948SOL     OW27742   5.662   1.158   2.500
 8948SOL    HW127743   5.697   1.159   2.593
 8948SOL    HW227744   5.567   1.189   2.499
 8949SOL     OW27745   3.774   6.354   0.890
 8949SOL    HW127746   3.683   6.314   0.893
 8949SOL    HW227747   3.803   6.380   0.982
 8950SOL     OW27748   3.683   3.532   0.768
 8950SOL    HW127749   3.684   3.602   0.840
 8950SOL    HW227750   3.671   3.442   0.810
 8951SOL     OW27751   1.633   1.044   4.490
 8951SOL    HW127752   1.546   1.093   4.494
 8951SOL    HW227753   1.645   0.989   4.572
 8952SOL     OW27754   2.206   4.097   4.354
 8952SOL    HW127755   2.246   4.005   4.361
 8952SOL    HW227756   2.115   4.096   4.395
 8953SOL     OW27757   1.162   4.652   1.014
 8953SOL    HW127758   1.066   4.647   1.040
 8953SOL    HW227759   1.219   4.619   1.090
 8954SOL     OW27760   2.443   4.823   5.621
 8954SOL    HW127761   2.430   4.880   5.540
 8954SOL    HW227762   2.500   4.744   5.598
 8955SOL     OW27763   6.109   2.269   4.597
 8955SOL    HW127764   6.133   2.348   4.652
 8955SOL    HW227765   6.124   2.290   4.500
 8956SOL     OW27766   0.902   5.638   6.983
 8956SOL    HW127767   0.826   5.602   6.929
 8956SOL    HW227768   0.879   5.633   0.057
 8957SOL     OW27769   6.739   6.179   2.892
 8957SOL    HW127770   6.767   6.083   2.886
 8957SOL    HW227771   6.811   6.232   2.938
 8958SOL     OW27772   1.877   2.907   4.995
 8958SOL    HW127773   1.906   2.957   5.077
 8958SOL    HW227774   1.922   2.945   4.915
 8959SOL     OW27775   6.769   2.629   2.643
 8959SOL    HW127776   6.741   2.612   2.738
 8959SOL    HW227777   6.718   2.707   2.607
 8960SOL     OW27778   5.484   4.402   3.284
 8960SOL    HW127779   5.459   4.361   3.372
 8960SOL    HW227780   5.407   4.455   3.249
 8961SOL     OW27781   2.028   1.183   4.968
 8961SOL    HW127782   2.106   1.124   4.948
 8961SOL    HW227783   1.953   1.161   4.905
 8962SOL     OW27784   6.917   5.460   2.209
 8962SOL    HW127785   6.972   5.475   2.127
 8962SOL    HW227786   6.828   5.506   2.198
 8963SOL     OW27787   4.973   6.855   5.211
 8963SOL    HW127788   5.001   6.946   5.240
 8963SOL    HW227789   5.028   6.827   5.132
 8964SOL     OW27790   1.320   2.868   4.636
 8964SOL    HW127791   1.319   2.839   4.732
 8964SOL    HW227792   1.230   2.904   4.611
 8965SOL     OW27793   3.931   5.824   6.135
 8965SOL    HW127794   4.012   5.821   6.076
 8965SOL    HW227795   3.900   5.730   6.153
 8966SOL     OW27796   4.231   5.768   5.081
 8966SOL    HW127797   4.175   5.699   5.128
 8966SOL    HW227798   4.326   5.739   5.081
 8967SOL     OW27799   2.975   0.092   4.038
 8967SOL    HW127800   2.952   0.149   3.960
 8967SOL    HW227801   3.043   0.024   4.010
 8968SOL     OW27802   3.875   5.451   2.427
 8968SOL    HW127803   3.899   5.421   2.519
 8968SOL    HW227804   3.786   5.415   2.402
 8969SOL     OW27805   0.962   0.917   2.751
 8969SOL    HW127806   0.917   0.956   2.832
 8969SOL    HW227807   0.906   0.935   2.670
 8970SOL     OW27808   1.899   0.244   3.964
 8970SOL    HW127809   1.827   0.178   3.985
 8970SOL    HW227810   1.981   0.195   3.933
 8971SOL     OW27811   3.703   4.677   0.061
 8971SOL    HW127812   3.693   4.696   6.987
 8971SOL    HW227813   3.726   4.581   0.074
 8972SOL     OW27814   6.186   3.812   6.807
 8972SOL    HW127815   6.246   3.738   6.776
 8972SOL    HW227816   6.118   3.775   6.870
 8973SOL     OW27817   1.264   2.306   3.428
 8973SOL    HW127818   1.175   2.280   3.389
 8973SOL    HW227819   1.307   2.374   3.368
 8974SOL     OW27820   2.137   4.353   4.694
 8974SOL    HW127821   2.128   4.381   4.789
 8974SOL    HW227822   2.157   4.255   4.690
 8975SOL     OW27823   0.301   5.554   6.094
 8975SOL    HW127824   0.382   5.519   6.046
 8975SOL    HW227825   0.330   5.615   6.168
 8976SOL     OW27826   6.134   6.762   2.185
 8976SOL    HW127827   6.185   6.783   2.102
 8976SOL    HW227828   6.100   6.847   2.226
 8977SOL     OW27829   6.671   4.821   5.927
 8977SOL    HW127830   6.732   4.756   5.882
 8977SOL    HW227831   6.587   4.830   5.875
 8978SOL     OW27832   5.913   5.897   6.537
 8978SOL    HW127833   6.000   5.854   6.559
 8978SOL    HW227834   5.929   5.988   6.500
 8979SOL     OW27835   1.502   5.034   4.807
 8979SOL    HW127836   1.582   5.089   4.830
 8979SOL    HW227837   1.431   5.092   4.768
 8980SOL     OW27838   3.345   0.290   0.104
 8980SOL    HW127839   3.326   0.225   0.178
 8980SOL    HW227840   3.345   0.242   0.017
 8981SOL     OW27841   4.675   3.524   6.532
 8981SOL    HW127842   4.664   3.617   6.495
 8981SOL    HW227843   4.622   3.460   6.476
 8982SOL     OW27844   0.241   1.686   2.049
 8982SOL    HW127845   0.332   1.647   2.034
 8982SOL    HW227846   0.172   1.625   2.011
 8983SOL     OW27847   1.654   6.617   2.349
 8983SOL    HW127848   1.653   6.682   2.274
 8983SOL    HW227849   1.747   6.582   2.362
 8984SOL     OW27850   0.199   0.543   3.921
 8984SOL    HW127851   0.154   0.522   3.834
 8984SOL    HW227852   0.298   0.552   3.906
 8985SOL     OW27853   5.025   2.007   1.343
 8985SOL    HW127854   4.934   1.998   1.302
 8985SOL    HW227855   5.040   2.102   1.370
 8986SOL     OW27856   6.952   4.530   0.417
 8986SOL    HW127857   6.915   4.465   0.350
 8986SOL    HW227858   6.930   4.623   0.388
 8987SOL     OW27859   2.140   0.028   1.854
 8987SOL    HW127860   2.185   6.987   1.916
 8987SOL    HW227861   2.200   0.106   1.839
 8988SOL     OW27862   2.062   6.147   1.673
 8988SOL    HW127863   2.054   6.048   1.683
 8988SOL    HW227864   2.070   6.189   1.764
 8989SOL     OW27865   5.145   2.311   3.138
 8989SOL    HW127866   5.222   2.268   3.091
 8989SOL    HW227867   5.148   2.410   3.123
 8990SOL     OW27868   3.229   1.062   2.168
 8990SOL    HW127869   3.177   1.143   2.141
 8990SOL    HW227870   3.304   1.089   2.229
 8991SOL     OW27871   1.291   1.320   0.648
 8991SOL    HW127872   1.350   1.368   0.584
 8991SOL    HW227873   1.344   1.292   0.728
 8992SOL     OW27874   1.073   4.102   6.417
 8992SOL    HW127875   1.107   4.188   6.457
 8992SOL    HW227876   1.048   4.117   6.321
 8993SOL     OW27877   6.122   3.588   4.324
 8993SOL    HW127878   6.111   3.681   4.358
 8993SOL    HW227879   6.052   3.569   4.256
 8994SOL     OW27880   0.709   5.594   2.922
 8994SOL    HW127881   0.748   5.611   3.012
 8994SOL    HW227882   0.723   5.675   2.864
 8995SOL     OW27883   2.164   3.805   4.890
 8995SOL    HW127884   2.233   3.867   4.927
 8995SOL    HW227885   2.136   3.837   4.800
 8996SOL     OW27886   1.116   3.692   2.076
 8996SOL    HW127887   1.182   3.765   2.057
 8996SOL    HW227888   1.117   3.670   2.173
 8997SOL     OW27889   4.360   2.071   5.504
 8997SOL    HW127890   4.261   2.074   5.516
 8997SOL    HW227891   4.387   1.981   5.472
 8998SOL     OW27892   0.669   1.613   6.243
 8998SOL    HW127893   0.606   1.542   6.210
 8998SOL    HW227894   0.714   1.581   6.327
 8999SOL     OW27895   6.006   0.956   4.818
 8999SOL    HW127896   5.960   1.016   4.883
 8999SOL    HW227897   5.976   0.862   4.832
 9000SOL     OW27898   2.505   4.200   0.672
 9000SOL    HW127899   2.552   4.277   0.715
 9000SOL    HW227900   2.547   4.115   0.704
 9001SOL     OW27901   1.791   4.684   3.382
 9001SOL    HW127902   1.718   4.631   3.338
 9001SOL    HW227903   1.831   4.630   3.456
 9002SOL     OW27904   5.000   4.720   6.275
 9002SOL    HW127905   5.053   4.641   6.243
 9002SOL    HW227906   4.964   4.770   6.197
 9003SOL     OW27907   5.496   3.144   5.751
 9003SOL    HW127908   5.561   3.068   5.751
 9003SOL    HW227909   5.403   3.109   5.753
 9004SOL     OW27910   4.346   5.592   0.434
 9004SOL    HW127911   4.315   5.608   0.340
 9004SOL    HW227912   4.434   5.636   0.448
 9005SOL     OW27913   4.740   2.082   3.445
 9005SOL    HW127914   4.667   2.126   3.394
 9005SOL    HW227915   4.723   2.091   3.543
 9006SOL     OW27916   1.664   6.722   0.726
 9006SOL    HW127917   1.638   6.807   0.681
 9006SOL    HW227918   1.585   6.683   0.774
 9007SOL     OW27919   2.987   6.230   4.704
 9007SOL    HW127920   2.997   6.142   4.658
 9007SOL    HW227921   2.984   6.216   4.803
 9008SOL     OW27922   6.363   4.574   2.735
 9008SOL    HW127923   6.328   4.534   2.820
 9008SOL    HW227924   6.444   4.523   2.704
 9009SOL     OW27925   4.119   6.264   1.703
 9009SOL    HW127926   4.164   6.308   1.625
 9009SOL    HW227927   4.174   6.186   1.733
 9010SOL     OW27928   1.157   6.020   5.327
 9010SOL    HW127929   1.197   5.993   5.239
 9010SOL    HW227930   1.179   6.116   5.345
 9011SOL     OW27931   4.189   1.827   1.648
 9011SOL    HW127932   4.275   1.814   1.599
 9011SOL    HW227933   4.205   1.815   1.746
 9012SOL     OW27934   6.471   5.692   1.430
 9012SOL    HW127935   6.404   5.736   1.489
 9012SOL    HW227936   6.488   5.598   1.462
 9013SOL     OW27937   4.977   6.245   3.481
 9013SOL    HW127938   4.909   6.243   3.408
 9013SOL    HW227939   4.947   6.187   3.557
 9014SOL     OW27940   3.351   1.335   0.672
 9014SOL    HW127941   3.387   1.296   0.587
 9014SOL    HW227942   3.380   1.279   0.749
 9015SOL     OW27943   6.733   1.392   5.504
 9015SOL    HW127944   6.690   1.471   5.546
 9015SOL    HW227945   6.678   1.362   5.426
 9016SOL     OW27946   6.881   6.208   5.971
 9016SOL    HW127947   6.927   6.139   6.028
 9016SOL    HW227948   6.782   6.194   5.976
 9017SOL     OW27949   0.196   3.750   4.128
 9017SOL    HW127950   0.230   3.790   4.043
 9017SOL    HW227951   0.101   3.722   4.115
 9018SOL     OW27952   3.716   2.376   5.626
 9018SOL    HW127953   3.763   2.447   5.679
 9018SOL    HW227954   3.629   2.412   5.592
 9019SOL     OW27955   1.985   6.840   0.302
 9019SOL    HW127956   2.015   6.816   0.210
 9019SOL    HW227957   1.886   6.823   0.310
 9020SOL     OW27958   0.301   5.078   2.880
 9020SOL    HW127959   0.387   5.028   2.892
 9020SOL    HW227960   0.225   5.023   2.914
 9021SOL     OW27961   6.927   6.083   4.999
 9021SOL    HW127962   6.897   5.988   4.995
 9021SOL    HW227963   6.856   6.138   5.045
 9022SOL     OW27964   3.154   0.943   6.672
 9022SOL    HW127965   3.217   0.893   6.731
 9022SOL    HW227966   3.144   0.894   6.585
 9023SOL     OW27967   3.402   2.904   3.070
 9023SOL    HW127968   3.459   2.825   3.046
 9023SOL    HW227969   3.356   2.938   2.988
 9024SOL     OW27970   1.816   6.929   6.613
 9024SOL    HW127971   1.769   7.012   6.644
 9024SOL    HW227972   1.766   6.848   6.646
 9025SOL     OW27973   6.311   4.314   1.157
 9025SOL    HW127974   6.315   4.334   1.255
 9025SOL    HW227975   6.272   4.222   1.143
 9026SOL     OW27976   3.102   3.354   5.402
 9026SOL    HW127977   3.052   3.272   5.371
 9026SOL    HW227978   3.050   3.398   5.475
 9027SOL     OW27979   2.210   2.629   3.174
 9027SOL    HW127980   2.240   2.710   3.224
 9027SOL    HW227981   2.148   2.575   3.231
 9028SOL     OW27982   2.590   4.593   4.865
 9028SOL    HW127983   2.572   4.649   4.784
 9028SOL    HW227984   2.683   4.611   4.898
 9029SOL     OW27985   4.970   5.144   3.563
 9029SOL    HW127986   4.984   5.143   3.464
 9029SOL    HW227987   4.881   5.104   3.584
 9030SOL     OW27988   3.241   1.812   1.567
 9030SOL    HW127989   3.289   1.878   1.624
 9030SOL    HW227990   3.145   1.838   1.557
 9031SOL     OW27991   2.133   0.703   0.311
 9031SOL    HW127992   2.156   0.630   0.248
 9031SOL    HW227993   2.193   0.700   0.390
 9032SOL     OW27994   1.593   1.395   2.194
 9032SOL    HW127995   1.567   1.491   2.203
 9032SOL    HW227996   1.689   1.389   2.166
 9033SOL     OW27997   1.011   3.169   2.453
 9033SOL    HW127998   1.067   3.088   2.466
 9033SOL    HW227999   0.972   3.199   2.540
 9034SOL     OW28000   2.621   0.580   5.842
 9034SOL    HW128001   2.545   0.543   5.896
 9034SOL    HW228002   2.693   0.612   5.904
 9035SOL     OW28003   6.930   1.186   4.592
 9035SOL    HW128004   6.956   1.104   4.540
 9035SOL    HW228005   7.010   1.224   4.638
 9036SOL     OW28006   1.427   2.052   5.025
 9036SOL    HW128007   1.436   2.013   5.116
 9036SOL    HW228008   1.330   2.070   5.006
 9037SOL     OW28009   2.235   3.913   5.675
 9037SOL    HW128010   2.157   3.976   5.686
 9037SOL    HW228011   2.202   3.825   5.643
 9038SOL     OW28012   5.663   6.607   5.331
 9038SOL    HW128013   5.636   6.575   5.240
 9038SOL    HW228014   5.756   6.643   5.327
 9039SOL     OW28015   2.459   5.586   5.888
 9039SOL    HW128016   2.412   5.631   5.811
 9039SOL    HW228017   2.505   5.656   5.944
 9040SOL     OW28018   1.910   0.923   1.459
 9040SOL    HW128019   1.833   0.889   1.405
 9040SOL    HW228020   1.969   0.847   1.486
 9041SOL     OW28021   1.501   3.126   6.983
 9041SOL    HW128022   1.507   3.047   6.922
 9041SOL    HW228023   1.563   3.198   6.951
 9042SOL     OW28024   2.643   5.277   3.793
 9042SOL    HW128025   2.694   5.331   3.860
 9042SOL    HW228026   2.572   5.224   3.839
 9043SOL     OW28027   6.374   2.168   6.508
 9043SOL    HW128028   6.423   2.227   6.572
 9043SOL    HW228029   6.330   2.094   6.559
 9044SOL     OW28030   6.362   4.961   7.000
 9044SOL    HW128031   6.411   4.929   6.919
 9044SOL    HW228032   6.423   5.017   0.033
 9045SOL     OW28033   3.229   6.195   3.950
 9045SOL    HW128034   3.174   6.139   4.012
 9045SOL    HW228035   3.324   6.163   3.951
 9046SOL     OW28036   3.150   3.984   5.616
 9046SOL    HW128037   3.218   3.976   5.542
 9046SOL    HW228038   3.096   3.900   5.621
 9047SOL     OW28039   1.132   4.514   4.866
 9047SOL    HW128040   1.057   4.475   4.812
 9047SOL    HW228041   1.141   4.612   4.845
 9048SOL     OW28042   1.474   3.209   4.696
 9048SOL    HW128043   1.398   3.269   4.720
 9048SOL    HW228044   1.501   3.155   4.775
 9049SOL     OW28045   5.064   5.859   6.407
 9049SOL    HW128046   5.053   5.889   6.313
 9049SOL    HW228047   4.980   5.817   6.440
 9050SOL     OW28048   0.315   6.188   5.368
 9050SOL    HW128049   0.363   6.265   5.327
 9050SOL    HW228050   0.246   6.154   5.304
 9051SOL     OW28051   5.277   6.590   5.987
 9051SOL    HW128052   5.262   6.689   5.985
 9051SOL    HW228053   5.195   6.544   6.020
 9052SOL     OW28054   2.435   5.652   4.324
 9052SOL    HW128055   2.464   5.558   4.341
 9052SOL    HW228056   2.476   5.685   4.239
 9053SOL     OW28057   2.854   1.639   3.582
 9053SOL    HW128058   2.810   1.554   3.613
 9053SOL    HW228059   2.831   1.713   3.645
 9054SOL     OW28060   3.487   0.403   1.640
 9054SOL    HW128061   3.460   0.309   1.619
 9054SOL    HW228062   3.581   0.405   1.675
 9055SOL     OW28063   1.341   1.209   4.201
 9055SOL    HW128064   1.263   1.147   4.189
 9055SOL    HW228065   1.370   1.208   4.297
 9056SOL     OW28066   5.737   1.203   2.758
 9056SOL    HW128067   5.760   1.300   2.755
 9056SOL    HW228068   5.651   1.190   2.806
 9057SOL     OW28069   4.497   6.582   6.878
 9057SOL    HW128070   4.531   6.634   6.957
 9057SOL    HW228071   4.435   6.639   6.824
 9058SOL     OW28072   1.788   2.657   5.031
 9058SOL    HW128073   1.825   2.749   5.019
 9058SOL    HW228074   1.840   2.610   5.103
 9059SOL     OW28075   0.054   0.959   3.104
 9059SOL    HW128076   0.078   0.868   3.140
 9059SOL    HW228077   6.996   0.952   3.046
 9060SOL     OW28078   0.372   5.375   1.354
 9060SOL    HW128079   0.391   5.450   1.417
 9060SOL    HW228080   0.322   5.303   1.403
 9061SOL     OW28081   5.735   4.403   2.718
 9061SOL    HW128082   5.654   4.354   2.687
 9061SOL    HW228083   5.806   4.398   2.648
 9062SOL     OW28084   0.394   5.717   3.192
 9062SOL    HW128085   0.361   5.652   3.124
 9062SOL    HW228086   0.486   5.691   3.221
 9063SOL     OW28087   4.403   1.546   1.745
 9063SOL    HW128088   4.307   1.553   1.771
 9063SOL    HW228089   4.457   1.610   1.799
 9064SOL     OW28090   1.192   5.378   3.264
 9064SOL    HW128091   1.257   5.449   3.234
 9064SOL    HW228092   1.165   5.396   3.359
 9065SOL     OW28093   2.708   4.380   5.335
 9065SOL    HW128094   2.621   4.384   5.286
 9065SOL    HW228095   2.777   4.431   5.283
 9066SOL     OW28096   4.853   4.886   4.911
 9066SOL    HW128097   4.882   4.860   4.819
 9066SOL    HW228098   4.844   4.985   4.916
 9067SOL     OW28099   1.141   6.276   4.149
 9067SOL    HW128100   1.169   6.181   4.139
 9067SOL    HW228101   1.063   6.294   4.089
 9068SOL     OW28102   4.987   6.697   5.737
 9068SOL    HW128103   4.897   6.731   5.712
 9068SOL    HW228104   5.057   6.750   5.689
 9069SOL     OW28105   5.621   2.021   1.142
 9069SOL    HW128106   5.536   2.022   1.195
 9069SOL    HW228107   5.679   1.946   1.174
 9070SOL     OW28108   1.345   1.918   6.019
 9070SOL    HW128109   1.428   1.874   5.983
 9070SOL    HW228110   1.298   1.966   5.945
 9071SOL     OW28111   5.068   2.350   6.196
 9071SOL    HW128112   5.066   2.347   6.096
 9071SOL    HW228113   5.073   2.445   6.227
 9072SOL     OW28114   4.983   0.758   2.701
 9072SOL    HW128115   5.032   0.695   2.641
 9072SOL    HW228116   4.991   0.851   2.666
 9073SOL     OW28117   4.758   1.689   5.430
 9073SOL    HW128118   4.706   1.674   5.346
 9073SOL    HW228119   4.759   1.604   5.483
 9074SOL     OW28120   1.562   0.635   1.771
 9074SOL    HW128121   1.539   0.655   1.866
 9074SOL    HW228122   1.659   0.651   1.756
 9075SOL     OW28123   5.827   6.155   0.955
 9075SOL    HW128124   5.807   6.252   0.949
 9075SOL    HW228125   5.794   6.120   1.043
 9076SOL     OW28126   6.716   0.449   2.468
 9076SOL    HW128127   6.656   0.401   2.403
 9076SOL    HW228128   6.773   0.515   2.419
 9077SOL     OW28129   6.232   1.773   6.524
 9077SOL    HW128130   6.141   1.743   6.496
 9077SOL    HW228131   6.299   1.749   6.454
 9078SOL     OW28132   5.147   6.360   0.065
 9078SOL    HW128133   5.245   6.377   0.077
 9078SOL    HW228134   5.135   6.281   0.004
 9079SOL     OW28135   1.821   1.041   6.633
 9079SOL    HW128136   1.783   1.114   6.690
 9079SOL    HW228137   1.832   1.074   6.539
 9080SOL     OW28138   6.035   3.405   1.467
 9080SOL    HW128139   6.116   3.352   1.444
 9080SOL    HW228140   6.012   3.392   1.563
 9081SOL     OW28141   4.700   1.984   6.786
 9081SOL    HW128142   4.613   2.019   6.751
 9081SOL    HW228143   4.683   1.911   6.852
 9082SOL     OW28144   3.632   5.587   5.904
 9082SOL    HW128145   3.588   5.676   5.915
 9082SOL    HW228146   3.726   5.600   5.873
 9083SOL     OW28147   4.446   5.635   6.630
 9083SOL    HW128148   4.383   5.708   6.657
 9083SOL    HW228149   4.535   5.650   6.673
 9084SOL     OW28150   6.582   2.279   6.030
 9084SOL    HW128151   6.589   2.267   5.931
 9084SOL    HW228152   6.629   2.204   6.076
 9085SOL     OW28153   2.012   4.910   6.963
 9085SOL    HW128154   2.035   4.902   6.866
 9085SOL    HW228155   2.085   4.961   7.009
 9086SOL     OW28156   6.988   4.589   1.164
 9086SOL    HW128157   0.044   4.646   1.188
 9086SOL    HW228158   6.905   4.644   1.166
 9087SOL     OW28159   6.004   0.875   1.672
 9087SOL    HW128160   5.928   0.910   1.617
 9087SOL    HW228161   6.003   0.920   1.761
 9088SOL     OW28162   6.605   6.461   0.421
 9088SOL    HW128163   6.584   6.535   0.484
 9088SOL    HW228164   6.603   6.496   0.327
 9089SOL     OW28165   5.327   5.399   3.843
 9089SOL    HW128166   5.342   5.495   3.866
 9089SOL    HW228167   5.285   5.393   3.752
 9090SOL     OW28168   5.650   6.193   5.115
 9090SOL    HW128169   5.675   6.112   5.168
 9090SOL    HW228170   5.723   6.213   5.049
 9091SOL     OW28171   2.374   1.842   1.203
 9091SOL    HW128172   2.278   1.844   1.231
 9091SOL    HW228173   2.403   1.934   1.179
 9092SOL     OW28174   1.613   0.700   6.085
 9092SOL    HW128175   1.549   0.624   6.068
 9092SOL    HW228176   1.570   0.767   6.144
 9093SOL     OW28177   1.872   4.140   0.938
 9093SOL    HW128178   1.855   4.041   0.937
 9093SOL    HW228179   1.971   4.157   0.943
 9094SOL     OW28180   6.742   4.646   1.660
 9094SOL    HW128181   6.798   4.729   1.656
 9094SOL    HW228182   6.704   4.628   1.569
 9095SOL     OW28183   3.570   3.203   6.679
 9095SOL    HW128184   3.486   3.205   6.624
 9095SOL    HW228185   3.555   3.149   6.761
 9096SOL     OW28186   5.391   2.519   2.998
 9096SOL    HW128187   5.361   2.506   2.904
 9096SOL    HW228188   5.316   2.557   3.052
 9097SOL     OW28189   0.758   4.984   6.234
 9097SOL    HW128190   0.776   4.894   6.193
 9097SOL    HW228191   0.784   5.055   6.169
 9098SOL     OW28192   4.136   3.667   2.837
 9098SOL    HW128193   4.149   3.583   2.889
 9098SOL    HW228194   4.214   3.683   2.778
 9099SOL     OW28195   2.345   3.534   0.848
 9099SOL    HW128196   2.377   3.558   0.756
 9099SOL    HW228197   2.260   3.583   0.867
 9100SOL     OW28198   0.370   2.827   1.046
 9100SOL    HW128199   0.306   2.844   0.971
 9100SOL    HW228200   0.410   2.736   1.036
 9101SOL     OW28201   1.629   2.694   1.499
 9101SOL    HW128202   1.621   2.766   1.430
 9101SOL    HW228203   1.538   2.672   1.536
 9102SOL     OW28204   3.435   5.238   2.529
 9102SOL    HW128205   3.412   5.144   2.555
 9102SOL    HW228206   3.530   5.256   2.552
 9103SOL     OW28207   0.483   4.081   0.640
 9103SOL    HW128208   0.550   4.154   0.632
 9103SOL    HW228209   0.431   4.074   0.555
 9104SOL     OW28210   4.580   6.832   1.287
 9104SOL    HW128211   4.487   6.798   1.275
 9104SOL    HW228212   4.645   6.761   1.261
 9105SOL     OW28213   1.721   1.992   5.836
 9105SOL    HW128214   1.729   2.060   5.909
 9105SOL    HW228215   1.772   2.023   5.756
 9106SOL     OW28216   5.944   4.941   0.779
 9106SOL    HW128217   5.889   4.860   0.758
 9106SOL    HW228218   5.927   5.011   0.711
 9107SOL     OW28219   4.481   0.032   1.657
 9107SOL    HW128220   4.461   0.047   1.560
 9107SOL    HW228221   4.499   0.119   1.702
 9108SOL     OW28222   4.542   5.353   5.447
 9108SOL    HW128223   4.538   5.254   5.438
 9108SOL    HW228224   4.570   5.377   5.540
 9109SOL     OW28225   3.362   1.690   3.797
 9109SOL    HW128226   3.356   1.590   3.795
 9109SOL    HW228227   3.270   1.729   3.794
 9110SOL     OW28228   1.781   4.331   3.543
 9110SOL    HW128229   1.745   4.342   3.636
 9110SOL    HW228230   1.711   4.358   3.477
 9111SOL     OW28231   3.440   4.095   1.748
 9111SOL    HW128232   3.473   4.023   1.809
 9111SOL    HW228233   3.473   4.078   1.655
 9112SOL     OW28234   6.844   4.491   2.564
 9112SOL    HW128235   6.824   4.406   2.516
 9112SOL    HW228236   6.920   4.477   2.627
 9113SOL     OW28237   4.469   6.909   0.646
 9113SOL    HW128238   4.519   6.831   0.607
 9113SOL    HW228239   4.373   6.883   0.661
 9114SOL     OW28240   2.974   5.136   1.455
 9114SOL    HW128241   3.028   5.165   1.533
 9114SOL    HW228242   2.980   5.205   1.382
 9115SOL     OW28243   1.174   4.778   5.105
 9115SOL    HW128244   1.222   4.855   5.147
 9115SOL    HW228245   1.179   4.698   5.165
 9116SOL     OW28246   0.207   1.520   6.212
 9116SOL    HW128247   0.140   1.505   6.285
 9116SOL    HW228248   0.240   1.432   6.179
 9117SOL     OW28249   0.041   2.502   6.972
 9117SOL    HW128250   0.028   2.585   6.918
 9117SOL    HW228251   0.125   2.511   0.003
 9118SOL     OW28252   6.676   6.777   1.585
 9118SOL    HW128253   6.767   6.779   1.626
 9118SOL    HW228254   6.680   6.729   1.498
 9119SOL     OW28255   6.643   0.328   1.906
 9119SOL    HW128256   6.593   0.246   1.934
 9119SOL    HW228257   6.591   0.374   1.834
 9120SOL     OW28258   5.386   1.227   6.053
 9120SOL    HW128259   5.455   1.190   5.991
 9120SOL    HW228260   5.410   1.321   6.077
 9121SOL     OW28261   0.463   1.836   6.229
 9121SOL    HW128262   0.411   1.807   6.149
 9121SOL    HW228263   0.541   1.774   6.242
 9122SOL     OW28264   1.958   3.102   2.751
 9122SOL    HW128265   2.057   3.093   2.761
 9122SOL    HW228266   1.937   3.140   2.661
 9123SOL     OW28267   2.504   5.953   6.394
 9123SOL    HW128268   2.503   5.854   6.407
 9123SOL    HW228269   2.479   5.998   6.481
 9124SOL     OW28270   6.743   5.862   5.255
 9124SOL    HW128271   6.714   5.908   5.339
 9124SOL    HW228272   6.709   5.913   5.175
 9125SOL     OW28273   4.858   3.961   3.772
 9125SOL    HW128274   4.885   3.979   3.677
 9125SOL    HW228275   4.916   3.889   3.810
 9126SOL     OW28276   6.126   0.320   2.121
 9126SOL    HW128277   6.058   0.253   2.150
 9126SOL    HW228278   6.082   0.406   2.098
 9127SOL     OW28279   5.344   0.153   6.713
 9127SOL    HW128280   5.427   0.118   6.757
 9127SOL    HW228281   5.368   0.193   6.625
 9128SOL     OW28282   3.586   2.145   5.163
 9128SOL    HW128283   3.529   2.159   5.082
 9128SOL    HW228284   3.660   2.082   5.142
 9129SOL     OW28285   1.770   1.618   6.012
 9129SOL    HW128286   1.739   1.531   6.051
 9129SOL    HW228287   1.838   1.660   6.073
 9130SOL     OW28288   5.859   4.715   0.583
 9130SOL    HW128289   5.846   4.616   0.594
 9130SOL    HW228290   5.951   4.732   0.548
 9131SOL     OW28291   0.658   4.248   4.582
 9131SOL    HW128292   0.654   4.208   4.673
 9131SOL    HW228293   0.581   4.214   4.527
 9132SOL     OW28294   6.773   3.349   4.556
 9132SOL    HW128295   6.686   3.354   4.508
 9132SOL    HW228296   6.764   3.391   4.647
 9133SOL     OW28297   2.325   4.132   1.162
 9133SOL    HW128298   2.310   4.194   1.086
 9133SOL    HW228299   2.373   4.179   1.236
 9134SOL     OW28300   3.288   6.567   6.897
 9134SOL    HW128301   3.261   6.505   6.823
 9134SOL    HW228302   3.224   6.643   6.902
 9135SOL     OW28303   6.423   6.315   3.417
 9135SOL    HW128304   6.385   6.300   3.508
 9135SOL    HW228305   6.351   6.345   3.355
 9136SOL     OW28306   5.170   5.383   5.571
 9136SOL    HW128307   5.209   5.346   5.487
 9136SOL    HW228308   5.220   5.466   5.597
 9137SOL     OW28309   4.248   0.838   1.741
 9137SOL    HW128310   4.198   0.908   1.790
 9137SOL    HW228311   4.266   0.760   1.801
 9138SOL     OW28312   5.582   4.947   6.303
 9138SOL    HW128313   5.645   5.013   6.345
 9138SOL    HW228314   5.550   4.882   6.372
 9139SOL     OW28315   3.586   1.324   5.517
 9139SOL    HW128316   3.650   1.305   5.592
 9139SOL    HW228317   3.609   1.413   5.477
 9140SOL     OW28318   6.527   2.566   2.772
 9140SOL    HW128319   6.512   2.538   2.677
 9140SOL    HW228320   6.502   2.662   2.783
 9141SOL     OW28321   5.375   0.059   5.976
 9141SOL    HW128322   5.296   0.051   5.914
 9141SOL    HW228323   5.449   0.107   5.929
 9142SOL     OW28324   0.635   2.909   6.019
 9142SOL    HW128325   0.542   2.876   6.000
 9142SOL    HW228326   0.691   2.901   5.936
 9143SOL     OW28327   4.368   3.369   0.375
 9143SOL    HW128328   4.312   3.353   0.456
 9143SOL    HW228329   4.382   3.468   0.363
 9144SOL     OW28330   2.080   5.380   5.704
 9144SOL    HW128331   2.024   5.458   5.678
 9144SOL    HW228332   2.052   5.347   5.794
 9145SOL     OW28333   0.337   4.369   0.197
 9145SOL    HW128334   0.296   4.456   0.171
 9145SOL    HW228335   0.346   4.365   0.296
 9146SOL     OW28336   5.971   2.679   1.187
 9146SOL    HW128337   6.037   2.605   1.193
 9146SOL    HW228338   5.966   2.727   1.274
 9147SOL     OW28339   3.952   5.052   3.899
 9147SOL    HW128340   3.929   5.149   3.901
 9147SOL    HW228341   3.941   5.017   3.806
 9148SOL     OW28342   5.054   5.958   3.423
 9148SOL    HW128343   5.148   5.928   3.441
 9148SOL    HW228344   4.996   5.878   3.408
 9149SOL     OW28345   5.307   3.091   4.413
 9149SOL    HW128346   5.291   3.085   4.314
 9149SOL    HW228347   5.250   3.163   4.452
 9150SOL     OW28348   5.028   0.159   3.393
 9150SOL    HW128349   5.120   0.141   3.426
 9150SOL    HW228350   4.962   0.109   3.448
 9151SOL     OW28351   1.256   4.247   2.152
 9151SOL    HW128352   1.268   4.337   2.109
 9151SOL    HW228353   1.210   4.258   2.240
 9152SOL     OW28354   2.461   6.210   3.613
 9152SOL    HW128355   2.388   6.145   3.594
 9152SOL    HW228356   2.453   6.289   3.551
 9153SOL     OW28357   1.427   2.088   6.388
 9153SOL    HW128358   1.479   2.036   6.455
 9153SOL    HW228359   1.355   2.030   6.349
 9154SOL     OW28360   2.593   5.963   7.012
 9154SOL    HW128361   2.560   5.887   6.956
 9154SOL    HW228362   2.678   5.999   6.972
 9155SOL     OW28363   2.059   3.874   6.113
 9155SOL    HW128364   2.085   3.967   6.136
 9155SOL    HW228365   2.018   3.873   6.021
 9156SOL     OW28366   3.461   2.191   1.135
 9156SOL    HW128367   3.542   2.132   1.143
 9156SOL    HW228368   3.479   2.278   1.181
 9157SOL     OW28369   5.550   4.488   4.995
 9157SOL    HW128370   5.455   4.492   4.963
 9157SOL    HW228371   5.562   4.410   5.055
 9158SOL     OW28372   6.934   3.715   4.690
 9158SOL    HW128373   6.980   3.634   4.724
 9158SOL    HW228374   6.967   3.736   4.597
 9159SOL     OW28375   0.124   5.499   2.833
 9159SOL    HW128376   0.051   5.529   2.895
 9159SOL    HW228377   0.084   5.465   2.748
 9160SOL     OW28378   0.627   6.635   6.251
 9160SOL    HW128379   0.699   6.602   6.313
 9160SOL    HW228380   0.547   6.662   6.305
 9161SOL     OW28381   4.869   3.916   4.673
 9161SOL    HW128382   4.890   3.837   4.729
 9161SOL    HW228383   4.928   3.992   4.699
 9162SOL     OW28384   4.891   3.237   2.775
 9162SOL    HW128385   4.887   3.175   2.696
 9162SOL    HW228386   4.982   3.277   2.782
 9163SOL     OW28387   2.921   2.173   3.737
 9163SOL    HW128388   2.906   2.141   3.643
 9163SOL    HW228389   2.833   2.182   3.784
 9164SOL     OW28390   2.613   0.736   6.738
 9164SOL    HW128391   2.532   0.784   6.705
 9164SOL    HW228392   2.644   0.670   6.670
 9165SOL     OW28393   5.807   0.662   6.338
 9165SOL    HW128394   5.766   0.747   6.372
 9165SOL    HW228395   5.771   0.585   6.391
 9166SOL     OW28396   4.228   5.795   1.029
 9166SOL    HW128397   4.207   5.891   1.006
 9166SOL    HW228398   4.249   5.788   1.126
 9167SOL     OW28399   1.522   3.680   5.777
 9167SOL    HW128400   1.487   3.608   5.718
 9167SOL    HW228401   1.571   3.640   5.855
 9168SOL     OW28402   2.201   0.152   5.511
 9168SOL    HW128403   2.254   0.160   5.426
 9168SOL    HW228404   2.262   0.159   5.590
 9169SOL     OW28405   0.404   1.186   4.716
 9169SOL    HW128406   0.362   1.192   4.625
 9169SOL    HW228407   0.449   1.272   4.737
 9170SOL     OW28408   6.948   4.808   0.361
 9170SOL    HW128409   7.023   4.874   0.371
 9170SOL    HW228410   6.866   4.855   0.331
 9171SOL     OW28411   2.863   6.048   6.947
 9171SOL    HW128412   2.886   6.145   6.934
 9171SOL    HW228413   2.833   6.009   6.860
 9172SOL     OW28414   3.715   0.989   4.279
 9172SOL    HW128415   3.692   1.068   4.336
 9172SOL    HW228416   3.633   0.960   4.229
 9173SOL     OW28417   6.278   4.803   4.603
 9173SOL    HW128418   6.360   4.757   4.638
 9173SOL    HW228419   6.290   4.902   4.608
 9174SOL     OW28420   6.340   4.400   0.171
 9174SOL    HW128421   6.335   4.479   0.110
 9174SOL    HW228422   6.257   4.345   0.160
 9175SOL     OW28423   2.481   6.387   5.721
 9175SOL    HW128424   2.515   6.417   5.632
 9175SOL    HW228425   2.431   6.301   5.710
 9176SOL     OW28426   1.942   1.105   5.527
 9176SOL    HW128427   1.915   1.195   5.561
 9176SOL    HW228428   2.039   1.107   5.500
 9177SOL     OW28429   1.445   3.922   4.445
 9177SOL    HW128430   1.459   3.866   4.363
 9177SOL    HW228431   1.400   3.867   4.516
 9178SOL     OW28432   2.101   5.676   1.093
 9178SOL    HW128433   2.021   5.732   1.113
 9178SOL    HW228434   2.080   5.612   1.019
 9179SOL     OW28435   2.846   5.420   4.120
 9179SOL    HW128436   2.817   5.488   4.054
 9179SOL    HW228437   2.868   5.334   4.073
 9180SOL     OW28438   6.531   2.426   3.642
 9180SOL    HW128439   6.475   2.363   3.696
 9180SOL    HW228440   6.478   2.459   3.564
 9181SOL     OW28441   4.340   2.352   2.668
 9181SOL    HW128442   4.405   2.357   2.591
 9181SOL    HW228443   4.370   2.413   2.741
 9182SOL     OW28444   1.679   5.784   2.101
 9182SOL    HW128445   1.734   5.863   2.071
 9182SOL    HW228446   1.609   5.815   2.165
 9183SOL     OW28447   5.390   6.316   0.726
 9183SOL    HW128448   5.475   6.368   0.719
 9183SOL    HW228449   5.399   6.231   0.674
 9184SOL     OW28450   5.239   0.174   0.613
 9184SOL    HW128451   5.211   0.133   0.699
 9184SOL    HW228452   5.221   0.272   0.615
 9185SOL     OW28453   3.946   0.671   5.249
 9185SOL    HW128454   4.044   0.682   5.264
 9185SOL    HW228455   3.926   0.683   5.152
 9186SOL     OW28456   6.790   0.679   4.801
 9186SOL    HW128457   6.873   0.715   4.758
 9186SOL    HW228458   6.742   0.619   4.738
 9187SOL     OW28459   1.992   6.781   2.163
 9187SOL    HW128460   2.065   6.770   2.095
 9187SOL    HW228461   1.977   6.878   2.180
 9188SOL     OW28462   2.453   6.962   1.307
 9188SOL    HW128463   2.486   6.940   1.399
 9188SOL    HW228464   2.373   6.905   1.287
 9189SOL     OW28465   5.207   5.502   2.493
 9189SOL    HW128466   5.210   5.413   2.537
 9189SOL    HW228467   5.140   5.501   2.418
 9190SOL     OW28468   2.037   5.585   6.984
 9190SOL    HW128469   2.113   5.575   0.025
 9190SOL    HW228470   1.979   5.661   7.014
 9191SOL     OW28471   6.506   0.362   5.394
 9191SOL    HW128472   6.601   0.340   5.371
 9191SOL    HW228473   6.493   0.462   5.391
 9192SOL     OW28474   0.402   4.385   4.813
 9192SOL    HW128475   0.447   4.317   4.871
 9192SOL    HW228476   0.308   4.400   4.844
 9193SOL     OW28477   3.580   3.699   0.263
 9193SOL    HW128478   3.637   3.773   0.299
 9193SOL    HW228479   3.484   3.722   0.278
 9194SOL     OW28480   3.813   0.624   4.119
 9194SOL    HW128481   3.833   0.722   4.119
 9194SOL    HW228482   3.800   0.592   4.213
 9195SOL     OW28483   1.827   2.424   4.720
 9195SOL    HW128484   1.841   2.425   4.620
 9195SOL    HW228485   1.915   2.440   4.765
 9196SOL     OW28486   4.487   1.420   5.042
 9196SOL    HW128487   4.570   1.372   5.070
 9196SOL    HW228488   4.407   1.371   5.077
 9197SOL     OW28489   2.431   3.895   1.301
 9197SOL    HW128490   2.380   3.975   1.270
 9197SOL    HW228491   2.405   3.816   1.247
 9198SOL     OW28492   6.790   5.422   5.315
 9198SOL    HW128493   6.693   5.396   5.308
 9198SOL    HW228494   6.847   5.343   5.292
 9199SOL     OW28495   0.453   4.072   6.095
 9199SOL    HW128496   0.378   4.062   6.161
 9199SOL    HW228497   0.419   4.056   6.003
 9200SOL     OW28498   2.544   0.574   0.795
 9200SOL    HW128499   2.506   0.607   0.881
 9200SOL    HW228500   2.640   0.599   0.789
 9201SOL     OW28501   1.346   3.019   6.695
 9201SOL    HW128502   1.291   2.944   6.731
 9201SOL    HW228503   1.308   3.107   6.726
 9202SOL     OW28504   1.986   6.757   3.141
 9202SOL    HW128505   2.039   6.791   3.219
 9202SOL    HW228506   1.992   6.657   3.138
 9203SOL     OW28507   0.085   5.044   0.362
 9203SOL    HW128508   0.022   5.101   0.414
 9203SOL    HW228509   0.173   5.040   0.410
 9204SOL     OW28510   4.997   1.385   6.900
 9204SOL    HW128511   4.918   1.429   6.856
 9204SOL    HW228512   4.995   1.402   6.998
 9205SOL     OW28513   6.690   4.111   2.825
 9205SOL    HW128514   6.685   4.190   2.887
 9205SOL    HW228515   6.681   4.027   2.879
 9206SOL     OW28516   3.562   5.795   0.623
 9206SOL    HW128517   3.641   5.831   0.672
 9206SOL    HW228518   3.583   5.787   0.526
 9207SOL     OW28519   4.609   5.682   0.089
 9207SOL    HW128520   4.676   5.711   0.021
 9207SOL    HW228521   4.631   5.722   0.178
 9208SOL     OW28522   6.337   3.832   4.369
 9208SOL    HW128523   6.393   3.749   4.367
 9208SOL    HW228524   6.253   3.814   4.421
 9209SOL     OW28525   2.903   1.437   6.553
 9209SOL    HW128526   2.989   1.489   6.553
 9209SOL    HW228527   2.865   1.435   6.461
 9210SOL     OW28528   6.510   1.566   2.775
 9210SOL    HW128529   6.478   1.539   2.684
 9210SOL    HW228530   6.522   1.484   2.832
 9211SOL     OW28531   0.189   2.998   3.888
 9211SOL    HW128532   0.168   2.903   3.862
 9211SOL    HW228533   0.112   3.037   3.938
 9212SOL     OW28534   3.694   5.332   4.097
 9212SOL    HW128535   3.615   5.276   4.071
 9212SOL    HW228536   3.668   5.429   4.094
 9213SOL     OW28537   5.815   3.095   5.671
 9213SOL    HW128538   5.907   3.059   5.682
 9213SOL    HW228539   5.750   3.018   5.665
 9214SOL     OW28540   0.332   5.532   6.775
 9214SOL    HW128541   0.366   5.610   6.828
 9214SOL    HW228542   0.304   5.459   6.837
 9215SOL     OW28543   1.105   1.075   0.438
 9215SOL    HW128544   1.043   1.052   0.363
 9215SOL    HW228545   1.077   1.163   0.478
 9216SOL     OW28546   2.681   0.131   3.352
 9216SOL    HW128547   2.756   0.163   3.410
 9216SOL    HW228548   2.719   0.076   3.277
 9217SOL     OW28549   7.009   1.639   6.636
 9217SOL    HW128550   0.007   1.734   6.660
 9217SOL    HW228551   0.032   1.578   6.700
 9218SOL     OW28552   3.565   6.667   0.299
 9218SOL    HW128553   3.640   6.732   0.296
 9218SOL    HW228554   3.479   6.716   0.317
 9219SOL     OW28555   0.969   2.567   1.103
 9219SOL    HW128556   0.962   2.569   1.003
 9219SOL    HW228557   0.880   2.589   1.143
 9220SOL     OW28558   3.579   6.537   1.845
 9220SOL    HW128559   3.582   6.468   1.773
 9220SOL    HW228560   3.665   6.537   1.895
 9221SOL     OW28561   3.316   0.005   4.176
 9221SOL    HW128562   3.363   0.009   4.088
 9221SOL    HW228563   3.262   6.945   4.181
 9222SOL     OW28564   2.421   1.028   6.771
 9222SOL    HW128565   2.397   0.932   6.759
 9222SOL    HW228566   2.341   1.080   6.801
 9223SOL     OW28567   1.680   3.013   5.331
 9223SOL    HW128568   1.666   2.929   5.383
 9223SOL    HW228569   1.777   3.021   5.305
 9224SOL     OW28570   2.409   5.215   3.907
 9224SOL    HW128571   2.318   5.199   3.868
 9224SOL    HW228572   2.402   5.215   4.007
 9225SOL     OW28573   3.021   6.498   6.609
 9225SOL    HW128574   3.046   6.540   6.522
 9225SOL    HW228575   3.003   6.570   6.677
 9226SOL     OW28576   4.835   6.253   1.464
 9226SOL    HW128577   4.853   6.246   1.562
 9226SOL    HW228578   4.850   6.164   1.420
 9227SOL     OW28579   0.982   5.308   3.040
 9227SOL    HW128580   0.976   5.348   3.132
 9227SOL    HW228581   1.061   5.247   3.036
 9228SOL     OW28582   1.592   1.220   5.701
 9228SOL    HW128583   1.686   1.251   5.713
 9228SOL    HW228584   1.592   1.122   5.681
 9229SOL     OW28585   1.434   5.178   3.634
 9229SOL    HW128586   1.423   5.244   3.559
 9229SOL    HW228587   1.389   5.093   3.609
 9230SOL     OW28588   5.555   0.546   3.347
 9230SOL    HW128589   5.468   0.565   3.301
 9230SOL    HW228590   5.618   0.622   3.332
 9231SOL     OW28591   1.430   3.128   4.437
 9231SOL    HW128592   1.438   3.139   4.537
 9231SOL    HW228593   1.453   3.033   4.413
 9232SOL     OW28594   3.567   5.124   0.524
 9232SOL    HW128595   3.481   5.164   0.493
 9232SOL    HW228596   3.549   5.045   0.582
 9233SOL     OW28597   5.651   5.107   1.409
 9233SOL    HW128598   5.596   5.025   1.426
 9233SOL    HW228599   5.648   5.130   1.312
 9234SOL     OW28600   2.934   5.729   3.297
 9234SOL    HW128601   2.908   5.654   3.237
 9234SOL    HW228602   2.980   5.800   3.244
 9235SOL     OW28603   1.916   1.832   3.327
 9235SOL    HW128604   1.840   1.898   3.321
 9235SOL    HW228605   1.968   1.834   3.242
 9236SOL     OW28606   3.335   3.991   5.388
 9236SOL    HW128607   3.362   4.081   5.354
 9236SOL    HW228608   3.251   3.961   5.342
 9237SOL     OW28609   1.512   4.054   3.954
 9237SOL    HW128610   1.579   4.050   3.880
 9237SOL    HW228611   1.422   4.078   3.917
 9238SOL     OW28612   4.785   2.809   6.503
 9238SOL    HW128613   4.865   2.772   6.551
 9238SOL    HW228614   4.815   2.874   6.434
 9239SOL     OW28615   0.459   3.847   1.228
 9239SOL    HW128616   0.373   3.880   1.267
 9239SOL    HW228617   0.464   3.748   1.237
 9240SOL     OW28618   5.334   1.664   1.334
 9240SOL    HW128619   5.321   1.575   1.290
 9240SOL    HW228620   5.389   1.722   1.275
 9241SOL     OW28621   6.821   5.522   6.506
 9241SOL    HW128622   6.837   5.614   6.543
 9241SOL    HW228623   6.872   5.512   6.421
 9242SOL     OW28624   0.197   6.053   1.267
 9242SOL    HW128625   0.164   5.961   1.247
 9242SOL    HW228626   0.148   6.090   1.346
 9243SOL     OW28627   6.943   5.995   4.308
 9243SOL    HW128628   6.916   5.958   4.219
 9243SOL    HW228629   6.864   5.996   4.369
 9244SOL     OW28630   4.743   5.564   6.583
 9244SOL    HW128631   4.700   5.521   6.662
 9244SOL    HW228632   4.821   5.619   6.613
 9245SOL     OW28633   0.840   5.153   2.162
 9245SOL    HW128634   0.817   5.074   2.219
 9245SOL    HW228635   0.929   5.189   2.191
 9246SOL     OW28636   6.912   5.070   3.646
 9246SOL    HW128637   6.974   5.089   3.722
 9246SOL    HW228638   6.958   5.091   3.560
 9247SOL     OW28639   1.448   0.072   3.417
 9247SOL    HW128640   1.400   0.160   3.427
 9247SOL    HW228641   1.526   0.083   3.356
 9248SOL     OW28642   2.722   2.686   6.202
 9248SOL    HW128643   2.674   2.598   6.200
 9248SOL    HW228644   2.820   2.670   6.197
 9249SOL     OW28645   5.430   1.694   4.727
 9249SOL    HW128646   5.510   1.753   4.718
 9249SOL    HW228647   5.358   1.744   4.775
 9250SOL     OW28648   4.834   3.776   4.117
 9250SOL    HW128649   4.805   3.795   4.210
 9250SOL    HW228650   4.768   3.713   4.074
 9251SOL     OW28651   3.438   1.346   3.320
 9251SOL    HW128652   3.422   1.326   3.223
 9251SOL    HW228653   3.418   1.442   3.338
 9252SOL     OW28654   0.051   0.038   4.680
 9252SOL    HW128655   0.070   0.110   4.613
 9252SOL    HW228656   0.130   0.026   4.740
 9253SOL     OW28657   2.770   6.578   6.095
 9253SOL    HW128658   2.742   6.673   6.084
 9253SOL    HW228659   2.690   6.521   6.113
 9254SOL     OW28660   5.745   3.900   1.428
 9254SOL    HW128661   5.764   3.807   1.457
 9254SOL    HW228662   5.665   3.935   1.477
 9255SOL     OW28663   5.010   3.066   0.243
 9255SOL    HW128664   4.929   3.123   0.229
 9255SOL    HW228665   5.089   3.124   0.263
 9256SOL     OW28666   4.108   4.761   2.237
 9256SOL    HW128667   4.187   4.706   2.210
 9256SOL    HW228668   4.025   4.725   2.194
 9257SOL     OW28669   0.754   4.077   2.612
 9257SOL    HW128670   0.687   4.152   2.615
 9257SOL    HW228671   0.828   4.100   2.549
 9258SOL     OW28672   3.591   2.897   3.662
 9258SOL    HW128673   3.570   2.803   3.636
 9258SOL    HW228674   3.513   2.956   3.642
 9259SOL     OW28675   0.971   2.105   1.117
 9259SOL    HW128676   0.902   2.112   1.045
 9259SOL    HW228677   1.016   2.194   1.128
 9260SOL     OW28678   5.003   2.877   6.049
 9260SOL    HW128679   4.922   2.824   6.024
 9260SOL    HW228680   5.013   2.954   5.986
 9261SOL     OW28681   3.621   0.260   6.883
 9261SOL    HW128682   3.664   0.174   6.909
 9261SOL    HW228683   3.522   0.247   6.878
 9262SOL     OW28684   5.723   1.780   5.379
 9262SOL    HW128685   5.648   1.790   5.313
 9262SOL    HW228686   5.691   1.808   5.469
 9263SOL     OW28687   5.182   3.796   0.992
 9263SOL    HW128688   5.214   3.891   0.990
 9263SOL    HW228689   5.251   3.738   1.035
 9264SOL     OW28690   6.700   3.748   0.271
 9264SOL    HW128691   6.634   3.718   0.203
 9264SOL    HW228692   6.715   3.675   0.338
 9265SOL     OW28693   2.582   1.583   0.575
 9265SOL    HW128694   2.597   1.677   0.603
 9265SOL    HW228695   2.519   1.581   0.497
 9266SOL     OW28696   2.363   6.417   2.437
 9266SOL    HW128697   2.350   6.385   2.531
 9266SOL    HW228698   2.438   6.366   2.395
 9267SOL     OW28699   0.434   3.647   4.502
 9267SOL    HW128700   0.487   3.701   4.567
 9267SOL    HW228701   0.348   3.694   4.482
 9268SOL     OW28702   0.208   6.496   2.946
 9268SOL    HW128703   0.114   6.522   2.924
 9268SOL    HW228704   0.260   6.485   2.861
 9269SOL     OW28705   2.812   1.816   7.017
 9269SOL    HW128706   2.736   1.761   0.028
 9269SOL    HW228707   2.837   1.785   6.925
 9270SOL     OW28708   6.938   6.691   5.563
 9270SOL    HW128709   6.975   6.673   5.472
 9270SOL    HW228710   6.865   6.760   5.557
 9271SOL     OW28711   1.464   6.554   0.806
 9271SOL    HW128712   1.392   6.603   0.757
 9271SOL    HW228713   1.432   6.463   0.831
 9272SOL     OW28714   2.512   4.404   6.390
 9272SOL    HW128715   2.486   4.308   6.399
 9272SOL    HW228716   2.559   4.434   6.473
 9273SOL     OW28717   4.522   5.318   3.512
 9273SOL    HW128718   4.441   5.323   3.453
 9273SOL    HW228719   4.571   5.405   3.507
 9274SOL     OW28720   5.119   2.307   6.896
 9274SOL    HW128721   5.192   2.240   6.882
 9274SOL    HW228722   5.032   2.268   6.864
 9275SOL     OW28723   1.229   1.271   6.888
 9275SOL    HW128724   1.267   1.205   6.953
 9275SOL    HW228725   1.266   1.362   6.908
 9276SOL     OW28726   3.454   5.733   4.611
 9276SOL    HW128727   3.405   5.705   4.693
 9276SOL    HW228728   3.411   5.691   4.531
 9277SOL     OW28729   3.641   3.495   0.090
 9277SOL    HW128730   3.579   3.419   0.110
 9277SOL    HW228731   3.603   3.580   0.126
 9278SOL     OW28732   1.238   1.599   3.910
 9278SOL    HW128733   1.178   1.677   3.893
 9278SOL    HW228734   1.332   1.630   3.918
 9279SOL     OW28735   3.831   0.575   2.133
 9279SOL    HW128736   3.881   0.650   2.090
 9279SOL    HW228737   3.836   0.583   2.232
 9280SOL     OW28738   1.482   6.810   3.662
 9280SOL    HW128739   1.436   6.744   3.603
 9280SOL    HW228740   1.414   6.868   3.707
 9281SOL     OW28741   2.733   2.721   0.776
 9281SOL    HW128742   2.658   2.677   0.825
 9281SOL    HW228743   2.805   2.654   0.759
 9282SOL     OW28744   4.703   1.594   4.592
 9282SOL    HW128745   4.778   1.528   4.591
 9282SOL    HW228746   4.616   1.547   4.608
 9283SOL     OW28747   6.321   1.969   2.783
 9283SOL    HW128748   6.389   1.900   2.756
 9283SOL    HW228749   6.302   1.960   2.881
 9284SOL     OW28750   3.781   4.137   0.745
 9284SOL    HW128751   3.779   4.100   0.652
 9284SOL    HW228752   3.688   4.162   0.772
 9285SOL     OW28753   6.721   2.727   6.967
 9285SOL    HW128754   6.781   2.740   6.888
 9285SOL    HW228755   6.692   2.817   7.001
 9286SOL     OW28756   5.889   6.787   5.324
 9286SOL    HW128757   5.962   6.855   5.333
 9286SOL    HW228758   5.843   6.800   5.236
 9287SOL     OW28759   2.913   5.598   1.262
 9287SOL    HW128760   2.863   5.659   1.200
 9287SOL    HW228761   2.946   5.651   1.340
 9288SOL     OW28762   3.734   1.634   5.588
 9288SOL    HW128763   3.704   1.596   5.500
 9288SOL    HW228764   3.662   1.619   5.656
 9289SOL     OW28765   5.057   2.546   2.469
 9289SOL    HW128766   5.065   2.507   2.377
 9289SOL    HW228767   4.981   2.505   2.517
 9290SOL     OW28768   4.066   2.219   4.942
 9290SOL    HW128769   4.102   2.285   5.009
 9290SOL    HW228770   4.107   2.237   4.853
 9291SOL     OW28771   1.787   0.261   5.078
 9291SOL    HW128772   1.741   0.220   5.156
 9291SOL    HW228773   1.818   0.188   5.016
 9292SOL     OW28774   0.024   3.103   5.808
 9292SOL    HW128775   0.010   3.177   5.742
 9292SOL    HW228776   0.111   3.117   5.856
 9293SOL     OW28777   5.559   4.162   0.593
 9293SOL    HW128778   5.619   4.147   0.673
 9293SOL    HW228779   5.565   4.083   0.533
 9294SOL     OW28780   3.991   5.940   0.042
 9294SOL    HW128781   3.962   5.985   0.126
 9294SOL    HW228782   3.912   5.919   7.008
 9295SOL     OW28783   4.445   2.131   2.832
 9295SOL    HW128784   4.443   2.060   2.761
 9295SOL    HW228785   4.430   2.220   2.791
 9296SOL     OW28786   6.609   6.586   6.021
 9296SOL    HW128787   6.616   6.558   6.116
 9296SOL    HW228788   6.678   6.538   5.967
 9297SOL     OW28789   0.390   0.550   1.284
 9297SOL    HW128790   0.411   0.603   1.202
 9297SOL    HW228791   0.349   0.463   1.260
 9298SOL     OW28792   2.427   6.150   5.606
 9298SOL    HW128793   2.458   6.058   5.630
 9298SOL    HW228794   2.442   6.167   5.509
 9299SOL     OW28795   1.438   2.877   4.014
 9299SOL    HW128796   1.498   2.810   4.057
 9299SOL    HW228797   1.464   2.969   4.043
 9300SOL     OW28798   6.359   5.013   5.308
 9300SOL    HW128799   6.367   5.010   5.208
 9300SOL    HW228800   6.318   4.928   5.341
 9301SOL     OW28801   4.856   4.655   3.108
 9301SOL    HW128802   4.898   4.595   3.039
 9301SOL    HW228803   4.814   4.599   3.179
 9302SOL     OW28804   2.592   2.546   3.406
 9302SOL    HW128805   2.554   2.638   3.412
 9302SOL    HW228806   2.590   2.515   3.310
 9303SOL     OW28807   3.991   6.701   0.498
 9303SOL    HW128808   3.969   6.705   0.595
 9303SOL    HW228809   3.962   6.613   0.460
 9304SOL     OW28810   3.550   4.434   0.595
 9304SOL    HW128811   3.553   4.532   0.572
 9304SOL    HW228812   3.456   4.407   0.613
 9305SOL     OW28813   5.589   2.317   1.497
 9305SOL    HW128814   5.602   2.224   1.531
 9305SOL    HW228815   5.587   2.316   1.397
 9306SOL     OW28816   6.896   4.690   4.117
 9306SOL    HW128817   6.819   4.687   4.180
 9306SOL    HW228818   6.950   4.607   4.125
 9307SOL     OW28819   1.480   1.959   1.323
 9307SOL    HW128820   1.380   1.960   1.330
 9307SOL    HW228821   1.506   1.935   1.229
 9308SOL     OW28822   0.246   3.331   1.024
 9308SOL    HW128823   0.155   3.295   1.008
 9308SOL    HW228824   0.310   3.256   1.043
 9309SOL     OW28825   4.000   4.211   6.075
 9309SOL    HW128826   4.001   4.310   6.061
 9309SOL    HW228827   3.974   4.166   5.990
 9310SOL     OW28828   4.051   6.816   6.003
 9310SOL    HW128829   4.015   6.780   5.916
 9310SOL    HW228830   4.038   6.916   6.005
 9311SOL     OW28831   5.313   3.726   0.608
 9311SOL    HW128832   5.309   3.704   0.510
 9311SOL    HW228833   5.227   3.769   0.635
 9312SOL     OW28834   1.551   4.182   6.791
 9312SOL    HW128835   1.480   4.135   6.843
 9312SOL    HW228836   1.531   4.280   6.789
 9313SOL     OW28837   6.900   0.610   2.348
 9313SOL    HW128838   7.000   0.620   2.345
 9313SOL    HW228839   6.857   0.700   2.336
 9314SOL     OW28840   4.089   5.535   6.843
 9314SOL    HW128841   4.002   5.535   6.794
 9314SOL    HW228842   4.158   5.487   6.790
 9315SOL     OW28843   0.290   0.669   5.718
 9315SOL    HW128844   0.236   0.753   5.729
 9315SOL    HW228845   0.291   0.619   5.804
 9316SOL     OW28846   3.865   5.864   4.017
 9316SOL    HW128847   3.939   5.806   4.053
 9316SOL    HW228848   3.903   5.952   3.991
 9317SOL     OW28849   6.006   5.012   3.204
 9317SOL    HW128850   5.926   5.004   3.144
 9317SOL    HW228851   6.005   4.937   3.270
 9318SOL     OW28852   0.396   0.879   6.700
 9318SOL    HW128853   0.345   0.793   6.692
 9318SOL    HW228854   0.384   0.933   6.616
 9319SOL     OW28855   0.823   3.087   6.481
 9319SOL    HW128856   0.901   3.121   6.429
 9319SOL    HW228857   0.778   3.163   6.528
 9320SOL     OW28858   3.805   2.485   5.851
 9320SOL    HW128859   3.820   2.566   5.909
 9320SOL    HW228860   3.709   2.459   5.854
 9321SOL     OW28861   6.365   6.925   2.938
 9321SOL    HW128862   6.389   6.855   3.005
 9321SOL    HW228863   6.438   6.992   2.932
 9322SOL     OW28864   0.291   6.507   6.122
 9322SOL    HW128865   0.380   6.538   6.089
 9322SOL    HW228866   0.263   6.425   6.072
 9323SOL     OW28867   0.678   1.104   6.426
 9323SOL    HW128868   0.691   1.010   6.392
 9323SOL    HW228869   0.766   1.141   6.456
 9324SOL     OW28870   1.157   5.055   0.480
 9324SOL    HW128871   1.203   4.967   0.489
 9324SOL    HW228872   1.154   5.082   0.384
 9325SOL     OW28873   5.403   1.714   1.018
 9325SOL    HW128874   5.377   1.633   0.965
 9325SOL    HW228875   5.326   1.777   1.022
 9326SOL     OW28876   2.573   6.916   0.416
 9326SOL    HW128877   2.539   7.010   0.412
 9326SOL    HW228878   2.670   6.916   0.437
 9327SOL     OW28879   4.884   6.949   3.184
 9327SOL    HW128880   4.968   7.002   3.172
 9327SOL    HW228881   4.874   6.885   3.108
 9328SOL     OW28882   3.767   1.385   7.010
 9328SOL    HW128883   3.684   1.366   6.958
 9328SOL    HW228884   3.816   1.300   0.005
 9329SOL     OW28885   6.859   3.585   2.954
 9329SOL    HW128886   6.777   3.531   2.968
 9329SOL    HW228887   6.897   3.612   3.043
 9330SOL     OW28888   6.772   6.830   0.887
 9330SOL    HW128889   6.851   6.877   0.929
 9330SOL    HW228890   6.696   6.829   0.952
 9331SOL     OW28891   0.124   0.821   0.073
 9331SOL    HW128892   0.176   0.736   0.063
 9331SOL    HW228893   0.153   0.886   0.003
 9332SOL     OW28894   2.993   3.852   4.408
 9332SOL    HW128895   2.953   3.766   4.438
 9332SOL    HW228896   2.998   3.853   4.308
 9333SOL     OW28897   6.048   3.739   0.971
 9333SOL    HW128898   6.065   3.817   0.911
 9333SOL    HW228899   6.003   3.771   1.054
 9334SOL     OW28900   3.233   0.233   3.683
 9334SOL    HW128901   3.254   0.329   3.698
 9334SOL    HW228902   3.229   0.214   3.584
 9335SOL     OW28903   1.513   1.310   6.608
 9335SOL    HW128904   1.573   1.298   6.687
 9335SOL    HW228905   1.568   1.337   6.529
 9336SOL     OW28906   3.215   6.391   6.300
 9336SOL    HW128907   3.278   6.449   6.352
 9336SOL    HW228908   3.123   6.431   6.303
 9337SOL     OW28909   5.469   0.431   2.120
 9337SOL    HW128910   5.497   0.344   2.160
 9337SOL    HW228911   5.466   0.423   2.020
 9338SOL     OW28912   3.888   0.354   2.475
 9338SOL    HW128913   3.929   0.366   2.566
 9338SOL    HW228914   3.834   0.435   2.452
 9339SOL     OW28915   5.202   6.788   1.076
 9339SOL    HW128916   5.144   6.781   1.157
 9339SOL    HW228917   5.157   6.745   0.998
 9340SOL     OW28918   5.286   3.588   5.918
 9340SOL    HW128919   5.260   3.650   5.992
 9340SOL    HW228920   5.221   3.512   5.914
 9341SOL     OW28921   1.392   5.689   6.968
 9341SOL    HW128922   1.441   5.642   0.019
 9341SOL    HW228923   1.440   5.672   6.882
 9342SOL     OW28924   1.724   0.112   5.319
 9342SOL    HW128925   1.809   0.073   5.354
 9342SOL    HW228926   1.682   0.170   5.389
 9343SOL     OW28927   6.559   5.588   5.076
 9343SOL    HW128928   6.513   5.646   5.143
 9343SOL    HW228929   6.566   5.637   4.989
 9344SOL     OW28930   4.986   6.470   1.372
 9344SOL    HW128931   5.062   6.439   1.315
 9344SOL    HW228932   4.924   6.394   1.388
 9345SOL     OW28933   6.805   2.847   1.583
 9345SOL    HW128934   6.718   2.798   1.579
 9345SOL    HW228935   6.793   2.934   1.630
 9346SOL     OW28936   6.371   0.563   1.269
 9346SOL    HW128937   6.358   0.617   1.352
 9346SOL    HW228938   6.403   0.471   1.294
 9347SOL     OW28939   1.519   6.061   1.760
 9347SOL    HW128940   1.456   6.001   1.809
 9347SOL    HW228941   1.478   6.086   1.672
 9348SOL     OW28942   3.291   5.809   0.695
 9348SOL    HW128943   3.261   5.763   0.779
 9348SOL    HW228944   3.389   5.793   0.682
 9349SOL     OW28945   1.259   6.664   2.369
 9349SOL    HW128946   1.225   6.723   2.443
 9349SOL    HW228947   1.315   6.591   2.408
 9350SOL     OW28948   0.270   2.211   6.313
 9350SOL    HW128949   0.256   2.259   6.399
 9350SOL    HW228950   0.181   2.187   6.273
 9351SOL     OW28951   3.314   2.628   7.004
 9351SOL    HW128952   3.307   2.613   0.079
 9351SOL    HW228953   3.291   2.723   6.983
 9352SOL     OW28954   2.812   4.644   6.961
 9352SOL    HW128955   2.854   4.565   6.916
 9352SOL    HW228956   2.854   4.657   0.028
 9353SOL     OW28957   0.548   5.910   1.816
 9353SOL    HW128958   0.458   5.893   1.854
 9353SOL    HW228959   0.539   5.966   1.733
 9354SOL     OW28960   5.900   2.432   6.934
 9354SOL    HW128961   5.877   2.382   7.018
 9354SOL    HW228962   5.992   2.406   6.904
 9355SOL     OW28963   0.369   1.584   5.273
 9355SOL    HW128964   0.388   1.657   5.208
 9355SOL    HW228965   0.400   1.497   5.236
 9356SOL     OW28966   4.766   6.824   2.135
 9356SOL    HW128967   4.672   6.791   2.134
 9356SOL    HW228968   4.821   6.770   2.071
 9357SOL     OW28969   0.770   1.892   6.954
 9357SOL    HW128970   0.689   1.863   7.004
 9357SOL    HW228971   0.799   1.983   6.986
 9358SOL     OW28972   1.333   3.469   2.237
 9358SOL    HW128973   1.336   3.372   2.258
 9358SOL    HW228974   1.420   3.511   2.263
 9359SOL     OW28975   2.123   6.694   6.184
 9359SOL    HW128976   2.154   6.684   6.278
 9359SOL    HW228977   2.202   6.700   6.123
 9360SOL     OW28978   1.233   0.392   6.347
 9360SOL    HW128979   1.203   0.486   6.334
 9360SOL    HW228980   1.155   0.330   6.339
 9361SOL     OW28981   2.461   6.095   4.039
 9361SOL    HW128982   2.439   6.190   4.057
 9361SOL    HW228983   2.543   6.089   3.982
 9362SOL     OW28984   2.127   0.325   1.987
 9362SOL    HW128985   2.136   0.277   2.074
 9362SOL    HW228986   2.154   0.420   1.998
 9363SOL     OW28987   3.103   5.091   2.345
 9363SOL    HW128988   3.196   5.097   2.308
 9363SOL    HW228989   3.037   5.101   2.271
 9364SOL     OW28990   1.743   1.970   1.397
 9364SOL    HW128991   1.653   1.926   1.392
 9364SOL    HW228992   1.814   1.901   1.383
 9365SOL     OW28993   3.276   1.897   4.307
 9365SOL    HW128994   3.341   1.875   4.380
 9365SOL    HW228995   3.269   1.996   4.295
 9366SOL     OW28996   3.367   5.647   0.386
 9366SOL    HW128997   3.432   5.710   0.344
 9366SOL    HW228998   3.413   5.594   0.457
 9367SOL     OW28999   6.348   0.769   1.459
 9367SOL    HW129000   6.316   0.729   1.544
 9367SOL    HW229001   6.420   0.836   1.478
 9368SOL     OW29002   3.585   0.902   2.529
 9368SOL    HW129003   3.664   0.950   2.492
 9368SOL    HW229004   3.612   0.810   2.557
 9369SOL     OW29005   2.079   5.314   6.496
 9369SOL    HW129006   1.994   5.352   6.532
 9369SOL    HW229007   2.139   5.289   6.571
 9370SOL     OW29008   4.743   1.976   3.970
 9370SOL    HW129009   4.743   1.951   3.873
 9370SOL    HW229010   4.825   1.938   4.014
 9371SOL     OW29011   3.824   5.850   1.605
 9371SOL    HW129012   3.795   5.946   1.602
 9371SOL    HW229013   3.778   5.803   1.681
 9372SOL     OW29014   5.011   6.573   1.635
 9372SOL    HW129015   5.013   6.544   1.539
 9372SOL    HW229016   5.102   6.558   1.676
 9373SOL     OW29017   6.596   1.061   0.922
 9373SOL    HW129018   6.565   0.996   0.853
 9373SOL    HW229019   6.693   1.045   0.941
 9374SOL     OW29020   0.764   5.185   5.769
 9374SOL    HW129021   0.720   5.141   5.847
 9374SOL    HW229022   0.694   5.225   5.709
 9375SOL     OW29023   0.465   1.520   6.931
 9375SOL    HW129024   0.443   1.546   6.837
 9375SOL    HW229025   0.562   1.532   6.947
 9376SOL     OW29026   2.161   3.694   2.185
 9376SOL    HW129027   2.257   3.720   2.195
 9376SOL    HW229028   2.154   3.615   2.125
 9377SOL     OW29029   2.569   6.470   2.845
 9377SOL    HW129030   2.561   6.565   2.876
 9377SOL    HW229031   2.662   6.454   2.811
 9378SOL     OW29032   3.019   0.503   3.443
 9378SOL    HW129033   3.098   0.563   3.455
 9378SOL    HW229034   2.966   0.500   3.527
 9379SOL     OW29035   4.158   6.423   4.749
 9379SOL    HW129036   4.153   6.349   4.815
 9379SOL    HW229037   4.114   6.505   4.787
 9380SOL     OW29038   4.928   5.904   0.185
 9380SOL    HW129039   4.877   5.949   0.112
 9380SOL    HW229040   5.012   5.865   0.147
 9381SOL     OW29041   5.377   1.951   4.328
 9381SOL    HW129042   5.328   2.025   4.374
 9381SOL    HW229043   5.356   1.864   4.373
 9382SOL     OW29044   3.449   0.236   4.789
 9382SOL    HW129045   3.442   0.137   4.789
 9382SOL    HW229046   3.412   0.273   4.704
 9383SOL     OW29047   4.825   3.965   3.191
 9383SOL    HW129048   4.783   3.938   3.104
 9383SOL    HW229049   4.908   3.911   3.206
 9384SOL     OW29050   2.148   0.593   2.051
 9384SOL    HW129051   2.162   0.693   2.052
 9384SOL    HW229052   2.095   0.566   2.131
 9385SOL     OW29053   3.926   1.534   3.122
 9385SOL    HW129054   3.838   1.521   3.168
 9385SOL    HW229055   3.999   1.493   3.177
 9386SOL     OW29056   4.298   6.673   6.148
 9386SOL    HW129057   4.297   6.579   6.114
 9386SOL    HW229058   4.221   6.723   6.109
 9387SOL     OW29059   2.768   2.569   6.975
 9387SOL    HW129060   2.754   2.668   6.979
 9387SOL    HW229061   2.680   2.523   6.976
 9388SOL     OW29062   2.268   6.275   4.390
 9388SOL    HW129063   2.312   6.333   4.457
 9388SOL    HW229064   2.256   6.183   4.428
 9389SOL     OW29065   2.737   4.578   1.701
 9389SOL    HW129066   2.682   4.657   1.728
 9389SOL    HW229067   2.801   4.555   1.775
 9390SOL     OW29068   5.288   4.968   5.170
 9390SOL    HW129069   5.231   4.956   5.089
 9390SOL    HW229070   5.273   4.891   5.232
 9391SOL     OW29071   2.168   5.732   4.543
 9391SOL    HW129072   2.228   5.795   4.493
 9391SOL    HW229073   2.221   5.683   4.611
 9392SOL     OW29074   5.954   4.391   2.545
 9392SOL    HW129075   5.975   4.354   2.454
 9392SOL    HW229076   6.017   4.352   2.612
 9393SOL     OW29077   2.724   6.827   6.223
 9393SOL    HW129078   2.796   6.875   6.172
 9393SOL    HW229079   2.635   6.844   6.180
 9394SOL     OW29080   4.342   0.437   0.813
 9394SOL    HW129081   4.419   0.381   0.845
 9394SOL    HW229082   4.260   0.380   0.806
 9395SOL     OW29083   1.910   1.982   0.941
 9395SOL    HW129084   1.968   1.965   0.862
 9395SOL    HW229085   1.954   1.946   1.023
 9396SOL     OW29086   0.780   6.493   6.459
 9396SOL    HW129087   0.714   6.417   6.459
 9396SOL    HW229088   0.873   6.456   6.453
 9397SOL     OW29089   3.818   1.313   5.739
 9397SOL    HW129090   3.795   1.383   5.807
 9397SOL    HW229091   3.790   1.223   5.774
 9398SOL     OW29092   0.138   1.449   6.782
 9398SOL    HW129093   0.125   1.369   6.841
 9398SOL    HW229094   0.220   1.437   6.726
 9399SOL     OW29095   1.598   2.811   3.585
 9399SOL    HW129096   1.675   2.790   3.525
 9399SOL    HW229097   1.605   2.906   3.615
 9400SOL     OW29098   5.640   1.239   0.693
 9400SOL    HW129099   5.549   1.246   0.653
 9400SOL    HW229100   5.644   1.160   0.754
 9401SOL     OW29101   0.412   2.272   3.237
 9401SOL    HW129102   0.327   2.306   3.197
 9401SOL    HW229103   0.427   2.177   3.209
 9402SOL     OW29104   1.552   6.212   3.947
 9402SOL    HW129105   1.538   6.301   3.991
 9402SOL    HW229106   1.573   6.226   3.850
 9403SOL     OW29107   6.473   2.196   1.869
 9403SOL    HW129108   6.377   2.211   1.848
 9403SOL    HW229109   6.509   2.275   1.919
 9404SOL     OW29110   1.989   3.118   0.617
 9404SOL    HW129111   2.047   3.055   0.670
 9404SOL    HW229112   1.902   3.074   0.598
 9405SOL     OW29113   0.382   5.534   5.326
 9405SOL    HW129114   0.360   5.631   5.322
 9405SOL    HW229115   0.460   5.515   5.266
 9406SOL     OW29116   0.012   2.955   0.309
 9406SOL    HW129117   0.083   2.888   0.327
 9406SOL    HW229118   7.020   2.963   0.210
 9407SOL     OW29119   1.233   5.353   5.640
 9407SOL    HW129120   1.177   5.275   5.613
 9407SOL    HW229121   1.328   5.323   5.651
 9408SOL     OW29122   0.132   3.857   4.908
 9408SOL    HW129123   0.044   3.846   4.862
 9408SOL    HW229124   0.194   3.784   4.879
 9409SOL     OW29125   6.885   5.208   2.223
 9409SOL    HW129126   6.971   5.166   2.253
 9409SOL    HW229127   6.885   5.305   2.245
 9410SOL     OW29128   3.916   0.851   0.952
 9410SOL    HW129129   3.990   0.903   0.910
 9410SOL    HW229130   3.954   0.790   1.021
 9411SOL     OW29131   2.903   3.340   3.248
 9411SOL    HW129132   2.980   3.394   3.282
 9411SOL    HW229133   2.822   3.360   3.302
 9412SOL     OW29134   6.119   6.542   1.341
 9412SOL    HW129135   6.134   6.447   1.312
 9412SOL    HW229136   6.156   6.555   1.432
 9413SOL     OW29137   4.638   4.353   2.547
 9413SOL    HW129138   4.646   4.254   2.532
 9413SOL    HW229139   4.565   4.390   2.490
 9414SOL     OW29140   1.594   1.856   4.054
 9414SOL    HW129141   1.684   1.811   4.049
 9414SOL    HW229142   1.563   1.877   3.961
 9415SOL     OW29143   4.098   1.225   2.451
 9415SOL    HW129144   4.138   1.276   2.374
 9415SOL    HW229145   4.013   1.268   2.478
 9416SOL     OW29146   6.037   5.075   5.940
 9416SOL    HW129147   5.958   5.018   5.964
 9416SOL    HW229148   6.122   5.027   5.967
 9417SOL     OW29149   3.740   5.995   1.900
 9417SOL    HW129150   3.833   5.957   1.904
 9417SOL    HW229151   3.705   6.007   1.993
 9418SOL     OW29152   3.032   2.040   4.676
 9418SOL    HW129153   2.999   2.044   4.770
 9418SOL    HW229154   3.126   2.006   4.675
 9419SOL     OW29155   1.966   3.057   6.364
 9419SOL    HW129156   1.892   3.037   6.299
 9419SOL    HW229157   1.931   3.115   6.438
 9420SOL     OW29158   6.233   4.080   6.893
 9420SOL    HW129159   6.209   4.013   6.823
 9420SOL    HW229160   6.329   4.070   6.917
 9421SOL     OW29161   3.900   6.509   5.531
 9421SOL    HW129162   3.973   6.531   5.466
 9421SOL    HW229163   3.880   6.411   5.528
 9422SOL     OW29164   2.707   6.202   4.551
 9422SOL    HW129165   2.750   6.283   4.510
 9422SOL    HW229166   2.778   6.135   4.575
 9423SOL     OW29167   4.737   4.540   3.352
 9423SOL    HW129168   4.681   4.622   3.361
 9423SOL    HW229169   4.733   4.488   3.438
 9424SOL     OW29170   5.913   7.003   4.432
 9424SOL    HW129171   5.981   0.034   4.383
 9424SOL    HW229172   5.956   6.918   4.465
 9425SOL     OW29173   6.756   4.896   1.303
 9425SOL    HW129174   6.730   4.920   1.397
 9425SOL    HW229175   6.729   4.801   1.285
 9426SOL     OW29176   7.006   2.010   0.052
 9426SOL    HW129177   0.016   1.987   0.144
 9426SOL    HW229178   0.044   2.079   0.012
 9427SOL     OW29179   4.662   4.839   3.102
 9427SOL    HW129180   4.731   4.776   3.067
 9427SOL    HW229181   4.652   4.826   3.201
 9428SOL     OW29182   7.006   6.327   5.344
 9428SOL    HW129183   6.934   6.265   5.374
 9428SOL    HW229184   0.022   6.294   5.258
 9429SOL     OW29185   2.397   2.147   3.956
 9429SOL    HW129186   2.362   2.076   4.017
 9429SOL    HW229187   2.365   2.236   3.986
 9430SOL     OW29188   1.115   2.280   4.509
 9430SOL    HW129189   1.062   2.318   4.585
 9430SOL    HW229190   1.207   2.258   4.540
 9431SOL     OW29191   0.889   4.449   5.202
 9431SOL    HW129192   0.988   4.444   5.189
 9431SOL    HW229193   0.851   4.521   5.145
 9432SOL     OW29194   6.537   1.278   3.726
 9432SOL    HW129195   6.622   1.240   3.761
 9432SOL    HW229196   6.544   1.377   3.719
 9433SOL     OW29197   4.568   5.538   1.954
 9433SOL    HW129198   4.607   5.481   1.882
 9433SOL    HW229199   4.479   5.573   1.926
 9434SOL     OW29200   4.790   5.189   4.427
 9434SOL    HW129201   4.748   5.160   4.341
 9434SOL    HW229202   4.849   5.268   4.411
 9435SOL     OW29203   0.500   2.890   1.874
 9435SOL    HW129204   0.595   2.860   1.863
 9435SOL    HW229205   0.488   2.928   1.965
 9436SOL     OW29206   1.879   0.675   2.840
 9436SOL    HW129207   1.789   0.698   2.802
 9436SOL    HW229208   1.901   0.741   2.912
 9437SOL     OW29209   6.027   6.139   5.053
 9437SOL    HW129210   5.993   6.182   5.137
 9437SOL    HW229211   6.126   6.152   5.048
 9438SOL     OW29212   4.633   6.447   2.554
 9438SOL    HW129213   4.664   6.369   2.608
 9438SOL    HW229214   4.600   6.415   2.465
 9439SOL     OW29215   1.530   2.916   0.660
 9439SOL    HW129216   1.510   2.946   0.566
 9439SOL    HW229217   1.555   2.995   0.715
 9440SOL     OW29218   2.531   5.436   3.118
 9440SOL    HW129219   2.562   5.348   3.082
 9440SOL    HW229220   2.433   5.432   3.136
 9441SOL     OW29221   0.786   5.905   4.568
 9441SOL    HW129222   0.835   5.821   4.546
 9441SOL    HW229223   0.794   5.970   4.493
 9442SOL     OW29224   4.695   3.130   0.745
 9442SOL    HW129225   4.695   3.080   0.658
 9442SOL    HW229226   4.619   3.195   0.745
 9443SOL     OW29227   2.253   4.881   2.955
 9443SOL    HW129228   2.254   4.943   2.877
 9443SOL    HW229229   2.174   4.819   2.949
 9444SOL     OW29230   0.883   4.669   6.260
 9444SOL    HW129231   0.928   4.663   6.350
 9444SOL    HW229232   0.784   4.678   6.274
 9445SOL     OW29233   0.748   1.137   3.804
 9445SOL    HW129234   0.655   1.106   3.824
 9445SOL    HW229235   0.751   1.236   3.805
 9446SOL     OW29236   6.520   5.233   3.353
 9446SOL    HW129237   6.502   5.244   3.451
 9446SOL    HW229238   6.524   5.136   3.330
 9447SOL     OW29239   4.873   4.532   1.413
 9447SOL    HW129240   4.922   4.449   1.385
 9447SOL    HW229241   4.816   4.512   1.493
 9448SOL     OW29242   6.180   0.685   5.179
 9448SOL    HW129243   6.133   0.614   5.128
 9448SOL    HW229244   6.219   0.647   5.263
 9449SOL     OW29245   5.479   6.850   1.542
 9449SOL    HW129246   5.387   6.854   1.503
 9449SOL    HW229247   5.527   6.935   1.524
 9450SOL     OW29248   1.063   5.588   2.928
 9450SOL    HW129249   1.086   5.644   2.849
 9450SOL    HW229250   1.035   5.497   2.897
 9451SOL     OW29251   3.619   5.617   6.175
 9451SOL    HW129252   3.531   5.661   6.194
 9451SOL    HW229253   3.614   5.571   6.086
 9452SOL     OW29254   6.295   3.846   0.351
 9452SOL    HW129255   6.216   3.877   0.298
 9452SOL    HW229256   6.262   3.797   0.432
 9453SOL     OW29257   4.419   5.259   1.792
 9453SOL    HW129258   4.412   5.160   1.803
 9453SOL    HW229259   4.400   5.303   1.879
 9454SOL     OW29260   5.798   4.157   0.388
 9454SOL    HW129261   5.819   4.065   0.354
 9454SOL    HW229262   5.726   4.152   0.457
 9455SOL     OW29263   3.603   1.821   1.823
 9455SOL    HW129264   3.631   1.916   1.810
 9455SOL    HW229265   3.680   1.768   1.858
 9456SOL     OW29266   0.177   3.165   1.726
 9456SOL    HW129267   0.248   3.129   1.665
 9456SOL    HW229268   0.087   3.145   1.688
 9457SOL     OW29269   0.124   6.111   4.453
 9457SOL    HW129270   0.058   6.068   4.392
 9457SOL    HW229271   0.139   6.206   4.424
 9458SOL     OW29272   6.692   3.382   0.073
 9458SOL    HW129273   6.768   3.441   0.046
 9458SOL    HW229274   6.606   3.421   0.041
 9459SOL     OW29275   4.603   5.044   5.420
 9459SOL    HW129276   4.614   5.040   5.520
 9459SOL    HW229277   4.693   5.036   5.377
 9460SOL     OW29278   1.618   2.156   3.045
 9460SOL    HW129279   1.709   2.155   3.006
 9460SOL    HW229280   1.586   2.250   3.055
 9461SOL     OW29281   1.713   2.311   2.297
 9461SOL    HW129282   1.741   2.392   2.246
 9461SOL    HW229283   1.775   2.296   2.374
 9462SOL     OW29284   1.006   1.058   4.377
 9462SOL    HW129285   1.031   1.145   4.420
 9462SOL    HW229286   1.070   1.038   4.303
 9463SOL     OW29287   5.421   5.325   1.778
 9463SOL    HW129288   5.427   5.424   1.765
 9463SOL    HW229289   5.510   5.283   1.761
 9464SOL     OW29290   1.024   1.142   2.009
 9464SOL    HW129291   0.967   1.115   1.931
 9464SOL    HW229292   1.002   1.236   2.035
 9465SOL     OW29293   6.617   4.258   1.181
 9465SOL    HW129294   6.681   4.297   1.115
 9465SOL    HW229295   6.524   4.272   1.150
 9466SOL     OW29296   3.945   4.903   6.277
 9466SOL    HW129297   3.920   4.920   6.372
 9466SOL    HW229298   3.862   4.899   6.221
 9467SOL     OW29299   1.827   3.845   0.617
 9467SOL    HW129300   1.785   3.912   0.678
 9467SOL    HW229301   1.856   3.890   0.533
 9468SOL     OW29302   6.339   1.574   0.512
 9468SOL    HW129303   6.378   1.666   0.521
 9468SOL    HW229304   6.272   1.560   0.584
 9469SOL     OW29305   1.118   6.375   1.459
 9469SOL    HW129306   1.031   6.327   1.469
 9469SOL    HW229307   1.102   6.473   1.451
 9470SOL     OW29308   3.926   3.818   1.029
 9470SOL    HW129309   3.837   3.772   1.024
 9470SOL    HW229310   3.969   3.797   1.117
 9471SOL     OW29311   6.270   3.474   5.264
 9471SOL    HW129312   6.368   3.462   5.245
 9471SOL    HW229313   6.220   3.481   5.177
 9472SOL     OW29314   1.673   2.964   6.512
 9472SOL    HW129315   1.601   2.894   6.510
 9472SOL    HW229316   1.690   2.997   6.419
 9473SOL     OW29317   2.604   4.675   0.985
 9473SOL    HW129318   2.608   4.757   0.927
 9473SOL    HW229319   2.527   4.683   1.048
 9474SOL     OW29320   5.625   3.021   0.384
 9474SOL    HW129321   5.525   3.021   0.389
 9474SOL    HW229322   5.663   3.011   0.476
 9475SOL     OW29323   4.854   3.859   6.246
 9475SOL    HW129324   4.823   3.925   6.177
 9475SOL    HW229325   4.942   3.889   6.283
 9476SOL     OW29326   3.848   4.303   6.608
 9476SOL    HW129327   3.784   4.315   6.532
 9476SOL    HW229328   3.808   4.241   6.676
 9477SOL     OW29329   1.888   4.210   0.529
 9477SOL    HW129330   1.877   4.201   0.430
 9477SOL    HW229331   1.802   4.243   0.569
 9478SOL     OW29332   5.700   3.061   0.093
 9478SOL    HW129333   5.693   3.035   0.189
 9478SOL    HW229334   5.780   3.015   0.053
 9479SOL     OW29335   4.280   0.823   2.251
 9479SOL    HW129336   4.267   0.732   2.291
 9479SOL    HW229337   4.353   0.871   2.300
 9480SOL     OW29338   6.771   0.845   0.823
 9480SOL    HW129339   6.752   0.804   0.912
 9480SOL    HW229340   6.832   0.923   0.834
 9481SOL     OW29341   3.929   0.424   3.578
 9481SOL    HW129342   3.932   0.363   3.657
 9481SOL    HW229343   3.995   0.498   3.591
 9482SOL     OW29344   6.579   6.240   0.056
 9482SOL    HW129345   6.516   6.164   0.070
 9482SOL    HW229346   6.527   6.324   0.039
 9483SOL     OW29347   6.661   6.967   0.389
 9483SOL    HW129348   6.745   6.917   0.409
 9483SOL    HW229349   6.615   6.990   0.474
 9484SOL     OW29350   4.129   5.604   4.514
 9484SOL    HW129351   4.054   5.552   4.475
 9484SOL    HW229352   4.105   5.701   4.517
 9485SOL     OW29353   0.139   0.837   0.332
 9485SOL    HW129354   0.053   0.838   0.383
 9485SOL    HW229355   0.120   0.833   0.234
 9486SOL     OW29356   5.187   6.323   0.426
 9486SOL    HW129357   5.207   6.238   0.378
 9486SOL    HW229358   5.100   6.361   0.392
 9487SOL     OW29359   3.144   3.002   3.193
 9487SOL    HW129360   3.222   2.943   3.171
 9487SOL    HW229361   3.163   3.096   3.163
 9488SOL     OW29362   1.725   0.931   0.761
 9488SOL    HW129363   1.630   0.947   0.784
 9488SOL    HW229364   1.741   0.833   0.751
 9489SOL     OW29365   5.522   3.386   0.297
 9489SOL    HW129366   5.553   3.460   0.356
 9489SOL    HW229367   5.562   3.300   0.328
 9490SOL     OW29368   5.630   3.850   4.414
 9490SOL    HW129369   5.710   3.790   4.413
 9490SOL    HW229370   5.548   3.798   4.389
 9491SOL     OW29371   5.230   6.374   2.730
 9491SOL    HW129372   5.329   6.364   2.717
 9491SOL    HW229373   5.198   6.302   2.792
 9492SOL     OW29374   5.203   2.919   4.158
 9492SOL    HW129375   5.150   2.896   4.239
 9492SOL    HW229376   5.300   2.901   4.176
 9493SOL     OW29377   4.124   6.717   2.032
 9493SOL    HW129378   4.206   6.660   2.040
 9493SOL    HW229379   4.091   6.742   2.122
 9494SOL     OW29380   5.068   2.128   1.986
 9494SOL    HW129381   4.999   2.199   1.994
 9494SOL    HW229382   5.112   2.134   1.897
 9495SOL     OW29383   0.322   1.809   2.572
 9495SOL    HW129384   0.251   1.758   2.524
 9495SOL    HW229385   0.378   1.858   2.506
 9496SOL     OW29386   5.294   2.330   2.256
 9496SOL    HW129387   5.302   2.258   2.325
 9496SOL    HW229388   5.384   2.367   2.234
 9497SOL     OW29389   4.776   4.572   4.744
 9497SOL    HW129390   4.726   4.655   4.720
 9497SOL    HW229391   4.759   4.502   4.674
 9498SOL     OW29392   1.039   5.485   3.560
 9498SOL    HW129393   0.965   5.546   3.587
 9498SOL    HW229394   1.116   5.539   3.526
 9499SOL     OW29395   6.597   6.001   5.062
 9499SOL    HW129396   6.575   6.097   5.077
 9499SOL    HW229397   6.607   5.984   4.963
 9500SOL     OW29398   3.737   2.066   0.630
 9500SOL    HW129399   3.714   2.151   0.677
 9500SOL    HW229400   3.820   2.027   0.670
 9501SOL     OW29401   1.999   3.280   5.324
 9501SOL    HW129402   2.033   3.359   5.374
 9501SOL    HW229403   1.906   3.298   5.292
 9502SOL     OW29404   5.040   4.618   4.898
 9502SOL    HW129405   5.091   4.679   4.837
 9502SOL    HW229406   4.950   4.657   4.917
 9503SOL     OW29407   0.200   2.191   0.049
 9503SOL    HW129408   0.288   2.170   0.005
 9503SOL    HW229409   0.206   2.279   0.096
 9504SOL     OW29410   5.792   5.412   2.413
 9504SOL    HW129411   5.834   5.330   2.453
 9504SOL    HW229412   5.858   5.458   2.354
 9505SOL     OW29413   4.307   5.518   5.460
 9505SOL    HW129414   4.216   5.477   5.459
 9505SOL    HW229415   4.374   5.451   5.428
 9506SOL     OW29416   3.231   1.328   1.202
 9506SOL    HW129417   3.245   1.240   1.249
 9506SOL    HW229418   3.154   1.320   1.139
 9507SOL     OW29419   5.001   0.284   2.461
 9507SOL    HW129420   5.085   0.321   2.421
 9507SOL    HW229421   5.024   0.225   2.538
 9508SOL     OW29422   5.259   1.876   2.840
 9508SOL    HW129423   5.259   1.964   2.887
 9508SOL    HW229424   5.338   1.822   2.868
 9509SOL     OW29425   5.770   0.743   3.350
 9509SOL    HW129426   5.829   0.806   3.299
 9509SOL    HW229427   5.820   0.659   3.369
 9510SOL     OW29428   1.247   2.536   3.872
 9510SOL    HW129429   1.285   2.449   3.840
 9510SOL    HW229430   1.288   2.611   3.819
 9511SOL     OW29431   1.557   1.401   0.562
 9511SOL    HW129432   1.625   1.457   0.514
 9511SOL    HW229433   1.595   1.371   0.649
 9512SOL     OW29434   6.325   1.792   1.382
 9512SOL    HW129435   6.274   1.829   1.459
 9512SOL    HW229436   6.330   1.860   1.309
 9513SOL     OW29437   4.187   5.003   6.164
 9513SOL    HW129438   4.097   5.016   6.207
 9513SOL    HW229439   4.213   5.087   6.117
 9514SOL     OW29440   3.787   2.830   6.553
 9514SOL    HW129441   3.782   2.930   6.556
 9514SOL    HW229442   3.696   2.792   6.537
 9515SOL     OW29443   0.629   5.262   3.503
 9515SOL    HW129444   0.642   5.168   3.533
 9515SOL    HW229445   0.679   5.278   3.418
 9516SOL     OW29446   6.769   4.075   0.698
 9516SOL    HW129447   6.710   4.017   0.642
 9516SOL    HW229448   6.754   4.056   0.795
 9517SOL     OW29449   0.898   4.996   0.547
 9517SOL    HW129450   0.982   5.039   0.512
 9517SOL    HW229451   0.879   4.914   0.494
 9518SOL     OW29452   0.960   0.993   0.224
 9518SOL    HW129453   0.958   1.005   0.125
 9518SOL    HW229454   1.000   0.904   0.246
 9519SOL     OW29455   1.217   3.068   5.086
 9519SOL    HW129456   1.269   3.018   5.018
 9519SOL    HW229457   1.144   3.119   5.042
 9520SOL     OW29458   3.428   0.145   1.783
 9520SOL    HW129459   3.468   0.132   1.874
 9520SOL    HW229460   3.450   0.067   1.725
 9521SOL     OW29461   5.603   5.387   3.821
 9521SOL    HW129462   5.505   5.401   3.836
 9521SOL    HW229463   5.649   5.476   3.822
 9522SOL     OW29464   3.379   6.027   0.880
 9522SOL    HW129465   3.401   5.994   0.789
 9522SOL    HW229466   3.288   5.995   0.906
 9523SOL     OW29467   3.739   6.096   4.714
 9523SOL    HW129468   3.721   6.082   4.811
 9523SOL    HW229469   3.747   6.194   4.696
 9524SOL     OW29470   4.751   2.699   0.892
 9524SOL    HW129471   4.704   2.757   0.959
 9524SOL    HW229472   4.690   2.681   0.816
 9525SOL     OW29473   3.750   0.620   6.356
 9525SOL    HW129474   3.809   0.623   6.276
 9525SOL    HW229475   3.805   0.631   6.439
 9526SOL     OW29476   5.342   5.436   2.130
 9526SOL    HW129477   5.312   5.359   2.073
 9526SOL    HW229478   5.275   5.452   2.202
 9527SOL     OW29479   6.197   2.112   1.810
 9527SOL    HW129480   6.134   2.161   1.750
 9527SOL    HW229481   6.160   2.020   1.828
 9528SOL     OW29482   6.275   0.956   2.478
 9528SOL    HW129483   6.231   0.888   2.420
 9528SOL    HW229484   6.268   1.046   2.435
 9529SOL     OW29485   0.373   3.492   5.154
 9529SOL    HW129486   0.320   3.444   5.085
 9529SOL    HW229487   0.440   3.429   5.194
 9530SOL     OW29488   1.476   2.425   4.245
 9530SOL    HW129489   1.538   2.361   4.291
 9530SOL    HW229490   1.423   2.376   4.175
 9531SOL     OW29491   3.051   6.327   3.173
 9531SOL    HW129492   3.050   6.280   3.261
 9531SOL    HW229493   2.968   6.303   3.121
 9532SOL     OW29494   2.385   0.838   1.785
 9532SOL    HW129495   2.383   0.742   1.758
 9532SOL    HW229496   2.390   0.896   1.703
 9533SOL     OW29497   2.206   0.302   5.228
 9533SOL    HW129498   2.256   0.372   5.278
 9533SOL    HW229499   2.110   0.328   5.221
 9534SOL     OW29500   4.566   1.980   4.863
 9534SOL    HW129501   4.593   2.074   4.880
 9534SOL    HW229502   4.644   1.919   4.881
 9535SOL     OW29503   2.209   1.975   6.020
 9535SOL    HW129504   2.232   2.062   5.975
 9535SOL    HW229505   2.113   1.975   6.044
 9536SOL     OW29506   2.465   6.866   6.140
 9536SOL    HW129507   2.385   6.867   6.200
 9536SOL    HW229508   2.443   6.916   6.056
 9537SOL     OW29509   2.670   6.975   1.075
 9537SOL    HW129510   2.756   7.016   1.106
 9537SOL    HW229511   2.617   6.945   1.154
 9538SOL     OW29512   6.023   3.237   3.824
 9538SOL    HW129513   6.085   3.175   3.776
 9538SOL    HW229514   6.043   3.235   3.922
 9539SOL     OW29515   0.033   4.867   1.323
 9539SOL    HW129516   6.957   4.868   1.309
 9539SOL    HW229517   0.054   4.838   1.416
 9540SOL     OW29518   5.465   3.734   4.944
 9540SOL    HW129519   5.472   3.783   4.857
 9540SOL    HW229520   5.372   3.699   4.956
 9541SOL     OW29521   1.416   1.844   3.597
 9541SOL    HW129522   1.482   1.838   3.672
 9541SOL    HW229523   1.445   1.917   3.534
 9542SOL     OW29524   4.982   3.646   4.496
 9542SOL    HW129525   5.067   3.691   4.524
 9542SOL    HW229526   4.959   3.574   4.561
 9543SOL     OW29527   4.805   2.604   2.288
 9543SOL    HW129528   4.777   2.668   2.216
 9543SOL    HW229529   4.891   2.561   2.263
 9544SOL     OW29530   3.144   1.757   1.966
 9544SOL    HW129531   3.168   1.685   1.902
 9544SOL    HW229532   3.227   1.793   2.008
 9545SOL     OW29533   0.569   6.678   4.303
 9545SOL    HW129534   0.485   6.726   4.277
 9545SOL    HW229535   0.615   6.645   4.220
 9546SOL     OW29536   2.677   4.974   0.867
 9546SOL    HW129537   2.608   4.963   0.795
 9546SOL    HW229538   2.641   5.035   0.938
 9547SOL     OW29539   6.284   6.331   3.014
 9547SOL    HW129540   6.239   6.362   2.930
 9547SOL    HW229541   6.365   6.277   2.990
 9548SOL     OW29542   4.802   6.399   2.836
 9548SOL    HW129543   4.894   6.419   2.872
 9548SOL    HW229544   4.735   6.456   2.882
 9549SOL     OW29545   2.779   6.063   0.718
 9549SOL    HW129546   2.812   6.150   0.681
 9549SOL    HW229547   2.811   5.988   0.660
 9550SOL     OW29548   0.888   1.659   0.500
 9550SOL    HW129549   0.821   1.723   0.462
 9550SOL    HW229550   0.841   1.576   0.531
 9551SOL     OW29551   2.289   6.010   5.043
 9551SOL    HW129552   2.235   6.091   5.019
 9551SOL    HW229553   2.236   5.928   5.024
 9552SOL     OW29554   1.180   5.671   3.364
 9552SOL    HW129555   1.218   5.744   3.420
 9552SOL    HW229556   1.148   5.708   3.277
 9553SOL     OW29557   5.567   5.013   5.339
 9553SOL    HW129558   5.551   4.923   5.299
 9553SOL    HW229559   5.537   5.084   5.275
 9554SOL     OW29560   2.301   1.439   1.736
 9554SOL    HW129561   2.281   1.406   1.828
 9554SOL    HW229562   2.380   1.389   1.699
 9555SOL     OW29563   6.199   2.381   6.896
 9555SOL    HW129564   6.238   2.411   6.809
 9555SOL    HW229565   6.183   2.282   6.892
 9556SOL     OW29566   0.569   1.613   1.451
 9556SOL    HW129567   0.551   1.693   1.508
 9556SOL    HW229568   0.578   1.642   1.355
 9557SOL     OW29569   5.318   2.385   1.536
 9557SOL    HW129570   5.286   2.421   1.624
 9557SOL    HW229571   5.413   2.354   1.546
 9558SOL     OW29572   6.039   5.092   2.383
 9558SOL    HW129573   5.939   5.100   2.380
 9558SOL    HW229574   6.079   5.181   2.404
 9559SOL     OW29575   6.493   2.996   2.313
 9559SOL    HW129576   6.407   3.025   2.354
 9559SOL    HW229577   6.476   2.926   2.244
 9560SOL     OW29578   3.200   1.444   4.030
 9560SOL    HW129579   3.228   1.432   3.935
 9560SOL    HW229580   3.240   1.528   4.067
 9561SOL     OW29581   4.255   0.047   1.099
 9561SOL    HW129582   4.162   0.057   1.063
 9561SOL    HW229583   4.314   0.010   1.028
 9562SOL     OW29584   5.806   5.719   3.101
 9562SOL    HW129585   5.866   5.665   3.043
 9562SOL    HW229586   5.841   5.813   3.109
 9563SOL     OW29587   0.036   5.637   6.831
 9563SOL    HW129588   6.977   5.684   6.799
 9563SOL    HW229589   0.115   5.698   6.822
 9564SOL     OW29590   2.389   6.856   6.642
 9564SOL    HW129591   2.472   6.906   6.617
 9564SOL    HW229592   2.314   6.920   6.655
 9565SOL     OW29593   4.278   6.113   4.485
 9565SOL    HW129594   4.259   6.195   4.431
 9565SOL    HW229595   4.357   6.129   4.543
 9566SOL     OW29596   3.388   5.053   5.245
 9566SOL    HW129597   3.431   4.990   5.310
 9566SOL    HW229598   3.291   5.031   5.236
 9567SOL     OW29599   6.034   5.800   5.849
 9567SOL    HW129600   6.026   5.742   5.931
 9567SOL    HW229601   5.978   5.882   5.861
 9568SOL     OW29602   5.602   3.575   6.582
 9568SOL    HW129603   5.670   3.515   6.539
 9568SOL    HW229604   5.513   3.529   6.583
 9569SOL     OW29605   6.186   0.176   1.180
 9569SOL    HW129606   6.168   0.128   1.095
 9569SOL    HW229607   6.255   0.247   1.164
 9570SOL     OW29608   0.662   0.306   6.695
 9570SOL    HW129609   0.601   0.267   6.763
 9570SOL    HW229610   0.630   0.280   6.603
 9571SOL     OW29611   1.982   3.721   0.075
 9571SOL    HW129612   1.898   3.764   0.106
 9571SOL    HW229613   2.002   3.641   0.131
 9572SOL     OW29614   0.723   4.227   0.578
 9572SOL    HW129615   0.706   4.212   0.480
 9572SOL    HW229616   0.767   4.147   0.617
 9573SOL     OW29617   6.620   2.102   1.643
 9573SOL    HW129618   6.550   2.090   1.572
 9573SOL    HW229619   6.578   2.144   1.724
 9574SOL     OW29620   2.361   2.246   4.933
 9574SOL    HW129621   2.378   2.345   4.935
 9574SOL    HW229622   2.329   2.219   4.842
 9575SOL     OW29623   4.917   1.106   1.782
 9575SOL    HW129624   4.982   1.089   1.856
 9575SOL    HW229625   4.932   1.197   1.744
 9576SOL     OW29626   3.531   1.148   5.058
 9576SOL    HW129627   3.519   1.178   5.152
 9576SOL    HW229628   3.625   1.169   5.029
 9577SOL     OW29629   0.264   6.217   3.104
 9577SOL    HW129630   0.358   6.184   3.103
 9577SOL    HW229631   0.262   6.315   3.085
 9578SOL     OW29632   5.782   3.712   1.689
 9578SOL    HW129633   5.706   3.778   1.696
 9578SOL    HW229634   5.747   3.626   1.651
 9579SOL     OW29635   1.060   6.622   2.934
 9579SOL    HW129636   1.094   6.529   2.924
 9579SOL    HW229637   1.134   6.687   2.918
 9580SOL     OW29638   4.297   4.045   6.035
 9580SOL    HW129639   4.262   4.055   6.128
 9580SOL    HW229640   4.273   4.125   5.981
 9581SOL     OW29641   1.431   5.346   6.340
 9581SOL    HW129642   1.516   5.331   6.288
 9581SOL    HW229643   1.391   5.258   6.364
 9582SOL     OW29644   4.331   4.666   4.534
 9582SOL    HW129645   4.400   4.618   4.480
 9582SOL    HW229646   4.258   4.699   4.474
 9583SOL     OW29647   2.172   4.585   1.889
 9583SOL    HW129648   2.108   4.658   1.915
 9583SOL    HW229649   2.123   4.498   1.886
 9584SOL     OW29650   5.803   5.723   6.230
 9584SOL    HW129651   5.784   5.792   6.299
 9584SOL    HW229652   5.730   5.723   6.162
 9585SOL     OW29653   0.302   6.505   3.920
 9585SOL    HW129654   0.257   6.492   3.832
 9585SOL    HW229655   0.343   6.596   3.923
 9586SOL     OW29656   5.216   3.567   2.457
 9586SOL    HW129657   5.128   3.520   2.465
 9586SOL    HW229658   5.222   3.609   2.366
 9587SOL     OW29659   4.817   6.772   2.992
 9587SOL    HW129660   4.901   6.718   2.986
 9587SOL    HW229661   4.739   6.715   2.966
 9588SOL     OW29662   0.163   0.759   3.220
 9588SOL    HW129663   0.219   0.769   3.303
 9588SOL    HW229664   0.215   0.711   3.150
 9589SOL     OW29665   2.263   1.497   6.093
 9589SOL    HW129666   2.258   1.588   6.136
 9589SOL    HW229667   2.357   1.479   6.066
 9590SOL     OW29668   0.170   4.650   4.487
 9590SOL    HW129669   0.226   4.568   4.481
 9590SOL    HW229670   0.190   4.698   4.572
 9591SOL     OW29671   1.461   4.458   2.264
 9591SOL    HW129672   1.413   4.511   2.194
 9591SOL    HW229673   1.448   4.501   2.353
 9592SOL     OW29674   4.861   5.474   2.099
 9592SOL    HW129675   4.869   5.461   2.000
 9592SOL    HW229676   4.817   5.562   2.118
 9593SOL     OW29677   1.724   2.564   3.922
 9593SOL    HW129678   1.716   2.468   3.898
 9593SOL    HW229679   1.812   2.599   3.890
 9594SOL     OW29680   6.184   6.482   1.950
 9594SOL    HW129681   6.197   6.581   1.961
 9594SOL    HW229682   6.122   6.465   1.873
 9595SOL     OW29683   0.905   4.067   4.530
 9595SOL    HW129684   0.976   4.046   4.598
 9595SOL    HW229685   0.845   4.138   4.566
 9596SOL     OW29686   4.625   5.670   3.055
 9596SOL    HW129687   4.723   5.689   3.052
 9596SOL    HW229688   4.607   5.581   3.013
 9597SOL     OW29689   1.784   4.074   1.257
 9597SOL    HW129690   1.750   4.154   1.307
 9597SOL    HW229691   1.880   4.089   1.233
 9598SOL     OW29692   1.187   5.731   5.733
 9598SOL    HW129693   1.230   5.725   5.643
 9598SOL    HW229694   1.120   5.806   5.733
 9599SOL     OW29695   4.964   1.594   4.295
 9599SOL    HW129696   5.009   1.604   4.207
 9599SOL    HW229697   4.867   1.618   4.286
 9600SOL     OW29698   1.301   6.259   0.358
 9600SOL    HW129699   1.212   6.226   0.325
 9600SOL    HW229700   1.286   6.323   0.433
 9601SOL     OW29701   0.618   5.956   6.228
 9601SOL    HW129702   0.683   5.918   6.294
 9601SOL    HW229703   0.669   5.995   6.151
 9602SOL     OW29704   1.087   5.685   0.613
 9602SOL    HW129705   1.111   5.635   0.696
 9602SOL    HW229706   1.105   5.782   0.625
 9603SOL     OW29707   1.226   4.532   3.968
 9603SOL    HW129708   1.147   4.556   4.024
 9603SOL    HW229709   1.310   4.551   4.019
 9604SOL     OW29710   6.776   0.105   0.635
 9604SOL    HW129711   6.865   0.070   0.664
 9604SOL    HW229712   6.787   0.165   0.556
 9605SOL     OW29713   2.367   6.048   6.652
 9605SOL    HW129714   2.408   6.089   6.733
 9605SOL    HW229715   2.270   6.030   6.668
 9606SOL     OW29716   6.579   6.916   4.831
 9606SOL    HW129717   6.600   6.935   4.927
 9606SOL    HW229718   6.485   6.881   4.825
 9607SOL     OW29719   0.223   3.144   1.998
 9607SOL    HW129720   0.148   3.095   2.043
 9607SOL    HW229721   0.194   3.173   1.907
 9608SOL     OW29722   0.001   0.044   2.482
 9608SOL    HW129723   6.938   0.002   2.509
 9608SOL    HW229724   0.034   0.103   2.556
 9609SOL     OW29725   1.808   2.262   3.438
 9609SOL    HW129726   1.888   2.222   3.393
 9609SOL    HW229727   1.741   2.288   3.369
 9610SOL     OW29728   3.324   2.401   6.268
 9610SOL    HW129729   3.311   2.414   6.366
 9610SOL    HW229730   3.296   2.484   6.219
 9611SOL     OW29731   5.834   5.808   1.133
 9611SOL    HW129732   5.819   5.899   1.173
 9611SOL    HW229733   5.924   5.804   1.091
 9612SOL     OW29734   4.818   3.936   2.908
 9612SOL    HW129735   4.796   4.028   2.874
 9612SOL    HW229736   4.822   3.872   2.831
 9613SOL     OW29737   5.784   6.576   5.805
 9613SOL    HW129738   5.712   6.638   5.774
 9613SOL    HW229739   5.864   6.587   5.747
 9614SOL     OW29740   3.409   2.878   2.360
 9614SOL    HW129741   3.355   2.901   2.280
 9614SOL    HW229742   3.477   2.809   2.336
 9615SOL     OW29743   0.721   6.139   3.969
 9615SOL    HW129744   0.699   6.106   3.878
 9615SOL    HW229745   0.655   6.103   4.035
 9616SOL     OW29746   2.141   3.250   1.259
 9616SOL    HW129747   2.059   3.206   1.222
 9616SOL    HW229748   2.191   3.295   1.185
 9617SOL     OW29749   0.919   3.764   2.467
 9617SOL    HW129750   1.008   3.722   2.450
 9617SOL    HW229751   0.870   3.710   2.536
 9618SOL     OW29752   3.817   4.843   0.496
 9618SOL    HW129753   3.832   4.857   0.594
 9618SOL    HW229754   3.754   4.912   0.462
 9619SOL     OW29755   1.850   6.907   1.129
 9619SOL    HW129756   1.893   6.859   1.052
 9619SOL    HW229757   1.920   6.928   1.197
 9620SOL     OW29758   3.680   1.851   6.946
 9620SOL    HW129759   3.610   1.891   7.005
 9620SOL    HW229760   3.642   1.770   6.900
 9621SOL     OW29761   1.044   2.018   1.992
 9621SOL    HW129762   1.017   2.048   2.084
 9621SOL    HW229763   1.122   1.956   2.000
 9622SOL     OW29764   0.150   6.200   5.631
 9622SOL    HW129765   0.155   6.300   5.621
 9622SOL    HW229766   0.180   6.157   5.546
 9623SOL     OW29767   4.910   6.755   6.210
 9623SOL    HW129768   4.878   6.835   6.262
 9623SOL    HW229769   4.831   6.702   6.180
 9624SOL     OW29770   4.798   5.145   5.161
 9624SOL    HW129771   4.771   5.146   5.065
 9624SOL    HW229772   4.870   5.214   5.176
 9625SOL     OW29773   4.566   3.545   5.573
 9625SOL    HW129774   4.489   3.536   5.636
 9625SOL    HW229775   4.645   3.581   5.621
 9626SOL     OW29776   1.911   2.205   6.376
 9626SOL    HW129777   1.838   2.256   6.330
 9626SOL    HW229778   1.980   2.179   6.309
 9627SOL     OW29779   0.466   5.326   7.014
 9627SOL    HW129780   0.408   5.245   7.018
 9627SOL    HW229781   0.475   5.365   0.082
 9628SOL     OW29782   5.860   1.147   6.144
 9628SOL    HW129783   5.848   1.224   6.081
 9628SOL    HW229784   5.908   1.177   6.226
 9629SOL     OW29785   0.349   5.347   4.363
 9629SOL    HW129786   0.353   5.295   4.278
 9629SOL    HW229787   0.254   5.368   4.385
 9630SOL     OW29788   6.115   6.952   5.368
 9630SOL    HW129789   6.165   6.998   5.295
 9630SOL    HW229790   6.180   6.916   5.435
 9631SOL     OW29791   3.295   0.069   0.556
 9631SOL    HW129792   3.262   7.020   0.617
 9631SOL    HW229793   3.370   0.118   0.599
 9632SOL     OW29794   3.355   5.179   2.261
 9632SOL    HW129795   3.393   5.200   2.351
 9632SOL    HW229796   3.339   5.264   2.211
 9633SOL     OW29797   3.888   3.356   2.805
 9633SOL    HW129798   3.868   3.429   2.740
 9633SOL    HW229799   3.802   3.311   2.831
 9634SOL     OW29800   5.609   4.846   3.817
 9634SOL    HW129801   5.532   4.808   3.868
 9634SOL    HW229802   5.644   4.776   3.754
 9635SOL     OW29803   1.301   5.161   3.888
 9635SOL    HW129804   1.295   5.062   3.872
 9635SOL    HW229805   1.351   5.204   3.813
 9636SOL     OW29806   5.256   3.885   4.162
 9636SOL    HW129807   5.208   3.845   4.240
 9636SOL    HW229808   5.279   3.813   4.097
 9637SOL     OW29809   1.778   3.237   6.893
 9637SOL    HW129810   1.806   3.160   6.951
 9637SOL    HW229811   1.804   3.218   6.798
 9638SOL     OW29812   5.504   5.633   5.308
 9638SOL    HW129813   5.474   5.538   5.309
 9638SOL    HW229814   5.446   5.686   5.246
 9639SOL     OW29815   4.214   1.853   1.933
 9639SOL    HW129816   4.148   1.907   1.985
 9639SOL    HW229817   4.275   1.804   1.995
 9640SOL     OW29818   4.794   0.539   3.342
 9640SOL    HW129819   4.712   0.483   3.339
 9640SOL    HW229820   4.846   0.519   3.425
 9641SOL     OW29821   6.494   3.515   3.239
 9641SOL    HW129822   6.548   3.588   3.279
 9641SOL    HW229823   6.439   3.471   3.310
 9642SOL     OW29824   1.491   0.012   4.471
 9642SOL    HW129825   1.419   0.063   4.518
 9642SOL    HW229826   1.503   0.048   4.379
 9643SOL     OW29827   4.880   4.899   4.647
 9643SOL    HW129828   4.887   4.961   4.569
 9643SOL    HW229829   4.793   4.850   4.642
 9644SOL     OW29830   1.805   5.272   3.900
 9644SOL    HW129831   1.844   5.275   3.808
 9644SOL    HW229832   1.750   5.354   3.916
 9645SOL     OW29833   0.696   4.641   5.965
 9645SOL    HW129834   0.600   4.637   5.937
 9645SOL    HW229835   0.714   4.568   6.032
 9646SOL     OW29836   4.317   5.562   6.398
 9646SOL    HW129837   4.279   5.479   6.439
 9646SOL    HW229838   4.366   5.615   6.467
 9647SOL     OW29839   6.619   6.916   3.208
 9647SOL    HW129840   6.639   6.994   3.267
 9647SOL    HW229841   6.668   6.928   3.121
 9648SOL     OW29842   3.886   2.259   1.259
 9648SOL    HW129843   3.966   2.254   1.319
 9648SOL    HW229844   3.809   2.214   1.303
 9649SOL     OW29845   1.146   5.520   6.958
 9649SOL    HW129846   1.067   5.579   6.943
 9649SOL    HW229847   1.224   5.576   6.986
 9650SOL     OW29848   6.979   4.560   4.645
 9650SOL    HW129849   0.027   4.603   4.590
 9650SOL    HW229850   6.998   4.463   4.655
 9651SOL     OW29851   4.111   1.779   0.043
 9651SOL    HW129852   4.072   1.867   0.017
 9651SOL    HW229853   4.038   1.710   0.045
 9652SOL     OW29854   0.160   3.819   0.218
 9652SOL    HW129855   0.068   3.835   0.254
 9652SOL    HW229856   0.177   3.879   0.140
 9653SOL     OW29857   4.304   4.325   5.952
 9653SOL    HW129858   4.355   4.290   5.873
 9653SOL    HW229859   4.285   4.422   5.940
 9654SOL     OW29860   3.221   3.582   3.044
 9654SOL    HW129861   3.193   3.613   2.954
 9654SOL    HW229862   3.312   3.617   3.064
 9655SOL     OW29863   4.032   1.239   1.274
 9655SOL    HW129864   3.937   1.270   1.282
 9655SOL    HW229865   4.090   1.315   1.247
 9656SOL     OW29866   5.895   3.590   0.229
 9656SOL    HW129867   5.959   3.586   0.305
 9656SOL    HW229868   5.820   3.524   0.244
 9657SOL     OW29869   5.849   3.921   3.828
 9657SOL    HW129870   5.873   3.905   3.924
 9657SOL    HW229871   5.773   3.985   3.823
 9658SOL     OW29872   4.753   2.256   2.237
 9658SOL    HW129873   4.853   2.253   2.237
 9658SOL    HW229874   4.717   2.202   2.161
 9659SOL     OW29875   2.643   3.005   6.604
 9659SOL    HW129876   2.723   3.049   6.644
 9659SOL    HW229877   2.596   3.070   6.543
 9660SOL     OW29878   1.381   6.125   2.109
 9660SOL    HW129879   1.455   6.186   2.081
 9660SOL    HW229880   1.396   6.034   2.069
 9661SOL     OW29881   4.371   3.771   0.980
 9661SOL    HW129882   4.384   3.783   1.078
 9661SOL    HW229883   4.425   3.840   0.931
 9662SOL     OW29884   5.469   5.484   6.037
 9662SOL    HW129885   5.401   5.460   6.107
 9662SOL    HW229886   5.497   5.579   6.048
 9663SOL     OW29887   0.838   5.389   2.803
 9663SOL    HW129888   0.786   5.464   2.843
 9663SOL    HW229889   0.877   5.333   2.875
 9664SOL     OW29890   4.877   4.650   2.409
 9664SOL    HW129891   4.930   4.565   2.410
 9664SOL    HW229892   4.816   4.650   2.330
 9665SOL     OW29893   6.566   5.984   6.215
 9665SOL    HW129894   6.574   5.929   6.298
 9665SOL    HW229895   6.611   5.937   6.140
 9666SOL     OW29896   6.077   3.953   0.232
 9666SOL    HW129897   6.111   3.911   0.147
 9666SOL    HW229898   5.993   3.906   0.261
 9667SOL     OW29899   5.740   6.058   6.119
 9667SOL    HW129900   5.686   5.999   6.179
 9667SOL    HW229901   5.709   6.152   6.129
 9668SOL     OW29902   1.065   0.604   6.596
 9668SOL    HW129903   1.129   0.615   6.672
 9668SOL    HW229904   1.060   0.507   6.570
 9669SOL     OW29905   3.765   0.596   0.337
 9669SOL    HW129906   3.705   0.638   0.269
 9669SOL    HW229907   3.761   0.648   0.423
 9670SOL     OW29908   6.929   6.992   0.040
 9670SOL    HW129909   6.973   6.905   0.061
 9670SOL    HW229910   6.995   0.043   0.052
 9671SOL     OW29911   1.421   5.339   6.980
 9671SOL    HW129912   1.505   5.344   6.926
 9671SOL    HW229913   1.431   5.395   0.039
 9672SOL     OW29914   0.931   3.376   3.822
 9672SOL    HW129915   1.025   3.399   3.847
 9672SOL    HW229916   0.896   3.445   3.758
 9673SOL     OW29917   2.035   3.482   0.198
 9673SOL    HW129918   2.080   3.399   0.168
 9673SOL    HW229919   2.030   3.482   0.298
 9674SOL     OW29920   2.473   6.322   4.205
 9674SOL    HW129921   2.526   6.399   4.241
 9674SOL    HW229922   2.407   6.291   4.274
 9675SOL     OW29923   5.974   3.436   6.655
 9675SOL    HW129924   5.942   3.524   6.692
 9675SOL    HW229925   5.968   3.437   6.555
 9676SOL     OW29926   0.584   2.938   0.222
 9676SOL    HW129927   0.617   3.017   0.170
 9676SOL    HW229928   0.521   2.968   0.293
 9677SOL     OW29929   0.133   4.845   1.609
 9677SOL    HW129930   0.140   4.826   1.707
 9677SOL    HW229931   0.222   4.873   1.573
 9678SOL     OW29932   3.572   3.568   5.286
 9678SOL    HW129933   3.572   3.644   5.350
 9678SOL    HW229934   3.491   3.511   5.301
 9679SOL     OW29935   1.511   1.703   4.406
 9679SOL    HW129936   1.603   1.674   4.380
 9679SOL    HW229937   1.512   1.799   4.433
 9680SOL     OW29938   4.817   6.013   2.132
 9680SOL    HW129939   4.913   6.039   2.146
 9680SOL    HW229940   4.812   5.915   2.113
 9681SOL     OW29941   1.488   1.658   1.829
 9681SOL    HW129942   1.400   1.698   1.803
 9681SOL    HW229943   1.540   1.725   1.882
 9682SOL     OW29944   4.702   6.189   5.741
 9682SOL    HW129945   4.791   6.144   5.740
 9682SOL    HW229946   4.632   6.125   5.711
 9683SOL     OW29947   3.084   6.476   2.683
 9683SOL    HW129948   3.138   6.472   2.600
 9683SOL    HW229949   3.139   6.513   2.758
 9684SOL     OW29950   0.293   3.247   5.449
 9684SOL    HW129951   0.292   3.342   5.482
 9684SOL    HW229952   0.200   3.211   5.450
 9685SOL     OW29953   3.829   4.164   1.329
 9685SOL    HW129954   3.894   4.107   1.378
 9685SOL    HW229955   3.867   4.190   1.240
 9686SOL     OW29956   6.407   1.800   5.561
 9686SOL    HW129957   6.438   1.715   5.519
 9686SOL    HW229958   6.312   1.818   5.534
 9687SOL     OW29959   5.897   1.516   2.748
 9687SOL    HW129960   5.893   1.487   2.844
 9687SOL    HW229961   5.966   1.587   2.737
 9688SOL     OW29962   0.526   4.462   1.120
 9688SOL    HW129963   0.568   4.377   1.091
 9688SOL    HW229964   0.501   4.456   1.217
 9689SOL     OW29965   2.596   6.119   1.001
 9689SOL    HW129966   2.599   6.027   0.961
 9689SOL    HW229967   2.616   6.187   0.931
 9690SOL     OW29968   6.411   5.434   4.691
 9690SOL    HW129969   6.507   5.447   4.716
 9690SOL    HW229970   6.406   5.386   4.603
 9691SOL     OW29971   3.031   3.704   1.877
 9691SOL    HW129972   3.079   3.667   1.797
 9691SOL    HW229973   2.960   3.639   1.905
 9692SOL     OW29974   4.874   4.192   0.877
 9692SOL    HW129975   4.812   4.231   0.945
 9692SOL    HW229976   4.968   4.195   0.912
 9693SOL     OW29977   5.095   3.446   5.154
 9693SOL    HW129978   5.017   3.398   5.193
 9693SOL    HW229979   5.175   3.433   5.213
 9694SOL     OW29980   2.864   0.152   2.541
 9694SOL    HW129981   2.801   0.229   2.544
 9694SOL    HW229982   2.900   0.141   2.448
 9695SOL     OW29983   1.138   2.577   2.576
 9695SOL    HW129984   1.202   2.560   2.501
 9695SOL    HW229985   1.155   2.513   2.650
 9696SOL     OW29986   5.057   2.452   3.601
 9696SOL    HW129987   5.069   2.360   3.564
 9696SOL    HW229988   4.969   2.458   3.648
 9697SOL     OW29989   0.373   6.705   0.812
 9697SOL    HW129990   0.459   6.740   0.775
 9697SOL    HW229991   0.392   6.641   0.886
 9698SOL     OW29992   6.263   3.758   1.654
 9698SOL    HW129993   6.164   3.766   1.641
 9698SOL    HW229994   6.285   3.776   1.750
 9699SOL     OW29995   1.438   6.137   0.898
 9699SOL    HW129996   1.429   6.038   0.888
 9699SOL    HW229997   1.473   6.158   0.990
 9700SOL     OW29998   5.645   0.039   5.257
 9700SOL    HW129999   5.596   6.976   5.273
 9700SOL    HW230000   5.728   0.021   5.204
 9701SOL     OW30001   4.083   3.430   6.299
 9701SOL    HW130002   4.043   3.474   6.219
 9701SOL    HW230003   4.016   3.429   6.373
 9702SOL     OW30004   3.670   3.499   2.104
 9702SOL    HW130005   3.724   3.471   2.025
 9702SOL    HW230006   3.590   3.550   2.073
 9703SOL     OW30007   6.951   4.382   4.928
 9703SOL    HW130008   6.886   4.415   4.859
 9703SOL    HW230009   6.938   4.284   4.942
 9704SOL     OW30010   1.845   3.848   2.974
 9704SOL    HW130011   1.869   3.860   2.878
 9704SOL    HW230012   1.876   3.758   3.006
 9705SOL     OW30013   5.947   3.573   5.586
 9705SOL    HW130014   5.921   3.589   5.491
 9705SOL    HW230015   5.939   3.658   5.637
 9706SOL     OW30016   0.759   1.519   2.665
 9706SOL    HW130017   0.851   1.531   2.630
 9706SOL    HW230018   0.712   1.447   2.614
 9707SOL     OW30019   1.117   4.742   2.377
 9707SOL    HW130020   1.097   4.732   2.474
 9707SOL    HW230021   1.139   4.838   2.357
 9708SOL     OW30022   2.318   0.391   1.518
 9708SOL    HW130023   2.324   0.331   1.439
 9708SOL    HW230024   2.319   0.337   1.602
 9709SOL     OW30025   5.376   1.905   1.583
 9709SOL    HW130026   5.312   1.911   1.660
 9709SOL    HW230027   5.419   1.814   1.582
 9710SOL     OW30028   6.851   5.570   3.582
 9710SOL    HW130029   6.785   5.583   3.508
 9710SOL    HW230030   6.808   5.590   3.670
 9711SOL     OW30031   3.680   0.943   0.850
 9711SOL    HW130032   3.665   0.933   0.752
 9711SOL    HW230033   3.771   0.910   0.874
 9712SOL     OW30034   5.647   1.674   6.276
 9712SOL    HW130035   5.706   1.612   6.328
 9712SOL    HW230036   5.612   1.745   6.337
 9713SOL     OW30037   1.036   6.648   3.207
 9713SOL    HW130038   1.029   6.644   3.108
 9713SOL    HW230039   1.120   6.602   3.236
 9714SOL     OW30040   2.439   4.468   4.255
 9714SOL    HW130041   2.410   4.447   4.348
 9714SOL    HW230042   2.414   4.392   4.195
 9715SOL     OW30043   6.775   3.608   6.560
 9715SOL    HW130044   6.843   3.545   6.524
 9715SOL    HW230045   6.739   3.665   6.486
 9716SOL     OW30046   2.225   5.069   0.014
 9716SOL    HW130047   2.282   5.074   0.096
 9716SOL    HW230048   2.283   5.057   6.957
 9717SOL     OW30049   3.795   2.110   5.390
 9717SOL    HW130050   3.754   2.104   5.299
 9717SOL    HW230051   3.763   2.034   5.446
 9718SOL     OW30052   3.733   2.858   6.194
 9718SOL    HW130053   3.817   2.828   6.239
 9718SOL    HW230054   3.712   2.952   6.223
 9719SOL     OW30055   4.988   0.091   5.979
 9719SOL    HW130056   5.035   0.130   6.058
 9719SOL    HW230057   5.003   7.015   5.976
 9720SOL     OW30058   2.024   3.181   3.282
 9720SOL    HW130059   2.089   3.134   3.221
 9720SOL    HW230060   1.931   3.164   3.251
 9721SOL     OW30061   0.656   1.147   0.266
 9721SOL    HW130062   0.717   1.091   0.209
 9721SOL    HW230063   0.618   1.090   0.339
 9722SOL     OW30064   4.264   2.796   5.333
 9722SOL    HW130065   4.212   2.722   5.291
 9722SOL    HW230066   4.201   2.861   5.375
 9723SOL     OW30067   6.625   6.991   5.079
 9723SOL    HW130068   6.564   0.035   5.120
 9723SOL    HW230069   6.718   0.006   5.075
 9724SOL     OW30070   1.530   5.541   0.129
 9724SOL    HW130071   1.622   5.525   0.092
 9724SOL    HW230072   1.501   5.462   0.182
 9725SOL     OW30073   4.135   5.545   5.231
 9725SOL    HW130074   4.072   5.485   5.280
 9725SOL    HW230075   4.215   5.492   5.202
 9726SOL     OW30076   0.020   1.166   4.085
 9726SOL    HW130077   0.075   1.089   4.052
 9726SOL    HW230078   0.006   1.231   4.010
 9727SOL     OW30079   0.345   1.298   0.857
 9727SOL    HW130080   0.406   1.355   0.911
 9727SOL    HW230081   0.397   1.252   0.785
 9728SOL     OW30082   4.733   1.408   5.149
 9728SOL    HW130083   4.787   1.439   5.070
 9728SOL    HW230084   4.791   1.352   5.208
 9729SOL     OW30085   0.651   5.135   2.757
 9729SOL    HW130086   0.750   5.122   2.752
 9729SOL    HW230087   0.607   5.048   2.780
 9730SOL     OW30088   0.472   3.958   3.074
 9730SOL    HW130089   0.417   4.041   3.061
 9730SOL    HW230090   0.485   3.913   2.986
 9731SOL     OW30091   5.329   3.364   1.558
 9731SOL    HW130092   5.264   3.343   1.630
 9731SOL    HW230093   5.290   3.432   1.496
 9732SOL     OW30094   1.823   3.203   2.953
 9732SOL    HW130095   1.892   3.153   2.902
 9732SOL    HW230096   1.847   3.300   2.956
 9733SOL     OW30097   6.385   4.539   2.334
 9733SOL    HW130098   6.363   4.622   2.385
 9733SOL    HW230099   6.408   4.562   2.240
 9734SOL     OW30100   5.405   5.941   6.167
 9734SOL    HW130101   5.320   5.901   6.202
 9734SOL    HW230102   5.397   6.041   6.166
 9735SOL     OW30103   0.680   2.826   0.925
 9735SOL    HW130104   0.596   2.871   0.956
 9735SOL    HW230105   0.676   2.816   0.825
 9736SOL     OW30106   5.245   1.466   4.624
 9736SOL    HW130107   5.236   1.450   4.525
 9736SOL    HW230108   5.315   1.535   4.640
 9737SOL     OW30109   5.813   3.162   2.795
 9737SOL    HW130110   5.726   3.117   2.776
 9737SOL    HW230111   5.883   3.092   2.811
 9738SOL     OW30112   2.341   6.299   1.971
 9738SOL    HW130113   2.372   6.353   1.894
 9738SOL    HW230114   2.360   6.202   1.954
 9739SOL     OW30115   5.813   0.022   6.849
 9739SOL    HW130116   5.878   7.005   6.913
 9739SOL    HW230117   5.753   6.974   6.813
 9740SOL     OW30118   6.031   0.644   2.894
 9740SOL    HW130119   6.082   0.661   2.978
 9740SOL    HW230120   6.081   0.579   2.836
 9741SOL     OW30121   2.334   1.882   4.834
 9741SOL    HW130122   2.416   1.912   4.883
 9741SOL    HW230123   2.253   1.923   4.876
 9742SOL     OW30124   3.989   1.833   5.947
 9742SOL    HW130125   3.937   1.916   5.968
 9742SOL    HW230126   3.969   1.762   6.015
 9743SOL     OW30127   5.160   3.648   4.282
 9743SOL    HW130128   5.079   3.651   4.341
 9743SOL    HW230129   5.152   3.570   4.220
 9744SOL     OW30130   1.555   0.991   3.277
 9744SOL    HW130131   1.461   1.007   3.245
 9744SOL    HW230132   1.559   0.903   3.325
 9745SOL     OW30133   0.271   0.518   5.949
 9745SOL    HW130134   0.174   0.496   5.959
 9745SOL    HW230135   0.320   0.439   5.911
 9746SOL     OW30136   4.489   5.168   6.340
 9746SOL    HW130137   4.563   5.233   6.356
 9746SOL    HW230138   4.487   5.142   6.244
 9747SOL     OW30139   2.407   1.904   3.238
 9747SOL    HW130140   2.448   1.851   3.312
 9747SOL    HW230141   2.449   1.995   3.235
 9748SOL     OW30142   1.499   0.773   3.551
 9748SOL    HW130143   1.599   0.780   3.547
 9748SOL    HW230144   1.471   0.751   3.644
 9749SOL     OW30145   6.681   1.075   2.214
 9749SOL    HW130146   6.591   1.034   2.201
 9749SOL    HW230147   6.688   1.159   2.160
 9750SOL     OW30148   6.370   2.913   3.988
 9750SOL    HW130149   6.420   2.945   3.908
 9750SOL    HW230150   6.272   2.919   3.971
 9751SOL     OW30151   3.142   0.189   1.787
 9751SOL    HW130152   3.230   0.145   1.769
 9751SOL    HW230153   3.141   0.281   1.749
 9752SOL     OW30154   3.333   3.416   6.725
 9752SOL    HW130155   3.268   3.491   6.712
 9752SOL    HW230156   3.419   3.452   6.760
 9753SOL     OW30157   0.180   6.476   5.020
 9753SOL    HW130158   0.213   6.570   5.026
 9753SOL    HW230159   0.088   6.475   4.983
 9754SOL     OW30160   3.129   1.060   1.541
 9754SOL    HW130161   3.168   0.968   1.538
 9754SOL    HW230162   3.163   1.109   1.621
 9755SOL     OW30163   3.155   4.438   0.413
 9755SOL    HW130164   3.057   4.446   0.432
 9755SOL    HW230165   3.176   4.482   0.326
 9756SOL     OW30166   5.821   0.351   5.913
 9756SOL    HW130167   5.907   0.302   5.926
 9756SOL    HW230168   5.835   0.427   5.850
 9757SOL     OW30169   4.926   4.408   3.848
 9757SOL    HW130170   4.975   4.452   3.924
 9757SOL    HW230171   4.870   4.333   3.883
 9758SOL     OW30172   1.935   0.291   1.815
 9758SOL    HW130173   2.016   0.291   1.873
 9758SOL    HW230174   1.856   0.323   1.868
 9759SOL     OW30175   6.897   0.879   1.597
 9759SOL    HW130176   6.974   0.943   1.605
 9759SOL    HW230177   6.825   0.907   1.660
 9760SOL     OW30178   4.659   1.395   0.098
 9760SOL    HW130179   4.702   1.317   0.052
 9760SOL    HW230180   4.567   1.370   0.128
 9761SOL     OW30181   1.229   2.151   0.855
 9761SOL    HW130182   1.213   2.059   0.890
 9761SOL    HW230183   1.300   2.196   0.910
 9762SOL     OW30184   2.660   1.973   6.074
 9762SOL    HW130185   2.702   1.962   5.984
 9762SOL    HW230186   2.728   2.011   6.137
 9763SOL     OW30187   6.405   0.717   1.031
 9763SOL    HW130188   6.430   0.793   1.090
 9763SOL    HW230189   6.374   0.640   1.087
 9764SOL     OW30190   6.817   2.590   2.122
 9764SOL    HW130191   6.846   2.628   2.034
 9764SOL    HW230192   6.897   2.573   2.179
 9765SOL     OW30193   6.698   0.700   1.993
 9765SOL    HW130194   6.784   0.746   1.972
 9765SOL    HW230195   6.694   0.613   1.944
 9766SOL     OW30196   2.231   2.204   4.624
 9766SOL    HW130197   2.281   2.119   4.606
 9766SOL    HW230198   2.136   2.183   4.646
 9767SOL     OW30199   2.316   3.000   5.559
 9767SOL    HW130200   2.325   3.071   5.490
 9767SOL    HW230201   2.251   3.029   5.629
 9768SOL     OW30202   5.741   3.168   0.876
 9768SOL    HW130203   5.704   3.162   0.783
 9768SOL    HW230204   5.811   3.098   0.889
 9769SOL     OW30205   3.038   2.173   5.290
 9769SOL    HW130206   3.120   2.197   5.238
 9769SOL    HW230207   2.958   2.208   5.242
 9770SOL     OW30208   2.549   2.768   6.463
 9770SOL    HW130209   2.476   2.801   6.403
 9770SOL    HW230210   2.579   2.843   6.522
 9771SOL     OW30211   2.839   6.806   2.627
 9771SOL    HW130212   2.807   6.716   2.658
 9771SOL    HW230213   2.774   6.844   2.562
 9772SOL     OW30214   1.439   0.586   1.254
 9772SOL    HW130215   1.371   0.568   1.183
 9772SOL    HW230216   1.396   0.581   1.344
 9773SOL     OW30217   4.967   4.821   2.015
 9773SOL    HW130218   5.057   4.858   2.039
 9773SOL    HW230219   4.896   4.869   2.066
 9774SOL     OW30220   1.276   5.005   5.213
 9774SOL    HW130221   1.242   5.073   5.148
 9774SOL    HW230222   1.376   5.014   5.222
 9775SOL     OW30223   2.565   1.403   3.397
 9775SOL    HW130224   2.601   1.390   3.304
 9775SOL    HW230225   2.492   1.337   3.413
 9776SOL     OW30226   2.406   5.051   0.209
 9776SOL    HW130227   2.502   5.068   0.191
 9776SOL    HW230228   2.394   4.957   0.242
 9777SOL     OW30229   4.321   0.848   5.533
 9777SOL    HW130230   4.280   0.937   5.512
 9777SOL    HW230231   4.410   0.861   5.578
 9778SOL     OW30232   0.395   3.494   4.129
 9778SOL    HW130233   0.412   3.577   4.181
 9778SOL    HW230234   0.466   3.426   4.149
 9779SOL     OW30235   2.414   1.051   4.011
 9779SOL    HW130236   2.334   1.056   3.951
 9779SOL    HW230237   2.466   0.968   3.990
 9780SOL     OW30238   0.949   2.213   1.844
 9780SOL    HW130239   0.981   2.303   1.874
 9780SOL    HW230240   1.007   2.142   1.884
 9781SOL     OW30241   2.070   2.265   3.678
 9781SOL    HW130242   2.100   2.226   3.591
 9781SOL    HW230243   2.008   2.202   3.724
 9782SOL     OW30244   6.717   2.413   1.296
 9782SOL    HW130245   6.731   2.436   1.392
 9782SOL    HW230246   6.805   2.403   1.250
 9783SOL     OW30247   3.532   0.942   3.438
 9783SOL    HW130248   3.599   0.973   3.505
 9783SOL    HW230249   3.580   0.903   3.359
 9784SOL     OW30250   1.263   1.169   6.068
 9784SOL    HW130251   1.356   1.145   6.093
 9784SOL    HW230252   1.264   1.220   5.982
 9785SOL     OW30253   0.065   3.503   4.766
 9785SOL    HW130254   0.007   3.441   4.819
 9785SOL    HW230255   0.116   3.451   4.698
 9786SOL     OW30256   2.048   4.061   0.677
 9786SOL    HW130257   2.083   4.014   0.595
 9786SOL    HW230258   1.993   4.139   0.649
 9787SOL     OW30259   2.990   3.751   3.524
 9787SOL    HW130260   3.063   3.762   3.457
 9787SOL    HW230261   2.963   3.841   3.559
 9788SOL     OW30262   5.000   7.018   2.079
 9788SOL    HW130263   5.063   6.969   2.019
 9788SOL    HW230264   4.916   6.965   2.091
 9789SOL     OW30265   3.861   1.330   6.353
 9789SOL    HW130266   3.791   1.382   6.402
 9789SOL    HW230267   3.832   1.319   6.258
 9790SOL     OW30268   7.009   4.435   4.075
 9790SOL    HW130269   6.944   4.420   4.150
 9790SOL    HW230270   0.017   4.346   4.041
 9791SOL     OW30271   1.229   6.348   0.876
 9791SOL    HW130272   1.277   6.261   0.866
 9791SOL    HW230273   1.209   6.364   0.972
 9792SOL     OW30274   4.247   6.457   0.575
 9792SOL    HW130275   4.193   6.468   0.492
 9792SOL    HW230276   4.189   6.426   0.650
 9793SOL     OW30277   5.482   1.019   3.194
 9793SOL    HW130278   5.539   0.961   3.136
 9793SOL    HW230279   5.432   0.962   3.259
 9794SOL     OW30280   4.638   4.774   4.635
 9794SOL    HW130281   4.568   4.828   4.681
 9794SOL    HW230282   4.614   4.764   4.539
 9795SOL     OW30283   2.037   3.855   3.403
 9795SOL    HW130284   2.090   3.847   3.488
 9795SOL    HW230285   2.004   3.949   3.394
 9796SOL     OW30286   4.087   3.435   3.505
 9796SOL    HW130287   4.130   3.469   3.589
 9796SOL    HW230288   4.060   3.340   3.517
 9797SOL     OW30289   3.100   5.726   6.739
 9797SOL    HW130290   3.064   5.713   6.831
 9797SOL    HW230291   3.153   5.811   6.736
 9798SOL     OW30292   0.691   3.832   0.336
 9798SOL    HW130293   0.631   3.816   0.258
 9798SOL    HW230294   0.651   3.903   0.394
 9799SOL     OW30295   3.057   0.516   6.715
 9799SOL    HW130296   3.038   0.574   6.794
 9799SOL    HW230297   2.984   0.449   6.704
 9800SOL     OW30298   6.601   3.774   5.126
 9800SOL    HW130299   6.503   3.783   5.146
 9800SOL    HW230300   6.612   3.744   5.031
 9801SOL     OW30301   6.069   6.297   6.591
 9801SOL    HW130302   6.058   6.337   6.683
 9801SOL    HW230303   6.155   6.329   6.551
 9802SOL     OW30304   3.902   4.699   0.269
 9802SOL    HW130305   3.842   4.706   0.189
 9802SOL    HW230306   3.860   4.743   0.348
 9803SOL     OW30307   1.072   3.814   6.654
 9803SOL    HW130308   1.013   3.895   6.652
 9803SOL    HW230309   1.143   3.822   6.583
 9804SOL     OW30310   0.167   5.809   2.496
 9804SOL    HW130311   0.097   5.867   2.453
 9804SOL    HW230312   0.135   5.714   2.496
 9805SOL     OW30313   0.784   6.257   3.556
 9805SOL    HW130314   0.802   6.162   3.581
 9805SOL    HW230315   0.695   6.263   3.510
 9806SOL     OW30316   3.608   1.804   6.631
 9806SOL    HW130317   3.538   1.839   6.694
 9806SOL    HW230318   3.663   1.880   6.597
 9807SOL     OW30319   3.260   3.334   2.172
 9807SOL    HW130320   3.180   3.284   2.207
 9807SOL    HW230321   3.287   3.295   2.084
 9808SOL     OW30322   4.444   6.115   2.775
 9808SOL    HW130323   4.543   6.114   2.786
 9808SOL    HW230324   4.411   6.209   2.779
 9809SOL     OW30325   6.927   3.181   1.294
 9809SOL    HW130326   6.971   3.210   1.379
 9809SOL    HW230327   6.915   3.082   1.294
 9810SOL     OW30328   2.596   1.374   0.243
 9810SOL    HW130329   2.518   1.429   0.213
 9810SOL    HW230330   2.661   1.364   0.168
 9811SOL     OW30331   6.272   3.363   4.222
 9811SOL    HW130332   6.195   3.305   4.197
 9811SOL    HW230333   6.239   3.444   4.271
 9812SOL     OW30334   3.524   6.536   5.498
 9812SOL    HW130335   3.489   6.589   5.576
 9812SOL    HW230336   3.547   6.443   5.529
 9813SOL     OW30337   4.923   1.938   1.632
 9813SOL    HW130338   4.847   1.876   1.651
 9813SOL    HW230339   5.008   1.886   1.622
 9814SOL     OW30340   5.609   1.135   0.367
 9814SOL    HW130341   5.593   1.162   0.272
 9814SOL    HW230342   5.552   1.190   0.428
 9815SOL     OW30343   4.337   2.350   4.841
 9815SOL    HW130344   4.278   2.330   4.762
 9815SOL    HW230345   4.281   2.386   4.916
 9816SOL     OW30346   1.697   6.735   0.016
 9816SOL    HW130347   1.717   6.829   0.043
 9816SOL    HW230348   1.782   6.686   7.022
 9817SOL     OW30349   6.969   6.849   3.123
 9817SOL    HW130350   6.965   6.750   3.132
 9817SOL    HW230351   6.968   6.891   3.214
 9818SOL     OW30352   6.914   2.663   4.236
 9818SOL    HW130353   6.953   2.730   4.298
 9818SOL    HW230354   6.814   2.668   4.240
 9819SOL     OW30355   3.769   0.998   3.607
 9819SOL    HW130356   3.766   1.009   3.707
 9819SOL    HW230357   3.828   1.069   3.568
 9820SOL     OW30358   4.116   3.608   5.607
 9820SOL    HW130359   4.099   3.613   5.508
 9820SOL    HW230360   4.214   3.596   5.623
 9821SOL     OW30361   6.084   5.840   0.108
 9821SOL    HW130362   6.066   5.808   0.201
 9821SOL    HW230363   6.043   5.777   0.042
 9822SOL     OW30364   0.572   6.955   2.832
 9822SOL    HW130365   0.582   6.906   2.919
 9822SOL    HW230366   0.482   6.998   2.828
 9823SOL     OW30367   3.019   1.216   2.080
 9823SOL    HW130368   3.045   1.167   1.997
 9823SOL    HW230369   2.920   1.212   2.091
 9824SOL     OW30370   1.272   4.292   5.442
 9824SOL    HW130371   1.298   4.285   5.346
 9824SOL    HW230372   1.315   4.218   5.494
 9825SOL     OW30373   4.133   4.966   5.335
 9825SOL    HW130374   4.212   4.956   5.396
 9825SOL    HW230375   4.122   4.882   5.282
 9826SOL     OW30376   4.296   0.212   5.872
 9826SOL    HW130377   4.243   0.281   5.921
 9826SOL    HW230378   4.392   0.241   5.868
 9827SOL     OW30379   0.986   3.513   4.746
 9827SOL    HW130380   0.979   3.518   4.846
 9827SOL    HW230381   1.041   3.589   4.713
 9828SOL     OW30382   3.609   2.609   6.527
 9828SOL    HW130383   3.622   2.574   6.434
 9828SOL    HW230384   3.540   2.553   6.574
 9829SOL     OW30385   2.135   5.781   0.207
 9829SOL    HW130386   2.229   5.759   0.183
 9829SOL    HW230387   2.129   5.876   0.236
 9830SOL     OW30388   6.019   1.426   1.513
 9830SOL    HW130389   5.927   1.411   1.551
 9830SOL    HW230390   6.059   1.339   1.487
 9831SOL     OW30391   6.852   6.842   1.787
 9831SOL    HW130392   6.810   6.898   1.858
 9831SOL    HW230393   6.906   6.899   1.726
 9832SOL     OW30394   4.178   5.122   1.654
 9832SOL    HW130395   4.183   5.214   1.614
 9832SOL    HW230396   4.205   5.127   1.750
 9833SOL     OW30397   3.541   3.829   5.420
 9833SOL    HW130398   3.587   3.863   5.502
 9833SOL    HW230399   3.464   3.889   5.398
 9834SOL     OW30400   1.100   3.662   5.005
 9834SOL    HW130401   1.113   3.703   4.915
 9834SOL    HW230402   1.175   3.599   5.025
 9835SOL     OW30403   5.295   1.483   4.339
 9835SOL    HW130404   5.258   1.499   4.247
 9835SOL    HW230405   5.350   1.561   4.367
 9836SOL     OW30406   5.032   4.663   3.560
 9836SOL    HW130407   5.044   4.715   3.644
 9836SOL    HW230408   5.032   4.725   3.482
 9837SOL     OW30409   2.638   6.697   4.709
 9837SOL    HW130410   2.589   6.639   4.774
 9837SOL    HW230411   2.736   6.689   4.725
 9838SOL     OW30412   0.853   5.831   6.330
 9838SOL    HW130413   0.849   5.773   6.249
 9838SOL    HW230414   0.862   5.926   6.303
 9839SOL     OW30415   0.039   1.393   1.543
 9839SOL    HW130416   0.132   1.420   1.519
 9839SOL    HW230417   0.023   1.299   1.512
 9840SOL     OW30418   6.470   0.243   1.081
 9840SOL    HW130419   6.537   0.169   1.088
 9840SOL    HW230420   6.504   0.314   1.019
 9841SOL     OW30421   1.831   3.931   4.360
 9841SOL    HW130422   1.763   3.961   4.293
 9841SOL    HW230423   1.885   4.009   4.390
 9842SOL     OW30424   2.927   3.212   2.699
 9842SOL    HW130425   2.970   3.123   2.684
 9842SOL    HW230426   2.926   3.233   2.797
 9843SOL     OW30427   6.858   2.155   1.535
 9843SOL    HW130428   6.910   2.084   1.489
 9843SOL    HW230429   6.770   2.118   1.566
 9844SOL     OW30430   5.259   0.093   2.548
 9844SOL    HW130431   5.259   0.063   2.453
 9844SOL    HW230432   5.264   0.193   2.552
 9845SOL     OW30433   1.611   1.894   3.774
 9845SOL    HW130434   1.617   1.992   3.751
 9845SOL    HW230435   1.701   1.863   3.805
 9846SOL     OW30436   3.091   3.513   3.297
 9846SOL    HW130437   3.139   3.572   3.231
 9846SOL    HW230438   3.146   3.505   3.380
 9847SOL     OW30439   1.409   3.698   6.779
 9847SOL    HW130440   1.483   3.745   6.731
 9847SOL    HW230441   1.367   3.630   6.718
 9848SOL     OW30442   4.510   2.791   0.106
 9848SOL    HW130443   4.594   2.836   0.139
 9848SOL    HW230444   4.476   2.839   0.026
 9849SOL     OW30445   6.676   0.137   6.171
 9849SOL    HW130446   6.713   0.054   6.129
 9849SOL    HW230447   6.607   0.177   6.110
 9850SOL     OW30448   4.046   6.847   2.300
 9850SOL    HW130449   4.049   6.898   2.215
 9850SOL    HW230450   4.071   6.908   2.376
 9851SOL     OW30451   5.313   1.915   5.089
 9851SOL    HW130452   5.325   2.006   5.049
 9851SOL    HW230453   5.222   1.909   5.130
 9852SOL     OW30454   4.689   1.699   3.563
 9852SOL    HW130455   4.612   1.761   3.579
 9852SOL    HW230456   4.716   1.705   3.467
 9853SOL     OW30457   5.494   3.954   2.846
 9853SOL    HW130458   5.484   3.923   2.751
 9853SOL    HW230459   5.450   4.044   2.856
 9854SOL     OW30460   5.845   5.331   4.532
 9854SOL    HW130461   5.895   5.244   4.536
 9854SOL    HW230462   5.833   5.358   4.436
 9855SOL     OW30463   0.835   4.248   1.727
 9855SOL    HW130464   0.920   4.273   1.681
 9855SOL    HW230465   0.827   4.148   1.730
 9856SOL     OW30466   3.299   3.655   0.268
 9856SOL    HW130467   3.208   3.663   0.309
 9856SOL    HW230468   3.330   3.560   0.274
 9857SOL     OW30469   5.304   3.422   3.322
 9857SOL    HW130470   5.356   3.369   3.389
 9857SOL    HW230471   5.323   3.519   3.335
 9858SOL     OW30472   5.395   1.120   2.084
 9858SOL    HW130473   5.416   1.185   2.156
 9858SOL    HW230474   5.392   1.027   2.122
 9859SOL     OW30475   6.456   0.947   2.150
 9859SOL    HW130476   6.379   0.974   2.092
 9859SOL    HW230477   6.452   0.849   2.167
 9860SOL     OW30478   0.514   0.834   2.500
 9860SOL    HW130479   0.493   0.741   2.470
 9860SOL    HW230480   0.487   0.844   2.596
 9861SOL     OW30481   4.384   5.938   4.337
 9861SOL    HW130482   4.361   5.855   4.388
 9861SOL    HW230483   4.319   6.010   4.360
 9862SOL     OW30484   1.963   2.934   0.358
 9862SOL    HW130485   1.890   2.922   0.425
 9862SOL    HW230486   2.052   2.929   0.405
 9863SOL     OW30487   3.021   0.245   3.188
 9863SOL    HW130488   3.089   0.310   3.154
 9863SOL    HW230489   2.944   0.295   3.227
 9864SOL     OW30490   4.234   5.663   3.456
 9864SOL    HW130491   4.169   5.709   3.395
 9864SOL    HW230492   4.186   5.628   3.536
 9865SOL     OW30493   0.906   0.211   3.682
 9865SOL    HW130494   0.966   0.230   3.759
 9865SOL    HW230495   0.861   0.123   3.695
 9866SOL     OW30496   4.821   3.837   4.418
 9866SOL    HW130497   4.874   3.754   4.437
 9866SOL    HW230498   4.818   3.894   4.500
 9867SOL     OW30499   4.653   1.420   0.790
 9867SOL    HW130500   4.728   1.356   0.771
 9867SOL    HW230501   4.672   1.469   0.876
 9868SOL     OW30502   6.532   4.427   6.845
 9868SOL    HW130503   6.529   4.428   6.745
 9868SOL    HW230504   6.626   4.437   6.876
 9869SOL     OW30505   2.263   3.981   3.260
 9869SOL    HW130506   2.295   4.044   3.190
 9869SOL    HW230507   2.217   3.904   3.217
 9870SOL     OW30508   4.525   4.660   2.643
 9870SOL    HW130509   4.501   4.625   2.552
 9870SOL    HW230510   4.475   4.745   2.660
 9871SOL     OW30511   2.285   0.549   5.729
 9871SOL    HW130512   2.282   0.453   5.699
 9871SOL    HW230513   2.324   0.553   5.821
 9872SOL     OW30514   2.946   4.784   3.292
 9872SOL    HW130515   2.894   4.749   3.213
 9872SOL    HW230516   2.890   4.775   3.375
 9873SOL     OW30517   1.844   3.107   0.150
 9873SOL    HW130518   1.780   3.041   0.110
 9873SOL    HW230519   1.891   3.065   0.228
 9874SOL     OW30520   0.581   2.717   3.301
 9874SOL    HW130521   0.588   2.769   3.216
 9874SOL    HW230522   0.652   2.747   3.364
 9875SOL     OW30523   0.486   0.666   2.747
 9875SOL    HW130524   0.585   0.669   2.764
 9875SOL    HW230525   0.440   0.729   2.810
 9876SOL     OW30526   6.579   0.077   2.688
 9876SOL    HW130527   6.561   0.076   2.786
 9876SOL    HW230528   6.656   0.138   2.668
 9877SOL     OW30529   3.122   0.249   2.610
 9877SOL    HW130530   3.045   0.189   2.589
 9877SOL    HW230531   3.180   0.207   2.680
 9878SOL     OW30532   1.537   5.507   5.732
 9878SOL    HW130533   1.560   5.602   5.708
 9878SOL    HW230534   1.611   5.468   5.786
 9879SOL     OW30535   4.696   5.536   4.698
 9879SOL    HW130536   4.670   5.607   4.764
 9879SOL    HW230537   4.795   5.538   4.685
 9880SOL     OW30538   0.885   2.173   5.860
 9880SOL    HW130539   0.977   2.200   5.831
 9880SOL    HW230540   0.891   2.119   5.944
 9881SOL     OW30541   0.827   2.444   5.144
 9881SOL    HW130542   0.804   2.531   5.102
 9881SOL    HW230543   0.896   2.458   5.215
 9882SOL     OW30544   1.367   2.581   4.431
 9882SOL    HW130545   1.399   2.529   4.352
 9882SOL    HW230546   1.342   2.673   4.402
 9883SOL     OW30547   1.413   0.436   1.643
 9883SOL    HW130548   1.446   0.500   1.712
 9883SOL    HW230549   1.490   0.383   1.606
 9884SOL     OW30550   4.131   0.606   3.635
 9884SOL    HW130551   4.150   0.672   3.708
 9884SOL    HW230552   4.218   0.575   3.595
 9885SOL     OW30553   6.478   4.307   5.024
 9885SOL    HW130554   6.401   4.360   4.990
 9885SOL    HW230555   6.459   4.209   5.013
 9886SOL     OW30556   1.317   4.888   2.799
 9886SOL    HW130557   1.400   4.843   2.767
 9886SOL    HW230558   1.301   4.865   2.895
 9887SOL     OW30559   3.556   1.634   6.837
 9887SOL    HW130560   3.568   1.536   6.820
 9887SOL    HW230561   3.570   1.684   6.751
 9888SOL     OW30562   0.430   3.650   0.545
 9888SOL    HW130563   0.404   3.567   0.595
 9888SOL    HW230564   0.473   3.623   0.458
 9889SOL     OW30565   6.259   5.416   0.514
 9889SOL    HW130566   6.350   5.447   0.485
 9889SOL    HW230567   6.267   5.325   0.556
 9890SOL     OW30568   1.849   2.225   1.029
 9890SOL    HW130569   1.758   2.251   0.998
 9890SOL    HW230570   1.872   2.135   0.993
 9891SOL     OW30571   5.720   2.746   0.316
 9891SOL    HW130572   5.792   2.793   0.264
 9891SOL    HW230573   5.668   2.813   0.369
 9892SOL     OW30574   6.983   4.664   0.058
 9892SOL    HW130575   6.984   4.748   0.111
 9892SOL    HW230576   0.052   4.624   0.057
 9893SOL     OW30577   2.439   0.860   0.865
 9893SOL    HW130578   2.374   0.915   0.812
 9893SOL    HW230579   2.510   0.919   0.902
 9894SOL     OW30580   1.185   1.565   0.784
 9894SOL    HW130581   1.244   1.485   0.773
 9894SOL    HW230582   1.225   1.643   0.736
 9895SOL     OW30583   5.796   3.653   4.366
 9895SOL    HW130584   5.797   3.608   4.277
 9895SOL    HW230585   5.794   3.584   4.438
 9896SOL     OW30586   6.673   0.077   7.017
 9896SOL    HW130587   6.687   0.149   6.949
 9896SOL    HW230588   6.743   0.006   7.005
 9897SOL     OW30589   5.950   5.213   3.413
 9897SOL    HW130590   5.851   5.222   3.411
 9897SOL    HW230591   5.988   5.275   3.482
 9898SOL     OW30592   3.145   6.277   6.047
 9898SOL    HW130593   3.201   6.206   6.004
 9898SOL    HW230594   3.182   6.298   6.137
 9899SOL     OW30595   0.810   5.409   0.722
 9899SOL    HW130596   0.837   5.453   0.807
 9899SOL    HW230597   0.882   5.348   0.691
 9900SOL     OW30598   1.507   4.223   3.451
 9900SOL    HW130599   1.541   4.281   3.377
 9900SOL    HW230600   1.516   4.127   3.424
 9901SOL     OW30601   2.681   2.276   5.600
 9901SOL    HW130602   2.654   2.342   5.670
 9901SOL    HW230603   2.605   2.262   5.537
 9902SOL     OW30604   2.470   4.695   6.411
 9902SOL    HW130605   2.435   4.780   6.372
 9902SOL    HW230606   2.433   4.618   6.360
 9903SOL     OW30607   5.012   1.523   3.343
 9903SOL    HW130608   4.988   1.486   3.432
 9903SOL    HW230609   4.932   1.569   3.303
 9904SOL     OW30610   0.662   3.434   5.995
 9904SOL    HW130611   0.616   3.462   6.079
 9904SOL    HW230612   0.601   3.448   5.917
 9905SOL     OW30613   3.934   1.650   0.801
 9905SOL    HW130614   3.870   1.589   0.755
 9905SOL    HW230615   3.928   1.635   0.900
 9906SOL     OW30616   3.785   2.975   2.674
 9906SOL    HW130617   3.774   2.949   2.578
 9906SOL    HW230618   3.702   2.951   2.724
 9907SOL     OW30619   0.040   0.603   1.686
 9907SOL    HW130620   0.111   0.668   1.661
 9907SOL    HW230621   0.045   0.585   1.784
 9908SOL     OW30622   5.114   2.588   3.088
 9908SOL    HW130623   5.040   2.569   3.024
 9908SOL    HW230624   5.076   2.614   3.177
 9909SOL     OW30625   3.531   6.522   3.868
 9909SOL    HW130626   3.492   6.603   3.911
 9909SOL    HW230627   3.461   6.475   3.814
 9910SOL     OW30628   1.103   4.311   2.462
 9910SOL    HW130629   1.096   4.383   2.393
 9910SOL    HW230630   1.026   4.249   2.453
 9911SOL     OW30631   4.025   0.184   2.317
 9911SOL    HW130632   4.087   0.114   2.353
 9911SOL    HW230633   3.998   0.246   2.391
 9912SOL     OW30634   4.178   1.994   1.210
 9912SOL    HW130635   4.107   1.950   1.265
 9912SOL    HW230636   4.137   2.030   1.126
 9913SOL     OW30637   6.011   3.686   7.002
 9913SOL    HW130638   5.950   3.672   0.057
 9913SOL    HW230639   5.972   3.642   6.921
 9914SOL     OW30640   0.695   2.824   4.302
 9914SOL    HW130641   0.754   2.749   4.276
 9914SOL    HW230642   0.748   2.909   4.308
 9915SOL     OW30643   4.467   1.138   3.079
 9915SOL    HW130644   4.478   1.041   3.100
 9915SOL    HW230645   4.376   1.153   3.040
 9916SOL     OW30646   2.345   2.721   2.416
 9916SOL    HW130647   2.427   2.668   2.438
 9916SOL    HW230648   2.292   2.737   2.500
 9917SOL     OW30649   6.481   3.747   6.857
 9917SOL    HW130650   6.503   3.684   6.783
 9917SOL    HW230651   6.509   3.839   6.832
 9918SOL     OW30652   4.031   1.770   2.806
 9918SOL    HW130653   4.118   1.721   2.801
 9918SOL    HW230654   4.023   1.832   2.728
 9919SOL     OW30655   6.152   6.299   1.185
 9919SOL    HW130656   6.132   6.206   1.216
 9919SOL    HW230657   6.128   6.308   1.089
 9920SOL     OW30658   4.912   1.120   2.416
 9920SOL    HW130659   4.967   1.201   2.396
 9920SOL    HW230660   4.890   1.073   2.331
 9921SOL     OW30661   4.697   5.451   5.998
 9921SOL    HW130662   4.735   5.542   5.983
 9921SOL    HW230663   4.637   5.452   6.078
 9922SOL     OW30664   1.074   5.305   0.092
 9922SOL    HW130665   0.993   5.265   0.049
 9922SOL    HW230666   1.101   5.388   0.043
 9923SOL     OW30667   4.497   5.091   7.011
 9923SOL    HW130668   4.513   5.142   0.072
 9923SOL    HW230669   4.403   5.107   6.980
 9924SOL     OW30670   0.130   2.896   4.958
 9924SOL    HW130671   0.156   2.886   5.054
 9924SOL    HW230672   0.202   2.859   4.900
 9925SOL     OW30673   6.303   3.323   3.933
 9925SOL    HW130674   6.273   3.322   4.028
 9925SOL    HW230675   6.288   3.414   3.893
 9926SOL     OW30676   2.679   3.987   6.911
 9926SOL    HW130677   2.688   3.893   6.945
 9926SOL    HW230678   2.586   4.020   6.930
 9927SOL     OW30679   6.441   6.896   2.549
 9927SOL    HW130680   6.452   6.797   2.562
 9927SOL    HW230681   6.496   6.945   2.617
 9928SOL     OW30682   4.662   4.988   1.201
 9928SOL    HW130683   4.605   4.933   1.139
 9928SOL    HW230684   4.708   4.928   1.266
 9929SOL     OW30685   2.339   5.738   4.786
 9929SOL    HW130686   2.283   5.777   4.858
 9929SOL    HW230687   2.378   5.651   4.817
 9930SOL     OW30688   6.681   0.548   4.321
 9930SOL    HW130689   6.761   0.608   4.327
 9930SOL    HW230690   6.664   0.526   4.225
 9931SOL     OW30691   0.431   4.808   5.420
 9931SOL    HW130692   0.467   4.758   5.498
 9931SOL    HW230693   0.335   4.830   5.435
 9932SOL     OW30694   1.502   6.898   6.291
 9932SOL    HW130695   1.519   6.800   6.306
 9932SOL    HW230696   1.577   6.937   6.237
 9933SOL     OW30697   2.022   5.252   2.611
 9933SOL    HW130698   2.059   5.280   2.522
 9933SOL    HW230699   1.976   5.330   2.654
 9934SOL     OW30700   5.615   2.192   5.553
 9934SOL    HW130701   5.570   2.123   5.496
 9934SOL    HW230702   5.561   2.209   5.635
 9935SOL     OW30703   2.570   1.000   0.565
 9935SOL    HW130704   2.615   0.970   0.649
 9935SOL    HW230705   2.629   1.062   0.516
 9936SOL     OW30706   6.982   5.285   4.921
 9936SOL    HW130707   6.911   5.347   4.954
 9936SOL    HW230708   0.045   5.303   4.969
 9937SOL     OW30709   6.165   2.267   5.974
 9937SOL    HW130710   6.205   2.175   5.974
 9937SOL    HW230711   6.095   2.273   6.045
 9938SOL     OW30712   6.790   5.888   3.404
 9938SOL    HW130713   6.724   5.833   3.354
 9938SOL    HW230714   6.758   5.983   3.408
 9939SOL     OW30715   3.182   2.947   0.969
 9939SOL    HW130716   3.152   3.009   1.042
 9939SOL    HW230717   3.179   2.996   0.882
 9940SOL     OW30718   0.507   0.742   1.108
 9940SOL    HW130719   0.543   0.652   1.081
 9940SOL    HW230720   0.564   0.780   1.180
 9941SOL     OW30721   2.868   3.787   5.132
 9941SOL    HW130722   2.776   3.815   5.158
 9941SOL    HW230723   2.933   3.821   5.200
 9942SOL     OW30724   2.039   6.119   2.513
 9942SOL    HW130725   2.110   6.114   2.442
 9942SOL    HW230726   2.082   6.126   2.603
 9943SOL     OW30727   0.410   5.751   6.228
 9943SOL    HW130728   0.490   5.810   6.217
 9943SOL    HW230729   0.379   5.754   6.323
 9944SOL     OW30730   2.080   4.651   6.274
 9944SOL    HW130731   2.144   4.674   6.201
 9944SOL    HW230732   2.066   4.552   6.276
 9945SOL     OW30733   6.785   5.452   6.948
 9945SOL    HW130734   6.734   5.369   6.927
 9945SOL    HW230735   6.721   5.528   6.959
 9946SOL     OW30736   5.208   1.120   4.978
 9946SOL    HW130737   5.294   1.080   5.008
 9946SOL    HW230738   5.150   1.049   4.939
 9947SOL     OW30739   6.621   4.004   5.914
 9947SOL    HW130740   6.707   4.037   5.953
 9947SOL    HW230741   6.629   3.906   5.893
 9948SOL     OW30742   4.690   4.171   4.960
 9948SOL    HW130743   4.660   4.266   4.954
 9948SOL    HW230744   4.610   4.112   4.974
 9949SOL     OW30745   5.333   4.740   3.614
 9949SOL    HW130746   5.313   4.811   3.682
 9949SOL    HW230747   5.338   4.781   3.523
 9950SOL     OW30748   5.473   6.292   5.296
 9950SOL    HW130749   5.532   6.261   5.221
 9950SOL    HW230750   5.530   6.325   5.372
 9951SOL     OW30751   6.095   2.289   3.658
 9951SOL    HW130752   6.010   2.302   3.709
 9951SOL    HW230753   6.075   2.285   3.560
 9952SOL     OW30754   6.400   3.778   0.805
 9952SOL    HW130755   6.438   3.853   0.860
 9952SOL    HW230756   6.471   3.709   0.791
 9953SOL     OW30757   6.599   2.143   3.537
 9953SOL    HW130758   6.565   2.232   3.568
 9953SOL    HW230759   6.671   2.112   3.598
 9954SOL     OW30760   6.118   6.544   5.418
 9954SOL    HW130761   6.076   6.599   5.491
 9954SOL    HW230762   6.218   6.555   5.422
 9955SOL     OW30763   6.773   4.968   4.630
 9955SOL    HW130764   6.845   5.001   4.568
 9955SOL    HW230765   6.684   5.001   4.599
 9956SOL     OW30766   1.598   0.066   1.948
 9956SOL    HW130767   1.503   0.074   1.917
 9956SOL    HW230768   1.657   0.053   1.868
 9957SOL     OW30769   6.223   5.464   3.477
 9957SOL    HW130770   6.125   5.472   3.495
 9957SOL    HW230771   6.246   5.520   3.397
 9958SOL     OW30772   3.170   4.765   0.698
 9958SOL    HW130773   3.269   4.768   0.686
 9958SOL    HW230774   3.145   4.684   0.752
 9959SOL     OW30775   4.072   3.632   5.865
 9959SOL    HW130776   4.145   3.683   5.910
 9959SOL    HW230777   4.089   3.630   5.766
 9960SOL     OW30778   0.016   1.331   2.862
 9960SOL    HW130779   0.087   1.356   2.797
 9960SOL    HW230780   6.952   1.371   2.834
 9961SOL     OW30781   2.271   5.470   3.714
 9961SOL    HW130782   2.314   5.522   3.788
 9961SOL    HW230783   2.257   5.376   3.744
 9962SOL     OW30784   5.699   6.126   4.781
 9962SOL    HW130785   5.666   6.139   4.687
 9962SOL    HW230786   5.636   6.066   4.830
 9963SOL     OW30787   3.435   1.981   0.710
 9963SOL    HW130788   3.416   2.020   0.620
 9963SOL    HW230789   3.371   2.018   0.777
 9964SOL     OW30790   4.806   5.486   4.278
 9964SOL    HW130791   4.880   5.439   4.326
 9964SOL    HW230792   4.796   5.446   4.187
 9965SOL     OW30793   3.766   0.007   6.926
 9965SOL    HW130794   3.814   6.977   6.995
 9965SOL    HW230795   3.735   6.970   6.853
 9966SOL     OW30796   1.511   5.124   1.841
 9966SOL    HW130797   1.509   5.102   1.939
 9966SOL    HW230798   1.445   5.197   1.822
 9967SOL     OW30799   1.283   5.560   1.563
 9967SOL    HW130800   1.278   5.657   1.585
 9967SOL    HW230801   1.225   5.508   1.626
 9968SOL     OW30802   3.563   3.890   1.910
 9968SOL    HW130803   3.527   3.804   1.876
 9968SOL    HW230804   3.633   3.872   1.979
 9969SOL     OW30805   1.452   3.718   2.730
 9969SOL    HW130806   1.460   3.724   2.829
 9969SOL    HW230807   1.397   3.794   2.696
 9970SOL     OW30808   5.554   4.979   1.871
 9970SOL    HW130809   5.514   5.003   1.783
 9970SOL    HW230810   5.560   4.880   1.880
 9971SOL     OW30811   1.655   4.354   0.620
 9971SOL    HW130812   1.637   4.413   0.699
 9971SOL    HW230813   1.574   4.299   0.600
 9972SOL     OW30814   6.297   4.956   3.123
 9972SOL    HW130815   6.373   4.984   3.182
 9972SOL    HW230816   6.226   5.027   3.123
 9973SOL     OW30817   5.881   0.827   4.177
 9973SOL    HW130818   5.979   0.814   4.190
 9973SOL    HW230819   5.844   0.751   4.124
 9974SOL     OW30820   1.710   0.449   3.877
 9974SOL    HW130821   1.629   0.435   3.934
 9974SOL    HW230822   1.779   0.380   3.901
 9975SOL     OW30823   7.011   2.623   0.338
 9975SOL    HW130824   6.926   2.673   0.319
 9975SOL    HW230825   0.065   2.687   0.338
 9976SOL     OW30826   1.247   0.207   5.196
 9976SOL    HW130827   1.178   0.275   5.220
 9976SOL    HW230828   1.338   0.249   5.199
 9977SOL     OW30829   6.629   4.410   5.229
 9977SOL    HW130830   6.610   4.357   5.311
 9977SOL    HW230831   6.568   4.380   5.155
 9978SOL     OW30832   0.518   2.627   4.323
 9978SOL    HW130833   0.574   2.707   4.305
 9978SOL    HW230834   0.450   2.617   4.250
 9979SOL     OW30835   5.907   3.929   5.081
 9979SOL    HW130836   5.892   3.857   5.014
 9979SOL    HW230837   5.874   3.899   5.170
 9980SOL     OW30838   3.605   0.506   6.731
 9980SOL    HW130839   3.506   0.516   6.733
 9980SOL    HW230840   3.628   0.409   6.721
 9981SOL     OW30841   3.340   1.409   3.753
 9981SOL    HW130842   3.275   1.429   3.679
 9981SOL    HW230843   3.376   1.316   3.741
 9982SOL     OW30844   6.655   6.132   3.978
 9982SOL    HW130845   6.664   6.049   3.922
 9982SOL    HW230846   6.746   6.166   4.001
 9983SOL     OW30847   6.776   1.245   2.608
 9983SOL    HW130848   6.755   1.151   2.634
 9983SOL    HW230849   6.864   1.247   2.560
 9984SOL     OW30850   3.040   1.910   6.520
 9984SOL    HW130851   3.025   1.926   6.422
 9984SOL    HW230852   3.124   1.857   6.533
 9985SOL     OW30853   1.811   1.057   1.681
 9985SOL    HW130854   1.832   1.025   1.588
 9985SOL    HW230855   1.712   1.059   1.693
 9986SOL     OW30856   5.513   4.113   4.728
 9986SOL    HW130857   5.457   4.126   4.809
 9986SOL    HW230858   5.547   4.202   4.695
 9987SOL     OW30859   6.246   3.928   6.293
 9987SOL    HW130860   6.169   3.990   6.280
 9987SOL    HW230861   6.300   3.958   6.371
 9988SOL     OW30862   6.658   6.646   5.336
 9988SOL    HW130863   6.662   6.688   5.427
 9988SOL    HW230864   6.570   6.600   5.324
 9989SOL     OW30865   6.948   3.332   4.983
 9989SOL    HW130866   6.993   3.362   5.068
 9989SOL    HW230867   6.903   3.244   4.998
 9990SOL     OW30868   1.181   4.707   2.997
 9990SOL    HW130869   1.215   4.657   3.076
 9990SOL    HW230870   1.092   4.747   3.018
 9991SOL     OW30871   2.980   2.289   4.281
 9991SOL    HW130872   2.963   2.261   4.186
 9991SOL    HW230873   2.961   2.387   4.290
 9992SOL     OW30874   5.691   5.497   6.305
 9992SOL    HW130875   5.594   5.489   6.325
 9992SOL    HW230876   5.713   5.593   6.283
 9993SOL     OW30877   1.630   1.626   1.594
 9993SOL    HW130878   1.561   1.598   1.661
 9993SOL    HW230879   1.672   1.712   1.624
 9994SOL     OW30880   5.956   4.550   3.816
 9994SOL    HW130881   5.917   4.527   3.905
 9994SOL    HW230882   5.939   4.647   3.796
 9995SOL     OW30883   5.732   0.898   3.785
 9995SOL    HW130884   5.702   0.803   3.776
 9995SOL    HW230885   5.653   0.958   3.790
 9996SOL     OW30886   3.604   4.527   6.665
 9996SOL    HW130887   3.663   4.517   6.585
 9996SOL    HW230888   3.621   4.452   6.729
 9997SOL     OW30889   2.534   0.485   5.338
 9997SOL    HW130890   2.580   0.467   5.425
 9997SOL    HW230891   2.588   0.550   5.284
 9998SOL     OW30892   5.710   5.577   5.829
 9998SOL    HW130893   5.758   5.617   5.908
 9998SOL    HW230894   5.737   5.481   5.820
 9999SOL     OW30895   6.274   2.413   5.770
 9999SOL    HW130896   6.237   2.504   5.755
 9999SOL    HW230897   6.236   2.375   5.855
10000SOL     OW30898   0.047   2.379   6.515
10000SOL    HW130899   6.987   2.420   6.551
10000SOL    HW230900   0.092   2.442   6.452
10001SOL     OW30901   5.051   0.323   2.756
10001SOL    HW130902   5.049   0.405   2.699
10001SOL    HW230903   4.974   0.325   2.820
10002SOL     OW30904   1.139   0.467   1.917
10002SOL    HW130905   1.064   0.464   1.982
10002SOL    HW230906   1.217   0.416   1.954
10003SOL     OW30907   3.678   2.069   3.426
10003SOL    HW130908   3.623   2.041   3.347
10003SOL    HW230909   3.619   2.079   3.506
10004SOL     OW30910   6.992   2.410   2.875
10004SOL    HW130911   6.968   2.471   2.950
10004SOL    HW230912   0.034   2.341   2.908
10005SOL     OW30913   4.764   0.109   4.021
10005SOL    HW130914   4.763   0.187   3.957
10005SOL    HW230915   4.744   0.142   4.113
10006SOL     OW30916   3.961   6.720   4.046
10006SOL    HW130917   3.905   6.643   4.017
10006SOL    HW230918   3.976   6.715   4.145
10007SOL     OW30919   0.183   3.363   4.278
10007SOL    HW130920   0.104   3.420   4.257
10007SOL    HW230921   0.263   3.397   4.228
10008SOL     OW30922   3.010   0.660   4.169
10008SOL    HW130923   3.043   0.617   4.084
10008SOL    HW230924   3.084   0.713   4.210
10009SOL     OW30925   1.943   4.089   2.072
10009SOL    HW130926   1.870   4.146   2.033
10009SOL    HW230927   1.930   3.994   2.043
10010SOL     OW30928   1.272   1.896   6.278
10010SOL    HW130929   1.219   1.818   6.311
10010SOL    HW230930   1.286   1.888   6.180
10011SOL     OW30931   6.526   6.835   5.890
10011SOL    HW130932   6.473   6.754   5.863
10011SOL    HW230933   6.476   6.886   5.960
10012SOL     OW30934   5.896   1.096   3.767
10012SOL    HW130935   5.848   1.011   3.748
10012SOL    HW230936   5.893   1.114   3.866
10013SOL     OW30937   0.396   0.818   3.041
10013SOL    HW130938   0.416   0.743   3.103
10013SOL    HW230939   0.403   0.905   3.090
10014SOL     OW30940   0.414   4.905   6.159
10014SOL    HW130941   0.458   4.964   6.227
10014SOL    HW230942   0.314   4.915   6.166
10015SOL     OW30943   1.932   4.277   6.744
10015SOL    HW130944   1.853   4.250   6.687
10015SOL    HW230945   2.015   4.237   6.705
10016SOL     OW30946   2.663   0.935   5.533
10016SOL    HW130947   2.657   1.018   5.589
10016SOL    HW230948   2.632   0.856   5.586
10017SOL     OW30949   2.097   2.573   4.380
10017SOL    HW130950   2.093   2.535   4.287
10017SOL    HW230951   2.018   2.541   4.432
10018SOL     OW30952   5.202   0.445   5.490
10018SOL    HW130953   5.197   0.543   5.509
10018SOL    HW230954   5.205   0.430   5.391
10019SOL     OW30955   1.310   0.976   3.133
10019SOL    HW130956   1.226   1.014   3.173
10019SOL    HW230957   1.315   0.878   3.154
10020SOL     OW30958   0.522   3.159   0.842
10020SOL    HW130959   0.553   3.253   0.852
10020SOL    HW230960   0.497   3.123   0.932
10021SOL     OW30961   0.227   3.566   1.194
10021SOL    HW130962   0.222   3.542   1.291
10021SOL    HW230963   0.231   3.482   1.139
10022SOL     OW30964   1.294   2.133   6.708
10022SOL    HW130965   1.372   2.071   6.718
10022SOL    HW230966   1.220   2.104   6.770
10023SOL     OW30967   7.009   3.436   0.752
10023SOL    HW130968   6.942   3.384   0.699
10023SOL    HW230969   7.020   3.394   0.842
10024SOL     OW30970   1.776   4.310   3.810
10024SOL    HW130971   1.765   4.396   3.860
10024SOL    HW230972   1.864   4.269   3.835
10025SOL     OW30973   1.716   1.291   0.757
10025SOL    HW130974   1.790   1.320   0.696
10025SOL    HW230975   1.756   1.240   0.834
10026SOL     OW30976   6.444   0.818   3.434
10026SOL    HW130977   6.380   0.879   3.481
10026SOL    HW230978   6.536   0.833   3.470
10027SOL     OW30979   4.841   3.281   5.256
10027SOL    HW130980   4.763   3.320   5.305
10027SOL    HW230981   4.807   3.224   5.181
10028SOL     OW30982   1.871   1.344   0.547
10028SOL    HW130983   1.968   1.361   0.536
10028SOL    HW230984   1.846   1.259   0.501
10029SOL     OW30985   5.877   1.192   3.489
10029SOL    HW130986   5.919   1.171   3.577
10029SOL    HW230987   5.894   1.288   3.466
10030SOL     OW30988   1.609   0.137   3.923
10030SOL    HW130989   1.646   0.108   3.835
10030SOL    HW230990   1.592   0.235   3.921
10031SOL     OW30991   6.484   4.120   4.116
10031SOL    HW130992   6.495   4.031   4.072
10031SOL    HW230993   6.402   4.165   4.081
10032SOL     OW30994   3.197   1.434   4.493
10032SOL    HW130995   3.127   1.483   4.545
10032SOL    HW230996   3.159   1.406   4.405
10033SOL     OW30997   5.911   3.220   5.097
10033SOL    HW130998   5.883   3.138   5.048
10033SOL    HW230999   5.835   3.254   5.152
10034SOL     OW31000   5.668   0.646   5.114
10034SOL    HW131001   5.715   0.563   5.144
10034SOL    HW231002   5.661   0.710   5.191
10035SOL     OW31003   0.323   5.676   1.473
10035SOL    HW131004   0.422   5.689   1.463
10035SOL    HW231005   0.276   5.710   1.392
10036SOL     OW31006   6.689   1.248   0.550
10036SOL    HW131007   6.640   1.172   0.593
10036SOL    HW231008   6.787   1.230   0.551
10037SOL     OW31009   0.887   6.717   7.022
10037SOL    HW131010   0.833   6.730   6.939
10037SOL    HW231011   0.966   6.659   7.002
10038SOL     OW31012   6.499   6.570   0.953
10038SOL    HW131013   6.554   6.496   0.915
10038SOL    HW231014   6.548   6.614   1.028
10039SOL     OW31015   3.240   6.954   3.668
10039SOL    HW131016   3.183   0.006   3.701
10039SOL    HW231017   3.210   6.927   3.576
10040SOL     OW31018   0.331   3.169   1.322
10040SOL    HW131019   0.243   3.126   1.346
10040SOL    HW231020   0.400   3.144   1.390
10041SOL     OW31021   1.854   6.067   0.134
10041SOL    HW131022   1.894   6.157   0.118
10041SOL    HW231023   1.844   6.053   0.233
10042SOL     OW31024   6.249   2.713   2.453
10042SOL    HW131025   6.298   2.626   2.448
10042SOL    HW231026   6.266   2.755   2.542
10043SOL     OW31027   0.005   1.577   5.676
10043SOL    HW131028   6.974   1.629   5.611
10043SOL    HW231029   0.091   1.550   5.634
10044SOL     OW31030   3.409   2.323   5.601
10044SOL    HW131031   3.413   2.297   5.505
10044SOL    HW231032   3.323   2.291   5.642
10045SOL     OW31033   3.743   1.215   0.622
10045SOL    HW131034   3.779   1.298   0.579
10045SOL    HW231035   3.716   1.235   0.716
10046SOL     OW31036   1.817   5.400   1.010
10046SOL    HW131037   1.797   5.316   1.061
10046SOL    HW231038   1.742   5.420   0.947
10047SOL     OW31039   0.571   3.427   0.892
10047SOL    HW131040   0.505   3.491   0.852
10047SOL    HW231041   0.663   3.455   0.867
10048SOL     OW31042   6.004   5.679   2.879
10048SOL    HW131043   6.039   5.726   2.959
10048SOL    HW231044   5.955   5.744   2.821
10049SOL     OW31045   0.119   0.877   5.747
10049SOL    HW131046   0.033   0.871   5.798
10049SOL    HW231047   0.136   0.973   5.722
10050SOL     OW31048   6.825   2.954   6.755
10050SOL    HW131049   6.769   2.981   6.677
10050SOL    HW231050   6.803   3.013   6.833
10051SOL     OW31051   2.015   3.353   3.652
10051SOL    HW131052   1.948   3.426   3.656
10051SOL    HW231053   2.069   3.362   3.568
10052SOL     OW31054   1.282   6.550   3.268
10052SOL    HW131055   1.326   6.500   3.194
10052SOL    HW231056   1.347   6.612   3.311
10053SOL     OW31057   5.750   5.458   4.777
10053SOL    HW131058   5.770   5.461   4.679
10053SOL    HW231059   5.670   5.399   4.793
10054SOL     OW31060   5.906   4.186   5.122
10054SOL    HW131061   5.893   4.087   5.114
10054SOL    HW231062   5.943   4.222   5.037
10055SOL     OW31063   0.658   1.661   6.674
10055SOL    HW131064   0.572   1.701   6.643
10055SOL    HW231065   0.703   1.614   6.597
10056SOL     OW31066   6.391   2.371   3.364
10056SOL    HW131067   6.452   2.292   3.365
10056SOL    HW231068   6.439   2.450   3.326
10057SOL     OW31069   6.222   4.770   5.340
10057SOL    HW131070   6.134   4.750   5.382
10057SOL    HW231071   6.249   4.693   5.282
10058SOL     OW31072   6.893   3.801   5.500
10058SOL    HW131073   6.960   3.811   5.427
10058SOL    HW231074   6.934   3.825   5.588
10059SOL     OW31075   6.363   0.658   6.705
10059SOL    HW131076   6.280   0.714   6.701
10059SOL    HW231077   6.402   0.651   6.613
10060SOL     OW31078   2.436   2.163   1.840
10060SOL    HW131079   2.393   2.254   1.835
10060SOL    HW231080   2.527   2.167   1.799
10061SOL     OW31081   3.807   0.116   3.092
10061SOL    HW131082   3.730   0.117   3.156
10061SOL    HW231083   3.886   0.074   3.137
10062SOL     OW31084   6.731   0.055   4.621
10062SOL    HW131085   6.731   0.141   4.672
10062SOL    HW231086   6.680   7.009   4.672
10063SOL     OW31087   2.130   2.484   5.547
10063SOL    HW131088   2.035   2.476   5.577
10063SOL    HW231089   2.190   2.496   5.626
10064SOL     OW31090   2.835   6.988   0.561
10064SOL    HW131091   2.778   6.973   0.641
10064SOL    HW231092   2.885   0.051   0.571
10065SOL     OW31093   0.705   1.338   1.678
10065SOL    HW131094   0.713   1.339   1.579
10065SOL    HW231095   0.731   1.427   1.715
10066SOL     OW31096   6.600   3.410   3.671
10066SOL    HW131097   6.542   3.329   3.677
10066SOL    HW231098   6.611   3.451   3.762
10067SOL     OW31099   6.901   3.305   5.699
10067SOL    HW131100   6.844   3.301   5.781
10067SOL    HW231101   6.845   3.336   5.622
10068SOL     OW31102   2.110   3.425   3.020
10068SOL    HW131103   2.151   3.475   2.945
10068SOL    HW231104   2.152   3.453   3.106
10069SOL     OW31105   3.046   5.008   0.728
10069SOL    HW131106   3.010   5.027   0.819
10069SOL    HW231107   3.064   4.910   0.719
10070SOL     OW31108   4.275   6.930   6.474
10070SOL    HW131109   4.274   7.016   6.424
10070SOL    HW231110   4.339   6.867   6.432
10071SOL     OW31111   6.020   0.027   3.875
10071SOL    HW131112   5.968   0.019   3.960
10071SOL    HW231113   6.105   0.076   3.893
10072SOL     OW31114   6.633   3.343   1.373
10072SOL    HW131115   6.605   3.400   1.295
10072SOL    HW231116   6.589   3.253   1.366
10073SOL     OW31117   6.484   4.671   4.775
10073SOL    HW131118   6.572   4.626   4.765
10073SOL    HW231119   6.416   4.605   4.807
10074SOL     OW31120   1.273   4.751   0.452
10074SOL    HW131121   1.228   4.741   0.363
10074SOL    HW231122   1.282   4.661   0.495
10075SOL     OW31123   1.337   3.840   2.082
10075SOL    HW131124   1.348   3.936   2.057
10075SOL    HW231125   1.415   3.788   2.049
10076SOL     OW31126   5.337   5.172   4.508
10076SOL    HW131127   5.238   5.157   4.514
10076SOL    HW231128   5.383   5.084   4.494
10077SOL     OW31129   4.841   3.307   0.156
10077SOL    HW131130   4.763   3.323   0.217
10077SOL    HW231131   4.808   3.295   0.063
10078SOL     OW31132   6.631   5.725   4.831
10078SOL    HW131133   6.577   5.806   4.809
10078SOL    HW231134   6.696   5.708   4.757
10079SOL     OW31135   4.885   3.043   4.048
10079SOL    HW131136   4.825   3.082   3.977
10079SOL    HW231137   4.873   2.944   4.050
10080SOL     OW31138   5.029   1.782   5.391
10080SOL    HW131139   4.937   1.744   5.381
10080SOL    HW231140   5.034   1.835   5.476
10081SOL     OW31141   1.435   4.219   0.553
10081SOL    HW131142   1.493   4.138   0.560
10081SOL    HW231143   1.339   4.193   0.566
10082SOL     OW31144   0.585   4.740   0.770
10082SOL    HW131145   0.669   4.790   0.748
10082SOL    HW231146   0.601   4.642   0.761
10083SOL     OW31147   3.282   5.218   2.829
10083SOL    HW131148   3.333   5.292   2.787
10083SOL    HW231149   3.184   5.231   2.811
10084SOL     OW31150   0.872   1.086   5.233
10084SOL    HW131151   0.972   1.075   5.229
10084SOL    HW231152   0.841   1.075   5.327
10085SOL     OW31153   5.398   0.440   0.308
10085SOL    HW131154   5.316   0.427   0.254
10085SOL    HW231155   5.403   0.534   0.341
10086SOL     OW31156   5.792   6.780   3.357
10086SOL    HW131157   5.820   6.874   3.342
10086SOL    HW231158   5.788   6.731   3.270
10087SOL     OW31159   1.233   6.423   5.690
10087SOL    HW131160   1.138   6.430   5.660
10087SOL    HW231161   1.255   6.326   5.704
10088SOL     OW31162   6.460   2.874   1.226
10088SOL    HW131163   6.511   2.949   1.267
10088SOL    HW231164   6.514   2.790   1.230
10089SOL     OW31165   3.376   1.405   1.538
10089SOL    HW131166   3.337   1.329   1.590
10089SOL    HW231167   3.470   1.421   1.567
10090SOL     OW31168   2.753   6.435   2.462
10090SOL    HW131169   2.768   6.336   2.464
10090SOL    HW231170   2.667   6.455   2.416
10091SOL     OW31171   6.438   4.407   5.619
10091SOL    HW131172   6.454   4.503   5.594
10091SOL    HW231173   6.487   4.347   5.557
10092SOL     OW31174   0.833   2.315   4.028
10092SOL    HW131175   0.874   2.297   4.117
10092SOL    HW231176   0.883   2.265   3.957
10093SOL     OW31177   4.684   4.815   6.548
10093SOL    HW131178   4.605   4.871   6.573
10093SOL    HW231179   4.760   4.874   6.521
10094SOL     OW31180   3.416   1.612   1.306
10094SOL    HW131181   3.316   1.609   1.305
10094SOL    HW231182   3.451   1.525   1.338
10095SOL     OW31183   4.327   2.750   5.575
10095SOL    HW131184   4.242   2.767   5.624
10095SOL    HW231185   4.307   2.729   5.480
10096SOL     OW31186   6.307   2.868   1.972
10096SOL    HW131187   6.389   2.826   2.010
10096SOL    HW231188   6.248   2.900   2.046
10097SOL     OW31189   0.412   1.267   0.269
10097SOL    HW131190   0.501   1.222   0.267
10097SOL    HW231191   0.350   1.215   0.328
10098SOL     OW31192   2.868   5.328   3.617
10098SOL    HW131193   2.773   5.337   3.648
10098SOL    HW231194   2.888   5.231   3.600
10099SOL     OW31195   0.473   5.056   1.923
10099SOL    HW131196   0.538   5.044   1.848
10099SOL    HW231197   0.389   5.099   1.888
10100SOL     OW31198   4.858   5.253   4.093
10100SOL    HW131199   4.780   5.281   4.038
10100SOL    HW231200   4.890   5.163   4.064
10101SOL     OW31201   7.009   3.271   0.989
10101SOL    HW131202   6.964   3.269   1.078
10101SOL    HW231203   6.975   3.196   0.933
10102SOL     OW31204   0.035   5.312   3.127
10102SOL    HW131205   0.025   5.405   3.093
10102SOL    HW231206   0.105   5.309   3.199
10103SOL     OW31207   0.087   5.827   6.266
10103SOL    HW131208   0.109   5.786   6.178
10103SOL    HW231209   0.129   5.773   6.339
10104SOL     OW31210   2.424   0.682   4.821
10104SOL    HW131211   2.377   0.628   4.891
10104SOL    HW231212   2.503   0.728   4.861
10105SOL     OW31213   3.147   1.028   4.972
10105SOL    HW131214   3.107   1.097   5.033
10105SOL    HW231215   3.131   1.055   4.877
10106SOL     OW31216   5.427   4.440   1.338
10106SOL    HW131217   5.492   4.374   1.300
10106SOL    HW231218   5.440   4.529   1.294
10107SOL     OW31219   5.461   4.978   0.224
10107SOL    HW131220   5.448   4.880   0.240
10107SOL    HW231221   5.520   4.992   0.145
10108SOL     OW31222   2.355   2.167   6.492
10108SOL    HW131223   2.287   2.119   6.437
10108SOL    HW231224   2.329   2.263   6.499
10109SOL     OW31225   0.997   2.155   1.446
10109SOL    HW131226   0.994   2.183   1.350
10109SOL    HW231227   0.929   2.205   1.499
10110SOL     OW31228   5.853   5.809   2.692
10110SOL    HW131229   5.783   5.873   2.724
10110SOL    HW231230   5.810   5.730   2.649
10111SOL     OW31231   0.802   2.235   1.614
10111SOL    HW131232   0.874   2.236   1.684
10111SOL    HW231233   0.776   2.329   1.593
10112SOL     OW31234   0.796   2.194   2.517
10112SOL    HW131235   0.747   2.172   2.432
10112SOL    HW231236   0.732   2.232   2.584
10113SOL     OW31237   6.458   0.455   6.270
10113SOL    HW131238   6.472   0.416   6.360
10113SOL    HW231239   6.546   0.467   6.224
10114SOL     OW31240   6.122   2.441   1.436
10114SOL    HW131241   6.129   2.473   1.342
10114SOL    HW231242   6.069   2.506   1.490
10115SOL     OW31243   3.466   2.819   5.793
10115SOL    HW131244   3.565   2.830   5.791
10115SOL    HW231245   3.434   2.788   5.703
10116SOL     OW31246   7.019   0.521   5.620
10116SOL    HW131247   6.927   0.551   5.594
10116SOL    HW231248   0.027   0.574   5.699
10117SOL     OW31249   6.372   4.755   3.628
10117SOL    HW131250   6.379   4.733   3.531
10117SOL    HW231251   6.335   4.847   3.639
10118SOL     OW31252   3.988   5.353   3.508
10118SOL    HW131253   4.037   5.393   3.431
10118SOL    HW231254   4.035   5.375   3.593
10119SOL     OW31255   6.579   5.940   5.815
10119SOL    HW131256   6.506   5.874   5.828
10119SOL    HW231257   6.654   5.921   5.878
10120SOL     OW31258   2.222   2.927   3.812
10120SOL    HW131259   2.202   3.025   3.807
10120SOL    HW231260   2.283   2.909   3.889
10121SOL     OW31261   6.793   4.726   0.621
10121SOL    HW131262   6.820   4.818   0.591
10121SOL    HW231263   6.848   4.658   0.573
10122SOL     OW31264   1.652   0.419   3.608
10122SOL    HW131265   1.696   0.437   3.696
10122SOL    HW231266   1.553   0.412   3.621
10123SOL     OW31267   6.877   5.091   6.563
10123SOL    HW131268   6.948   5.033   6.601
10123SOL    HW231269   6.884   5.183   6.603
10124SOL     OW31270   2.189   5.315   2.888
10124SOL    HW131271   2.194   5.245   2.959
10124SOL    HW231272   2.143   5.278   2.808
10125SOL     OW31273   1.448   0.240   4.883
10125SOL    HW131274   1.464   0.291   4.968
10125SOL    HW231275   1.353   0.252   4.855
10126SOL     OW31276   6.327   6.562   6.141
10126SOL    HW131277   6.302   6.465   6.148
10126SOL    HW231278   6.414   6.570   6.093
10127SOL     OW31279   2.841   6.531   5.368
10127SOL    HW131280   2.920   6.526   5.429
10127SOL    HW231281   2.851   6.610   5.307
10128SOL     OW31282   2.516   3.003   0.206
10128SOL    HW131283   2.435   2.946   0.192
10128SOL    HW231284   2.495   3.098   0.184
10129SOL     OW31285   5.936   1.613   4.379
10129SOL    HW131286   5.924   1.570   4.289
10129SOL    HW231287   6.033   1.622   4.399
10130SOL     OW31288   0.625   1.605   4.475
10130SOL    HW131289   0.659   1.627   4.566
10130SOL    HW231290   0.670   1.522   4.441
10131SOL     OW31291   2.055   6.776   4.369
10131SOL    HW131292   2.062   6.836   4.290
10131SOL    HW231293   2.105   6.816   4.446
10132SOL     OW31294   5.683   0.209   1.358
10132SOL    HW131295   5.718   0.302   1.351
10132SOL    HW231296   5.638   0.197   1.447
10133SOL     OW31297   5.120   6.393   0.782
10133SOL    HW131298   5.210   6.382   0.741
10133SOL    HW231299   5.098   6.491   0.788
10134SOL     OW31300   0.063   0.204   2.713
10134SOL    HW131301   0.109   0.219   2.800
10134SOL    HW231302   6.991   0.234   2.719
10135SOL     OW31303   6.173   0.729   3.140
10135SOL    HW131304   6.264   0.770   3.143
10135SOL    HW231305   6.104   0.802   3.131
10136SOL     OW31306   4.775   1.904   3.258
10136SOL    HW131307   4.764   1.984   3.316
10136SOL    HW231308   4.872   1.878   3.255
10137SOL     OW31309   6.336   4.987   4.997
10137SOL    HW131310   6.425   4.956   4.964
10137SOL    HW231311   6.321   5.082   4.969
10138SOL     OW31312   0.431   2.445   1.299
10138SOL    HW131313   0.355   2.483   1.246
10138SOL    HW231314   0.407   2.352   1.328
10139SOL     OW31315   3.042   2.786   6.585
10139SOL    HW131316   3.099   2.708   6.558
10139SOL    HW231317   2.964   2.794   6.524
10140SOL     OW31318   1.100   6.240   6.025
10140SOL    HW131319   1.132   6.146   6.039
10140SOL    HW231320   1.178   6.301   6.017
10141SOL     OW31321   1.818   2.298   4.109
10141SOL    HW131322   1.795   2.246   4.191
10141SOL    HW231323   1.854   2.388   4.136
10142SOL     OW31324   5.227   6.770   3.278
10142SOL    HW131325   5.141   6.747   3.233
10142SOL    HW231326   5.248   6.867   3.262
10143SOL     OW31327   5.279   2.941   6.581
10143SOL    HW131328   5.241   2.864   6.634
10143SOL    HW231329   5.213   3.016   6.580
10144SOL     OW31330   3.223   6.484   0.593
10144SOL    HW131331   3.190   6.567   0.547
10144SOL    HW231332   3.316   6.464   0.562
10145SOL     OW31333   5.760   6.995   6.151
10145SOL    HW131334   5.684   6.953   6.100
10145SOL    HW231335   5.740   0.068   6.167
10146SOL     OW31336   0.720   2.652   4.987
10146SOL    HW131337   0.717   2.640   4.888
10146SOL    HW231338   0.626   2.663   5.022
10147SOL     OW31339   4.255   5.987   5.590
10147SOL    HW131340   4.263   5.949   5.499
10147SOL    HW231341   4.312   5.934   5.654
10148SOL     OW31342   0.647   4.445   0.247
10148SOL    HW131343   0.584   4.368   0.251
10148SOL    HW231344   0.699   4.441   0.161
10149SOL     OW31345   4.285   3.265   1.068
10149SOL    HW131346   4.283   3.324   1.149
10149SOL    HW231347   4.229   3.184   1.084
10150SOL     OW31348   4.698   4.265   1.076
10150SOL    HW131349   4.681   4.356   1.116
10150SOL    HW231350   4.612   4.228   1.041
10151SOL     OW31351   6.245   0.356   6.131
10151SOL    HW131352   6.276   0.424   6.197
10151SOL    HW231353   6.196   0.283   6.179
10152SOL     OW31354   4.305   0.051   2.641
10152SOL    HW131355   4.206   0.038   2.642
10152SOL    HW231356   4.343   0.024   2.729
10153SOL     OW31357   4.846   4.578   2.118
10153SOL    HW131358   4.750   4.574   2.090
10153SOL    HW231359   4.892   4.652   2.069
10154SOL     OW31360   4.938   5.099   5.812
10154SOL    HW131361   4.907   5.085   5.718
10154SOL    HW231362   5.036   5.118   5.813
10155SOL     OW31363   4.194   2.000   4.183
10155SOL    HW131364   4.166   2.007   4.278
10155SOL    HW231365   4.133   2.056   4.126
10156SOL     OW31366   3.834   1.638   0.083
10156SOL    HW131367   3.800   1.553   0.043
10156SOL    HW231368   3.799   1.716   0.031
10157SOL     OW31369   0.516   4.435   1.434
10157SOL    HW131370   0.595   4.470   1.485
10157SOL    HW231371   0.433   4.479   1.467
10158SOL     OW31372   5.832   5.314   6.922
10158SOL    HW131373   5.922   5.357   6.925
10158SOL    HW231374   5.764   5.379   6.887
10159SOL     OW31375   3.277   2.963   2.159
10159SOL    HW131376   3.202   3.028   2.164
10159SOL    HW231377   3.273   2.914   2.071
10160SOL     OW31378   0.316   4.492   2.691
10160SOL    HW131379   0.360   4.510   2.779
10160SOL    HW231380   0.343   4.401   2.658
10161SOL     OW31381   5.266   3.138   5.181
10161SOL    HW131382   5.244   3.216   5.239
10161SOL    HW231383   5.293   3.060   5.237
10162SOL     OW31384   1.350   2.404   1.789
10162SOL    HW131385   1.410   2.340   1.836
10162SOL    HW231386   1.289   2.354   1.727
10163SOL     OW31387   3.011   5.436   4.984
10163SOL    HW131388   2.948   5.496   5.031
10163SOL    HW231389   2.965   5.349   4.963
10164SOL     OW31390   0.831   1.434   3.693
10164SOL    HW131391   0.744   1.474   3.664
10164SOL    HW231392   0.876   1.391   3.615
10165SOL     OW31393   0.840   3.471   4.147
10165SOL    HW131394   0.846   3.374   4.128
10165SOL    HW231395   0.799   3.485   4.237
10166SOL     OW31396   2.188   6.444   2.248
10166SOL    HW131397   2.251   6.430   2.324
10166SOL    HW231398   2.205   6.534   2.207
10167SOL     OW31399   2.239   1.619   6.670
10167SOL    HW131400   2.165   1.597   6.734
10167SOL    HW231401   2.297   1.539   6.658
10168SOL     OW31402   6.843   0.186   6.555
10168SOL    HW131403   6.873   0.216   6.646
10168SOL    HW231404   6.745   0.164   6.558
10169SOL     OW31405   5.046   4.556   4.047
10169SOL    HW131406   5.018   4.650   4.030
10169SOL    HW231407   5.144   4.546   4.026
10170SOL     OW31408   5.352   5.658   0.095
10170SOL    HW131409   5.344   5.604   0.178
10170SOL    HW231410   5.449   5.668   0.070
10171SOL     OW31411   2.109   4.948   4.960
10171SOL    HW131412   2.172   4.895   5.018
10171SOL    HW231413   2.022   4.899   4.953
10172SOL     OW31414   6.623   0.845   2.998
10172SOL    HW131415   6.721   0.836   3.017
10172SOL    HW231416   6.605   0.814   2.904
10173SOL     OW31417   3.563   3.541   4.740
10173SOL    HW131418   3.579   3.640   4.740
10173SOL    HW231419   3.471   3.522   4.772
10174SOL     OW31420   4.284   5.082   1.208
10174SOL    HW131421   4.264   5.180   1.201
10174SOL    HW231422   4.310   5.060   1.302
10175SOL     OW31423   0.169   6.927   4.423
10175SOL    HW131424   0.231   6.963   4.493
10175SOL    HW231425   0.079   6.967   4.435
10176SOL     OW31426   6.669   1.182   4.649
10176SOL    HW131427   6.664   1.261   4.709
10176SOL    HW231428   6.764   1.168   4.621
10177SOL     OW31429   2.671   1.096   3.466
10177SOL    HW131430   2.719   1.107   3.379
10177SOL    HW231431   2.573   1.097   3.450
10178SOL     OW31432   0.557   1.699   1.187
10178SOL    HW131433   0.585   1.786   1.146
10178SOL    HW231434   0.461   1.682   1.165
10179SOL     OW31435   1.210   4.390   6.998
10179SOL    HW131436   1.176   4.454   0.044
10179SOL    HW231437   1.293   4.427   6.956
10180SOL     OW31438   4.058   0.134   6.009
10180SOL    HW131439   4.133   0.129   5.944
10180SOL    HW231440   3.977   0.171   5.963
10181SOL     OW31441   5.870   3.411   2.755
10181SOL    HW131442   5.834   3.320   2.774
10181SOL    HW231443   5.929   3.407   2.674
10182SOL     OW31444   4.227   1.003   1.229
10182SOL    HW131445   4.154   0.956   1.278
10182SOL    HW231446   4.198   1.096   1.206
10183SOL     OW31447   5.474   0.908   5.352
10183SOL    HW131448   5.398   0.872   5.298
10183SOL    HW231449   5.491   0.849   5.431
10184SOL     OW31450   4.983   2.129   5.974
10184SOL    HW131451   5.000   2.225   5.952
10184SOL    HW231452   5.040   2.102   6.052
10185SOL     OW31453   3.510   5.453   1.273
10185SOL    HW131454   3.461   5.515   1.212
10185SOL    HW231455   3.608   5.469   1.265
10186SOL     OW31456   3.373   3.412   6.453
10186SOL    HW131457   3.376   3.391   6.551
10186SOL    HW231458   3.365   3.327   6.401
10187SOL     OW31459   2.076   4.678   5.192
10187SOL    HW131460   2.161   4.640   5.230
10187SOL    HW231461   2.032   4.735   5.261
10188SOL     OW31462   3.153   0.255   6.146
10188SOL    HW131463   3.109   0.291   6.063
10188SOL    HW231464   3.170   0.331   6.210
10189SOL     OW31465   2.081   1.823   5.551
10189SOL    HW131466   2.132   1.891   5.498
10189SOL    HW231467   2.146   1.763   5.599
10190SOL     OW31468   4.374   4.565   0.975
10190SOL    HW131469   4.445   4.552   0.907
10190SOL    HW231470   4.380   4.656   1.015
10191SOL     OW31471   5.437   0.114   0.127
10191SOL    HW131472   5.417   0.209   0.101
10191SOL    HW231473   5.472   0.112   0.221
10192SOL     OW31474   1.386   1.210   4.496
10192SOL    HW131475   1.331   1.150   4.555
10192SOL    HW231476   1.409   1.294   4.546
10193SOL     OW31477   3.775   3.578   3.638
10193SOL    HW131478   3.789   3.561   3.735
10193SOL    HW231479   3.774   3.491   3.589
10194SOL     OW31480   2.915   0.371   2.835
10194SOL    HW131481   3.009   0.404   2.826
10194SOL    HW231482   2.864   0.395   2.753
10195SOL     OW31483   5.129   6.682   2.623
10195SOL    HW131484   5.035   6.712   2.640
10195SOL    HW231485   5.183   6.695   2.706
10196SOL     OW31486   5.781   3.273   4.182
10196SOL    HW131487   5.856   3.322   4.137
10196SOL    HW231488   5.734   3.215   4.115
10197SOL     OW31489   5.488   1.306   2.275
10197SOL    HW131490   5.460   1.294   2.370
10197SOL    HW231491   5.548   1.385   2.267
10198SOL     OW31492   2.395   0.128   0.947
10198SOL    HW131493   2.426   0.153   0.855
10198SOL    HW231494   2.336   0.200   0.983
10199SOL     OW31495   0.887   1.660   0.812
10199SOL    HW131496   0.893   1.758   0.795
10199SOL    HW231497   0.978   1.620   0.811
10200SOL     OW31498   5.984   4.804   5.764
10200SOL    HW131499   5.980   4.725   5.825
10200SOL    HW231500   6.059   4.790   5.698
10201SOL     OW31501   1.892   5.072   3.133
10201SOL    HW131502   1.991   5.075   3.116
10201SOL    HW231503   1.844   5.116   3.057
10202SOL     OW31504   0.927   2.617   2.337
10202SOL    HW131505   0.969   2.557   2.405
10202SOL    HW231506   0.990   2.634   2.262
10203SOL     OW31507   0.878   3.256   1.877
10203SOL    HW131508   0.915   3.336   1.829
10203SOL    HW231509   0.889   3.175   1.820
10204SOL     OW31510   3.454   5.147   4.074
10204SOL    HW131511   3.495   5.077   4.015
10204SOL    HW231512   3.370   5.181   4.032
10205SOL     OW31513   4.530   1.503   2.685
10205SOL    HW131514   4.621   1.465   2.665
10205SOL    HW231515   4.520   1.515   2.783
10206SOL     OW31516   4.671   0.423   6.241
10206SOL    HW131517   4.669   0.387   6.147
10206SOL    HW231518   4.612   0.503   6.247
10207SOL     OW31519   4.211   1.167   2.959
10207SOL    HW131520   4.142   1.237   2.940
10207SOL    HW231521   4.171   1.076   2.946
10208SOL     OW31522   5.515   4.044   5.225
10208SOL    HW131523   5.463   3.959   5.233
10208SOL    HW231524   5.540   4.077   5.316
10209SOL     OW31525   5.369   6.901   6.690
10209SOL    HW131526   5.329   6.991   6.707
10209SOL    HW231527   5.416   6.901   6.602
10210SOL     OW31528   4.906   5.845   1.874
10210SOL    HW131529   4.936   5.809   1.786
10210SOL    HW231530   4.973   5.910   1.908
10211SOL     OW31531   3.502   6.099   5.135
10211SOL    HW131532   3.544   6.025   5.083
10211SOL    HW231533   3.521   6.086   5.233
10212SOL     OW31534   6.523   6.276   5.081
10212SOL    HW131535   6.437   6.251   5.124
10212SOL    HW231536   6.505   6.339   5.005
10213SOL     OW31537   5.307   0.614   3.748
10213SOL    HW131538   5.391   0.563   3.766
10213SOL    HW231539   5.273   0.653   3.833
10214SOL     OW31540   6.811   6.992   2.009
10214SOL    HW131541   6.787   0.065   2.003
10214SOL    HW231542   6.748   6.946   2.072
10215SOL     OW31543   3.537   2.565   0.192
10215SOL    HW131544   3.569   2.566   0.097
10215SOL    HW231545   3.512   2.658   0.219
10216SOL     OW31546   5.152   0.584   2.203
10216SOL    HW131547   5.244   0.553   2.178
10216SOL    HW231548   5.087   0.558   2.132
10217SOL     OW31549   3.162   2.078   5.864
10217SOL    HW131550   3.234   2.092   5.932
10217SOL    HW231551   3.153   2.160   5.808
10218SOL     OW31552   2.319   2.755   1.016
10218SOL    HW131553   2.239   2.710   0.977
10218SOL    HW231554   2.401   2.704   0.991
10219SOL     OW31555   0.910   4.031   0.717
10219SOL    HW131556   0.882   3.966   0.647
10219SOL    HW231557   0.943   3.982   0.798
10220SOL     OW31558   4.112   2.072   0.948
10220SOL    HW131559   4.061   2.043   0.867
10220SOL    HW231560   4.204   2.102   0.921
10221SOL     OW31561   3.083   0.834   5.332
10221SOL    HW131562   3.000   0.822   5.386
10221SOL    HW231563   3.066   0.806   5.238
10222SOL     OW31564   1.957   4.892   6.197
10222SOL    HW131565   1.981   4.803   6.237
10222SOL    HW231566   1.955   4.885   6.098
10223SOL     OW31567   6.566   4.794   0.258
10223SOL    HW131568   6.470   4.823   0.255
10223SOL    HW231569   6.624   4.874   0.272
10224SOL     OW31570   2.127   6.572   4.736
10224SOL    HW131571   2.150   6.668   4.743
10224SOL    HW231572   2.035   6.556   4.773
10225SOL     OW31573   5.508   5.834   4.606
10225SOL    HW131574   5.607   5.848   4.609
10225SOL    HW231575   5.482   5.766   4.674
10226SOL     OW31576   0.000   2.480   0.578
10226SOL    HW131577   6.970   2.515   0.654
10226SOL    HW231578   7.006   2.535   0.496
10227SOL     OW31579   5.455   5.950   6.628
10227SOL    HW131580   5.411   5.937   6.717
10227SOL    HW231581   5.553   5.965   6.642
10228SOL     OW31582   0.648   3.634   3.096
10228SOL    HW131583   0.613   3.694   3.024
10228SOL    HW231584   0.586   3.557   3.109
10229SOL     OW31585   2.193   0.859   2.002
10229SOL    HW131586   2.105   0.869   1.957
10229SOL    HW231587   2.267   0.873   1.936
10230SOL     OW31588   6.533   6.643   4.632
10230SOL    HW131589   6.553   6.561   4.578
10230SOL    HW231590   6.557   6.724   4.578
10231SOL     OW31591   4.485   6.477   4.259
10231SOL    HW131592   4.398   6.440   4.290
10231SOL    HW231593   4.506   6.442   4.168
10232SOL     OW31594   3.895   2.122   4.635
10232SOL    HW131595   3.904   2.029   4.671
10232SOL    HW231596   3.824   2.123   4.564
10233SOL     OW31597   4.680   1.096   5.580
10233SOL    HW131598   4.621   1.024   5.616
10233SOL    HW231599   4.775   1.064   5.577
10234SOL     OW31600   5.748   6.060   1.209
10234SOL    HW131601   5.780   6.153   1.224
10234SOL    HW231602   5.671   6.041   1.271
10235SOL     OW31603   5.223   1.611   6.054
10235SOL    HW131604   5.287   1.561   6.114
10235SOL    HW231605   5.151   1.651   6.110
10236SOL     OW31606   2.354   6.049   2.807
10236SOL    HW131607   2.264   6.087   2.825
10236SOL    HW231608   2.424   6.112   2.840
10237SOL     OW31609   6.884   2.452   3.415
10237SOL    HW131610   6.856   2.530   3.359
10237SOL    HW231611   6.974   2.470   3.455
10238SOL     OW31612   4.702   4.906   4.398
10238SOL    HW131613   4.619   4.937   4.351
10238SOL    HW231614   4.713   4.808   4.385
10239SOL     OW31615   6.964   3.741   4.058
10239SOL    HW131616   6.928   3.741   3.965
10239SOL    HW231617   6.915   3.808   4.113
10240SOL     OW31618   6.774   3.488   3.489
10240SOL    HW131619   6.744   3.578   3.458
10240SOL    HW231620   6.711   3.455   3.560
10241SOL     OW31621   2.293   1.446   3.552
10241SOL    HW131622   2.315   1.531   3.505
10241SOL    HW231623   2.193   1.435   3.556
10242SOL     OW31624   0.532   6.275   6.144
10242SOL    HW131625   0.446   6.236   6.111
10242SOL    HW231626   0.565   6.342   6.078
10243SOL     OW31627   0.756   5.818   2.792
10243SOL    HW131628   0.675   5.858   2.835
10243SOL    HW231629   0.755   5.839   2.694
10244SOL     OW31630   2.012   6.381   6.744
10244SOL    HW131631   1.991   6.429   6.659
10244SOL    HW231632   1.947   6.408   6.814
10245SOL     OW31633   2.122   2.281   6.757
10245SOL    HW131634   2.106   2.198   6.811
10245SOL    HW231635   2.212   2.318   6.780
10246SOL     OW31636   4.079   3.663   4.337
10246SOL    HW131637   4.156   3.671   4.400
10246SOL    HW231638   4.019   3.743   4.347
10247SOL     OW31639   1.547   5.798   5.625
10247SOL    HW131640   1.463   5.796   5.570
10247SOL    HW231641   1.556   5.887   5.669
10248SOL     OW31642   4.830   0.297   2.236
10248SOL    HW131643   4.767   0.362   2.278
10248SOL    HW231644   4.901   0.272   2.302
10249SOL     OW31645   3.817   1.135   0.105
10249SOL    HW131646   3.795   1.066   0.035
10249SOL    HW231647   3.916   1.136   0.119
10250SOL     OW31648   6.703   0.401   0.220
10250SOL    HW131649   6.764   0.326   0.243
10250SOL    HW231650   6.756   0.485   0.208
10251SOL     OW31651   3.788   4.592   6.472
10251SOL    HW131652   3.770   4.575   6.375
10251SOL    HW231653   3.852   4.668   6.481
10252SOL     OW31654   6.379   5.203   2.158
10252SOL    HW131655   6.464   5.240   2.120
10252SOL    HW231656   6.319   5.174   2.083
10253SOL     OW31657   3.539   4.961   6.534
10253SOL    HW131658   3.507   4.876   6.491
10253SOL    HW231659   3.462   5.024   6.543
10254SOL     OW31660   2.376   1.954   4.575
10254SOL    HW131661   2.347   1.920   4.665
10254SOL    HW231662   2.439   1.889   4.534
10255SOL     OW31663   2.815   5.942   3.069
10255SOL    HW131664   2.791   5.989   3.154
10255SOL    HW231665   2.756   5.863   3.056
10256SOL     OW31666   5.784   6.241   6.834
10256SOL    HW131667   5.872   6.223   6.878
10256SOL    HW231668   5.747   6.155   6.799
10257SOL     OW31669   1.745   6.664   6.371
10257SOL    HW131670   1.748   6.647   6.272
10257SOL    HW231671   1.667   6.617   6.411
10258SOL     OW31672   3.954   1.088   3.221
10258SOL    HW131673   3.948   0.997   3.179
10258SOL    HW231674   4.047   1.123   3.213
10259SOL     OW31675   0.809   3.617   3.351
10259SOL    HW131676   0.764   3.607   3.262
10259SOL    HW231677   0.888   3.555   3.356
10260SOL     OW31678   0.190   7.021   1.296
10260SOL    HW131679   0.199   0.080   1.352
10260SOL    HW231680   0.188   6.941   1.356
10261SOL     OW31681   2.095   6.555   1.676
10261SOL    HW131682   2.045   6.474   1.708
10261SOL    HW231683   2.053   6.637   1.714
10262SOL     OW31684   2.090   5.164   5.226
10262SOL    HW131685   2.088   5.156   5.127
10262SOL    HW231686   2.045   5.084   5.267
10263SOL     OW31687   6.016   1.818   6.199
10263SOL    HW131688   5.998   1.725   6.165
10263SOL    HW231689   6.114   1.827   6.217
10264SOL     OW31690   0.457   6.527   6.757
10264SOL    HW131691   0.542   6.481   6.784
10264SOL    HW231692   0.409   6.560   6.838
10265SOL     OW31693   4.604   1.738   2.216
10265SOL    HW131694   4.631   1.759   2.310
10265SOL    HW231695   4.550   1.812   2.179
10266SOL     OW31696   3.755   4.165   6.329
10266SOL    HW131697   3.791   4.073   6.344
10266SOL    HW231698   3.830   4.227   6.309
10267SOL     OW31699   5.925   1.775   6.452
10267SOL    HW131700   5.949   1.773   6.355
10267SOL    HW231701   5.921   1.869   6.484
10268SOL     OW31702   6.191   4.823   1.850
10268SOL    HW131703   6.171   4.845   1.755
10268SOL    HW231704   6.107   4.794   1.897
10269SOL     OW31705   2.690   2.946   6.029
10269SOL    HW131706   2.703   2.862   6.083
10269SOL    HW231707   2.688   3.025   6.090
10270SOL     OW31708   2.870   6.297   0.567
10270SOL    HW131709   2.966   6.279   0.543
10270SOL    HW231710   2.841   6.382   0.522
10271SOL     OW31711   3.730   5.186   0.788
10271SOL    HW131712   3.673   5.191   0.706
10271SOL    HW231713   3.673   5.172   0.868
10272SOL     OW31714   0.870   0.748   6.153
10272SOL    HW131715   0.945   0.798   6.196
10272SOL    HW231716   0.889   0.650   6.157
10273SOL     OW31717   4.387   5.842   4.699
10273SOL    HW131718   4.321   5.904   4.742
10273SOL    HW231719   4.368   5.836   4.601
10274SOL     OW31720   2.040   6.200   5.849
10274SOL    HW131721   2.101   6.275   5.876
10274SOL    HW231722   1.972   6.185   5.921
10275SOL     OW31723   0.870   6.159   2.067
10275SOL    HW131724   0.897   6.244   2.113
10275SOL    HW231725   0.895   6.165   1.970
10276SOL     OW31726   6.766   6.189   6.349
10276SOL    HW131727   6.809   6.274   6.318
10276SOL    HW231728   6.802   6.113   6.295
10277SOL     OW31729   1.795   5.288   3.419
10277SOL    HW131730   1.705   5.305   3.380
10277SOL    HW231731   1.817   5.191   3.413
10278SOL     OW31732   5.854   0.590   5.782
10278SOL    HW131733   5.763   0.631   5.792
10278SOL    HW231734   5.918   0.636   5.843
10279SOL     OW31735   3.327   6.456   3.656
10279SOL    HW131736   3.378   6.384   3.609
10279SOL    HW231737   3.303   6.528   3.591
10280SOL     OW31738   2.899   3.109   6.732
10280SOL    HW131739   2.956   3.140   6.656
10280SOL    HW231740   2.944   3.033   6.779
10281SOL     OW31741   4.200   6.802   3.644
10281SOL    HW131742   4.179   6.811   3.742
10281SOL    HW231743   4.215   6.892   3.605
10282SOL     OW31744   1.138   2.657   4.844
10282SOL    HW131745   1.222   2.659   4.790
10282SOL    HW231746   1.127   2.566   4.885
10283SOL     OW31747   0.957   3.420   5.922
10283SOL    HW131748   0.869   3.442   5.964
10283SOL    HW231749   0.941   3.370   5.837
10284SOL     OW31750   5.374   3.894   6.314
10284SOL    HW131751   5.422   3.806   6.317
10284SOL    HW231752   5.391   3.943   6.400
10285SOL     OW31753   5.940   0.145   0.571
10285SOL    HW131754   5.864   0.195   0.531
10285SOL    HW231755   5.972   0.192   0.653
10286SOL     OW31756   4.589   1.219   3.791
10286SOL    HW131757   4.575   1.167   3.707
10286SOL    HW231758   4.528   1.184   3.863
10287SOL     OW31759   2.329   5.839   1.723
10287SOL    HW131760   2.365   5.838   1.630
10287SOL    HW231761   2.394   5.793   1.784
10288SOL     OW31762   4.919   6.088   4.003
10288SOL    HW131763   4.863   6.032   4.063
10288SOL    HW231764   5.009   6.103   4.045
10289SOL     OW31765   2.890   1.597   1.653
10289SOL    HW131766   2.951   1.602   1.574
10289SOL    HW231767   2.840   1.684   1.661
10290SOL     OW31768   3.022   3.779   2.338
10290SOL    HW131769   2.930   3.741   2.338
10290SOL    HW231770   3.026   3.856   2.275
10291SOL     OW31771   3.667   0.293   6.028
10291SOL    HW131772   3.680   0.321   6.123
10291SOL    HW231773   3.587   0.234   6.022
10292SOL     OW31774   0.499   1.104   4.170
10292SOL    HW131775   0.432   1.031   4.182
10292SOL    HW231776   0.586   1.077   4.211
10293SOL     OW31777   2.305   5.769   2.754
10293SOL    HW131778   2.392   5.729   2.783
10293SOL    HW231779   2.313   5.869   2.755
10294SOL     OW31780   5.886   1.586   3.362
10294SOL    HW131781   5.966   1.547   3.316
10294SOL    HW231782   5.802   1.550   3.319
10295SOL     OW31783   1.032   5.164   5.559
10295SOL    HW131784   0.945   5.141   5.602
10295SOL    HW231785   1.083   5.080   5.540
10296SOL     OW31786   6.372   1.936   0.874
10296SOL    HW131787   6.314   1.865   0.915
10296SOL    HW231788   6.453   1.949   0.931
10297SOL     OW31789   1.968   5.225   4.098
10297SOL    HW131790   2.060   5.265   4.089
10297SOL    HW231791   1.916   5.244   4.014
10298SOL     OW31792   5.578   3.364   3.714
10298SOL    HW131793   5.537   3.322   3.633
10298SOL    HW231794   5.654   3.423   3.686
10299SOL     OW31795   4.809   4.907   2.384
10299SOL    HW131796   4.853   4.821   2.409
10299SOL    HW231797   4.713   4.906   2.413
10300SOL     OW31798   2.171   5.035   2.703
10300SOL    HW131799   2.112   5.110   2.671
10300SOL    HW231800   2.118   4.950   2.706
10301SOL     OW31801   5.547   1.677   1.604
10301SOL    HW131802   5.517   1.607   1.538
10301SOL    HW231803   5.644   1.694   1.593
10302SOL     OW31804   1.654   5.359   3.061
10302SOL    HW131805   1.683   5.434   3.003
10302SOL    HW231806   1.675   5.272   3.017
10303SOL     OW31807   3.476   2.877   0.825
10303SOL    HW131808   3.385   2.885   0.785
10303SOL    HW231809   3.539   2.840   0.756
10304SOL     OW31810   6.088   6.570   3.614
10304SOL    HW131811   6.013   6.505   3.619
10304SOL    HW231812   6.051   6.662   3.599
10305SOL     OW31813   1.954   5.945   1.291
10305SOL    HW131814   1.942   6.028   1.236
10305SOL    HW231815   1.937   5.865   1.233
10306SOL     OW31816   4.471   5.035   0.390
10306SOL    HW131817   4.421   4.952   0.364
10306SOL    HW231818   4.442   5.110   0.331
10307SOL     OW31819   2.557   1.248   5.306
10307SOL    HW131820   2.538   1.150   5.314
10307SOL    HW231821   2.471   1.299   5.304
10308SOL     OW31822   3.270   5.591   3.608
10308SOL    HW131823   3.272   5.690   3.594
10308SOL    HW231824   3.176   5.558   3.602
10309SOL     OW31825   0.699   6.477   3.326
10309SOL    HW131826   0.797   6.477   3.346
10309SOL    HW231827   0.667   6.384   3.310
10310SOL     OW31828   3.982   3.242   3.702
10310SOL    HW131829   3.988   3.159   3.757
10310SOL    HW231830   4.011   3.321   3.757
10311SOL     OW31831   0.065   6.102   0.393
10311SOL    HW131832   0.112   6.187   0.371
10311SOL    HW231833   0.121   6.048   0.456
10312SOL     OW31834   1.756   4.773   1.049
10312SOL    HW131835   1.814   4.854   1.035
10312SOL    HW231836   1.779   4.703   0.982
10313SOL     OW31837   5.622   5.902   3.363
10313SOL    HW131838   5.706   5.852   3.386
10313SOL    HW231839   5.633   5.998   3.390
10314SOL     OW31840   6.372   5.521   6.516
10314SOL    HW131841   6.355   5.617   6.490
10314SOL    HW231842   6.287   5.469   6.509
10315SOL     OW31843   6.107   5.813   4.663
10315SOL    HW131844   6.165   5.784   4.739
10315SOL    HW231845   6.067   5.902   4.684
10316SOL     OW31846   0.087   3.903   2.631
10316SOL    HW131847   0.035   3.986   2.652
10316SOL    HW231848   0.135   3.872   2.713
10317SOL     OW31849   3.521   4.702   1.122
10317SOL    HW131850   3.576   4.694   1.038
10317SOL    HW231851   3.443   4.639   1.116
10318SOL     OW31852   6.432   5.876   2.242
10318SOL    HW131853   6.472   5.800   2.293
10318SOL    HW231854   6.478   5.885   2.154
10319SOL     OW31855   5.083   6.321   4.226
10319SOL    HW131856   4.984   6.336   4.221
10319SOL    HW231857   5.104   6.227   4.198
10320SOL     OW31858   4.625   6.498   0.939
10320SOL    HW131859   4.538   6.492   0.891
10320SOL    HW231860   4.698   6.519   0.873
10321SOL     OW31861   4.259   6.339   4.323
10321SOL    HW131862   4.221   6.279   4.252
10321SOL    HW231863   4.184   6.381   4.374
10322SOL     OW31864   6.530   2.552   6.970
10322SOL    HW131865   6.441   2.596   6.959
10322SOL    HW231866   6.601   2.622   6.978
10323SOL     OW31867   5.769   2.358   5.066
10323SOL    HW131868   5.821   2.427   5.116
10323SOL    HW231869   5.671   2.377   5.075
10324SOL     OW31870   2.983   3.888   3.856
10324SOL    HW131871   3.019   3.927   3.772
10324SOL    HW231872   2.989   3.788   3.853
10325SOL     OW31873   0.958   3.762   3.726
10325SOL    HW131874   0.912   3.678   3.753
10325SOL    HW231875   0.943   3.778   3.628
10326SOL     OW31876   4.631   1.463   1.375
10326SOL    HW131877   4.722   1.421   1.369
10326SOL    HW231878   4.638   1.551   1.422
10327SOL     OW31879   0.111   0.916   3.996
10327SOL    HW131880   0.147   0.906   3.903
10327SOL    HW231881   0.077   0.828   4.029
10328SOL     OW31882   6.007   2.995   2.193
10328SOL    HW131883   6.034   3.053   2.117
10328SOL    HW231884   5.920   2.950   2.172
10329SOL     OW31885   3.976   6.100   2.285
10329SOL    HW131886   4.037   6.034   2.328
10329SOL    HW231887   4.003   6.113   2.189
10330SOL     OW31888   3.787   4.489   1.024
10330SOL    HW131889   3.733   4.410   0.995
10330SOL    HW231890   3.787   4.495   1.124
10331SOL     OW31891   5.669   0.654   4.445
10331SOL    HW131892   5.610   0.732   4.423
10331SOL    HW231893   5.714   0.669   4.533
10332SOL     OW31894   0.217   1.868   6.861
10332SOL    HW131895   0.255   1.807   6.930
10332SOL    HW231896   0.118   1.877   6.875
10333SOL     OW31897   4.765   4.122   4.475
10333SOL    HW131898   4.719   4.095   4.559
10333SOL    HW231899   4.758   4.048   4.408
10334SOL     OW31900   0.918   4.818   4.902
10334SOL    HW131901   0.926   4.854   4.994
10334SOL    HW231902   1.005   4.828   4.854
10335SOL     OW31903   2.019   5.362   1.752
10335SOL    HW131904   1.971   5.328   1.833
10335SOL    HW231905   1.982   5.451   1.725
10336SOL     OW31906   4.413   6.878   2.818
10336SOL    HW131907   4.462   6.811   2.763
10336SOL    HW231908   4.461   6.892   2.904
10337SOL     OW31909   0.850   4.880   5.146
10337SOL    HW131910   0.757   4.911   5.165
10337SOL    HW231911   0.895   4.857   5.233
10338SOL     OW31912   3.766   4.854   3.306
10338SOL    HW131913   3.820   4.827   3.226
10338SOL    HW231914   3.819   4.836   3.389
10339SOL     OW31915   3.100   5.398   0.587
10339SOL    HW131916   3.072   5.362   0.676
10339SOL    HW231917   3.123   5.495   0.596
10340SOL     OW31918   1.678   6.706   6.689
10340SOL    HW131919   1.676   6.696   6.789
10340SOL    HW231920   1.619   6.637   6.647
10341SOL     OW31921   1.604   1.807   2.599
10341SOL    HW131922   1.700   1.831   2.612
10341SOL    HW231923   1.580   1.815   2.502
10342SOL     OW31924   2.737   6.973   4.413
10342SOL    HW131925   2.692   7.021   4.487
10342SOL    HW231926   2.744   6.876   4.435
10343SOL     OW31927   1.981   2.803   4.098
10343SOL    HW131928   1.991   2.837   4.004
10343SOL    HW231929   1.991   2.880   4.162
10344SOL     OW31930   4.123   3.928   6.921
10344SOL    HW131931   4.087   3.883   7.002
10344SOL    HW231932   4.219   3.906   6.910
10345SOL     OW31933   1.578   1.792   5.930
10345SOL    HW131934   1.650   1.731   5.961
10345SOL    HW231935   1.613   1.851   5.858
10346SOL     OW31936   5.340   5.476   0.288
10346SOL    HW131937   5.250   5.441   0.264
10346SOL    HW231938   5.408   5.404   0.274
10347SOL     OW31939   4.741   1.720   1.678
10347SOL    HW131940   4.823   1.693   1.728
10347SOL    HW231941   4.666   1.738   1.742
10348SOL     OW31942   6.969   4.931   5.948
10348SOL    HW131943   6.876   4.935   5.982
10348SOL    HW231944   0.010   4.945   6.023
10349SOL     OW31945   6.952   1.489   0.901
10349SOL    HW131946   0.001   1.472   0.834
10349SOL    HW231947   6.965   1.429   0.980
10350SOL     OW31948   2.298   4.345   4.465
10350SOL    HW131949   2.268   4.353   4.560
10350SOL    HW231950   2.262   4.260   4.425
10351SOL     OW31951   4.595   4.436   4.934
10351SOL    HW131952   4.508   4.481   4.953
10351SOL    HW231953   4.639   4.480   4.855
10352SOL     OW31954   5.236   1.311   6.830
10352SOL    HW131955   5.144   1.344   6.850
10352SOL    HW231956   5.232   1.214   6.804
10353SOL     OW31957   6.602   2.867   3.501
10353SOL    HW131958   6.667   2.912   3.439
10353SOL    HW231959   6.536   2.815   3.447
10354SOL     OW31960   6.253   2.985   1.068
10354SOL    HW131961   6.331   2.944   1.116
10354SOL    HW231962   6.237   3.077   1.104
10355SOL     OW31963   0.326   1.606   1.104
10355SOL    HW131964   0.270   1.659   1.041
10355SOL    HW231965   0.268   1.560   1.171
10356SOL     OW31966   5.815   3.478   5.890
10356SOL    HW131967   5.899   3.441   5.931
10356SOL    HW231968   5.833   3.572   5.858
10357SOL     OW31969   0.705   0.901   5.968
10357SOL    HW131970   0.762   0.828   6.008
10357SOL    HW231971   0.647   0.941   6.040
10358SOL     OW31972   0.658   2.307   2.938
10358SOL    HW131973   0.711   2.374   2.886
10358SOL    HW231974   0.612   2.352   3.014
10359SOL     OW31975   5.853   2.220   1.936
10359SOL    HW131976   5.850   2.295   1.870
10359SOL    HW231977   5.933   2.230   1.995
10360SOL     OW31978   5.853   4.463   1.879
10360SOL    HW131979   5.821   4.415   1.797
10360SOL    HW231980   5.951   4.478   1.872
10361SOL     OW31981   6.732   1.739   2.482
10361SOL    HW131982   6.807   1.780   2.534
10361SOL    HW231983   6.646   1.780   2.512
10362SOL     OW31984   0.949   5.866   1.552
10362SOL    HW131985   0.870   5.850   1.611
10362SOL    HW231986   0.981   5.779   1.514
10363SOL     OW31987   5.440   4.478   6.680
10363SOL    HW131988   5.371   4.550   6.673
10363SOL    HW231989   5.494   4.491   6.763
10364SOL     OW31990   6.185   4.620   2.537
10364SOL    HW131991   6.228   4.593   2.623
10364SOL    HW231992   6.160   4.538   2.486
10365SOL     OW31993   5.659   5.279   0.545
10365SOL    HW131994   5.668   5.358   0.484
10365SOL    HW231995   5.582   5.294   0.608
10366SOL     OW31996   2.728   6.396   3.231
10366SOL    HW131997   2.755   6.355   3.144
10366SOL    HW231998   2.645   6.352   3.265
10367SOL     OW31999   6.032   6.425   1.707
10367SOL    HW132000   6.099   6.440   1.634
10367SOL    HW232001   5.967   6.355   1.679
10368SOL     OW32002   1.907   6.691   1.449
10368SOL    HW132003   1.869   6.617   1.505
10368SOL    HW232004   1.957   6.652   1.372
10369SOL     OW32005   2.977   6.830   6.036
10369SOL    HW132006   3.057   6.871   6.079
10369SOL    HW232007   2.982   6.730   6.045
10370SOL     OW32008   1.371   0.557   6.029
10370SOL    HW132009   1.345   0.642   5.982
10370SOL    HW232010   1.387   0.485   5.961
10371SOL     OW32011   4.716   5.333   3.051
10371SOL    HW132012   4.758   5.244   3.035
10371SOL    HW232013   4.668   5.363   2.968
10372SOL     OW32014   3.046   6.441   1.771
10372SOL    HW132015   2.980   6.395   1.830
10372SOL    HW232016   3.133   6.451   1.819
10373SOL     OW32017   6.744   1.564   6.402
10373SOL    HW132018   6.838   1.546   6.373
10373SOL    HW232019   6.730   1.529   6.494
10374SOL     OW32020   3.826   5.590   3.408
10374SOL    HW132021   3.800   5.584   3.505
10374SOL    HW232022   3.810   5.501   3.364
10375SOL     OW32023   2.380   4.698   0.069
10375SOL    HW132024   2.281   4.692   0.087
10375SOL    HW232025   2.429   4.714   0.154
10376SOL     OW32026   2.235   5.135   3.381
10376SOL    HW132027   2.326   5.142   3.422
10376SOL    HW232028   2.177   5.076   3.439
10377SOL     OW32029   1.774   1.071   2.026
10377SOL    HW132030   1.827   1.006   2.081
10377SOL    HW232031   1.826   1.156   2.016
10378SOL     OW32032   0.099   5.465   4.191
10378SOL    HW132033   0.179   5.477   4.133
10378SOL    HW232034   0.070   5.369   4.190
10379SOL     OW32035   1.891   6.558   4.349
10379SOL    HW132036   1.895   6.519   4.257
10379SOL    HW232037   1.951   6.638   4.354
10380SOL     OW32038   2.611   2.282   4.441
10380SOL    HW132039   2.701   2.260   4.479
10380SOL    HW232040   2.622   2.308   4.345
10381SOL     OW32041   4.389   6.232   2.109
10381SOL    HW132042   4.464   6.167   2.100
10381SOL    HW232043   4.302   6.183   2.111
10382SOL     OW32044   4.201   6.006   1.817
10382SOL    HW132045   4.202   5.989   1.719
10382SOL    HW232046   4.288   5.977   1.857
10383SOL     OW32047   1.362   4.472   0.375
10383SOL    HW132048   1.455   4.496   0.348
10383SOL    HW232049   1.354   4.476   0.475
10384SOL     OW32050   5.862   6.218   1.615
10384SOL    HW132051   5.862   6.121   1.638
10384SOL    HW232052   5.769   6.254   1.622
10385SOL     OW32053   4.454   4.736   6.821
10385SOL    HW132054   4.508   4.796   6.881
10385SOL    HW232055   4.499   4.647   6.814
10386SOL     OW32056   0.167   1.124   0.722
10386SOL    HW132057   0.147   1.028   0.740
10386SOL    HW232058   0.249   1.151   0.773
10387SOL     OW32059   5.124   3.432   2.123
10387SOL    HW132060   5.148   3.443   2.027
10387SOL    HW232061   5.164   3.348   2.158
10388SOL     OW32062   2.562   0.363   5.057
10388SOL    HW132063   2.504   0.288   5.088
10388SOL    HW232064   2.651   0.358   5.103
10389SOL     OW32065   0.590   3.817   0.706
10389SOL    HW132066   0.556   3.911   0.707
10389SOL    HW232067   0.529   3.760   0.652
10390SOL     OW32068   2.441   2.202   1.481
10390SOL    HW132069   2.344   2.179   1.496
10390SOL    HW232070   2.460   2.290   1.525
10391SOL     OW32071   5.318   0.009   4.256
10391SOL    HW132072   5.287   7.000   4.345
10391SOL    HW232073   5.394   6.975   4.224
10392SOL     OW32074   6.526   3.887   4.010
10392SOL    HW132075   6.596   3.890   3.940
10392SOL    HW232076   6.500   3.792   4.029
10393SOL     OW32077   1.509   3.406   3.847
10393SOL    HW132078   1.586   3.353   3.812
10393SOL    HW232079   1.425   3.352   3.838
10394SOL     OW32080   3.270   6.530   4.617
10394SOL    HW132081   3.183   6.515   4.570
10394SOL    HW232082   3.305   6.443   4.651
10395SOL     OW32083   1.098   0.752   1.018
10395SOL    HW132084   1.003   0.782   1.030
10395SOL    HW232085   1.156   0.795   1.087
10396SOL     OW32086   2.755   2.361   4.901
10396SOL    HW132087   2.830   2.385   4.839
10396SOL    HW232088   2.672   2.410   4.874
10397SOL     OW32089   3.671   2.071   2.736
10397SOL    HW132090   3.712   2.108   2.653
10397SOL    HW232091   3.730   2.090   2.815
10398SOL     OW32092   6.630   2.648   1.617
10398SOL    HW132093   6.550   2.592   1.637
10398SOL    HW232094   6.712   2.601   1.650
10399SOL     OW32095   6.488   3.619   1.882
10399SOL    HW132096   6.507   3.599   1.978
10399SOL    HW232097   6.401   3.576   1.856
10400SOL     OW32098   4.134   6.377   0.136
10400SOL    HW132099   4.231   6.393   0.156
10400SOL    HW232100   4.079   6.404   0.215
10401SOL     OW32101   0.228   1.219   5.455
10401SOL    HW132102   0.182   1.155   5.517
10401SOL    HW232103   0.163   1.289   5.426
10402SOL     OW32104   6.905   2.810   4.798
10402SOL    HW132105   7.004   2.822   4.812
10402SOL    HW232106   6.876   2.864   4.719
10403SOL     OW32107   2.580   0.633   2.689
10403SOL    HW132108   2.598   0.665   2.596
10403SOL    HW232109   2.576   0.712   2.751
10404SOL     OW32110   0.188   6.661   6.749
10404SOL    HW132111   0.263   6.608   6.710
10404SOL    HW232112   0.115   6.671   6.681
10405SOL     OW32113   7.016   1.198   6.085
10405SOL    HW132114   6.995   1.157   6.174
10405SOL    HW232115   0.084   1.238   6.088
10406SOL     OW32116   2.892   4.835   1.824
10406SOL    HW132117   2.893   4.753   1.881
10406SOL    HW232118   2.812   4.833   1.764
10407SOL     OW32119   3.003   6.712   0.161
10407SOL    HW132120   2.973   6.749   0.249
10407SOL    HW232121   3.063   6.633   0.176
10408SOL     OW32122   4.168   0.646   0.780
10408SOL    HW132123   4.077   0.607   0.795
10408SOL    HW232124   4.237   0.584   0.818
10409SOL     OW32125   5.852   4.863   1.336
10409SOL    HW132126   5.863   4.948   1.387
10409SOL    HW232127   5.921   4.797   1.366
10410SOL     OW32128   5.577   0.681   0.900
10410SOL    HW132129   5.552   0.611   0.968
10410SOL    HW232130   5.675   0.676   0.882
10411SOL     OW32131   2.996   5.249   3.199
10411SOL    HW132132   3.068   5.230   3.266
10411SOL    HW232133   2.933   5.171   3.196
10412SOL     OW32134   6.329   0.251   0.751
10412SOL    HW132135   6.400   0.249   0.681
10412SOL    HW232136   6.328   0.341   0.794
10413SOL     OW32137   5.788   2.248   0.892
10413SOL    HW132138   5.853   2.194   0.946
10413SOL    HW232139   5.811   2.242   0.795
10414SOL     OW32140   4.654   2.694   4.291
10414SOL    HW132141   4.661   2.736   4.381
10414SOL    HW232142   4.709   2.611   4.289
10415SOL     OW32143   0.966   5.989   6.653
10415SOL    HW132144   0.935   5.960   6.744
10415SOL    HW232145   0.986   5.908   6.597
10416SOL     OW32146   5.883   3.228   4.673
10416SOL    HW132147   5.825   3.304   4.643
10416SOL    HW232148   5.851   3.143   4.631
10417SOL     OW32149   2.669   4.971   4.093
10417SOL    HW132150   2.617   4.967   4.178
10417SOL    HW232151   2.607   4.988   4.017
10418SOL     OW32152   0.883   4.488   5.494
10418SOL    HW132153   0.885   4.512   5.397
10418SOL    HW232154   0.927   4.399   5.508
10419SOL     OW32155   1.163   1.080   0.774
10419SOL    HW132156   1.090   1.024   0.735
10419SOL    HW232157   1.190   1.150   0.708
10420SOL     OW32158   6.835   3.162   2.958
10420SOL    HW132159   6.892   3.218   3.017
10420SOL    HW232160   6.741   3.160   2.994
10421SOL     OW32161   1.094   0.649   3.321
10421SOL    HW132162   1.058   0.585   3.254
10421SOL    HW232163   1.040   0.734   3.318
10422SOL     OW32164   6.197   2.810   6.204
10422SOL    HW132165   6.106   2.812   6.245
10422SOL    HW232166   6.216   2.898   6.160
10423SOL     OW32167   4.637   4.328   3.663
10423SOL    HW132168   4.698   4.334   3.584
10423SOL    HW232169   4.564   4.397   3.654
10424SOL     OW32170   4.942   1.741   6.775
10424SOL    HW132171   4.849   1.737   6.811
10424SOL    HW232172   4.992   1.815   6.820
10425SOL     OW32173   1.208   5.824   2.654
10425SOL    HW132174   1.150   5.852   2.578
10425SOL    HW232175   1.214   5.724   2.657
10426SOL     OW32176   6.275   4.649   0.090
10426SOL    HW132177   6.276   4.740   0.049
10426SOL    HW232178   6.201   4.643   0.156
10427SOL     OW32179   5.418   2.181   0.477
10427SOL    HW132180   5.497   2.215   0.426
10427SOL    HW232181   5.334   2.205   0.429
10428SOL     OW32182   4.632   0.448   4.202
10428SOL    HW132183   4.730   0.437   4.188
10428SOL    HW232184   4.601   0.385   4.273
10429SOL     OW32185   6.954   5.932   1.701
10429SOL    HW132186   6.967   5.861   1.771
10429SOL    HW232187   0.020   5.960   1.666
10430SOL     OW32188   4.071   6.655   2.562
10430SOL    HW132189   4.062   6.727   2.492
10430SOL    HW232190   3.981   6.617   2.582
10431SOL     OW32191   2.951   0.359   4.282
10431SOL    HW132192   2.978   0.445   4.239
10431SOL    HW232193   3.029   0.296   4.284
10432SOL     OW32194   6.198   0.845   4.457
10432SOL    HW132195   6.127   0.777   4.476
10432SOL    HW232196   6.265   0.808   4.394
10433SOL     OW32197   2.043   6.608   1.189
10433SOL    HW132198   2.120   6.551   1.216
10433SOL    HW232199   2.062   6.649   1.099
10434SOL     OW32200   2.720   0.461   3.863
10434SOL    HW132201   2.634   0.424   3.897
10434SOL    HW232202   2.796   0.410   3.903
10435SOL     OW32203   5.608   6.550   6.213
10435SOL    HW132204   5.680   6.582   6.151
10435SOL    HW232205   5.611   6.450   6.219
10436SOL     OW32206   1.525   4.914   4.100
10436SOL    HW132207   1.484   4.876   4.017
10436SOL    HW232208   1.612   4.958   4.078
10437SOL     OW32209   6.679   5.150   5.868
10437SOL    HW132210   6.723   5.064   5.892
10437SOL    HW232211   6.580   5.140   5.878
10438SOL     OW32212   4.419   6.871   0.199
10438SOL    HW132213   4.351   6.926   0.248
10438SOL    HW232214   4.395   6.774   0.206
10439SOL     OW32215   3.822   0.049   5.847
10439SOL    HW132216   3.788   7.006   5.779
10439SOL    HW232217   3.770   0.134   5.839
10440SOL     OW32218   1.766   6.474   1.280
10440SOL    HW132219   1.866   6.470   1.276
10440SOL    HW232220   1.734   6.554   1.229
10441SOL     OW32221   5.467   2.458   6.442
10441SOL    HW132222   5.394   2.415   6.388
10441SOL    HW232223   5.442   2.454   6.539
10442SOL     OW32224   3.921   4.717   5.576
10442SOL    HW132225   3.858   4.707   5.654
10442SOL    HW232226   3.868   4.720   5.491
10443SOL     OW32227   5.665   3.712   5.116
10443SOL    HW132228   5.611   3.769   5.179
10443SOL    HW232229   5.621   3.711   5.026
10444SOL     OW32230   3.975   5.403   5.036
10444SOL    HW132231   3.963   5.486   5.091
10444SOL    HW232232   3.947   5.420   4.942
10445SOL     OW32233   6.859   6.352   4.678
10445SOL    HW132234   6.777   6.371   4.732
10445SOL    HW232235   6.909   6.437   4.661
10446SOL     OW32236   1.328   5.037   5.722
10446SOL    HW132237   1.379   5.085   5.793
10446SOL    HW232238   1.236   5.017   5.755
10447SOL     OW32239   6.147   2.239   1.049
10447SOL    HW132240   6.078   2.213   1.117
10447SOL    HW232241   6.131   2.333   1.019
10448SOL     OW32242   4.039   3.881   2.151
10448SOL    HW132243   4.119   3.940   2.135
10448SOL    HW232244   4.068   3.785   2.150
10449SOL     OW32245   2.910   5.484   4.372
10449SOL    HW132246   2.877   5.455   4.282
10449SOL    HW232247   2.999   5.442   4.390
10450SOL     OW32248   6.872   2.031   0.667
10450SOL    HW132249   6.959   2.081   0.664
10450SOL    HW232250   6.877   1.953   0.605
10451SOL     OW32251   2.620   4.562   2.965
10451SOL    HW132252   2.580   4.505   3.036
10451SOL    HW232253   2.579   4.539   2.877
10452SOL     OW32254   1.005   2.948   3.601
10452SOL    HW132255   1.078   2.949   3.669
10452SOL    HW232256   0.952   3.032   3.608
10453SOL     OW32257   4.901   6.286   1.721
10453SOL    HW132258   4.916   6.271   1.819
10453SOL    HW232259   4.933   6.378   1.696
10454SOL     OW32260   5.129   3.163   2.178
10454SOL    HW132261   5.203   3.098   2.159
10454SOL    HW232262   5.110   3.165   2.276
10455SOL     OW32263   6.882   4.783   3.843
10455SOL    HW132264   6.801   4.814   3.793
10455SOL    HW232265   6.855   4.743   3.930
10456SOL     OW32266   4.431   6.208   1.091
10456SOL    HW132267   4.350   6.260   1.117
10456SOL    HW232268   4.511   6.245   1.138
10457SOL     OW32269   4.082   3.730   3.411
10457SOL    HW132270   4.074   3.632   3.431
10457SOL    HW232271   4.070   3.745   3.313
10458SOL     OW32272   0.941   6.756   0.865
10458SOL    HW132273   0.854   6.728   0.905
10458SOL    HW232274   0.928   6.781   0.769
10459SOL     OW32275   6.275   5.578   2.839
10459SOL    HW132276   6.329   5.540   2.915
10459SOL    HW232277   6.178   5.579   2.864
10460SOL     OW32278   2.142   5.070   1.925
10460SOL    HW132279   2.204   5.068   1.847
10460SOL    HW232280   2.171   5.143   1.988
10461SOL     OW32281   2.904   1.083   6.825
10461SOL    HW132282   2.951   1.035   6.752
10461SOL    HW232283   2.853   1.161   6.788
10462SOL     OW32284   6.613   0.436   0.909
10462SOL    HW132285   6.538   0.491   0.871
10462SOL    HW232286   6.654   0.486   0.986
10463SOL     OW32287   2.918   4.955   0.290
10463SOL    HW132288   2.852   4.973   0.364
10463SOL    HW232289   2.901   5.018   0.215
10464SOL     OW32290   5.626   0.487   1.097
10464SOL    HW132291   5.716   0.480   1.139
10464SOL    HW232292   5.560   0.433   1.149
10465SOL     OW32293   6.398   5.129   5.961
10465SOL    HW132294   6.336   5.051   5.953
10465SOL    HW232295   6.430   5.137   6.055
10466SOL     OW32296   4.809   6.287   6.021
10466SOL    HW132297   4.768   6.258   5.935
10466SOL    HW232298   4.768   6.235   6.096
10467SOL     OW32299   2.792   1.115   5.358
10467SOL    HW132300   2.723   1.184   5.339
10467SOL    HW232301   2.747   1.030   5.386
10468SOL     OW32302   2.969   6.617   3.874
10468SOL    HW132303   2.918   6.618   3.960
10468SOL    HW232304   3.020   6.532   3.866
10469SOL     OW32305   1.506   4.509   0.872
10469SOL    HW132306   1.414   4.480   0.845
10469SOL    HW232307   1.513   4.608   0.864
10470SOL     OW32308   2.547   1.753   4.446
10470SOL    HW132309   2.591   1.767   4.358
10470SOL    HW232310   2.499   1.666   4.446
10471SOL     OW32311   2.948   3.604   0.859
10471SOL    HW132312   2.988   3.515   0.882
10471SOL    HW232313   2.881   3.629   0.929
10472SOL     OW32314   4.312   1.346   2.057
10472SOL    HW132315   4.369   1.274   2.098
10472SOL    HW232316   4.312   1.336   1.957
10473SOL     OW32317   4.909   6.321   0.392
10473SOL    HW132318   4.855   6.246   0.355
10473SOL    HW232319   4.936   6.301   0.486
10474SOL     OW32320   4.114   0.465   4.862
10474SOL    HW132321   4.042   0.472   4.793
10474SOL    HW232322   4.203   0.474   4.818
10475SOL     OW32323   4.175   0.007   1.819
10475SOL    HW132324   4.190   6.944   1.772
10475SOL    HW232325   4.262   0.057   1.825
10476SOL     OW32326   0.063   5.372   6.998
10476SOL    HW132327   0.016   5.299   6.947
10476SOL    HW232328   0.055   5.458   6.947
10477SOL     OW32329   5.251   4.248   5.182
10477SOL    HW132330   5.164   4.294   5.164
10477SOL    HW232331   5.236   4.173   5.246
10478SOL     OW32332   0.182   6.472   1.353
10478SOL    HW132333   0.116   6.543   1.327
10478SOL    HW232334   0.274   6.509   1.348
10479SOL     OW32335   1.267   3.871   3.432
10479SOL    HW132336   1.305   3.903   3.519
10479SOL    HW232337   1.314   3.788   3.404
10480SOL     OW32338   5.901   0.174   2.173
10480SOL    HW132339   5.829   0.202   2.236
10480SOL    HW232340   5.863   0.164   2.081
10481SOL     OW32341   2.136   0.636   5.230
10481SOL    HW132342   2.120   0.727   5.192
10481SOL    HW232343   2.051   0.585   5.231
10482SOL     OW32344   1.839   5.506   5.638
10482SOL    HW132345   1.807   5.483   5.546
10482SOL    HW232346   1.870   5.602   5.639
10483SOL     OW32347   0.119   5.019   0.083
10483SOL    HW132348   0.040   5.040   0.026
10483SOL    HW232349   0.096   5.035   0.179
10484SOL     OW32350   6.486   1.212   1.504
10484SOL    HW132351   6.466   1.218   1.406
10484SOL    HW232352   6.424   1.274   1.554
10485SOL     OW32353   3.435   4.011   3.347
10485SOL    HW132354   3.523   3.967   3.329
10485SOL    HW232355   3.438   4.057   3.435
10486SOL     OW32356   6.322   6.663   5.713
10486SOL    HW132357   6.362   6.572   5.699
10486SOL    HW232358   6.257   6.659   5.789
10487SOL     OW32359   4.734   2.625   1.782
10487SOL    HW132360   4.677   2.700   1.746
10487SOL    HW232361   4.794   2.591   1.709
10488SOL     OW32362   6.086   2.540   6.114
10488SOL    HW132363   6.057   2.469   6.177
10488SOL    HW232364   6.125   2.616   6.165
10489SOL     OW32365   6.287   4.504   4.946
10489SOL    HW132366   6.338   4.558   5.014
10489SOL    HW232367   6.221   4.563   4.899
10490SOL     OW32368   5.436   6.650   6.539
10490SOL    HW132369   5.403   6.691   6.454
10490SOL    HW232370   5.526   6.609   6.523
10491SOL     OW32371   1.898   2.656   6.378
10491SOL    HW132372   1.957   2.707   6.316
10491SOL    HW232373   1.948   2.577   6.414
10492SOL     OW32374   3.816   1.117   0.393
10492SOL    HW132375   3.791   1.140   0.488
10492SOL    HW232376   3.743   1.149   0.332
10493SOL     OW32377   4.551   5.929   0.780
10493SOL    HW132378   4.528   6.025   0.793
10493SOL    HW232379   4.651   5.918   0.785
10494SOL     OW32380   0.903   4.866   5.429
10494SOL    HW132381   0.992   4.908   5.416
10494SOL    HW232382   0.905   4.807   5.510
10495SOL     OW32383   0.159   6.547   0.731
10495SOL    HW132384   0.238   6.608   0.744
10495SOL    HW232385   0.175   6.462   0.782
10496SOL     OW32386   0.240   3.741   5.188
10496SOL    HW132387   0.232   3.814   5.120
10496SOL    HW232388   0.281   3.660   5.146
10497SOL     OW32389   2.282   0.367   1.127
10497SOL    HW132390   2.224   0.399   1.202
10497SOL    HW232391   2.248   0.404   1.041
10498SOL     OW32392   4.297   4.518   0.219
10498SOL    HW132393   4.391   4.487   0.235
10498SOL    HW232394   4.239   4.493   0.297
10499SOL     OW32395   6.203   4.852   2.748
10499SOL    HW132396   6.189   4.819   2.841
10499SOL    HW232397   6.195   4.775   2.684
10500SOL     OW32398   6.777   3.379   5.473
10500SOL    HW132399   6.769   3.280   5.462
10500SOL    HW232400   6.834   3.416   5.400
10501SOL     OW32401   3.599   4.909   2.704
10501SOL    HW132402   3.638   5.001   2.694
10501SOL    HW232403   3.503   4.911   2.676
10502SOL     OW32404   3.219   3.523   2.371
10502SOL    HW132405   3.242   3.454   2.303
10502SOL    HW232406   3.147   3.583   2.336
10503SOL     OW32407   6.329   2.459   6.452
10503SOL    HW132408   6.314   2.427   6.358
10503SOL    HW232409   6.307   2.385   6.516
10504SOL     OW32410   1.334   2.826   5.824
10504SOL    HW132411   1.277   2.805   5.904
10504SOL    HW232412   1.320   2.755   5.754
10505SOL     OW32413   5.829   6.425   0.854
10505SOL    HW132414   5.767   6.437   0.777
10505SOL    HW232415   5.815   6.500   0.920
10506SOL     OW32416   1.022   2.670   0.316
10506SOL    HW132417   0.957   2.705   0.383
10506SOL    HW232418   1.110   2.716   0.327
10507SOL     OW32419   1.297   5.570   6.207
10507SOL    HW132420   1.357   5.503   6.251
10507SOL    HW232421   1.325   5.583   6.112
10508SOL     OW32422   1.762   4.915   4.561
10508SOL    HW132423   1.710   4.840   4.603
10508SOL    HW232424   1.833   4.946   4.624
10509SOL     OW32425   4.816   2.709   3.502
10509SOL    HW132426   4.778   2.651   3.574
10509SOL    HW232427   4.847   2.796   3.542
10510SOL     OW32428   5.391   5.663   3.624
10510SOL    HW132429   5.484   5.628   3.639
10510SOL    HW232430   5.388   5.717   3.540
10511SOL     OW32431   4.672   2.385   1.881
10511SOL    HW132432   4.693   2.479   1.854
10511SOL    HW232433   4.623   2.385   1.968
10512SOL     OW32434   4.637   1.085   4.848
10512SOL    HW132435   4.723   1.115   4.890
10512SOL    HW232436   4.589   1.024   4.911
10513SOL     OW32437   4.610   3.631   0.970
10513SOL    HW132438   4.514   3.636   0.944
10513SOL    HW232439   4.663   3.591   0.894
10514SOL     OW32440   0.816   3.046   1.667
10514SOL    HW132441   0.756   3.119   1.634
10514SOL    HW232442   0.863   3.004   1.589
10515SOL     OW32443   2.374   2.681   5.004
10515SOL    HW132444   2.280   2.648   4.996
10515SOL    HW232445   2.374   2.781   5.008
10516SOL     OW32446   4.065   2.045   1.476
10516SOL    HW132447   4.113   1.986   1.541
10516SOL    HW232448   4.103   2.138   1.482
10517SOL     OW32449   1.516   2.402   2.918
10517SOL    HW132450   1.586   2.430   2.853
10517SOL    HW232451   1.456   2.334   2.876
10518SOL     OW32452   0.530   4.895   2.825
10518SOL    HW132453   0.512   4.881   2.922
10518SOL    HW232454   0.486   4.823   2.771
10519SOL     OW32455   3.603   6.629   1.205
10519SOL    HW132456   3.651   6.693   1.265
10519SOL    HW232457   3.513   6.608   1.245
10520SOL     OW32458   6.814   2.439   5.732
10520SOL    HW132459   6.870   2.400   5.805
10520SOL    HW232460   6.733   2.383   5.720
10521SOL     OW32461   6.831   2.971   2.005
10521SOL    HW132462   6.752   2.931   2.053
10521SOL    HW232463   6.905   2.986   2.070
10522SOL     OW32464   5.021   2.631   3.357
10522SOL    HW132465   4.933   2.650   3.401
10522SOL    HW232466   5.068   2.558   3.406
10523SOL     OW32467   0.366   4.398   3.334
10523SOL    HW132468   0.394   4.464   3.404
10523SOL    HW232469   0.379   4.305   3.369
10524SOL     OW32470   0.442   6.224   5.047
10524SOL    HW132471   0.386   6.164   4.989
10524SOL    HW232472   0.410   6.318   5.038
10525SOL     OW32473   4.896   1.617   3.982
10525SOL    HW132474   4.813   1.643   3.933
10525SOL    HW232475   4.969   1.599   3.916
10526SOL     OW32476   1.460   4.958   0.442
10526SOL    HW132477   1.391   4.887   0.433
10526SOL    HW232478   1.548   4.925   0.407
10527SOL     OW32479   0.651   6.971   4.872
10527SOL    HW132480   0.567   7.020   4.848
10527SOL    HW232481   0.720   0.013   4.904
10528SOL     OW32482   1.599   3.887   5.618
10528SOL    HW132483   1.536   3.884   5.540
10528SOL    HW232484   1.575   3.815   5.683
10529SOL     OW32485   0.515   6.254   0.912
10529SOL    HW132486   0.562   6.232   0.998
10529SOL    HW232487   0.584   6.273   0.841
10530SOL     OW32488   0.255   5.364   0.681
10530SOL    HW132489   0.263   5.441   0.745
10530SOL    HW232490   0.341   5.312   0.682
10531SOL     OW32491   2.849   3.328   5.134
10531SOL    HW132492   2.927   3.265   5.142
10531SOL    HW232493   2.776   3.299   5.197
10532SOL     OW32494   5.465   6.292   6.840
10532SOL    HW132495   5.524   6.313   6.918
10532SOL    HW232496   5.427   6.377   6.803
10533SOL     OW32497   4.010   6.417   3.015
10533SOL    HW132498   4.075   6.367   2.958
10533SOL    HW232499   3.962   6.485   2.960
10534SOL     OW32500   1.438   5.961   4.020
10534SOL    HW132501   1.472   6.048   3.984
10534SOL    HW232502   1.516   5.903   4.045
10535SOL     OW32503   3.726   1.960   2.357
10535SOL    HW132504   3.758   1.952   2.451
10535SOL    HW232505   3.658   1.890   2.338
10536SOL     OW32506   5.804   2.016   4.173
10536SOL    HW132507   5.896   2.052   4.160
10536SOL    HW232508   5.738   2.091   4.174
10537SOL     OW32509   3.736   6.965   3.977
10537SOL    HW132510   3.821   7.003   3.940
10537SOL    HW232511   3.660   0.003   3.955
10538SOL     OW32512   6.661   3.798   2.847
10538SOL    HW132513   6.572   3.790   2.803
10538SOL    HW232514   6.713   3.713   2.832
10539SOL     OW32515   6.779   0.480   3.058
10539SOL    HW132516   6.696   0.474   3.002
10539SOL    HW232517   6.754   0.502   3.153
10540SOL     OW32518   1.717   3.558   5.955
10540SOL    HW132519   1.717   3.562   6.055
10540SOL    HW232520   1.787   3.620   5.920
10541SOL     OW32521   3.366   3.386   5.310
10541SOL    HW132522   3.321   3.377   5.221
10541SOL    HW232523   3.307   3.348   5.381
10542SOL     OW32524   4.922   6.885   4.585
10542SOL    HW132525   4.879   6.797   4.608
10542SOL    HW232526   4.869   6.929   4.513
10543SOL     OW32527   0.786   3.452   5.018
10543SOL    HW132528   0.737   3.514   5.080
10543SOL    HW232529   0.753   3.359   5.032
10544SOL     OW32530   1.979   1.831   3.049
10544SOL    HW132531   1.923   1.856   2.970
10544SOL    HW232532   2.051   1.900   3.062
10545SOL     OW32533   2.002   2.765   2.363
10545SOL    HW132534   2.082   2.757   2.303
10545SOL    HW232535   1.948   2.845   2.336
10546SOL     OW32536   2.984   6.689   6.801
10546SOL    HW132537   3.062   6.749   6.817
10546SOL    HW232538   2.900   6.743   6.795
10547SOL     OW32539   4.521   0.257   4.388
10547SOL    HW132540   4.565   0.217   4.469
10547SOL    HW232541   4.466   0.186   4.342
10548SOL     OW32542   0.288   5.381   4.008
10548SOL    HW132543   0.386   5.404   4.009
10548SOL    HW232544   0.277   5.282   4.017
10549SOL     OW32545   6.714   0.504   1.178
10549SOL    HW132546   6.743   0.599   1.165
10549SOL    HW232547   6.745   0.472   1.267
10550SOL     OW32548   4.991   5.669   3.531
10550SOL    HW132549   4.904   5.712   3.557
10550SOL    HW232550   4.973   5.580   3.489
10551SOL     OW32551   2.411   1.823   5.897
10551SOL    HW132552   2.468   1.894   5.856
10551SOL    HW232553   2.345   1.865   5.959
10552SOL     OW32554   2.574   1.299   4.762
10552SOL    HW132555   2.544   1.203   4.758
10552SOL    HW232556   2.661   1.309   4.715
10553SOL     OW32557   6.744   5.025   0.627
10553SOL    HW132558   6.756   5.120   0.598
10553SOL    HW232559   6.781   5.012   0.719
10554SOL     OW32560   6.343   5.822   1.938
10554SOL    HW132561   6.295   5.910   1.932
10554SOL    HW232562   6.282   5.753   1.976
10555SOL     OW32563   3.857   2.921   0.735
10555SOL    HW132564   3.875   2.946   0.830
10555SOL    HW232565   3.936   2.870   0.699
10556SOL     OW32566   2.368   1.898   2.942
10556SOL    HW132567   2.379   1.914   3.040
10556SOL    HW232568   2.283   1.939   2.911
10557SOL     OW32569   2.414   4.584   3.483
10557SOL    HW132570   2.425   4.559   3.579
10557SOL    HW232571   2.492   4.639   3.454
10558SOL     OW32572   3.556   5.333   4.662
10558SOL    HW132573   3.619   5.328   4.584
10558SOL    HW232574   3.462   5.342   4.628
10559SOL     OW32575   4.184   6.841   0.393
10559SOL    HW132576   4.237   6.879   0.469
10559SOL    HW232577   4.094   6.813   0.426
10560SOL     OW32578   5.638   6.979   2.365
10560SOL    HW132579   5.704   6.924   2.313
10560SOL    HW232580   5.624   6.937   2.454
10561SOL     OW32581   6.063   4.600   0.263
10561SOL    HW132582   5.989   4.534   0.258
10561SOL    HW232583   6.040   4.680   0.208
10562SOL     OW32584   4.218   5.941   2.891
10562SOL    HW132585   4.281   6.001   2.842
10562SOL    HW232586   4.181   5.989   2.971
10563SOL     OW32587   0.372   0.155   1.927
10563SOL    HW132588   0.307   0.091   1.967
10563SOL    HW232589   0.408   0.117   1.842
10564SOL     OW32590   5.772   4.509   4.139
10564SOL    HW132591   5.825   4.427   4.119
10564SOL    HW232592   5.686   4.483   4.182
10565SOL     OW32593   0.782   0.088   6.119
10565SOL    HW132594   0.734   0.129   6.041
10565SOL    HW232595   0.715   0.054   6.185
10566SOL     OW32596   3.093   3.082   0.501
10566SOL    HW132597   3.047   3.046   0.582
10566SOL    HW232598   3.031   3.079   0.423
10567SOL     OW32599   1.329   2.332   6.357
10567SOL    HW132600   1.268   2.351   6.434
10567SOL    HW232601   1.372   2.243   6.370
10568SOL     OW32602   4.887   2.547   5.732
10568SOL    HW132603   4.810   2.520   5.790
10568SOL    HW232604   4.870   2.638   5.694
10569SOL     OW32605   5.911   6.641   0.495
10569SOL    HW132606   5.883   6.735   0.515
10569SOL    HW232607   5.962   6.605   0.574
10570SOL     OW32608   1.077   4.711   3.369
10570SOL    HW132609   1.071   4.754   3.279
10570SOL    HW232610   0.999   4.650   3.382
10571SOL     OW32611   6.463   4.519   6.063
10571SOL    HW132612   6.409   4.436   6.069
10571SOL    HW232613   6.404   4.596   6.038
10572SOL     OW32614   5.746   4.271   0.915
10572SOL    HW132615   5.829   4.216   0.907
10572SOL    HW232616   5.760   4.359   0.869
10573SOL     OW32617   5.737   1.974   3.237
10573SOL    HW132618   5.711   2.044   3.304
10573SOL    HW232619   5.820   1.928   3.268
10574SOL     OW32620   7.000   2.587   3.113
10574SOL    HW132621   0.036   2.636   3.177
10574SOL    HW232622   6.905   2.615   3.127
10575SOL     OW32623   6.296   0.292   1.570
10575SOL    HW132624   6.344   0.357   1.512
10575SOL    HW232625   6.299   0.201   1.528
10576SOL     OW32626   1.330   4.493   4.350
10576SOL    HW132627   1.362   4.526   4.261
10576SOL    HW232628   1.345   4.395   4.357
10577SOL     OW32629   4.129   4.778   0.457
10577SOL    HW132630   4.053   4.838   0.480
10577SOL    HW232631   4.111   4.732   0.371
10578SOL     OW32632   0.107   3.113   4.436
10578SOL    HW132633   0.059   3.145   4.518
10578SOL    HW232634   0.151   3.191   4.391
10579SOL     OW32635   0.780   3.656   6.665
10579SOL    HW132636   0.763   3.736   6.607
10579SOL    HW232637   0.875   3.657   6.697
10580SOL     OW32638   6.531   6.647   0.214
10580SOL    HW132639   6.480   6.636   0.300
10580SOL    HW232640   6.512   6.737   0.176
10581SOL     OW32641   5.397   6.916   2.999
10581SOL    HW132642   5.456   6.968   3.061
10581SOL    HW232643   5.397   6.961   2.909
10582SOL     OW32644   5.542   4.425   6.324
10582SOL    HW132645   5.493   4.406   6.238
10582SOL    HW232646   5.622   4.482   6.304
10583SOL     OW32647   3.172   1.289   5.126
10583SOL    HW132648   3.126   1.340   5.199
10583SOL    HW232649   3.240   1.228   5.167
10584SOL     OW32650   1.076   6.999   4.687
10584SOL    HW132651   1.022   6.933   4.740
10584SOL    HW232652   1.101   6.959   4.599
10585SOL     OW32653   1.030   6.829   5.257
10585SOL    HW132654   0.951   6.867   5.209
10585SOL    HW232655   1.093   6.903   5.282
10586SOL     OW32656   4.240   4.193   5.310
10586SOL    HW132657   4.192   4.109   5.286
10586SOL    HW232658   4.229   4.260   5.236
10587SOL     OW32659   2.381   4.984   5.391
10587SOL    HW132660   2.431   4.920   5.333
10587SOL    HW232661   2.405   5.078   5.365
10588SOL     OW32662   0.848   3.799   4.482
10588SOL    HW132663   0.873   3.895   4.489
10588SOL    HW232664   0.767   3.789   4.423
10589SOL     OW32665   5.160   6.070   3.785
10589SOL    HW132666   5.074   6.085   3.834
10589SOL    HW232667   5.158   5.978   3.744
10590SOL     OW32668   1.004   4.992   2.878
10590SOL    HW132669   1.068   5.011   2.803
10590SOL    HW232670   0.925   4.942   2.842
10591SOL     OW32671   6.886   2.417   1.523
10591SOL    HW132672   6.881   2.462   1.611
10591SOL    HW232673   6.871   2.318   1.535
10592SOL     OW32674   6.590   1.944   4.943
10592SOL    HW132675   6.665   2.009   4.928
10592SOL    HW232676   6.523   1.986   5.005
10593SOL     OW32677   3.343   5.200   3.158
10593SOL    HW132678   3.338   5.290   3.114
10593SOL    HW232679   3.316   5.129   3.093
10594SOL     OW32680   2.623   6.644   3.812
10594SOL    HW132681   2.689   6.692   3.869
10594SOL    HW232682   2.555   6.599   3.870
10595SOL     OW32683   5.483   6.379   0.196
10595SOL    HW132684   5.530   6.391   0.108
10595SOL    HW232685   5.446   6.467   0.226
10596SOL     OW32686   5.020   2.868   0.069
10596SOL    HW132687   5.119   2.884   0.058
10596SOL    HW232688   4.980   2.946   0.117
10597SOL     OW32689   2.490   0.968   5.339
10597SOL    HW132690   2.407   0.920   5.367
10597SOL    HW232691   2.565   0.943   5.400
10598SOL     OW32692   2.567   1.522   6.307
10598SOL    HW132693   2.508   1.442   6.319
10598SOL    HW232694   2.534   1.596   6.365
10599SOL     OW32695   6.841   2.513   6.610
10599SOL    HW132696   6.752   2.515   6.564
10599SOL    HW232697   6.829   2.482   6.704
10600SOL     OW32698   2.619   2.353   1.280
10600SOL    HW132699   2.576   2.320   1.364
10600SOL    HW232700   2.561   2.423   1.239
10601SOL     OW32701   1.430   0.206   6.034
10601SOL    HW132702   1.356   0.144   6.058
10601SOL    HW232703   1.448   0.268   6.110
10602SOL     OW32704   6.854   0.247   1.185
10602SOL    HW132705   6.777   0.187   1.205
10602SOL    HW232706   6.821   0.341   1.173
10603SOL     OW32707   5.262   0.693   2.906
10603SOL    HW132708   5.245   0.787   2.937
10603SOL    HW232709   5.176   0.651   2.878
10604SOL     OW32710   5.340   6.657   4.956
10604SOL    HW132711   5.403   6.591   4.997
10604SOL    HW232712   5.380   6.748   4.961
10605SOL     OW32713   2.395   2.126   1.095
10605SOL    HW132714   2.313   2.128   1.038
10605SOL    HW232715   2.472   2.165   1.045
10606SOL     OW32716   6.387   0.488   0.091
10606SOL    HW132717   6.466   0.477   0.152
10606SOL    HW232718   6.319   0.417   0.113
10607SOL     OW32719   2.933   5.060   6.374
10607SOL    HW132720   2.966   5.146   6.412
10607SOL    HW232721   3.006   4.992   6.374
10608SOL     OW32722   5.625   4.043   3.242
10608SOL    HW132723   5.655   3.987   3.165
10608SOL    HW232724   5.692   4.037   3.316
10609SOL     OW32725   4.260   1.501   6.556
10609SOL    HW132726   4.223   1.459   6.473
10609SOL    HW232727   4.263   1.601   6.545
10610SOL     OW32728   0.689   0.842   3.619
10610SOL    HW132729   0.677   0.802   3.528
10610SOL    HW232730   0.736   0.929   3.611
10611SOL     OW32731   3.548   5.464   4.423
10611SOL    HW132732   3.512   5.531   4.357
10611SOL    HW232733   3.525   5.372   4.392
10612SOL     OW32734   6.135   1.958   3.507
10612SOL    HW132735   6.122   1.940   3.604
10612SOL    HW232736   6.106   2.051   3.485
10613SOL     OW32737   4.701   5.968   4.622
10613SOL    HW132738   4.711   6.003   4.715
10613SOL    HW232739   4.610   5.990   4.587
10614SOL     OW32740   3.726   1.034   5.861
10614SOL    HW132741   3.627   1.024   5.859
10614SOL    HW232742   3.757   1.044   5.956
10615SOL     OW32743   1.456   1.480   5.794
10615SOL    HW132744   1.529   1.413   5.777
10615SOL    HW232745   1.477   1.565   5.746
10616SOL     OW32746   2.612   6.570   0.205
10616SOL    HW132747   2.641   6.480   0.172
10616SOL    HW232748   2.512   6.577   0.200
10617SOL     OW32749   2.361   3.284   1.422
10617SOL    HW132750   2.361   3.228   1.505
10617SOL    HW232751   2.274   3.274   1.375
10618SOL     OW32752   1.512   4.757   3.842
10618SOL    HW132753   1.419   4.761   3.804
10618SOL    HW232754   1.561   4.841   3.818
10619SOL     OW32755   1.904   2.357   2.557
10619SOL    HW132756   1.997   2.393   2.546
10619SOL    HW232757   1.908   2.259   2.576
10620SOL     OW32758   3.220   1.187   6.364
10620SOL    HW132759   3.155   1.203   6.438
10620SOL    HW232760   3.180   1.122   6.299
10621SOL     OW32761   0.379   3.737   3.444
10621SOL    HW132762   0.378   3.637   3.440
10621SOL    HW232763   0.460   3.772   3.398
10622SOL     OW32764   4.147   2.131   0.102
10622SOL    HW132765   4.187   2.175   0.022
10622SOL    HW232766   4.060   2.088   0.076
10623SOL     OW32767   5.041   6.483   6.127
10623SOL    HW132768   5.047   6.427   6.210
10623SOL    HW232769   4.958   6.538   6.130
10624SOL     OW32770   0.366   2.015   6.692
10624SOL    HW132771   0.440   1.963   6.651
10624SOL    HW232772   0.302   1.953   6.738
10625SOL     OW32773   5.752   4.725   0.193
10625SOL    HW132774   5.715   4.638   0.160
10625SOL    HW232775   5.686   4.769   0.252
10626SOL     OW32776   5.469   3.168   1.041
10626SOL    HW132777   5.568   3.170   1.034
10626SOL    HW232778   5.428   3.166   0.950
10627SOL     OW32779   5.965   5.521   5.996
10627SOL    HW132780   6.006   5.477   5.916
10627SOL    HW232781   5.918   5.452   6.051
10628SOL     OW32782   3.831   6.655   0.969
10628SOL    HW132783   3.822   6.577   1.031
10628SOL    HW232784   3.747   6.663   0.915
10629SOL     OW32785   3.294   5.500   4.159
10629SOL    HW132786   3.363   5.568   4.183
10629SOL    HW232787   3.292   5.487   4.060
10630SOL     OW32788   3.653   1.171   2.198
10630SOL    HW132789   3.596   1.178   2.280
10630SOL    HW232790   3.643   1.254   2.143
10631SOL     OW32791   4.081   5.948   6.775
10631SOL    HW132792   4.144   5.924   6.849
10631SOL    HW232793   4.099   6.041   6.745
10632SOL     OW32794   4.453   5.814   3.552
10632SOL    HW132795   4.448   5.906   3.513
10632SOL    HW232796   4.380   5.758   3.514
10633SOL     OW32797   1.225   3.044   1.355
10633SOL    HW132798   1.304   3.001   1.313
10633SOL    HW232799   1.229   3.032   1.454
10634SOL     OW32800   0.570   3.626   6.858
10634SOL    HW132801   0.483   3.650   6.815
10634SOL    HW232802   0.645   3.652   6.797
10635SOL     OW32803   2.419   4.296   5.855
10635SOL    HW132804   2.378   4.376   5.811
10635SOL    HW232805   2.519   4.302   5.849
10636SOL     OW32806   6.358   2.393   6.149
10636SOL    HW132807   6.282   2.333   6.126
10636SOL    HW232808   6.439   2.365   6.097
10637SOL     OW32809   3.190   0.945   0.207
10637SOL    HW132810   3.141   0.861   0.229
10637SOL    HW232811   3.149   0.987   0.126
10638SOL     OW32812   6.829   5.600   1.943
10638SOL    HW132813   6.763   5.672   1.962
10638SOL    HW232814   6.780   5.514   1.926
10639SOL     OW32815   1.407   4.446   1.634
10639SOL    HW132816   1.485   4.415   1.580
10639SOL    HW232817   1.326   4.453   1.576
10640SOL     OW32818   4.325   7.018   3.521
10640SOL    HW132819   4.304   0.088   3.550
10640SOL    HW232820   4.303   7.007   3.424
10641SOL     OW32821   1.446   1.066   3.624
10641SOL    HW132822   1.477   1.044   3.532
10641SOL    HW232823   1.426   1.163   3.631
10642SOL     OW32824   5.700   2.180   6.425
10642SOL    HW132825   5.714   2.244   6.349
10642SOL    HW232826   5.666   2.229   6.505
10643SOL     OW32827   1.721   5.000   5.498
10643SOL    HW132828   1.622   5.001   5.487
10643SOL    HW232829   1.748   5.070   5.565
10644SOL     OW32830   6.490   2.406   2.979
10644SOL    HW132831   6.502   2.480   2.914
10644SOL    HW232832   6.551   2.330   2.955
10645SOL     OW32833   2.634   2.396   3.632
10645SOL    HW132834   2.606   2.464   3.564
10645SOL    HW232835   2.630   2.437   3.723
10646SOL     OW32836   5.147   0.709   3.931
10646SOL    HW132837   5.090   0.729   3.851
10646SOL    HW232838   5.171   0.795   3.977
10647SOL     OW32839   3.509   4.929   4.820
10647SOL    HW132840   3.431   4.966   4.871
10647SOL    HW232841   3.482   4.915   4.725
10648SOL     OW32842   5.005   5.339   5.228
10648SOL    HW132843   5.015   5.298   5.137
10648SOL    HW232844   5.078   5.305   5.287
10649SOL     OW32845   6.096   3.051   3.047
10649SOL    HW132846   6.164   3.098   2.991
10649SOL    HW232847   6.045   2.987   2.990
10650SOL     OW32848   0.547   0.175   3.897
10650SOL    HW132849   0.550   0.122   3.811
10650SOL    HW232850   0.597   0.261   3.884
10651SOL     OW32851   4.224   6.453   6.027
10651SOL    HW132852   4.156   6.463   5.954
10651SOL    HW232853   4.188   6.390   6.096
10652SOL     OW32854   2.003   7.001   6.887
10652SOL    HW132855   2.041   0.039   6.956
10652SOL    HW232856   1.911   0.006   6.863
10653SOL     OW32857   4.285   5.467   4.017
10653SOL    HW132858   4.302   5.562   4.043
10653SOL    HW232859   4.342   5.407   4.072
10654SOL     OW32860   5.446   1.693   4.448
10654SOL    HW132861   5.442   1.691   4.548
10654SOL    HW232862   5.534   1.731   4.418
10655SOL     OW32863   0.627   4.942   1.223
10655SOL    HW132864   0.603   4.866   1.162
10655SOL    HW232865   0.651   5.022   1.168
10656SOL     OW32866   6.346   1.900   3.045
10656SOL    HW132867   6.405   1.876   3.122
10656SOL    HW232868   6.251   1.882   3.069
10657SOL     OW32869   5.164   6.467   4.463
10657SOL    HW132870   5.125   6.415   4.387
10657SOL    HW232871   5.220   6.408   4.520
10658SOL     OW32872   0.541   2.922   5.428
10658SOL    HW132873   0.635   2.956   5.434
10658SOL    HW232874   0.506   2.938   5.335
10659SOL     OW32875   1.033   5.316   0.603
10659SOL    HW132876   1.051   5.218   0.605
10659SOL    HW232877   1.021   5.346   0.509
10660SOL     OW32878   6.025   3.153   5.344
10660SOL    HW132879   6.002   3.214   5.420
10660SOL    HW232880   6.004   3.197   5.258
10661SOL     OW32881   1.724   4.821   5.791
10661SOL    HW132882   1.696   4.846   5.698
10661SOL    HW232883   1.652   4.849   5.856
10662SOL     OW32884   2.525   1.146   2.978
10662SOL    HW132885   2.522   1.231   2.925
10662SOL    HW232886   2.434   1.125   3.013
10663SOL     OW32887   1.773   1.647   4.286
10663SOL    HW132888   1.837   1.582   4.244
10663SOL    HW232889   1.824   1.710   4.343
10664SOL     OW32890   1.596   5.323   4.336
10664SOL    HW132891   1.532   5.271   4.279
10664SOL    HW232892   1.660   5.371   4.277
10665SOL     OW32893   1.947   2.803   5.965
10665SOL    HW132894   1.969   2.801   5.867
10665SOL    HW232895   1.848   2.815   5.977
10666SOL     OW32896   3.425   3.576   1.975
10666SOL    HW132897   3.404   3.618   1.887
10666SOL    HW232898   3.343   3.575   2.032
10667SOL     OW32899   5.723   2.147   3.461
10667SOL    HW132900   5.643   2.206   3.464
10667SOL    HW232901   5.710   2.071   3.525
10668SOL     OW32902   3.074   2.478   5.427
10668SOL    HW132903   3.019   2.549   5.384
10668SOL    HW232904   3.128   2.431   5.358
10669SOL     OW32905   6.237   1.421   0.940
10669SOL    HW132906   6.186   1.354   0.887
10669SOL    HW232907   6.335   1.405   0.930
10670SOL     OW32908   4.960   3.258   4.476
10670SOL    HW132909   5.053   3.293   4.485
10670SOL    HW232910   4.945   3.228   4.381
10671SOL     OW32911   1.251   3.371   4.108
10671SOL    HW132912   1.291   3.316   4.035
10671SOL    HW232913   1.317   3.379   4.183
10672SOL     OW32914   6.260   3.247   1.126
10672SOL    HW132915   6.227   3.323   1.070
10672SOL    HW232916   6.251   3.272   1.223
10673SOL     OW32917   2.172   0.911   1.249
10673SOL    HW132918   2.263   0.895   1.210
10673SOL    HW232919   2.164   0.864   1.337
10674SOL     OW32920   3.732   4.130   4.362
10674SOL    HW132921   3.705   4.035   4.380
10674SOL    HW232922   3.751   4.175   4.449
10675SOL     OW32923   4.116   0.012   5.608
10675SOL    HW132924   4.110   0.111   5.599
10675SOL    HW232925   4.187   7.012   5.674
10676SOL     OW32926   2.147   6.097   5.623
10676SOL    HW132927   2.241   6.104   5.658
10676SOL    HW232928   2.086   6.148   5.683
10677SOL     OW32929   0.122   1.305   1.033
10677SOL    HW132930   0.142   1.216   1.074
10677SOL    HW232931   0.182   1.320   0.954
10678SOL     OW32932   4.196   5.153   3.724
10678SOL    HW132933   4.196   5.249   3.698
10678SOL    HW232934   4.240   5.099   3.652
10679SOL     OW32935   3.897   3.640   6.715
10679SOL    HW132936   3.910   3.622   6.813
10679SOL    HW232937   3.820   3.586   6.682
10680SOL     OW32938   4.228   1.327   3.934
10680SOL    HW132939   4.270   1.239   3.960
10680SOL    HW232940   4.130   1.325   3.953
10681SOL     OW32941   1.075   3.006   5.924
10681SOL    HW132942   1.091   2.929   5.986
10681SOL    HW232943   1.001   3.062   5.960
10682SOL     OW32944   5.875   2.823   5.982
10682SOL    HW132945   5.941   2.797   5.912
10682SOL    HW232946   5.919   2.819   6.072
10683SOL     OW32947   3.511   6.981   3.611
10683SOL    HW132948   3.416   6.959   3.635
10683SOL    HW232949   3.513   0.044   3.560
10684SOL     OW32950   4.362   4.695   1.431
10684SOL    HW132951   4.428   4.757   1.473
10684SOL    HW232952   4.298   4.662   1.501
10685SOL     OW32953   0.926   6.136   1.549
10685SOL    HW132954   0.912   6.176   1.458
10685SOL    HW232955   0.929   6.037   1.541
10686SOL     OW32956   2.503   3.240   6.779
10686SOL    HW132957   2.452   3.299   6.717
10686SOL    HW232958   2.509   3.148   6.740
10687SOL     OW32959   0.671   4.483   3.325
10687SOL    HW132960   0.652   4.416   3.397
10687SOL    HW232961   0.765   4.516   3.335
10688SOL     OW32962   5.260   1.654   2.282
10688SOL    HW132963   5.172   1.694   2.258
10688SOL    HW232964   5.333   1.702   2.235
10689SOL     OW32965   0.026   6.684   2.592
10689SOL    HW132966   0.117   6.678   2.632
10689SOL    HW232967   7.003   6.767   2.626
10690SOL     OW32968   6.774   6.485   3.625
10690SOL    HW132969   6.745   6.464   3.531
10690SOL    HW232970   6.774   6.402   3.679
10691SOL     OW32971   2.985   1.609   2.748
10691SOL    HW132972   2.925   1.560   2.684
10691SOL    HW232973   3.023   1.544   2.814
10692SOL     OW32974   2.636   1.018   4.536
10692SOL    HW132975   2.553   0.994   4.485
10692SOL    HW232976   2.638   0.968   4.622
10693SOL     OW32977   1.592   5.502   0.864
10693SOL    HW132978   1.536   5.538   0.939
10693SOL    HW232979   1.549   5.524   0.777
10694SOL     OW32980   4.807   6.498   5.526
10694SOL    HW132981   4.759   6.581   5.556
10694SOL    HW232982   4.837   6.447   5.606
10695SOL     OW32983   6.901   3.688   1.309
10695SOL    HW132984   6.840   3.699   1.387
10695SOL    HW232985   6.877   3.605   1.259
10696SOL     OW32986   0.187   4.466   4.966
10696SOL    HW132987   0.166   4.553   4.921
10696SOL    HW232988   0.106   4.407   4.963
10697SOL     OW32989   1.421   5.311   4.969
10697SOL    HW132990   1.396   5.310   4.872
10697SOL    HW232991   1.497   5.375   4.983
10698SOL     OW32992   4.454   3.437   0.018
10698SOL    HW132993   4.363   3.476   0.028
10698SOL    HW232994   4.491   3.460   6.952
10699SOL     OW32995   3.259   4.061   0.644
10699SOL    HW132996   3.319   3.982   0.660
10699SOL    HW232997   3.167   4.028   0.624
10700SOL     OW32998   5.463   0.201   0.413
10700SOL    HW132999   5.454   0.294   0.379
10700SOL    HW233000   5.377   0.172   0.456
10701SOL     OW33001   2.833   0.349   6.340
10701SOL    HW133002   2.921   0.306   6.361
10701SOL    HW233003   2.841   0.402   6.256
10702SOL     OW33004   4.838   2.965   2.307
10702SOL    HW133005   4.799   2.981   2.216
10702SOL    HW233006   4.778   2.905   2.359
10703SOL     OW33007   1.709   2.372   6.250
10703SOL    HW133008   1.628   2.337   6.297
10703SOL    HW233009   1.681   2.425   6.170
10704SOL     OW33010   6.964   6.326   2.581
10704SOL    HW133011   7.014   6.250   2.623
10704SOL    HW233012   6.928   6.386   2.653
10705SOL     OW33013   5.635   4.863   1.071
10705SOL    HW133014   5.641   4.963   1.078
10705SOL    HW233015   5.631   4.837   0.975
10706SOL     OW33016   5.238   0.264   2.306
10706SOL    HW133017   5.322   0.300   2.265
10706SOL    HW233018   5.226   0.169   2.276
10707SOL     OW33019   6.105   6.842   4.176
10707SOL    HW133020   6.098   6.896   4.260
10707SOL    HW233021   6.045   6.881   4.106
10708SOL     OW33022   4.763   2.768   2.754
10708SOL    HW133023   4.780   2.849   2.810
10708SOL    HW233024   4.675   2.728   2.779
10709SOL     OW33025   5.941   5.474   3.964
10709SOL    HW133026   5.964   5.505   4.056
10709SOL    HW233027   6.023   5.439   3.919
10710SOL     OW33028   4.741   0.864   3.296
10710SOL    HW133029   4.653   0.867   3.249
10710SOL    HW233030   4.758   0.772   3.329
10711SOL     OW33031   3.675   6.530   2.235
10711SOL    HW133032   3.590   6.524   2.183
10711SOL    HW233033   3.740   6.463   2.201
10712SOL     OW33034   3.506   0.127   2.950
10712SOL    HW133035   3.521   0.206   3.010
10712SOL    HW233036   3.587   0.112   2.894
10713SOL     OW33037   1.201   3.462   0.863
10713SOL    HW133038   1.259   3.541   0.884
10713SOL    HW233039   1.111   3.476   0.903
10714SOL     OW33040   3.702   2.906   4.186
10714SOL    HW133041   3.753   2.934   4.105
10714SOL    HW233042   3.760   2.915   4.267
10715SOL     OW33043   5.690   0.267   2.410
10715SOL    HW133044   5.711   0.182   2.459
10715SOL    HW233045   5.593   0.271   2.390
10716SOL     OW33046   6.700   2.228   2.921
10716SOL    HW133047   6.669   2.148   2.972
10716SOL    HW233048   6.649   2.235   2.835
10717SOL     OW33049   1.174   2.798   0.661
10717SOL    HW133050   1.174   2.849   0.575
10717SOL    HW233051   1.268   2.774   0.686
10718SOL     OW33052   0.606   4.724   6.276
10718SOL    HW133053   0.539   4.757   6.210
10718SOL    HW233054   0.567   4.649   6.329
10719SOL     OW33055   6.249   5.854   3.583
10719SOL    HW133056   6.317   5.789   3.616
10719SOL    HW233057   6.260   5.941   3.631
10720SOL     OW33058   5.760   5.325   4.269
10720SOL    HW133059   5.733   5.419   4.246
10720SOL    HW233060   5.846   5.304   4.223
10721SOL     OW33061   4.908   4.074   5.356
10721SOL    HW133062   5.007   4.065   5.352
10721SOL    HW233063   4.883   4.129   5.436
10722SOL     OW33064   6.366   3.899   6.579
10722SOL    HW133065   6.455   3.920   6.617
10722SOL    HW233066   6.305   3.978   6.589
10723SOL     OW33067   0.067   1.209   6.945
10723SOL    HW133068   0.065   1.225   0.020
10723SOL    HW233069   0.113   1.122   6.926
10724SOL     OW33070   0.623   6.823   0.387
10724SOL    HW133071   0.590   6.903   0.436
10724SOL    HW233072   0.606   6.741   0.441
10725SOL     OW33073   2.692   5.334   5.130
10725SOL    HW133074   2.670   5.391   5.051
10725SOL    HW233075   2.704   5.391   5.211
10726SOL     OW33076   5.010   0.957   3.814
10726SOL    HW133077   5.011   1.049   3.773
10726SOL    HW233078   5.068   0.957   3.896
10727SOL     OW33079   1.400   5.511   5.962
10727SOL    HW133080   1.307   5.479   5.946
10727SOL    HW233081   1.453   5.505   5.877
10728SOL     OW33082   6.752   5.269   0.477
10728SOL    HW133083   6.743   5.316   0.390
10728SOL    HW233084   6.845   5.281   0.513
10729SOL     OW33085   6.016   2.255   1.661
10729SOL    HW133086   6.060   2.293   1.580
10729SOL    HW233087   5.924   2.294   1.670
10730SOL     OW33088   3.843   0.536   1.554
10730SOL    HW133089   3.921   0.588   1.590
10730SOL    HW233090   3.768   0.540   1.619
10731SOL     OW33091   4.129   1.320   0.876
10731SOL    HW133092   4.187   1.401   0.877
10731SOL    HW233093   4.051   1.334   0.937
10732SOL     OW33094   0.095   5.118   5.397
10732SOL    HW133095   0.180   5.150   5.355
10732SOL    HW233096   0.016   5.157   5.349
10733SOL     OW33097   5.334   1.473   6.398
10733SOL    HW133098   5.311   1.559   6.352
10733SOL    HW233099   5.313   1.480   6.495
10734SOL     OW33100   0.866   1.629   1.193
10734SOL    HW133101   0.892   1.723   1.212
10734SOL    HW233102   0.766   1.623   1.182
10735SOL     OW33103   0.324   2.454   1.586
10735SOL    HW133104   0.365   2.421   1.671
10735SOL    HW233105   0.352   2.395   1.510
10736SOL     OW33106   2.026   7.003   3.909
10736SOL    HW133107   1.977   6.923   3.876
10736SOL    HW233108   2.115   7.009   3.863
10737SOL     OW33109   0.554   1.847   1.640
10737SOL    HW133110   0.461   1.812   1.641
10737SOL    HW233111   0.555   1.942   1.671
10738SOL     OW33112   3.513   5.876   2.887
10738SOL    HW133113   3.420   5.893   2.920
10738SOL    HW233114   3.548   5.958   2.841
10739SOL     OW33115   1.379   2.482   1.330
10739SOL    HW133116   1.418   2.390   1.332
10739SOL    HW233117   1.342   2.500   1.239
10740SOL     OW33118   5.791   5.131   5.212
10740SOL    HW133119   5.730   5.067   5.260
10740SOL    HW233120   5.748   5.221   5.207
10741SOL     OW33121   4.484   0.947   2.396
10741SOL    HW133122   4.534   1.029   2.369
10741SOL    HW233123   4.398   0.973   2.439
10742SOL     OW33124   5.743   5.546   1.330
10742SOL    HW133125   5.649   5.575   1.312
10742SOL    HW233126   5.784   5.511   1.245
10743SOL     OW33127   2.005   2.067   4.038
10743SOL    HW133128   1.928   2.130   4.033
10743SOL    HW233129   2.079   2.107   4.091
10744SOL     OW33130   2.980   1.592   1.234
10744SOL    HW133131   3.033   1.550   1.307
10744SOL    HW233132   2.990   1.691   1.238
10745SOL     OW33133   6.955   5.250   5.714
10745SOL    HW133134   6.990   5.164   5.677
10745SOL    HW233135   6.913   5.233   5.803
10746SOL     OW33136   1.283   3.809   5.859
10746SOL    HW133137   1.362   3.756   5.827
10746SOL    HW233138   1.227   3.752   5.918
10747SOL     OW33139   3.014   1.115   4.432
10747SOL    HW133140   3.051   1.156   4.348
10747SOL    HW233141   2.922   1.150   4.448
10748SOL     OW33142   6.207   1.437   2.403
10748SOL    HW133143   6.172   1.347   2.428
10748SOL    HW233144   6.192   1.501   2.478
10749SOL     OW33145   0.895   6.173   5.424
10749SOL    HW133146   0.970   6.108   5.414
10749SOL    HW233147   0.862   6.172   5.518
10750SOL     OW33148   4.063   0.298   5.087
10750SOL    HW133149   4.079   0.361   5.010
10750SOL    HW233150   3.969   0.310   5.119
10751SOL     OW33151   2.081   4.434   4.221
10751SOL    HW133152   2.075   4.508   4.287
10751SOL    HW233153   2.175   4.400   4.216
10752SOL     OW33154   5.256   4.726   5.320
10752SOL    HW133155   5.267   4.629   5.343
10752SOL    HW233156   5.192   4.768   5.385
10753SOL     OW33157   0.338   4.050   4.509
10753SOL    HW133158   0.404   4.051   4.434
10753SOL    HW233159   0.384   4.029   4.595
10754SOL     OW33160   1.065   0.069   3.111
10754SOL    HW133161   1.014   0.038   3.191
10754SOL    HW233162   1.160   0.038   3.118
10755SOL     OW33163   6.874   6.649   2.023
10755SOL    HW133164   6.858   6.705   1.941
10755SOL    HW233165   6.905   6.707   2.098
10756SOL     OW33166   6.969   5.665   5.409
10756SOL    HW133167   7.012   5.621   5.488
10756SOL    HW233168   7.018   5.749   5.387
10757SOL     OW33169   2.095   2.857   0.144
10757SOL    HW133170   2.055   2.882   0.056
10757SOL    HW233171   2.032   2.881   0.218
10758SOL     OW33172   0.607   6.235   3.271
10758SOL    HW133173   0.575   6.221   3.178
10758SOL    HW233174   0.595   6.151   3.324
10759SOL     OW33175   0.844   3.037   0.623
10759SOL    HW133176   0.868   3.011   0.717
10759SOL    HW233177   0.836   3.136   0.618
10760SOL     OW33178   5.588   1.313   3.535
10760SOL    HW133179   5.671   1.257   3.533
10760SOL    HW233180   5.560   1.334   3.441
10761SOL     OW33181   1.970   5.359   6.226
10761SOL    HW133182   2.019   5.335   6.310
10761SOL    HW233183   1.932   5.277   6.185
10762SOL     OW33184   3.020   0.112   5.242
10762SOL    HW133185   3.102   0.064   5.209
10762SOL    HW233186   3.008   0.095   5.340
10763SOL     OW33187   3.493   0.218   3.497
10763SOL    HW133188   3.407   0.269   3.494
10763SOL    HW233189   3.568   0.278   3.467
10764SOL     OW33190   5.178   1.215   4.690
10764SOL    HW133191   5.189   1.312   4.668
10764SOL    HW233192   5.169   1.203   4.788
10765SOL     OW33193   5.065   3.049   1.028
10765SOL    HW133194   5.045   2.954   1.004
10765SOL    HW233195   5.029   3.109   0.957
10766SOL     OW33196   3.902   4.403   0.612
10766SOL    HW133197   3.846   4.402   0.529
10766SOL    HW233198   3.881   4.322   0.667
10767SOL     OW33199   2.633   0.400   0.601
10767SOL    HW133200   2.728   0.428   0.614
10767SOL    HW233201   2.574   0.449   0.664
10768SOL     OW33202   6.705   4.904   1.016
10768SOL    HW133203   6.789   4.952   0.994
10768SOL    HW233204   6.696   4.897   1.116
10769SOL     OW33205   1.661   3.370   5.781
10769SOL    HW133206   1.685   3.434   5.854
10769SOL    HW233207   1.735   3.367   5.713
10770SOL     OW33208   4.936   5.165   3.257
10770SOL    HW133209   4.881   5.136   3.178
10770SOL    HW233210   4.942   5.265   3.259
10771SOL     OW33211   4.115   6.875   3.883
10771SOL    HW133212   4.112   6.967   3.922
10771SOL    HW233213   4.048   6.817   3.929
10772SOL     OW33214   6.918   6.015   3.691
10772SOL    HW133215   6.889   5.987   3.599
10772SOL    HW233216   7.016   6.036   3.689
10773SOL     OW33217   6.068   4.443   5.395
10773SOL    HW133218   6.042   4.528   5.439
10773SOL    HW233219   6.051   4.450   5.296
10774SOL     OW33220   1.694   0.917   3.982
10774SOL    HW133221   1.661   0.893   4.074
10774SOL    HW233222   1.661   1.007   3.957
10775SOL     OW33223   0.821   4.418   1.931
10775SOL    HW133224   0.817   4.354   1.853
10775SOL    HW233225   0.887   4.490   1.911
10776SOL     OW33226   1.567   1.101   6.165
10776SOL    HW133227   1.652   1.075   6.119
10776SOL    HW233228   1.544   1.033   6.235
10777SOL     OW33229   3.764   4.998   1.187
10777SOL    HW133230   3.855   4.973   1.154
10777SOL    HW233231   3.729   5.076   1.135
10778SOL     OW33232   5.466   6.565   4.123
10778SOL    HW133233   5.386   6.607   4.167
10778SOL    HW233234   5.443   6.472   4.094
10779SOL     OW33235   5.995   2.808   3.150
10779SOL    HW133236   5.916   2.865   3.128
10779SOL    HW233237   5.964   2.715   3.171
10780SOL     OW33238   1.376   0.848   4.075
10780SOL    HW133239   1.454   0.868   4.135
10780SOL    HW233240   1.325   0.770   4.111
10781SOL     OW33241   4.092   0.201   3.935
10781SOL    HW133242   4.020   0.194   3.866
10781SOL    HW233243   4.055   0.176   4.025
10782SOL     OW33244   6.304   6.648   4.026
10782SOL    HW133245   6.258   6.695   4.101
10782SOL    HW233246   6.304   6.707   3.945
10783SOL     OW33247   0.185   2.550   2.778
10783SOL    HW133248   0.228   2.578   2.864
10783SOL    HW233249   0.090   2.523   2.796
10784SOL     OW33250   2.625   1.097   3.745
10784SOL    HW133251   2.659   1.118   3.653
10784SOL    HW233252   2.552   1.161   3.769
10785SOL     OW33253   0.818   4.045   0.082
10785SOL    HW133254   0.821   4.097   7.020
10785SOL    HW233255   0.845   3.950   0.064
10786SOL     OW33256   5.858   5.635   3.401
10786SOL    HW133257   5.847   5.687   3.317
10786SOL    HW233258   5.915   5.687   3.465
10787SOL     OW33259   0.425   0.512   5.533
10787SOL    HW133260   0.408   0.574   5.610
10787SOL    HW233261   0.338   0.492   5.487
10788SOL     OW33262   0.587   3.746   0.096
10788SOL    HW133263   0.516   3.815   0.108
10788SOL    HW233264   0.577   3.704   0.005
10789SOL     OW33265   6.695   2.682   0.244
10789SOL    HW133266   6.718   2.585   0.258
10789SOL    HW233267   6.691   2.702   0.146
10790SOL     OW33268   0.385   6.549   1.694
10790SOL    HW133269   0.453   6.508   1.755
10790SOL    HW233270   0.392   6.649   1.699
10791SOL     OW33271   6.405   6.254   2.169
10791SOL    HW133272   6.417   6.289   2.076
10791SOL    HW233273   6.476   6.292   2.229
10792SOL     OW33274   3.847   3.734   5.186
10792SOL    HW133275   3.892   3.686   5.262
10792SOL    HW233276   3.901   3.724   5.103
10793SOL     OW33277   5.630   3.542   5.534
10793SOL    HW133278   5.629   3.549   5.634
10793SOL    HW233279   5.724   3.533   5.503
10794SOL     OW33280   3.960   3.715   3.938
10794SOL    HW133281   3.900   3.759   4.005
10794SOL    HW233282   3.978   3.778   3.862
10795SOL     OW33283   1.137   4.258   2.909
10795SOL    HW133284   1.050   4.244   2.861
10795SOL    HW233285   1.118   4.286   3.003
10796SOL     OW33286   0.425   5.777   5.566
10796SOL    HW133287   0.422   5.858   5.626
10796SOL    HW233288   0.452   5.805   5.474
10797SOL     OW33289   4.059   2.754   0.598
10797SOL    HW133290   4.148   2.781   0.634
10797SOL    HW233291   4.065   2.743   0.498
10798SOL     OW33292   1.826   1.565   0.966
10798SOL    HW133293   1.749   1.593   1.023
10798SOL    HW233294   1.810   1.594   0.871
10799SOL     OW33295   3.809   0.551   2.935
10799SOL    HW133296   3.900   0.590   2.948
10799SOL    HW233297   3.763   0.546   3.024
10800SOL     OW33298   1.034   5.839   0.251
10800SOL    HW133299   1.073   5.873   0.165
10800SOL    HW233300   1.018   5.916   0.313
10801SOL     OW33301   1.373   0.807   0.463
10801SOL    HW133302   1.286   0.828   0.419
10801SOL    HW233303   1.358   0.743   0.538
10802SOL     OW33304   6.249   6.798   3.769
10802SOL    HW133305   6.165   6.795   3.715
10802SOL    HW233306   6.309   6.723   3.742
10803SOL     OW33307   1.613   5.619   6.752
10803SOL    HW133308   1.643   5.713   6.771
10803SOL    HW233309   1.682   5.555   6.786
10804SOL     OW33310   0.137   3.119   3.569
10804SOL    HW133311   0.091   3.118   3.658
10804SOL    HW233312   0.216   3.059   3.572
10805SOL     OW33313   6.043   1.020   4.568
10805SOL    HW133314   6.118   0.964   4.533
10805SOL    HW233315   6.014   0.986   4.657
10806SOL     OW33316   2.739   5.244   6.915
10806SOL    HW133317   2.727   5.310   6.989
10806SOL    HW233318   2.834   5.212   6.913
10807SOL     OW33319   2.386   5.813   3.682
10807SOL    HW133320   2.395   5.860   3.594
10807SOL    HW233321   2.289   5.796   3.701
10808SOL     OW33322   6.935   2.268   6.288
10808SOL    HW133323   6.838   2.293   6.287
10808SOL    HW233324   6.982   2.323   6.357
10809SOL     OW33325   2.505   4.708   4.353
10809SOL    HW133326   2.460   4.631   4.307
10809SOL    HW233327   2.602   4.710   4.327
10810SOL     OW33328   0.126   0.487   3.654
10810SOL    HW133329   0.214   0.472   3.609
10810SOL    HW233330   0.071   0.551   3.600
10811SOL     OW33331   4.843   5.252   4.745
10811SOL    HW133332   4.812   5.203   4.664
10811SOL    HW233333   4.910   5.322   4.719
10812SOL     OW33334   6.858   3.137   6.281
10812SOL    HW133335   6.907   3.050   6.275
10812SOL    HW233336   6.923   3.212   6.277
10813SOL     OW33337   0.643   3.814   5.790
10813SOL    HW133338   0.610   3.774   5.704
10813SOL    HW233339   0.730   3.860   5.774
10814SOL     OW33340   1.985   0.327   0.346
10814SOL    HW133341   2.043   0.332   0.428
10814SOL    HW233342   1.889   0.324   0.373
10815SOL     OW33343   5.104   1.541   3.786
10815SOL    HW133344   5.175   1.484   3.827
10815SOL    HW233345   5.140   1.633   3.772
10816SOL     OW33346   3.348   3.095   3.687
10816SOL    HW133347   3.332   3.191   3.710
10816SOL    HW233348   3.265   3.056   3.647
10817SOL     OW33349   2.896   0.193   3.558
10817SOL    HW133350   2.975   0.152   3.512
10817SOL    HW233351   2.866   0.133   3.633
10818SOL     OW33352   4.933   5.377   6.303
10818SOL    HW133353   4.944   5.470   6.266
10818SOL    HW233354   4.851   5.373   6.359
10819SOL     OW33355   6.994   5.476   6.283
10819SOL    HW133356   0.064   5.473   6.318
10819SOL    HW233357   6.992   5.532   6.200
10820SOL     OW33358   1.416   5.475   5.356
10820SOL    HW133359   1.495   5.489   5.417
10820SOL    HW233360   1.390   5.379   5.358
10821SOL     OW33361   4.366   5.322   2.638
10821SOL    HW133362   4.309   5.320   2.720
10821SOL    HW233363   4.377   5.417   2.607
10822SOL     OW33364   5.680   2.535   0.513
10822SOL    HW133365   5.696   2.613   0.452
10822SOL    HW233366   5.660   2.454   0.458
10823SOL     OW33367   0.184   6.950   3.039
10823SOL    HW133368   0.093   6.915   3.064
10823SOL    HW233369   0.174   0.006   2.979
10824SOL     OW33370   1.260   0.776   4.417
10824SOL    HW133371   1.185   0.726   4.460
10824SOL    HW233372   1.340   0.716   4.410
10825SOL     OW33373   1.119   2.000   0.517
10825SOL    HW133374   1.171   2.079   0.550
10825SOL    HW233375   1.026   2.027   0.495
10826SOL     OW33376   1.543   2.178   2.642
10826SOL    HW133377   1.638   2.147   2.643
10826SOL    HW233378   1.487   2.113   2.589
10827SOL     OW33379   6.346   3.767   5.205
10827SOL    HW133380   6.281   3.699   5.239
10827SOL    HW233381   6.296   3.849   5.175
10828SOL     OW33382   6.483   3.387   6.765
10828SOL    HW133383   6.391   3.408   6.730
10828SOL    HW233384   6.485   3.401   6.864
10829SOL     OW33385   4.735   3.250   6.765
10829SOL    HW133386   4.786   3.176   6.721
10829SOL    HW233387   4.732   3.329   6.704
10830SOL     OW33388   4.731   1.353   3.350
10830SOL    HW133389   4.816   1.301   3.350
10830SOL    HW233390   4.697   1.363   3.444
10831SOL     OW33391   4.123   0.983   2.541
10831SOL    HW133392   4.119   1.076   2.504
10831SOL    HW233393   4.202   0.976   2.603
10832SOL     OW33394   6.619   3.355   0.769
10832SOL    HW133395   6.581   3.287   0.832
10832SOL    HW233396   6.633   3.441   0.817
10833SOL     OW33397   0.709   1.456   0.825
10833SOL    HW133398   0.774   1.531   0.839
10833SOL    HW233399   0.647   1.480   0.750
10834SOL     OW33400   6.681   6.757   0.630
10834SOL    HW133401   6.709   6.795   0.719
10834SOL    HW233402   6.583   6.737   0.632
10835SOL     OW33403   5.728   3.364   6.414
10835SOL    HW133404   5.755   3.308   6.492
10835SOL    HW233405   5.684   3.306   6.345
10836SOL     OW33406   0.851   1.628   3.062
10836SOL    HW133407   0.924   1.564   3.088
10836SOL    HW233408   0.807   1.663   3.145
10837SOL     OW33409   6.814   4.586   2.148
10837SOL    HW133410   6.788   4.492   2.123
10837SOL    HW233411   6.894   4.583   2.207
10838SOL     OW33412   5.964   5.429   3.566
10838SOL    HW133413   5.917   5.509   3.531
10838SOL    HW233414   5.980   5.439   3.664
10839SOL     OW33415   4.651   3.725   0.490
10839SOL    HW133416   4.731   3.668   0.470
10839SOL    HW233417   4.679   3.800   0.550
10840SOL     OW33418   2.936   0.074   1.115
10840SOL    HW133419   2.942   0.172   1.096
10840SOL    HW233420   3.008   0.047   1.179
10841SOL     OW33421   1.196   5.202   5.018
10841SOL    HW133422   1.280   5.252   5.000
10841SOL    HW233423   1.131   5.216   4.943
10842SOL     OW33424   4.866   3.904   1.370
10842SOL    HW133425   4.882   4.000   1.392
10842SOL    HW233426   4.800   3.897   1.295
10843SOL     OW33427   1.864   1.664   1.319
10843SOL    HW133428   1.866   1.583   1.260
10843SOL    HW233429   1.883   1.637   1.413
10844SOL     OW33430   1.148   5.460   4.777
10844SOL    HW133431   1.234   5.421   4.745
10844SOL    HW233432   1.071   5.407   4.740
10845SOL     OW33433   4.687   6.057   5.393
10845SOL    HW133434   4.632   5.992   5.341
10845SOL    HW233435   4.783   6.048   5.365
10846SOL     OW33436   5.337   6.578   0.478
10846SOL    HW133437   5.273   6.643   0.436
10846SOL    HW233438   5.286   6.503   0.521
10847SOL     OW33439   1.848   1.599   6.963
10847SOL    HW133440   1.784   1.675   6.974
10847SOL    HW233441   1.805   1.515   6.998
10848SOL     OW33442   1.467   4.205   1.291
10848SOL    HW133443   1.537   4.194   1.220
10848SOL    HW233444   1.435   4.115   1.321
10849SOL     OW33445   2.989   5.493   3.820
10849SOL    HW133446   2.964   5.397   3.803
10849SOL    HW233447   2.907   5.550   3.816
10850SOL     OW33448   4.271   6.124   0.336
10850SOL    HW133449   4.222   6.038   0.320
10850SOL    HW233450   4.261   6.149   0.433
10851SOL     OW33451   2.398   4.471   1.972
10851SOL    HW133452   2.370   4.394   2.029
10851SOL    HW233453   2.318   4.508   1.925
10852SOL     OW33454   2.025   1.896   1.184
10852SOL    HW133455   1.979   1.824   1.237
10852SOL    HW233456   2.056   1.968   1.246
10853SOL     OW33457   2.033   2.286   6.099
10853SOL    HW133458   2.128   2.282   6.130
10853SOL    HW233459   1.999   2.380   6.107
10854SOL     OW33460   4.357   6.104   5.126
10854SOL    HW133461   4.400   6.024   5.168
10854SOL    HW233462   4.426   6.156   5.076
10855SOL     OW33463   2.844   1.501   0.876
10855SOL    HW133464   2.900   1.480   0.956
10855SOL    HW233465   2.887   1.466   0.794
10856SOL     OW33466   0.112   0.447   0.103
10856SOL    HW133467   0.031   0.502   0.084
10856SOL    HW233468   0.194   0.504   0.095
10857SOL     OW33469   6.481   1.287   2.374
10857SOL    HW133470   6.490   1.198   2.420
10857SOL    HW233471   6.533   1.356   2.425
10858SOL     OW33472   2.684   5.908   1.386
10858SOL    HW133473   2.662   5.849   1.463
10858SOL    HW233474   2.671   6.004   1.413
10859SOL     OW33475   0.696   5.248   4.148
10859SOL    HW133476   0.775   5.189   4.129
10859SOL    HW233477   0.728   5.336   4.181
10860SOL     OW33478   6.649   2.895   2.517
10860SOL    HW133479   6.581   2.913   2.446
10860SOL    HW233480   6.715   2.970   2.520
10861SOL     OW33481   3.257   3.107   4.227
10861SOL    HW133482   3.334   3.044   4.213
10861SOL    HW233483   3.193   3.067   4.292
10862SOL     OW33484   1.982   6.980   5.139
10862SOL    HW133485   1.960   7.007   5.233
10862SOL    HW233486   1.904   6.998   5.080
10863SOL     OW33487   3.233   5.952   4.758
10863SOL    HW133488   3.288   5.990   4.684
10863SOL    HW233489   3.277   5.870   4.795
10864SOL     OW33490   3.531   6.866   2.221
10864SOL    HW133491   3.463   6.830   2.285
10864SOL    HW233492   3.623   6.845   2.255
10865SOL     OW33493   5.661   1.422   6.644
10865SOL    HW133494   5.687   1.412   6.740
10865SOL    HW233495   5.565   1.451   6.639
10866SOL     OW33496   5.211   4.644   0.272
10866SOL    HW133497   5.206   4.599   0.183
10866SOL    HW233498   5.176   4.737   0.264
10867SOL     OW33499   3.450   3.879   0.668
10867SOL    HW133500   3.370   3.820   0.679
10867SOL    HW233501   3.533   3.825   0.680
10868SOL     OW33502   3.578   1.560   3.532
10868SOL    HW133503   3.528   1.504   3.598
10868SOL    HW233504   3.513   1.616   3.480
10869NA      NA33505   5.828   2.280   5.532
10870NA      NA33506   4.396   4.700   5.176
10871NA      NA33507   2.049   3.647   1.536
10872NA      NA33508   4.825   3.842   5.191
10873NA      NA33509   4.346   2.452   5.248
10874NA      NA33510   3.730   4.766   1.657
10875NA      NA33511   6.743   5.647   5.376
10876NA      NA33512   3.648   3.625   5.079
10877NA      NA33513   5.053   6.721   6.813
10878NA      NA33514   3.917   6.933   5.526
10879NA      NA33515   6.462   4.967   2.232
10880NA      NA33516   2.337   0.454   3.725
10881NA      NA33517   3.619   4.832   1.290
10882NA      NA33518   3.411   3.732   2.707
   7.02329   7.02329   7.02329
